<LesHouchesEvents version="3.0">
<header>
<!--
#*********************************************************************
#                                                                    *
#                        MadGraph5_aMC@NLO                           *
#                                                                    *
#                           Going Beyond                             *
#                                                                    *
#                   http://madgraph.hep.uiuc.edu                     *
#                   http://madgraph.phys.ucl.ac.be                   *
#                   http://amcatnlo.cern.ch                          *
#                                                                    *
#                     The MadGraph5_aMC@NLO team                     *
#                                                                    *
#....................................................................*
#                                                                    *
# This file contains all the information necessary to reproduce      *
# the events generated:                                              *
#                                                                    *
# 1. software version                                                *
# 2. proc_card          : code generation info including model       *
# 3. param_card         : model primary parameters in the LH format  *
# 4. run_card           : running parameters (collider and cuts)     *
# 5. pythia_card        : present only if pythia has been run        *
# 6. pgs_card           : present only if pgs has been run           *
# 7. delphes_cards      : present only if delphes has been run       *
#                                                                    *
#                                                                    *
#*********************************************************************
-->
<MGVersion>
#5.2.2.3
</MGVersion>
<MG5ProcCard>
#************************************************************
#*                     MadGraph5_aMC@NLO                    *
#*                                                          *
#*                *                       *                 *
#*                  *        * *        *                   *
#*                    * * * * 5 * * * *                     *
#*                  *        * *        *                   *
#*                *                       *                 *
#*                                                          *
#*                                                          *
#*         VERSION 2.2.3                 2015-02-10         *
#*                                                          *
#*    The MadGraph5_aMC@NLO Development Team - Find us at   *
#*    https://server06.fynu.ucl.ac.be/projects/madgraph     *
#*                                                          *
#************************************************************
#*                                                          *
#*               Command File for MadGraph5_aMC@NLO         *
#*                                                          *
#*     run as ./bin/mg5_aMC  filename                       *
#*                                                          *
#************************************************************
set group_subprocesses Auto
set ignore_six_quark_processes False
set loop_optimized_output True
set gauge unitary
set complex_mass_scheme False
import model sm
define p = g u c d s u~ c~ d~ s~
define j = g u c d s u~ c~ d~ s~
define l+ = e+ mu+
define l- = e- mu-
define vl = ve vm vt
define vl~ = ve~ vm~ vt~
import model Zprime_UFO
generate p p > zph, zph > j j
add process p p > zph, zph > b b~
output Dijet_signal
</MG5ProcCard>
<MGProcCard>
#*********************************************************************
#                        MadGraph/MadEvent                           *
#                   http://madgraph.hep.uiuc.edu                     *
#                                                                    *
#                          proc_card.dat                             *
#*********************************************************************
#                                                                    *
#            This Files is generated by MADGRAPH 5                   *
#                                                                    *
# WARNING: This Files is generated for MADEVENT (compatibility issue)*
#          This files is NOT a valid MG4 proc_card.dat               *
#          Running this in MG4 will NEVER reproduce the result of MG5*
#                                                                    *
#*********************************************************************
#*********************************************************************
# Process(es) requested : mg2 input                                  *
#*********************************************************************
# Begin PROCESS # This is TAG. Do not modify this line
p p > zph , zph > j j           #Process
# Be carefull the coupling are here in MG5 convention
          
end_coup           # End the couplings input

done               # this tells MG there are no more procs
# End PROCESS  # This is TAG. Do not modify this line
#*********************************************************************
# Model information                                                  *
#*********************************************************************
# Begin MODEL  # This is TAG. Do not modify this line
Zprime_UFO
# End   MODEL  # This is TAG. Do not modify this line
#*********************************************************************
# Start multiparticle definitions                                    *
#*********************************************************************
# Begin MULTIPARTICLES # This is TAG. Do not modify this line

# End  MULTIPARTICLES # This is TAG. Do not modify this line
</MGProcCard>
<MGRunCard>
#*********************************************************************
#                       MadGraph5_aMC@NLO                            *
#                                                                    *
#                     run_card.dat MadEvent                          *
#                                                                    *
#  This file is used to set the parameters of the run.               *
#                                                                    *
#  Some notation/conventions:                                        *
#                                                                    *
#   Lines starting with a '# ' are info or comments                  *
#                                                                    *
#   mind the format:   value    = variable     ! comment             *
#*********************************************************************
#
#*******************                                                 
# Running parameters
#*******************                                                 
#                                                                    
#*********************************************************************
# Tag name for the run (one word)                                    *
#*********************************************************************
  tag_1     = run_tag ! name of the run 
#*********************************************************************
# Run to generate the grid pack                                      *
#*********************************************************************
  .false.     = gridpack  !True = setting up the grid pack
#*********************************************************************
# Number of events and rnd seed                                      *
# Warning: Do not generate more than 1M events in a single run       *
# If you want to run Pythia, avoid more than 50k events in a run.    *
#*********************************************************************
  2000 = nevents ! Number of unweighted events requested 
 2397 = iseed   ! rnd seed (0=assigned automatically=default))
#*********************************************************************
# Collider type and energy                                           *
# lpp: 0=No PDF, 1=proton, -1=antiproton, 2=photon from proton,      *
#                                         3=photon from electron     *
#*********************************************************************
        1     = lpp1    ! beam 1 type 
        1     = lpp2    ! beam 2 type
     4000     = ebeam1  ! beam 1 total energy in GeV
     4000     = ebeam2  ! beam 2 total energy in GeV
#*********************************************************************
# Beam polarization from -100 (left-handed) to 100 (right-handed)    *
#*********************************************************************
        0     = polbeam1 ! beam polarization for beam 1
        0     = polbeam2 ! beam polarization for beam 2
#*********************************************************************
# PDF CHOICE: this automatically fixes also alpha_s and its evol.    *
#*********************************************************************
 'nn23lo1'    = pdlabel     ! PDF set                                     
 230000    = lhaid     ! if pdlabel=lhapdf, this is the lhapdf number
#*********************************************************************
# Renormalization and factorization scales                           *
#*********************************************************************
 F        = fixed_ren_scale  ! if .true. use fixed ren scale
 F        = fixed_fac_scale  ! if .true. use fixed fac scale
 91.1880  = scale            ! fixed ren scale
 91.1880  = dsqrt_q2fact1    ! fixed fact scale for pdf1
 91.1880  = dsqrt_q2fact2    ! fixed fact scale for pdf2
 1        = scalefact        ! scale factor for event-by-event scales
#*********************************************************************
# Matching - Warning! ickkw > 1 is still beta
#*********************************************************************
 0        = ickkw            ! 0 no matching, 1 MLM, 2 CKKW matching
 1        = highestmult      ! for ickkw=2, highest mult group
 1        = ktscheme         ! for ickkw=1, 1 Durham kT, 2 Pythia pTE
 1        = alpsfact         ! scale factor for QCD emission vx
 F        = chcluster        ! cluster only according to channel diag
 T        = pdfwgt           ! for ickkw=1, perform pdf reweighting
 5        = asrwgtflavor     ! highest quark flavor for a_s reweight
 T        = clusinfo         ! include clustering tag in output
 3.0      = lhe_version       ! Change the way clustering information pass to shower.        
#*********************************************************************
#**********************************************************
#
#**********************************************************
# Automatic ptj and mjj cuts if xqcut > 0
# (turn off for VBF and single top processes)
#**********************************************************
   T  = auto_ptj_mjj  ! Automatic setting of ptj and mjj
#**********************************************************
#                                                                    
#**********************************
# BW cutoff (M+/-bwcutoff*Gamma)
#**********************************
  15  = bwcutoff      ! (M+/-bwcutoff*Gamma)
#**********************************************************
# Apply pt/E/eta/dr/mij cuts on decay products or not
# (note that etmiss/ptll/ptheavy/ht/sorted cuts always apply)
#**********************************************************
   T  = cut_decays    ! Cut decay products 
#*************************************************************
# Number of helicities to sum per event (0 = all helicities)
# 0 gives more stable result, but longer run time (needed for
# long decay chains e.g.).
# Use >=2 if most helicities contribute, e.g. pure QCD.
#*************************************************************
   0  = nhel          ! Number of helicities used per event
#*******************                                                 
# Standard Cuts
#*******************                                                 
#                                                                    
#*********************************************************************
# Minimum and maximum pt's (for max, -1 means no cut)                *
#*********************************************************************
 20  = ptj       ! minimum pt for the jets 
  0  = ptb       ! minimum pt for the b 
 10  = pta       ! minimum pt for the photons 
 10  = ptl       ! minimum pt for the charged leptons 
  0  = misset    ! minimum missing Et (sum of neutrino's momenta)
  0  = ptheavy   ! minimum pt for one heavy final state
 1.0 = ptonium   ! minimum pt for the quarkonium states
 -1  = ptjmax    ! maximum pt for the jets
 -1  = ptbmax    ! maximum pt for the b
 -1  = ptamax    ! maximum pt for the photons
 -1  = ptlmax    ! maximum pt for the charged leptons
 -1  = missetmax ! maximum missing Et (sum of neutrino's momenta)
#*********************************************************************
# Minimum and maximum E's (in the center of mass frame)              *
#*********************************************************************
  0  = ej     ! minimum E for the jets 
  0  = eb     ! minimum E for the b 
  0  = ea     ! minimum E for the photons 
  0  = el     ! minimum E for the charged leptons 
 -1   = ejmax ! maximum E for the jets
 -1   = ebmax ! maximum E for the b
 -1   = eamax ! maximum E for the photons
 -1   = elmax ! maximum E for the charged leptons
#*********************************************************************
# Maximum and minimum absolute rapidity (for max, -1 means no cut)   *
#*********************************************************************
   5  = etaj    ! max rap for the jets 
  -1  = etab    ! max rap for the b
 2.5  = etaa    ! max rap for the photons 
 2.5  = etal    ! max rap for the charged leptons 
 0.6  = etaonium ! max rap for the quarkonium states
   0  = etajmin ! min rap for the jets
   0  = etabmin ! min rap for the b
   0  = etaamin ! min rap for the photons
   0  = etalmin ! main rap for the charged leptons
#*********************************************************************
# Minimum and maximum DeltaR distance                                *
#*********************************************************************
 0.4 = drjj    ! min distance between jets 
 0   = drbb    ! min distance between b's 
 0.4 = drll    ! min distance between leptons 
 0.4 = draa    ! min distance between gammas 
 0   = drbj    ! min distance between b and jet 
 0.4 = draj    ! min distance between gamma and jet 
 0.4 = drjl    ! min distance between jet and lepton 
 0   = drab    ! min distance between gamma and b 
 0   = drbl    ! min distance between b and lepton 
 0.4 = dral    ! min distance between gamma and lepton 
 -1  = drjjmax ! max distance between jets
 -1  = drbbmax ! max distance between b's
 -1  = drllmax ! max distance between leptons
 -1  = draamax ! max distance between gammas
 -1  = drbjmax ! max distance between b and jet
 -1  = drajmax ! max distance between gamma and jet
 -1  = drjlmax ! max distance between jet and lepton
 -1  = drabmax ! max distance between gamma and b
 -1  = drblmax ! max distance between b and lepton
 -1  = dralmax ! maxdistance between gamma and lepton
#*********************************************************************
# Minimum and maximum invariant mass for pairs                       *
# WARNING: for four lepton final state mmll cut require to have      *
#          different lepton masses for each flavor!                  *           
#*********************************************************************
 0   = mmjj    ! min invariant mass of a jet pair 
 0   = mmbb    ! min invariant mass of a b pair 
 0   = mmaa    ! min invariant mass of gamma gamma pair
 0   = mmll    ! min invariant mass of l+l- (same flavour) lepton pair
 -1  = mmjjmax ! max invariant mass of a jet pair
 -1  = mmbbmax ! max invariant mass of a b pair
 -1  = mmaamax ! max invariant mass of gamma gamma pair
 -1  = mmllmax ! max invariant mass of l+l- (same flavour) lepton pair
#*********************************************************************
# Minimum and maximum invariant mass for all letpons                 *
#*********************************************************************
 0   = mmnl    ! min invariant mass for all letpons (l+- and vl) 
 -1  = mmnlmax ! max invariant mass for all letpons (l+- and vl) 
#*********************************************************************
# Minimum and maximum pt for 4-momenta sum of leptons                *
#*********************************************************************
 0   = ptllmin  ! Minimum pt for 4-momenta sum of leptons(l and vl)
 -1  = ptllmax  ! Maximum pt for 4-momenta sum of leptons(l and vl)
#*********************************************************************
# Inclusive cuts                                                     *
#*********************************************************************
 0  = xptj ! minimum pt for at least one jet  
 0  = xptb ! minimum pt for at least one b 
 0  = xpta ! minimum pt for at least one photon 
 0  = xptl ! minimum pt for at least one charged lepton 
#*********************************************************************
# Control the pt's of the jets sorted by pt                          *
#*********************************************************************
 0   = ptj1min ! minimum pt for the leading jet in pt
 0   = ptj2min ! minimum pt for the second jet in pt
 0   = ptj3min ! minimum pt for the third jet in pt
 0   = ptj4min ! minimum pt for the fourth jet in pt
 -1  = ptj1max ! maximum pt for the leading jet in pt 
 -1  = ptj2max ! maximum pt for the second jet in pt
 -1  = ptj3max ! maximum pt for the third jet in pt
 -1  = ptj4max ! maximum pt for the fourth jet in pt
 0   = cutuse  ! reject event if fails any (0) / all (1) jet pt cuts
#*********************************************************************
# Control the pt's of leptons sorted by pt                           *
#*********************************************************************
 0   = ptl1min ! minimum pt for the leading lepton in pt
 0   = ptl2min ! minimum pt for the second lepton in pt
 0   = ptl3min ! minimum pt for the third lepton in pt
 0   = ptl4min ! minimum pt for the fourth lepton in pt
 -1  = ptl1max ! maximum pt for the leading lepton in pt 
 -1  = ptl2max ! maximum pt for the second lepton in pt
 -1  = ptl3max ! maximum pt for the third lepton in pt
 -1  = ptl4max ! maximum pt for the fourth lepton in pt
#*********************************************************************
# Control the Ht(k)=Sum of k leading jets                            *
#*********************************************************************
 0   = htjmin ! minimum jet HT=Sum(jet pt)
 -1  = htjmax ! maximum jet HT=Sum(jet pt)
 0   = ihtmin  !inclusive Ht for all partons (including b)
 -1  = ihtmax  !inclusive Ht for all partons (including b)
 0   = ht2min ! minimum Ht for the two leading jets
 0   = ht3min ! minimum Ht for the three leading jets
 0   = ht4min ! minimum Ht for the four leading jets
 -1  = ht2max ! maximum Ht for the two leading jets
 -1  = ht3max ! maximum Ht for the three leading jets
 -1  = ht4max ! maximum Ht for the four leading jets
#***********************************************************************
# Photon-isolation cuts, according to hep-ph/9801442                   *
# When ptgmin=0, all the other parameters are ignored                  *
# When ptgmin>0, pta and draj are not going to be used                 *
#***********************************************************************
   0 = ptgmin ! Min photon transverse momentum
 0.4 = R0gamma ! Radius of isolation code
 1.0 = xn ! n parameter of eq.(3.4) in hep-ph/9801442
 1.0 = epsgamma ! epsilon_gamma parameter of eq.(3.4) in hep-ph/9801442
 .true. = isoEM ! isolate photons from EM energy (photons and leptons)
#*********************************************************************
# WBF cuts                                                           *
#*********************************************************************
 0   = xetamin ! minimum rapidity for two jets in the WBF case  
 0   = deltaeta ! minimum rapidity for two jets in the WBF case 
#*********************************************************************
# KT DURHAM CUT                                                      *
#*********************************************************************
 -1    =  ktdurham        
 0.4  =  dparameter 
#*********************************************************************
# maximal pdg code for quark to be considered as a light jet         *
# (otherwise b cuts are applied)                                     *
#*********************************************************************
 4 = maxjetflavor    ! Maximum jet pdg code
#*********************************************************************
# Jet measure cuts                                                   *
#*********************************************************************
 0   = xqcut   ! minimum kt jet measure between partons
#*********************************************************************
#
#*********************************************************************
# Store info for systematics studies                                 *
# WARNING: If use_syst is T, matched Pythia output is                *
#          meaningful ONLY if plotted taking matchscale              *
#          reweighting into account!                                 *
#*********************************************************************
   F  = use_syst      ! Enable systematics studies
#
#**************************************
# Parameter of the systematics study
#  will be used by SysCalc (if installed)
#**************************************                                  
#
0.5 1 2 = sys_scalefact  # factorization/renormalization scale factor
0.5 1 2 = sys_alpsfact  # \alpha_s emission scale factors
30 50 = sys_matchscale # variation of merging scale
# PDF sets and number of members (0 or none for all members).
CT10nlo.LHgrid = sys_pdf # matching scales
# MSTW2008nlo68cl.LHgrid 1  = sys_pdf
</MGRunCard>
<slha>
######################################################################
## PARAM_CARD AUTOMATICALY GENERATED BY MG5 FOLLOWING UFO MODEL   ####
######################################################################
##                                                                  ##
##  Width set on Auto will be computed following the information    ##
##        present in the decay.py files of the model.               ##
##        See  arXiv:1402.1178 for more details.                    ##
##                                                                  ##
######################################################################

###################################
## INFORMATION FOR CKMBLOCK
###################################
Block ckmblock 
    1 2.277360e-01 # cabi 

###################################
## INFORMATION FOR FRBLOCK
###################################
Block frblock 
    1 1.200000e+00 # gz 

###################################
## INFORMATION FOR MASS
###################################
Block mass 
    1 5.040000e-03 # MD 
    2 2.550000e-03 # MU 
    3 1.010000e-01 # MS 
    4 1.270000e+00 # MC 
    5 4.700000e+00 # MB 
    6 1.720000e+02 # MT 
   11 5.110000e-04 # Me 
   13 1.056600e-01 # MM 
   15 1.777000e+00 # MTA 
   23 9.118760e+01 # MZ 
   25 1.200000e+02 # MH 
  10030 3.600000e+03 # MZph 
  10031 3.000000e+02 # MZpl 
## Dependent parameters, given by model restrictions.
## Those values should be edited following the 
## analytical expression. MG5 ignores those values 
## but they are important for interfacing the output of MG5
## to external program such as Pythia.
  12 0.000000 # ve : 0.0 
  14 0.000000 # vm : 0.0 
  16 0.000000 # vt : 0.0 
  21 0.000000 # g : 0.0 
  22 0.000000 # a : 0.0 
  24 79.824360 # w+ : cmath.sqrt(MZ__exp__2/2. + cmath.sqrt(MZ__exp__4/4. - (aEW*cmath.pi*MZ__exp__2)/(Gf*sqrt__2))) 

###################################
## INFORMATION FOR SMINPUTS
###################################
Block sminputs 
    1 1.279000e+02 # aEWM1 
    2 1.166370e-05 # Gf 
    3 1.184000e-01 # aS 

###################################
## INFORMATION FOR YUKAWA
###################################
Block yukawa 
    1 5.040000e-03 # ymdo 
    2 2.550000e-03 # ymup 
    3 1.010000e-01 # yms 
    4 1.270000e+00 # ymc 
    5 4.700000e+00 # ymb 
    6 1.720000e+02 # ymt 
   11 5.110000e-04 # yme 
   13 1.056600e-01 # ymm 
   15 1.777000e+00 # ymtau 

###################################
## INFORMATION FOR DECAY
###################################
DECAY   6 1.508336e+00 # WT 
DECAY  23 2.495200e+00 # WZ 
DECAY  24 2.085000e+00 # WW 
DECAY  25 5.753088e-03 # WH 
## Dependent parameters, given by model restrictions.
## Those values should be edited following the 
## analytical expression. MG5 ignores those values 
## but they are important for interfacing the output of MG5
## to external program such as Pythia.
DECAY  1 0.000000 # d : 0.0 
DECAY  2 0.000000 # u : 0.0 
DECAY  3 0.000000 # s : 0.0 
DECAY  4 0.000000 # c : 0.0 
DECAY  5 0.000000 # b : 0.0 
DECAY  11 0.000000 # e- : 0.0 
DECAY  12 0.000000 # ve : 0.0 
DECAY  13 0.000000 # mu- : 0.0 
DECAY  14 0.000000 # vm : 0.0 
DECAY  15 0.000000 # ta- : 0.0 
DECAY  16 0.000000 # vt : 0.0 
DECAY  21 0.000000 # g : 0.0 
DECAY  22 0.000000 # a : 0.0 
DECAY  10030 0.308725 # zph : (gz__exp__2*MZph*(5 + cmath.sqrt(1 - (4*MT__exp__2)/MZph__exp__2)))/(144.*cmath.pi) 
DECAY  10031 0.132629 # zpl : (5*gz__exp__2*MZpl)/(144.*cmath.pi) 
#===========================================================
# QUANTUM NUMBERS OF NEW STATE(S) (NON SM PDG CODE)
#===========================================================

Block QNUMBERS 10030  # zph 
        1 0  # 3 times electric charge
        2 3  # number of spin states (2S+1)
        3 1  # colour rep (1: singlet, 3: triplet, 8: octet)
        4 0  # Particle/Antiparticle distinction (0=own anti)
Block QNUMBERS 10031  # zpl 
        1 0  # 3 times electric charge
        2 3  # number of spin states (2S+1)
        3 1  # colour rep (1: singlet, 3: triplet, 8: octet)
        4 0  # Particle/Antiparticle distinction (0=own anti)
</slha>
## END BANNER##
<MGGenerationInfo>
#  Number of Events        :         3880
#  Integrated weight (pb)  :  0.25279E-03
#  Max wgt                 :  0.10317E-06
#  Average wgt             :  0.65152E-07
</MGGenerationInfo>
</header>
<init>
     2212     2212  0.40000000000E+04  0.40000000000E+04 0 0  247000  247000 2   1
  0.25289353569E-03  0.69112294868E-06  0.10316590000E-06   0
</init>
<event>
 5   0  0.1006019E-06  0.3541018E+04  0.7818609E-02  0.8104138E-01
        2   -1    0    0  501    0  0.00000000000E+00  0.00000000000E+00  0.24277330058E+04  0.24277330058E+04  0.25500000920E-02 0. -1.
       -2   -1    0    0    0  501  0.00000000000E+00  0.00000000000E+00 -0.12912052447E+04  0.12912052447E+04  0.25500000920E-02 0.  1.
    10030    2    1    2    0    0  0.00000000000E+00  0.00000000000E+00  0.11365277611E+04  0.37189382505E+04  0.35410177010E+04 0.  0.
        1    1    3    3  502    0  0.71333216658E+03 -0.99074486669E+03  0.19149897676E+04  0.22710358828E+04  0.50400001928E-02 0. -1.
       -1    1    3    3    0  502 -0.71333216658E+03  0.99074486669E+03 -0.77846200652E+03  0.14479023677E+04  0.50400001928E-02 0.  1.
</event>
<event>
 5   0  0.1006019E-06  0.3575405E+04  0.7818609E-02  0.8096149E-01
        2   -1    0    0  501    0  0.00000000000E+00  0.00000000000E+00  0.29877503964E+04  0.29877503964E+04  0.25500000920E-02 0.  1.
       -2   -1    0    0    0  501  0.00000000000E+00  0.00000000000E+00 -0.10696610703E+04  0.10696610703E+04  0.25500000920E-02 0. -1.
    10030    2    1    2    0    0  0.00000000000E+00  0.00000000000E+00  0.19180893262E+04  0.40574114667E+04  0.35754050325E+04 0.  0.
        1    1    3    3  502    0 -0.53809183170E+03 -0.36412592373E+03  0.28490256945E+04  0.29221700696E+04  0.50400001928E-02 0.  1.
       -1    1    3    3    0  502  0.53809183170E+03  0.36412592373E+03 -0.93093636835E+03  0.11352413971E+04  0.50400001928E-02 0. -1.
</event>
<event>
 5   0  0.9878336E-07  0.2761323E+04  0.7818609E-02  0.8315378E-01
       -2   -1    0    0    0  501  0.00000000000E+00  0.00000000000E+00  0.76053926329E+03  0.76053926330E+03  0.25500000920E-02 0.  1.
        2   -1    0    0  501    0  0.00000000000E+00  0.00000000000E+00 -0.25064137774E+04  0.25064137774E+04  0.25500000920E-02 0. -1.
    10030    2    1    2    0    0  0.00000000000E+00  0.00000000000E+00 -0.17458745141E+04  0.32669530407E+04  0.27613229350E+04 0.  0.
        3    1    3    3  502    0  0.11386809914E+04  0.87908832770E+02  0.44949710535E+02  0.11429535641E+04  0.10100000352E+00 0.  1.
       -3    1    3    3    0  502 -0.11386809914E+04 -0.87908832770E+02 -0.17908242247E+04  0.21239994767E+04  0.10100000352E+00 0. -1.
</event>
<event>
 5   0  0.1006019E-06  0.3527413E+04  0.7818609E-02  0.8107324E-01
        2   -1    0    0  501    0  0.00000000000E+00  0.00000000000E+00  0.19015287366E+04  0.19015287366E+04  0.25500000920E-02 0. -1.
       -2   -1    0    0    0  501  0.00000000000E+00  0.00000000000E+00 -0.16358739742E+04  0.16358739742E+04  0.25500000920E-02 0.  1.
    10030    2    1    2    0    0  0.00000000000E+00  0.00000000000E+00  0.26565476244E+03  0.35374027108E+04  0.35274134271E+04 0.  0.
        1    1    3    3  502    0  0.10491406797E+04  0.79783835129E+03  0.13080758476E+04  0.18569611261E+04  0.50400001928E-02 0. -1.
       -1    1    3    3    0  502 -0.10491406797E+04 -0.79783835129E+03 -0.10424210852E+04  0.16804415847E+04  0.50400001928E-02 0.  1.
</event>
<event>
 5   0  0.9878336E-07  0.3582273E+04  0.7818609E-02  0.8094564E-01
        2   -1    0    0  501    0  0.00000000000E+00  0.00000000000E+00  0.15587435426E+04  0.15587435426E+04  0.25500000920E-02 0.  1.
       -2   -1    0    0    0  501  0.00000000000E+00  0.00000000000E+00 -0.20581772560E+04  0.20581772560E+04  0.25500000920E-02 0. -1.
    10030    2    1    2    0    0  0.00000000000E+00  0.00000000000E+00 -0.49943371338E+03  0.36169207986E+04  0.35822733047E+04 0.  0.
        3    1    3    3  502    0 -0.17397793993E+04  0.42486984934E+03 -0.27869549490E+03  0.18124618441E+04  0.10100000352E+00 0. -1.
       -3    1    3    3    0  502  0.17397793993E+04 -0.42486984934E+03 -0.22073821848E+03  0.18044589545E+04  0.10100000352E+00 0.  1.
</event>
<event>
 5   0  0.3242047E-07  0.3631585E+04  0.7818609E-02  0.8083295E-01
        1   -1    0    0  501    0  0.00000000000E+00  0.00000000000E+00  0.16694478308E+04  0.16694478308E+04  0.50400001928E-02 0.  1.
       -1   -1    0    0    0  501  0.00000000000E+00  0.00000000000E+00 -0.19749652834E+04  0.19749652834E+04  0.50400001928E-02 0. -1.
    10030    2    1    2    0    0  0.00000000000E+00  0.00000000000E+00 -0.30551745260E+03  0.36444131142E+04  0.36315845072E+04 0.  0.
        1    1    3    3  502    0 -0.89796145376E+03 -0.12105773405E+04  0.86337393196E+03  0.17370223994E+04  0.50400001928E-02 0.  1.
       -1    1    3    3    0  502  0.89796145376E+03  0.12105773405E+04 -0.11688913846E+04  0.19073907147E+04  0.50400001928E-02 0. -1.
</event>
<event>
 5   0  0.3365378E-07  0.3542440E+04  0.7818609E-02  0.8103805E-01
       -1   -1    0    0    0  501  0.00000000000E+00  0.00000000000E+00  0.28013691681E+04  0.28013691681E+04  0.50400001928E-02 0. -1.
        1   -1    0    0  501    0  0.00000000000E+00  0.00000000000E+00 -0.11198884598E+04  0.11198884598E+04  0.50400001928E-02 0.  1.
    10030    2    1    2    0    0  0.00000000000E+00  0.00000000000E+00  0.16814807082E+04  0.39212576279E+04  0.35424404035E+04 0.  0.
        3    1    3    3  502    0  0.16596081917E+04 -0.69739062365E+02  0.15213562708E+04  0.22524848056E+04  0.10100000352E+00 0. -1.
       -3    1    3    3    0  502 -0.16596081917E+04  0.69739062365E+02  0.16012443743E+03  0.16687728223E+04  0.10100000352E+00 0.  1.
</event>
<event>
 5   0  0.1006019E-06  0.3625295E+04  0.7818609E-02  0.8084722E-01
       -2   -1    0    0    0  501  0.00000000000E+00  0.00000000000E+00  0.21616647826E+04  0.21616647826E+04  0.25500000920E-02 0.  1.
        2   -1    0    0  501    0  0.00000000000E+00  0.00000000000E+00 -0.15199819159E+04  0.15199819159E+04  0.25500000920E-02 0. -1.
    10030    2    1    2    0    0  0.00000000000E+00  0.00000000000E+00  0.64168286674E+03  0.36816466985E+04  0.36252952309E+04 0.  0.
        1    1    3    3  502    0 -0.65173895854E+03 -0.75804549917E+02 -0.13951518416E+04  0.15417388433E+04  0.50400001928E-02 0. -1.
       -1    1    3    3    0  502  0.65173895854E+03  0.75804549917E+02  0.20368347083E+04  0.21399078552E+04  0.50400001928E-02 0.  1.
</event>
<event>
 5   0  0.3159875E-07  0.3331155E+04  0.7818609E-02  0.8155013E-01
       -1   -1    0    0    0  501  0.00000000000E+00  0.00000000000E+00  0.14115850705E+04  0.14115850705E+04  0.50400001928E-02 0.  1.
        1   -1    0    0  501    0  0.00000000000E+00  0.00000000000E+00 -0.19652722586E+04  0.19652722586E+04  0.50400001928E-02 0. -1.
    10030    2    1    2    0    0  0.00000000000E+00  0.00000000000E+00 -0.55368718811E+03  0.33768573290E+04  0.33311553429E+04 0.  0.
        2    1    3    3  502    0  0.13977723561E+04  0.74149151728E+03  0.25045796064E+03  0.16019695439E+04  0.25500000920E-02 0. -1.
       -2    1    3    3    0  502 -0.13977723561E+04 -0.74149151728E+03 -0.80414514875E+03  0.17748877851E+04  0.25500000920E-02 0.  1.
</event>
<event>
 5   0  0.1006019E-06  0.3561847E+04  0.7818609E-02  0.8099287E-01
       -2   -1    0    0    0  501  0.00000000000E+00  0.00000000000E+00  0.20587245142E+04  0.20587245142E+04  0.25500000920E-02 0. -1.
        2   -1    0    0  501    0  0.00000000000E+00  0.00000000000E+00 -0.15406087286E+04  0.15406087286E+04  0.25500000920E-02 0.  1.
    10030    2    1    2    0    0  0.00000000000E+00  0.00000000000E+00  0.51811578561E+03  0.35993332428E+04  0.35618472490E+04 0.  0.
        1    1    3    3  502    0 -0.44251878309E+03  0.13408162097E+03 -0.14788935740E+04  0.15494924839E+04  0.50400001928E-02 0.  1.
       -1    1    3    3    0  502  0.44251878309E+03 -0.13408162097E+03  0.19970093596E+04  0.20498407589E+04  0.50400001928E-02 0. -1.
</event>
<event>
 5   0  0.3159875E-07  0.3584844E+04  0.7818609E-02  0.8093972E-01
       -1   -1    0    0    0  501  0.00000000000E+00  0.00000000000E+00  0.15081977294E+04  0.15081977294E+04  0.50400001928E-02 0. -1.
        1   -1    0    0  501    0  0.00000000000E+00  0.00000000000E+00 -0.21302089005E+04  0.21302089005E+04  0.50400001928E-02 0.  1.
    10030    2    1    2    0    0  0.00000000000E+00  0.00000000000E+00 -0.62201117117E+03  0.36384066299E+04  0.35848437773E+04 0.  0.
        2    1    3    3  502    0  0.10232314507E+03  0.17305049874E+04 -0.77351018306E+03  0.18982717247E+04  0.25500000920E-02 0.  1.
       -2    1    3    3    0  502 -0.10232314507E+03 -0.17305049874E+04  0.15149901189E+03  0.17401349052E+04  0.25500000920E-02 0. -1.
</event>
<event>
 5   0  0.9878977E-07  0.3600534E+04  0.7818609E-02  0.8090369E-01
        2   -1    0    0  501    0  0.00000000000E+00  0.00000000000E+00  0.26060138386E+04  0.26060138386E+04  0.25500000920E-02 0. -1.
       -2   -1    0    0    0  501  0.00000000000E+00  0.00000000000E+00 -0.12436473027E+04  0.12436473027E+04  0.25500000920E-02 0.  1.
    10030    2    1    2    0    0  0.00000000000E+00  0.00000000000E+00  0.13623665360E+04  0.38496611413E+04  0.36005344499E+04 0.  0.
        5    1    3    3  502    0  0.13211706678E+04  0.71637654473E+03 -0.37847821619E+03  0.15498242279E+04  0.46999998093E+01 0.  1.
       -5    1    3    3    0  502 -0.13211706678E+04 -0.71637654473E+03  0.17408447522E+04  0.22998369134E+04  0.46999998093E+01 0. -1.
</event>
<event>
 5   0  0.3159875E-07  0.3604781E+04  0.7818609E-02  0.8089398E-01
        1   -1    0    0  501    0  0.00000000000E+00  0.00000000000E+00  0.27350893344E+04  0.27350893344E+04  0.50400001928E-02 0. -1.
       -1   -1    0    0    0  501  0.00000000000E+00  0.00000000000E+00 -0.11877530303E+04  0.11877530303E+04  0.50400001928E-02 0.  1.
    10030    2    1    2    0    0  0.00000000000E+00  0.00000000000E+00  0.15473363041E+04  0.39228423647E+04  0.36047805176E+04 0.  0.
        5    1    3    3  502    0 -0.11423806564E+04  0.12850830108E+04  0.13618345135E+04  0.21934190755E+04  0.46999998093E+01 0. -1.
       -5    1    3    3    0  502  0.11423806564E+04 -0.12850830108E+04  0.18550179063E+03  0.17294232892E+04  0.46999998093E+01 0.  1.
</event>
<event>
 5   0  0.3242047E-07  0.3575502E+04  0.7818609E-02  0.8096126E-01
        1   -1    0    0  501    0  0.00000000000E+00  0.00000000000E+00  0.21745741314E+04  0.21745741314E+04  0.50400001928E-02 0. -1.
       -1   -1    0    0    0  501  0.00000000000E+00  0.00000000000E+00 -0.14697380137E+04  0.14697380137E+04  0.50400001928E-02 0.  1.
    10030    2    1    2    0    0  0.00000000000E+00  0.00000000000E+00  0.70483611778E+03  0.36443121451E+04  0.35755023504E+04 0.  0.
        1    1    3    3  502    0 -0.16800037858E+04  0.55641476434E+03  0.61035779279E+03  0.18720434679E+04  0.50400001928E-02 0. -1.
       -1    1    3    3    0  502  0.16800037858E+04 -0.55641476434E+03  0.94478324983E+02  0.17722686772E+04  0.50400001928E-02 0.  1.
</event>
<event>
 5   0  0.3365378E-07  0.3238091E+04  0.7818609E-02  0.8178829E-01
       -1   -1    0    0    0  501  0.00000000000E+00  0.00000000000E+00  0.85871225583E+03  0.85871225585E+03  0.50400001928E-02 0.  1.
        1   -1    0    0  501    0  0.00000000000E+00  0.00000000000E+00 -0.30526042327E+04  0.30526042327E+04  0.50400001928E-02 0. -1.
    10030    2    1    2    0    0  0.00000000000E+00  0.00000000000E+00 -0.21938919769E+04  0.39113164886E+04  0.32380912074E+04 0.  0.
        3    1    3    3  502    0 -0.28322865605E+03 -0.62923499671E+03  0.67219754349E+03  0.96333000595E+03  0.10100000352E+00 0.  1.
       -3    1    3    3    0  502  0.28322865605E+03  0.62923499671E+03 -0.28660895204E+04  0.29479864826E+04  0.10100000352E+00 0. -1.
</event>
<event>
 5   0  0.3365378E-07  0.3675715E+04  0.7818609E-02  0.8073365E-01
        1   -1    0    0  501    0  0.00000000000E+00  0.00000000000E+00  0.17618647512E+04  0.17618647512E+04  0.50400001928E-02 0. -1.
       -1   -1    0    0    0  501  0.00000000000E+00  0.00000000000E+00 -0.19171278757E+04  0.19171278758E+04  0.50400001928E-02 0.  1.
    10030    2    1    2    0    0  0.00000000000E+00  0.00000000000E+00 -0.15526312455E+03  0.36789926270E+04  0.36757149116E+04 0.  0.
        3    1    3    3  502    0  0.11575383118E+04  0.14188363986E+04 -0.23502428656E+03  0.18461386987E+04  0.10100000352E+00 0.  1.
       -3    1    3    3    0  502 -0.11575383118E+04 -0.14188363986E+04  0.79761162011E+02  0.18328539283E+04  0.10100000352E+00 0. -1.
</event>
<event>
 5   0  0.1006019E-06  0.3563638E+04  0.7818609E-02  0.8098872E-01
       -2   -1    0    0    0  501  0.00000000000E+00  0.00000000000E+00  0.17541503225E+04  0.17541503225E+04  0.25500000920E-02 0. -1.
        2   -1    0    0  501    0  0.00000000000E+00  0.00000000000E+00 -0.18099239892E+04  0.18099239892E+04  0.25500000920E-02 0.  1.
    10030    2    1    2    0    0  0.00000000000E+00  0.00000000000E+00 -0.55773666645E+02  0.35640743117E+04  0.35636378881E+04 0.  0.
        1    1    3    3  502    0  0.38175129951E+03 -0.14747728857E+03 -0.17622834993E+04  0.18091784703E+04  0.50400001928E-02 0.  1.
       -1    1    3    3    0  502 -0.38175129951E+03  0.14747728857E+03  0.17065098327E+04  0.17548958414E+04  0.50400001928E-02 0. -1.
</event>
<event>
 5   0  0.3278988E-07  0.3276091E+04  0.7818609E-02  0.8169006E-01
       -1   -1    0    0    0  501  0.00000000000E+00  0.00000000000E+00  0.18001263524E+04  0.18001263524E+04  0.50400001928E-02 0.  1.
        1   -1    0    0  501    0  0.00000000000E+00  0.00000000000E+00 -0.14905580980E+04  0.14905580980E+04  0.50400001928E-02 0. -1.
    10030    2    1    2    0    0  0.00000000000E+00  0.00000000000E+00  0.30956825443E+03  0.32906844504E+04  0.32760909096E+04 0.  0.
        4    1    3    3  502    0  0.14875538233E+04 -0.11162069529E+03 -0.52492496817E+03  0.15813991880E+04  0.12699999809E+01 0.  1.
       -4    1    3    3    0  502 -0.14875538233E+04  0.11162069529E+03  0.83449322260E+03  0.17092852624E+04  0.12699999809E+01 0. -1.
</event>
<event>
 5   0  0.3242047E-07  0.3611203E+04  0.7818609E-02  0.8087930E-01
        1   -1    0    0  501    0  0.00000000000E+00  0.00000000000E+00  0.15541028362E+04  0.15541028362E+04  0.50400001928E-02 0. -1.
       -1   -1    0    0    0  501  0.00000000000E+00  0.00000000000E+00 -0.20977999935E+04  0.20977999935E+04  0.50400001928E-02 0.  1.
    10030    2    1    2    0    0  0.00000000000E+00  0.00000000000E+00 -0.54369715728E+03  0.36519028297E+04  0.36112030791E+04 0.  0.
        1    1    3    3  502    0 -0.32219315097E+03 -0.42931826897E+03  0.14715517905E+04  0.15663930780E+04  0.50400001928E-02 0. -1.
       -1    1    3    3    0  502  0.32219315097E+03  0.42931826897E+03 -0.20152489478E+04  0.20855097517E+04  0.50400001928E-02 0.  1.
</event>
<event>
 5   0  0.1031659E-06  0.3569713E+04  0.7818609E-02  0.8097465E-01
        2   -1    0    0  501    0  0.00000000000E+00  0.00000000000E+00  0.19142369992E+04  0.19142369992E+04  0.25500000920E-02 0.  1.
       -2   -1    0    0    0  501  0.00000000000E+00  0.00000000000E+00 -0.16642210013E+04  0.16642210013E+04  0.25500000920E-02 0. -1.
    10030    2    1    2    0    0  0.00000000000E+00  0.00000000000E+00  0.25001599796E+03  0.35784580005E+04  0.35697133866E+04 0.  0.
        2    1    3    3  502    0  0.15988514549E+04  0.25882266039E+02  0.91986749664E+03  0.18447634205E+04  0.25500000920E-02 0.  1.
       -2    1    3    3    0  502 -0.15988514549E+04 -0.25882266039E+02 -0.66985149868E+03  0.17336945800E+04  0.25500000920E-02 0. -1.
</event>
<event>
 5   0  0.3365378E-07  0.3223363E+04  0.7818609E-02  0.8182674E-01
        1   -1    0    0  501    0  0.00000000000E+00  0.00000000000E+00  0.23731238534E+04  0.23731238534E+04  0.50400001928E-02 0.  1.
       -1   -1    0    0    0  501  0.00000000000E+00  0.00000000000E+00 -0.10945561276E+04  0.10945561276E+04  0.50400001928E-02 0. -1.
    10030    2    1    2    0    0  0.00000000000E+00  0.00000000000E+00  0.12785677258E+04  0.34676799810E+04  0.32233629987E+04 0.  0.
        3    1    3    3  502    0  0.14121309975E+04  0.24425231259E+03 -0.15399717506E+03  0.14413494671E+04  0.10100000352E+00 0.  1.
       -3    1    3    3    0  502 -0.14121309975E+04 -0.24425231259E+03  0.14325649008E+04  0.20263305139E+04  0.10100000352E+00 0. -1.
</event>
<event>
 5   0  0.9878336E-07  0.3547940E+04  0.7818609E-02  0.8102522E-01
        2   -1    0    0  501    0  0.00000000000E+00  0.00000000000E+00  0.20461219889E+04  0.20461219889E+04  0.25500000920E-02 0.  1.
       -2   -1    0    0    0  501  0.00000000000E+00  0.00000000000E+00 -0.15380164872E+04  0.15380164872E+04  0.25500000920E-02 0. -1.
    10030    2    1    2    0    0  0.00000000000E+00  0.00000000000E+00  0.50810550171E+03  0.35841384761E+04  0.35479398833E+04 0.  0.
        3    1    3    3  502    0 -0.11553907046E+04 -0.46493414566E+03  0.15302222450E+04  0.19729854458E+04  0.10100000352E+00 0.  1.
       -3    1    3    3    0  502  0.11553907046E+04  0.46493414566E+03 -0.10221167433E+04  0.16111530303E+04  0.10100000352E+00 0. -1.
</event>
<event>
 5   0  0.3242047E-07  0.3609967E+04  0.7818609E-02  0.8088212E-01
        1   -1    0    0  501    0  0.00000000000E+00  0.00000000000E+00  0.25779709594E+04  0.25779709594E+04  0.50400001928E-02 0.  1.
       -1   -1    0    0    0  501  0.00000000000E+00  0.00000000000E+00 -0.12637712630E+04  0.12637712630E+04  0.50400001928E-02 0. -1.
    10030    2    1    2    0    0  0.00000000000E+00  0.00000000000E+00  0.13141996964E+04  0.38417422224E+04  0.36099670997E+04 0.  0.
        1    1    3    3  502    0  0.28203321718E+03  0.52800735412E+03  0.24692590657E+04  0.25407823274E+04  0.50400001928E-02 0.  1.
       -1    1    3    3    0  502 -0.28203321718E+03 -0.52800735412E+03 -0.11550593693E+04  0.13009598950E+04  0.50400001928E-02 0. -1.
</event>
<event>
 5   0  0.1031659E-06  0.3575303E+04  0.7818609E-02  0.8096172E-01
        2   -1    0    0  501    0  0.00000000000E+00  0.00000000000E+00  0.15993869649E+04  0.15993869649E+04  0.25500000920E-02 0.  1.
       -2   -1    0    0    0  501  0.00000000000E+00  0.00000000000E+00 -0.19980765863E+04  0.19980765863E+04  0.25500000920E-02 0. -1.
    10030    2    1    2    0    0  0.00000000000E+00  0.00000000000E+00 -0.39868962140E+03  0.35974635513E+04  0.35753028667E+04 0.  0.
        2    1    3    3  502    0 -0.98672800746E+03  0.10805728234E+04 -0.12325629008E+04  0.19132383782E+04  0.25500000920E-02 0. -1.
       -2    1    3    3    0  502  0.98672800746E+03 -0.10805728234E+04  0.83387327942E+03  0.16842251730E+04  0.25500000920E-02 0.  1.
</event>
<event>
 5   0  0.3159875E-07  0.3631867E+04  0.7818609E-02  0.8083231E-01
       -1   -1    0    0    0  501  0.00000000000E+00  0.00000000000E+00  0.19338291443E+04  0.19338291444E+04  0.50400001928E-02 0.  1.
        1   -1    0    0  501    0  0.00000000000E+00  0.00000000000E+00 -0.17052255450E+04  0.17052255450E+04  0.50400001928E-02 0. -1.
    10030    2    1    2    0    0  0.00000000000E+00  0.00000000000E+00  0.22860359938E+03  0.36390546893E+04  0.36318672093E+04 0.  0.
        2    1    3    3  502    0 -0.46225539862E+03  0.29780251273E+03 -0.16198018348E+04  0.17105918198E+04  0.25500000920E-02 0. -1.
       -2    1    3    3    0  502  0.46225539862E+03 -0.29780251273E+03  0.18484054341E+04  0.19284628695E+04  0.25500000920E-02 0.  1.
</event>
<event>
 5   0  0.9878336E-07  0.3607445E+04  0.7818609E-02  0.8088788E-01
       -2   -1    0    0    0  501  0.00000000000E+00  0.00000000000E+00  0.24094401023E+04  0.24094401023E+04  0.25500000920E-02 0.  1.
        2   -1    0    0  501    0  0.00000000000E+00  0.00000000000E+00 -0.13502784443E+04  0.13502784443E+04  0.25500000920E-02 0. -1.
    10030    2    1    2    0    0  0.00000000000E+00  0.00000000000E+00  0.10591616580E+04  0.37597185466E+04  0.36074450975E+04 0.  0.
        3    1    3    3  502    0  0.52280008972E+03  0.15472033591E+04  0.13275747285E+04  0.21046645429E+04  0.10100000352E+00 0.  1.
       -3    1    3    3    0  502 -0.52280008972E+03 -0.15472033591E+04 -0.26841307053E+03  0.16550540036E+04  0.10100000352E+00 0. -1.
</event>
<event>
 5   0  0.9878977E-07  0.3639472E+04  0.7818609E-02  0.8081510E-01
        2   -1    0    0  501    0  0.00000000000E+00  0.00000000000E+00  0.14377070139E+04  0.14377070139E+04  0.25500000920E-02 0.  1.
       -2   -1    0    0    0  501  0.00000000000E+00  0.00000000000E+00 -0.23032777699E+04  0.23032777699E+04  0.25500000920E-02 0. -1.
    10030    2    1    2    0    0  0.00000000000E+00  0.00000000000E+00 -0.86557075591E+03  0.37409847838E+04  0.36394717225E+04 0.  0.
        5    1    3    3  502    0  0.26315419286E+03  0.79593380751E+02  0.14162300154E+04  0.14426762568E+04  0.46999998093E+01 0.  1.
       -5    1    3    3    0  502 -0.26315419286E+03 -0.79593380751E+02 -0.22818007713E+04  0.22983085270E+04  0.46999998093E+01 0. -1.
</event>
<event>
 5   0  0.3159875E-07  0.3575400E+04  0.7818609E-02  0.8096150E-01
       -1   -1    0    0    0  501  0.00000000000E+00  0.00000000000E+00  0.14449194617E+04  0.14449194617E+04  0.50400001928E-02 0.  1.
        1   -1    0    0  501    0  0.00000000000E+00  0.00000000000E+00 -0.22117993138E+04  0.22117993138E+04  0.50400001928E-02 0. -1.
    10030    2    1    2    0    0  0.00000000000E+00  0.00000000000E+00 -0.76687985214E+03  0.36567187755E+04  0.35754003266E+04 0.  0.
        2    1    3    3  502    0 -0.65059729328E+03  0.12753787088E+04 -0.14783034520E+04  0.20579720078E+04  0.25500000920E-02 0. -1.
       -2    1    3    3    0  502  0.65059729328E+03 -0.12753787088E+04  0.71142359986E+03  0.15987467677E+04  0.25500000920E-02 0.  1.
</event>
<event>
 5   0  0.9878336E-07  0.3598590E+04  0.7818609E-02  0.8090815E-01
        2   -1    0    0  501    0  0.00000000000E+00  0.00000000000E+00  0.26065283682E+04  0.26065283682E+04  0.25500000920E-02 0.  1.
       -2   -1    0    0    0  501  0.00000000000E+00  0.00000000000E+00 -0.12420593974E+04  0.12420593974E+04  0.25500000920E-02 0. -1.
    10030    2    1    2    0    0  0.00000000000E+00  0.00000000000E+00  0.13644689708E+04  0.38485877656E+04  0.35985903097E+04 0.  0.
        3    1    3    3  502    0  0.11513298114E+02  0.14327995697E+04  0.18461490419E+04  0.23369453263E+04  0.10100000352E+00 0.  1.
       -3    1    3    3    0  502 -0.11513298114E+02 -0.14327995697E+04 -0.48168007111E+03  0.15116424392E+04  0.10100000352E+00 0. -1.
</event>
<event>
 5   0  0.1006019E-06  0.3568031E+04  0.7818609E-02  0.8097854E-01
        2   -1    0    0  501    0  0.00000000000E+00  0.00000000000E+00  0.16539674201E+04  0.16539674201E+04  0.25500000920E-02 0. -1.
       -2   -1    0    0    0  501  0.00000000000E+00  0.00000000000E+00 -0.19242888005E+04  0.19242888005E+04  0.25500000920E-02 0.  1.
    10030    2    1    2    0    0  0.00000000000E+00  0.00000000000E+00 -0.27032138039E+03  0.35782562207E+04  0.35680308200E+04 0.  0.
        1    1    3    3  502    0 -0.68412325890E+03  0.15120453497E+04  0.52124178472E+03  0.17395398159E+04  0.50400001928E-02 0. -1.
       -1    1    3    3    0  502  0.68412325890E+03 -0.15120453497E+04 -0.79156316511E+03  0.18387164048E+04  0.50400001928E-02 0.  1.
</event>
<event>
 5   0  0.3159875E-07  0.3599552E+04  0.7818609E-02  0.8090594E-01
        1   -1    0    0  501    0  0.00000000000E+00  0.00000000000E+00  0.16284638335E+04  0.16284638335E+04  0.50400001928E-02 0. -1.
       -1   -1    0    0    0  501  0.00000000000E+00  0.00000000000E+00 -0.19891102758E+04  0.19891102758E+04  0.50400001928E-02 0.  1.
    10030    2    1    2    0    0  0.00000000000E+00  0.00000000000E+00 -0.36064644223E+03  0.36175741093E+04  0.35995522749E+04 0.  0.
        5    1    3    3  502    0 -0.12519157769E+04  0.94010614507E+03  0.71185975792E+03  0.17198427490E+04  0.46999998093E+01 0. -1.
       -5    1    3    3    0  502  0.12519157769E+04 -0.94010614507E+03 -0.10725062002E+04  0.18977313603E+04  0.46999998093E+01 0.  1.
</event>
<event>
 5   0  0.9878336E-07  0.3583819E+04  0.7818609E-02  0.8094208E-01
        2   -1    0    0  501    0  0.00000000000E+00  0.00000000000E+00  0.23156948669E+04  0.23156948669E+04  0.25500000920E-02 0. -1.
       -2   -1    0    0    0  501  0.00000000000E+00  0.00000000000E+00 -0.13865988622E+04  0.13865988622E+04  0.25500000920E-02 0.  1.
    10030    2    1    2    0    0  0.00000000000E+00  0.00000000000E+00  0.92909600463E+03  0.37022937291E+04  0.35838191180E+04 0.  0.
        3    1    3    3  502    0  0.39262347080E+03 -0.12646559295E+04  0.17116987374E+04  0.21641211583E+04  0.10100000352E+00 0. -1.
       -3    1    3    3    0  502 -0.39262347080E+03  0.12646559295E+04 -0.78260273282E+03  0.15381725708E+04  0.10100000352E+00 0.  1.
</event>
<event>
 5   0  0.3278988E-07  0.3252808E+04  0.7818609E-02  0.8175008E-01
       -1   -1    0    0    0  501  0.00000000000E+00  0.00000000000E+00  0.16592666247E+04  0.16592666247E+04  0.50400001928E-02 0. -1.
        1   -1    0    0  501    0  0.00000000000E+00  0.00000000000E+00 -0.15941923582E+04  0.15941923582E+04  0.50400001928E-02 0.  1.
    10030    2    1    2    0    0  0.00000000000E+00  0.00000000000E+00  0.65074266475E+02  0.32534589829E+04  0.32528081242E+04 0.  0.
        4    1    3    3  502    0 -0.13260698048E+04  0.22734702822E+03 -0.88145135909E+03  0.16084482926E+04  0.12699999809E+01 0. -1.
       -4    1    3    3    0  502  0.13260698048E+04 -0.22734702822E+03  0.94652562556E+03  0.16450106903E+04  0.12699999809E+01 0.  1.
</event>
<event>
 5   0  0.3242047E-07  0.3564856E+04  0.7818609E-02  0.8098590E-01
        1   -1    0    0  501    0  0.00000000000E+00  0.00000000000E+00  0.28250350971E+04  0.28250350971E+04  0.50400001928E-02 0. -1.
       -1   -1    0    0    0  501  0.00000000000E+00  0.00000000000E+00 -0.11246050631E+04  0.11246050631E+04  0.50400001928E-02 0.  1.
    10030    2    1    2    0    0  0.00000000000E+00  0.00000000000E+00  0.17004300341E+04  0.39496401602E+04  0.35648555503E+04 0.  0.
        1    1    3    3  502    0  0.16681057451E+04 -0.39886722626E+03  0.31269140945E+03  0.17434012041E+04  0.50400001928E-02 0.  1.
       -1    1    3    3    0  502 -0.16681057451E+04  0.39886722626E+03  0.13877386246E+04  0.22062389561E+04  0.50400001928E-02 0. -1.
</event>
<event>
 5   0  0.3365378E-07  0.2818146E+04  0.7818609E-02  0.8297657E-01
        1   -1    0    0  501    0  0.00000000000E+00  0.00000000000E+00  0.20556602772E+04  0.20556602772E+04  0.50400001928E-02 0. -1.
       -1   -1    0    0    0  501  0.00000000000E+00  0.00000000000E+00 -0.96586293024E+03  0.96586293025E+03  0.50400001928E-02 0.  1.
    10030    2    1    2    0    0  0.00000000000E+00  0.00000000000E+00  0.10897973470E+04  0.30215232075E+04  0.28181455314E+04 0.  0.
        3    1    3    3  502    0  0.13132065770E+04  0.40330157631E+03  0.20870565215E+03  0.13895041327E+04  0.10100000352E+00 0. -1.
       -3    1    3    3    0  502 -0.13132065770E+04 -0.40330157631E+03  0.88109169485E+03  0.16320190748E+04  0.10100000352E+00 0.  1.
</event>
<event>
 5   0  0.9538919E-07  0.3607766E+04  0.7818609E-02  0.8088715E-01
       -2   -1    0    0    0  501  0.00000000000E+00  0.00000000000E+00  0.19001623482E+04  0.19001623482E+04  0.25500000920E-02 0. -1.
        2   -1    0    0  501    0  0.00000000000E+00  0.00000000000E+00 -0.17124824048E+04  0.17124824048E+04  0.25500000920E-02 0.  1.
    10030    2    1    2    0    0  0.00000000000E+00  0.00000000000E+00  0.18767994344E+03  0.36126447530E+04  0.36077663935E+04 0.  0.
        4    1    3    3  502    0 -0.17477634487E+03  0.39290108007E+03 -0.16604064355E+04  0.17151877953E+04  0.12699999809E+01 0.  1.
       -4    1    3    3    0  502  0.17477634487E+03 -0.39290108007E+03  0.18480863789E+04  0.18974569577E+04  0.12699999809E+01 0. -1.
</event>
<event>
 5   0  0.9538919E-07  0.3650332E+04  0.7818609E-02  0.8079059E-01
        2   -1    0    0  501    0  0.00000000000E+00  0.00000000000E+00  0.22643630544E+04  0.22643630544E+04  0.25500000920E-02 0.  1.
       -2   -1    0    0    0  501  0.00000000000E+00  0.00000000000E+00 -0.14711559485E+04  0.14711559485E+04  0.25500000920E-02 0. -1.
    10030    2    1    2    0    0  0.00000000000E+00  0.00000000000E+00  0.79320710592E+03  0.37355190028E+04  0.36503321366E+04 0.  0.
        4    1    3    3  502    0 -0.41298541007E+03 -0.85389283970E+03 -0.11991258395E+04  0.15289193316E+04  0.12699999809E+01 0.  1.
       -4    1    3    3    0  502  0.41298541007E+03  0.85389283970E+03  0.19923329455E+04  0.22065996712E+04  0.12699999809E+01 0. -1.
</event>
<event>
 5   0  0.3159875E-07  0.3602810E+04  0.7818609E-02  0.8089848E-01
       -1   -1    0    0    0  501  0.00000000000E+00  0.00000000000E+00  0.20567108889E+04  0.20567108889E+04  0.50400001928E-02 0. -1.
        1   -1    0    0  501    0  0.00000000000E+00  0.00000000000E+00 -0.15777913176E+04  0.15777913176E+04  0.50400001928E-02 0.  1.
    10030    2    1    2    0    0  0.00000000000E+00  0.00000000000E+00  0.47891957131E+03  0.36345022065E+04  0.36028103382E+04 0.  0.
        2    1    3    3  502    0 -0.17791308251E+04 -0.27945227341E+03  0.19835189240E+03  0.18118343024E+04  0.25500000920E-02 0.  1.
       -2    1    3    3    0  502  0.17791308251E+04  0.27945227341E+03  0.28056767890E+03  0.18226679041E+04  0.25500000920E-02 0. -1.
</event>
<event>
 5   0  0.3159875E-07  0.3603295E+04  0.7818609E-02  0.8089737E-01
        1   -1    0    0  501    0  0.00000000000E+00  0.00000000000E+00  0.20861784280E+04  0.20861784280E+04  0.50400001928E-02 0. -1.
       -1   -1    0    0    0  501  0.00000000000E+00  0.00000000000E+00 -0.15559233113E+04  0.15559233113E+04  0.50400001928E-02 0.  1.
    10030    2    1    2    0    0  0.00000000000E+00  0.00000000000E+00  0.53025511667E+03  0.36421017393E+04  0.36032949631E+04 0.  0.
        5    1    3    3  502    0  0.50348135341E+03  0.12293084437E+04  0.14952883238E+04  0.20001504904E+04  0.46999998093E+01 0. -1.
       -5    1    3    3    0  502 -0.50348135341E+03 -0.12293084437E+04 -0.96503320711E+03  0.16419512489E+04  0.46999998093E+01 0.  1.
</event>
<event>
 5   0  0.3159875E-07  0.3579769E+04  0.7818609E-02  0.8095142E-01
        1   -1    0    0  501    0  0.00000000000E+00  0.00000000000E+00  0.21007289578E+04  0.21007289578E+04  0.50400001928E-02 0. -1.
       -1   -1    0    0    0  501  0.00000000000E+00  0.00000000000E+00 -0.15250352457E+04  0.15250352457E+04  0.50400001928E-02 0.  1.
    10030    2    1    2    0    0  0.00000000000E+00  0.00000000000E+00  0.57569371215E+03  0.36257642035E+04  0.35797685413E+04 0.  0.
        5    1    3    3  502    0 -0.38297135808E+03  0.77855271550E+03  0.18734816695E+04  0.20646469548E+04  0.46999998093E+01 0. -1.
       -5    1    3    3    0  502  0.38297135808E+03 -0.77855271550E+03 -0.12977879574E+04  0.15611172487E+04  0.46999998093E+01 0.  1.
</event>
<event>
 5   0  0.1031659E-06  0.3581828E+04  0.7818609E-02  0.8094667E-01
        2   -1    0    0  501    0  0.00000000000E+00  0.00000000000E+00  0.20665482082E+04  0.20665482082E+04  0.25500000920E-02 0.  1.
       -2   -1    0    0    0  501  0.00000000000E+00  0.00000000000E+00 -0.15520436189E+04  0.15520436189E+04  0.25500000920E-02 0. -1.
    10030    2    1    2    0    0  0.00000000000E+00  0.00000000000E+00  0.51450458940E+03  0.36185918271E+04  0.35818280024E+04 0.  0.
        2    1    3    3  502    0 -0.15714482531E+04  0.32198984151E+03  0.10618220469E+04  0.19236925766E+04  0.25500000920E-02 0.  1.
       -2    1    3    3    0  502  0.15714482531E+04 -0.32198984151E+03 -0.54731745748E+03  0.16948992505E+04  0.25500000920E-02 0. -1.
</event>
<event>
 5   0  0.9878336E-07  0.3604112E+04  0.7818609E-02  0.8089550E-01
       -2   -1    0    0    0  501  0.00000000000E+00  0.00000000000E+00  0.29163310273E+04  0.29163310273E+04  0.25500000920E-02 0.  1.
        2   -1    0    0  501    0  0.00000000000E+00  0.00000000000E+00 -0.11135243401E+04  0.11135243401E+04  0.25500000920E-02 0. -1.
    10030    2    1    2    0    0  0.00000000000E+00  0.00000000000E+00  0.18028066873E+04  0.40298553674E+04  0.36041118643E+04 0.  0.
        3    1    3    3  502    0  0.45582591729E+03 -0.86864131038E+03 -0.78881537584E+03  0.12587869956E+04  0.10100000352E+00 0. -1.
       -3    1    3    3    0  502 -0.45582591729E+03  0.86864131038E+03  0.25916220631E+04  0.27710683718E+04  0.10100000352E+00 0.  1.
</event>
<event>
 5   0  0.1006019E-06  0.3312509E+04  0.7818609E-02  0.8159720E-01
        2   -1    0    0  501    0  0.00000000000E+00  0.00000000000E+00  0.15374390436E+04  0.15374390437E+04  0.25500000920E-02 0. -1.
       -2   -1    0    0    0  501  0.00000000000E+00  0.00000000000E+00 -0.17842524165E+04  0.17842524165E+04  0.25500000920E-02 0.  1.
    10030    2    1    2    0    0  0.00000000000E+00  0.00000000000E+00 -0.24681337284E+03  0.33216914601E+04  0.33125092174E+04 0.  0.
        1    1    3    3  502    0 -0.12633453842E+04  0.26859840344E+03 -0.11630992683E+04  0.17380985502E+04  0.50400001928E-02 0.  1.
       -1    1    3    3    0  502  0.12633453842E+04 -0.26859840344E+03  0.91628589546E+03  0.15835929100E+04  0.50400001928E-02 0. -1.
</event>
<event>
 5   0  0.1031659E-06  0.3664967E+04  0.7818609E-02  0.8075770E-01
        2   -1    0    0  501    0  0.00000000000E+00  0.00000000000E+00  0.28309771764E+04  0.28309771764E+04  0.25500000920E-02 0.  1.
       -2   -1    0    0    0  501  0.00000000000E+00  0.00000000000E+00 -0.11861610676E+04  0.11861610676E+04  0.25500000920E-02 0. -1.
    10030    2    1    2    0    0  0.00000000000E+00  0.00000000000E+00  0.16448161088E+04  0.40171382440E+04  0.36649665264E+04 0.  0.
        2    1    3    3  502    0 -0.11078208355E+04  0.10529696609E+04 -0.28566541952E+03  0.15548687540E+04  0.25500000920E-02 0. -1.
       -2    1    3    3    0  502  0.11078208355E+04 -0.10529696609E+04  0.19304815283E+04  0.24622694900E+04  0.25500000920E-02 0.  1.
</event>
<event>
 5   0  0.9878336E-07  0.3717479E+04  0.7818609E-02  0.8064099E-01
        2   -1    0    0  501    0  0.00000000000E+00  0.00000000000E+00  0.14662110890E+04  0.14662110890E+04  0.25500000920E-02 0.  1.
       -2   -1    0    0    0  501  0.00000000000E+00  0.00000000000E+00 -0.23563543549E+04  0.23563543549E+04  0.25500000920E-02 0. -1.
    10030    2    1    2    0    0  0.00000000000E+00  0.00000000000E+00 -0.89014326597E+03  0.38225654439E+04  0.37174791915E+04 0.  0.
        3    1    3    3  502    0  0.74009006018E+03 -0.94760199114E+03  0.10124708264E+04  0.15718715009E+04  0.10100000352E+00 0.  1.
       -3    1    3    3    0  502 -0.74009006018E+03  0.94760199114E+03 -0.19026140923E+04  0.22506939431E+04  0.10100000352E+00 0. -1.
</event>
<event>
 5   0  0.3159875E-07  0.3567883E+04  0.7818609E-02  0.8097888E-01
       -1   -1    0    0    0  501  0.00000000000E+00  0.00000000000E+00  0.12727886561E+04  0.12727886561E+04  0.50400001928E-02 0.  1.
        1   -1    0    0  501    0  0.00000000000E+00  0.00000000000E+00 -0.25003732322E+04  0.25003732323E+04  0.50400001928E-02 0. -1.
    10030    2    1    2    0    0  0.00000000000E+00  0.00000000000E+00 -0.12275845762E+04  0.37731618883E+04  0.35678826696E+04 0.  0.
        5    1    3    3  502    0 -0.40035767767E+03 -0.99443719233E+03  0.89416294772E+03  0.13959731611E+04  0.46999998093E+01 0.  1.
       -5    1    3    3    0  502  0.40035767767E+03  0.99443719233E+03 -0.21217475239E+04  0.23771887272E+04  0.46999998093E+01 0. -1.
</event>
<event>
 5   0  0.9878977E-07  0.3780251E+04  0.7818609E-02  0.8050406E-01
       -2   -1    0    0    0  501  0.00000000000E+00  0.00000000000E+00  0.12209033276E+04  0.12209033276E+04  0.25500000920E-02 0.  1.
        2   -1    0    0  501    0  0.00000000000E+00  0.00000000000E+00 -0.29261727365E+04  0.29261727365E+04  0.25500000920E-02 0. -1.
    10030    2    1    2    0    0  0.00000000000E+00  0.00000000000E+00 -0.17052694089E+04  0.41470760641E+04  0.37802508017E+04 0.  0.
        5    1    3    3  502    0 -0.30359992712E+03  0.15645278451E+04 -0.19674273690E+04  0.25319385530E+04  0.46999998093E+01 0. -1.
       -5    1    3    3    0  502  0.30359992712E+03 -0.15645278451E+04  0.26215796004E+03  0.16151375111E+04  0.46999998093E+01 0.  1.
</event>
<event>
 5   0  0.3159875E-07  0.3586845E+04  0.7818609E-02  0.8093512E-01
       -1   -1    0    0    0  501  0.00000000000E+00  0.00000000000E+00  0.26461198577E+04  0.26461198577E+04  0.50400001928E-02 0. -1.
        1   -1    0    0  501    0  0.00000000000E+00  0.00000000000E+00 -0.12155022459E+04  0.12155022459E+04  0.50400001928E-02 0.  1.
    10030    2    1    2    0    0  0.00000000000E+00  0.00000000000E+00  0.14306176118E+04  0.38616221036E+04  0.35868452043E+04 0.  0.
        5    1    3    3  502    0  0.14705955453E+03  0.55897249339E+03 -0.11124721581E+04  0.12536718684E+04  0.46999998093E+01 0.  1.
       -5    1    3    3    0  502 -0.14705955453E+03 -0.55897249339E+03  0.25430897700E+04  0.26079502352E+04  0.46999998093E+01 0. -1.
</event>
<event>
 5   0  0.3365378E-07  0.3498590E+04  0.7818609E-02  0.8114124E-01
       -1   -1    0    0    0  501  0.00000000000E+00  0.00000000000E+00  0.98318464562E+03  0.98318464564E+03  0.50400001928E-02 0.  1.
        1   -1    0    0  501    0  0.00000000000E+00  0.00000000000E+00 -0.31123691197E+04  0.31123691197E+04  0.50400001928E-02 0. -1.
    10030    2    1    2    0    0  0.00000000000E+00  0.00000000000E+00 -0.21291844741E+04  0.40955537653E+04  0.34985903047E+04 0.  0.
        3    1    3    3  502    0 -0.10758931878E+04 -0.39922980630E+03  0.48095064658E+03  0.12442845834E+04  0.10100000352E+00 0.  1.
       -3    1    3    3    0  502  0.10758931878E+04  0.39922980630E+03 -0.26101351206E+04  0.28512691820E+04  0.10100000352E+00 0. -1.
</event>
<event>
 5   0  0.9878336E-07  0.3603656E+04  0.7818609E-02  0.8089655E-01
       -2   -1    0    0    0  501  0.00000000000E+00  0.00000000000E+00  0.12820949475E+04  0.12820949475E+04  0.25500000920E-02 0.  1.
        2   -1    0    0  501    0  0.00000000000E+00  0.00000000000E+00 -0.25322494743E+04  0.25322494743E+04  0.25500000920E-02 0. -1.
    10030    2    1    2    0    0  0.00000000000E+00  0.00000000000E+00 -0.12501545268E+04  0.38143444218E+04  0.36036560640E+04 0.  0.
        3    1    3    3  502    0  0.27757600333E+03  0.95394248126E+03 -0.22161336959E+04  0.24286422675E+04  0.10100000352E+00 0. -1.
       -3    1    3    3    0  502 -0.27757600333E+03 -0.95394248126E+03  0.96597916910E+03  0.13857021543E+04  0.10100000352E+00 0.  1.
</event>
<event>
 5   0  0.3242047E-07  0.3611300E+04  0.7818609E-02  0.8087908E-01
        1   -1    0    0  501    0  0.00000000000E+00  0.00000000000E+00  0.33533266565E+04  0.33533266565E+04  0.50400001928E-02 0.  1.
       -1   -1    0    0    0  501  0.00000000000E+00  0.00000000000E+00 -0.97227995207E+03  0.97227995208E+03  0.50400001928E-02 0. -1.
    10030    2    1    2    0    0  0.00000000000E+00  0.00000000000E+00  0.23810467045E+04  0.43256066086E+04  0.36113001985E+04 0.  0.
        1    1    3    3  502    0  0.10922967374E+04 -0.12444976391E+04  0.20530089237E+04  0.26375617864E+04  0.50400001928E-02 0.  1.
       -1    1    3    3    0  502 -0.10922967374E+04  0.12444976391E+04  0.32803778075E+03  0.16880448222E+04  0.50400001928E-02 0. -1.
</event>
<event>
 5   0  0.3365378E-07  0.3480430E+04  0.7818609E-02  0.8118443E-01
        1   -1    0    0  501    0  0.00000000000E+00  0.00000000000E+00  0.16200079981E+04  0.16200079981E+04  0.50400001928E-02 0. -1.
       -1   -1    0    0    0  501  0.00000000000E+00  0.00000000000E+00 -0.18693418723E+04  0.18693418723E+04  0.50400001928E-02 0.  1.
    10030    2    1    2    0    0  0.00000000000E+00  0.00000000000E+00 -0.24933387423E+03  0.34893498704E+04  0.34804303092E+04 0.  0.
        3    1    3    3  502    0  0.53550291261E+03  0.73212640008E+02 -0.17830601194E+04  0.18631765508E+04  0.10100000352E+00 0.  1.
       -3    1    3    3    0  502 -0.53550291261E+03 -0.73212640008E+02  0.15337262451E+04  0.16261733196E+04  0.10100000352E+00 0. -1.
</event>
<event>
 5   0  0.3278988E-07  0.3618885E+04  0.7818609E-02  0.8086179E-01
       -1   -1    0    0    0  501  0.00000000000E+00  0.00000000000E+00  0.15012782033E+04  0.15012782033E+04  0.50400001928E-02 0.  1.
        1   -1    0    0  501    0  0.00000000000E+00  0.00000000000E+00 -0.21808632546E+04  0.21808632546E+04  0.50400001928E-02 0. -1.
    10030    2    1    2    0    0  0.00000000000E+00  0.00000000000E+00 -0.67958505134E+03  0.36821414579E+04  0.36188851700E+04 0.  0.
        4    1    3    3  502    0 -0.16905108226E+04  0.50980463510E+03  0.62534420037E+02  0.17668162818E+04  0.12699999809E+01 0.  1.
       -4    1    3    3    0  502  0.16905108226E+04 -0.50980463510E+03 -0.74211947138E+03  0.19153251760E+04  0.12699999809E+01 0. -1.
</event>
<event>
 5   0  0.3159875E-07  0.3267146E+04  0.7818609E-02  0.8171306E-01
       -1   -1    0    0    0  501  0.00000000000E+00  0.00000000000E+00  0.13984089997E+04  0.13984089997E+04  0.50400001928E-02 0. -1.
        1   -1    0    0  501    0  0.00000000000E+00  0.00000000000E+00 -0.19082833149E+04  0.19082833149E+04  0.50400001928E-02 0.  1.
    10030    2    1    2    0    0  0.00000000000E+00  0.00000000000E+00 -0.50987431528E+03  0.33066923146E+04  0.32671458869E+04 0.  0.
        5    1    3    3  502    0 -0.12421865553E+04  0.54292882290E+03  0.66754429650E+03  0.15111044381E+04  0.46999998093E+01 0. -1.
       -5    1    3    3    0  502  0.12421865553E+04 -0.54292882290E+03 -0.11774186118E+04  0.17955878765E+04  0.46999998093E+01 0.  1.
</event>
<event>
 5   0  0.9538919E-07  0.3586044E+04  0.7818609E-02  0.8093696E-01
       -2   -1    0    0    0  501  0.00000000000E+00  0.00000000000E+00  0.12142012549E+04  0.12142012549E+04  0.25500000920E-02 0. -1.
        2   -1    0    0  501    0  0.00000000000E+00  0.00000000000E+00 -0.26477715668E+04  0.26477715668E+04  0.25500000920E-02 0.  1.
    10030    2    1    2    0    0  0.00000000000E+00  0.00000000000E+00 -0.14335703119E+04  0.38619728216E+04  0.35860438140E+04 0.  0.
        4    1    3    3  502    0  0.18173259600E+03  0.82280726146E+03 -0.24212487423E+04  0.25636859424E+04  0.12699999809E+01 0.  1.
       -4    1    3    3    0  502 -0.18173259600E+03 -0.82280726146E+03  0.98767843045E+03  0.12982868792E+04  0.12699999809E+01 0. -1.
</event>
<event>
 5   0  0.1006019E-06  0.3597126E+04  0.7818609E-02  0.8091150E-01
       -2   -1    0    0    0  501  0.00000000000E+00  0.00000000000E+00  0.18039133166E+04  0.18039133166E+04  0.25500000920E-02 0. -1.
        2   -1    0    0  501    0  0.00000000000E+00  0.00000000000E+00 -0.17932281740E+04  0.17932281740E+04  0.25500000920E-02 0.  1.
    10030    2    1    2    0    0  0.00000000000E+00  0.00000000000E+00  0.10685142616E+02  0.35971414905E+04  0.35971256206E+04 0.  0.
        1    1    3    3  502    0 -0.47895465177E+03 -0.11863254824E+03  0.17349041740E+04  0.18037083281E+04  0.50400001928E-02 0. -1.
       -1    1    3    3    0  502  0.47895465177E+03  0.11863254824E+03 -0.17242190314E+04  0.17934331624E+04  0.50400001928E-02 0.  1.
</event>
<event>
 5   0  0.3278988E-07  0.3440639E+04  0.7818609E-02  0.8128004E-01
        1   -1    0    0  501    0  0.00000000000E+00  0.00000000000E+00  0.23199875197E+04  0.23199875197E+04  0.50400001928E-02 0. -1.
       -1   -1    0    0    0  501  0.00000000000E+00  0.00000000000E+00 -0.12756532867E+04  0.12756532867E+04  0.50400001928E-02 0.  1.
    10030    2    1    2    0    0  0.00000000000E+00  0.00000000000E+00  0.10443342330E+04  0.35956408064E+04  0.34406393037E+04 0.  0.
        4    1    3    3  502    0  0.11234430502E+04 -0.76621832502E+03 -0.57900208167E+03  0.14779918241E+04  0.12699999809E+01 0.  1.
       -4    1    3    3    0  502 -0.11234430502E+04  0.76621832502E+03  0.16233363147E+04  0.21176489823E+04  0.12699999809E+01 0. -1.
</event>
<event>
 5   0  0.1031659E-06  0.3146711E+04  0.7818609E-02  0.8203034E-01
        2   -1    0    0  501    0  0.00000000000E+00  0.00000000000E+00  0.17063451743E+04  0.17063451743E+04  0.25500000920E-02 0.  1.
       -2   -1    0    0    0  501  0.00000000000E+00  0.00000000000E+00 -0.14507308250E+04  0.14507308250E+04  0.25500000920E-02 0. -1.
    10030    2    1    2    0    0  0.00000000000E+00  0.00000000000E+00  0.25561434930E+03  0.31570759994E+04  0.31467110084E+04 0.  0.
        2    1    3    3  502    0  0.15548238278E+04  0.23651166209E+03  0.17304049844E+03  0.15822003400E+04  0.25500000920E-02 0. -1.
       -2    1    3    3    0  502 -0.15548238278E+04 -0.23651166209E+03  0.82573850853E+02  0.15748756594E+04  0.25500000920E-02 0.  1.
</event>
<event>
 5   0  0.3159875E-07  0.3328858E+04  0.7818609E-02  0.8155591E-01
       -1   -1    0    0    0  501  0.00000000000E+00  0.00000000000E+00  0.21396017767E+04  0.21396017767E+04  0.50400001928E-02 0.  1.
        1   -1    0    0  501    0  0.00000000000E+00  0.00000000000E+00 -0.12947848411E+04  0.12947848411E+04  0.50400001928E-02 0. -1.
    10030    2    1    2    0    0  0.00000000000E+00  0.00000000000E+00  0.84481693558E+03  0.34343866178E+04  0.33288580303E+04 0.  0.
        5    1    3    3  502    0  0.56247414629E+03 -0.12997687238E+04  0.13244987965E+04  0.19390964526E+04  0.46999998093E+01 0.  1.
       -5    1    3    3    0  502 -0.56247414629E+03  0.12997687238E+04 -0.47968186091E+03  0.14952901652E+04  0.46999998093E+01 0. -1.
</event>
<event>
 5   0  0.1031659E-06  0.3617791E+04  0.7818609E-02  0.8086429E-01
       -2   -1    0    0    0  501  0.00000000000E+00  0.00000000000E+00  0.12545136690E+04  0.12545136690E+04  0.25500000920E-02 0.  1.
        2   -1    0    0  501    0  0.00000000000E+00  0.00000000000E+00 -0.26082642024E+04  0.26082642024E+04  0.25500000920E-02 0. -1.
    10030    2    1    2    0    0  0.00000000000E+00  0.00000000000E+00 -0.13537505334E+04  0.38627778714E+04  0.36177910908E+04 0.  0.
        2    1    3    3  502    0  0.84661538285E+03  0.11440297632E+04  0.51521626073E+03  0.15136081067E+04  0.25500000920E-02 0.  1.
       -2    1    3    3    0  502 -0.84661538285E+03 -0.11440297632E+04 -0.18689667942E+04  0.23491697647E+04  0.25500000920E-02 0. -1.
</event>
<event>
 5   0  0.3278988E-07  0.3632271E+04  0.7818609E-02  0.8083139E-01
        1   -1    0    0  501    0  0.00000000000E+00  0.00000000000E+00  0.21521737277E+04  0.21521737277E+04  0.50400001928E-02 0. -1.
       -1   -1    0    0    0  501  0.00000000000E+00  0.00000000000E+00 -0.15325657648E+04  0.15325657648E+04  0.50400001928E-02 0.  1.
    10030    2    1    2    0    0  0.00000000000E+00  0.00000000000E+00  0.61960796295E+03  0.36847394925E+04  0.36322707911E+04 0.  0.
        4    1    3    3  502    0 -0.13177462632E+04 -0.79489643332E+03 -0.66850759290E+03  0.16778616059E+04  0.12699999809E+01 0.  1.
       -4    1    3    3    0  502  0.13177462632E+04  0.79489643332E+03  0.12881155558E+04  0.20068778866E+04  0.12699999809E+01 0. -1.
</event>
<event>
 5   0  0.3278988E-07  0.3629413E+04  0.7818609E-02  0.8083787E-01
        1   -1    0    0  501    0  0.00000000000E+00  0.00000000000E+00  0.24201334542E+04  0.24201334542E+04  0.50400001928E-02 0.  1.
       -1   -1    0    0    0  501  0.00000000000E+00  0.00000000000E+00 -0.13607347338E+04  0.13607347338E+04  0.50400001928E-02 0. -1.
    10030    2    1    2    0    0  0.00000000000E+00  0.00000000000E+00  0.10593987204E+04  0.37808681881E+04  0.36294129838E+04 0.  0.
        4    1    3    3  502    0  0.15571321961E+04 -0.90880322257E+03  0.74464453952E+03  0.19506617022E+04  0.12699999809E+01 0.  1.
       -4    1    3    3    0  502 -0.15571321961E+04  0.90880322257E+03  0.31475418087E+03  0.18302064858E+04  0.12699999809E+01 0. -1.
</event>
<event>
 5   0  0.3278988E-07  0.3546632E+04  0.7818609E-02  0.8102827E-01
       -1   -1    0    0    0  501  0.00000000000E+00  0.00000000000E+00  0.13547206783E+04  0.13547206783E+04  0.50400001928E-02 0.  1.
        1   -1    0    0  501    0  0.00000000000E+00  0.00000000000E+00 -0.23212536256E+04  0.23212536256E+04  0.50400001928E-02 0. -1.
    10030    2    1    2    0    0  0.00000000000E+00  0.00000000000E+00 -0.96653294732E+03  0.36759743039E+04  0.35466323667E+04 0.  0.
        4    1    3    3  502    0  0.68635640632E+03 -0.41746093121E+03  0.11553020698E+04  0.14071543025E+04  0.12699999809E+01 0.  1.
       -4    1    3    3    0  502 -0.68635640632E+03  0.41746093121E+03 -0.21218350172E+04  0.22688200014E+04  0.12699999809E+01 0. -1.
</event>
<event>
 5   0  0.9538919E-07  0.3454852E+04  0.7818609E-02  0.8124573E-01
       -2   -1    0    0    0  501  0.00000000000E+00  0.00000000000E+00  0.13590315303E+04  0.13590315303E+04  0.25500000920E-02 0. -1.
        2   -1    0    0  501    0  0.00000000000E+00  0.00000000000E+00 -0.21956820059E+04  0.21956820059E+04  0.25500000920E-02 0.  1.
    10030    2    1    2    0    0  0.00000000000E+00  0.00000000000E+00 -0.83665047563E+03  0.35547135362E+04  0.34548522842E+04 0.  0.
        4    1    3    3  502    0  0.63825724820E+03  0.94222812535E+03  0.91878901306E+03  0.14626486312E+04  0.12699999809E+01 0. -1.
       -4    1    3    3    0  502 -0.63825724820E+03 -0.94222812535E+03 -0.17554394887E+04  0.20920649049E+04  0.12699999809E+01 0.  1.
</event>
<event>
 5   0  0.3159875E-07  0.3591833E+04  0.7818609E-02  0.8092365E-01
        3   -1    0    0  501    0  0.00000000000E+00  0.00000000000E+00  0.12060962692E+04  0.12060962734E+04  0.10100000352E+00 0.  1.
       -3   -1    0    0    0  501  0.00000000000E+00  0.00000000000E+00 -0.26741780660E+04  0.26741780679E+04  0.10100000352E+00 0. -1.
    10030    2    1    2    0    0  0.00000000000E+00  0.00000000000E+00 -0.14680817968E+04  0.38802743413E+04  0.35918330698E+04 0.  0.
        3    1    3    3  502    0 -0.67169705763E+03 -0.13980669544E+03 -0.25270192005E+04  0.26185012696E+04  0.10100000352E+00 0. -1.
       -3    1    3    3    0  502  0.67169705763E+03  0.13980669544E+03  0.10589374037E+04  0.12617730717E+04  0.10100000352E+00 0.  1.
</event>
<event>
 5   0  0.9878977E-07  0.3596076E+04  0.7818609E-02  0.8091391E-01
        2   -1    0    0  501    0  0.00000000000E+00  0.00000000000E+00  0.17477230748E+04  0.17477230748E+04  0.25500000920E-02 0.  1.
       -2   -1    0    0    0  501  0.00000000000E+00  0.00000000000E+00 -0.18498014590E+04  0.18498014590E+04  0.25500000920E-02 0. -1.
    10030    2    1    2    0    0  0.00000000000E+00  0.00000000000E+00 -0.10207838419E+03  0.35975245337E+04  0.35960760246E+04 0.  0.
        5    1    3    3  502    0  0.28812719307E+03 -0.17536418155E+04  0.22227720159E+03  0.17910070186E+04  0.46999998093E+01 0.  1.
       -5    1    3    3    0  502 -0.28812719307E+03  0.17536418155E+04 -0.32435558578E+03  0.18065175151E+04  0.46999998093E+01 0. -1.
</event>
<event>
 5   0  0.9878977E-07  0.3629182E+04  0.7818609E-02  0.8083840E-01
        2   -1    0    0  501    0  0.00000000000E+00  0.00000000000E+00  0.20661475449E+04  0.20661475449E+04  0.25500000920E-02 0.  1.
       -2   -1    0    0    0  501  0.00000000000E+00  0.00000000000E+00 -0.15936616801E+04  0.15936616801E+04  0.25500000920E-02 0. -1.
    10030    2    1    2    0    0  0.00000000000E+00  0.00000000000E+00  0.47248586483E+03  0.36598092250E+04  0.36291818184E+04 0.  0.
        5    1    3    3  502    0  0.40187041475E+03 -0.80795733704E+03 -0.13513437713E+04  0.16249452197E+04  0.46999998093E+01 0. -1.
       -5    1    3    3    0  502 -0.40187041475E+03  0.80795733704E+03  0.18238296361E+04  0.20348640053E+04  0.46999998093E+01 0.  1.
</event>
<event>
 5   0  0.9538919E-07  0.3567686E+04  0.7818609E-02  0.8097934E-01
        2   -1    0    0  501    0  0.00000000000E+00  0.00000000000E+00  0.25913337069E+04  0.25913337069E+04  0.25500000920E-02 0.  1.
       -2   -1    0    0    0  501  0.00000000000E+00  0.00000000000E+00 -0.12279761186E+04  0.12279761186E+04  0.25500000920E-02 0. -1.
    10030    2    1    2    0    0  0.00000000000E+00  0.00000000000E+00  0.13633575884E+04  0.38193098255E+04  0.35676860329E+04 0.  0.
        4    1    3    3  502    0 -0.71084707786E+03 -0.16060438605E+04  0.10158035108E+04  0.20289255372E+04  0.12699999809E+01 0.  1.
       -4    1    3    3    0  502  0.71084707786E+03  0.16060438605E+04  0.34755407755E+03  0.17903842883E+04  0.12699999809E+01 0. -1.
</event>
<event>
 5   0  0.3278988E-07  0.3611386E+04  0.7818609E-02  0.8087889E-01
        1   -1    0    0  501    0  0.00000000000E+00  0.00000000000E+00  0.20221570534E+04  0.20221570534E+04  0.50400001928E-02 0.  1.
       -1   -1    0    0    0  501  0.00000000000E+00  0.00000000000E+00 -0.16124004937E+04  0.16124004937E+04  0.50400001928E-02 0. -1.
    10030    2    1    2    0    0  0.00000000000E+00  0.00000000000E+00  0.40975655969E+03  0.36345575472E+04  0.36113859009E+04 0.  0.
        4    1    3    3  502    0  0.91820404968E+03  0.56889208537E+02 -0.13588576213E+04  0.16409846759E+04  0.12699999809E+01 0. -1.
       -4    1    3    3    0  502 -0.91820404968E+03 -0.56889208537E+02  0.17686141810E+04  0.19935728712E+04  0.12699999809E+01 0.  1.
</event>
<event>
 5   0  0.3159875E-07  0.3408049E+04  0.7818609E-02  0.8135934E-01
       -1   -1    0    0    0  501  0.00000000000E+00  0.00000000000E+00  0.31208317672E+04  0.31208317672E+04  0.50400001928E-02 0. -1.
        1   -1    0    0  501    0  0.00000000000E+00  0.00000000000E+00 -0.93042485232E+03  0.93042485233E+03  0.50400001928E-02 0.  1.
    10030    2    1    2    0    0  0.00000000000E+00  0.00000000000E+00  0.21904069148E+04  0.40512566195E+04  0.34080489645E+04 0.  0.
        2    1    3    3  502    0 -0.98186767647E+03  0.67837106306E+02  0.27487947013E+04  0.29196812013E+04  0.25500000920E-02 0. -1.
       -2    1    3    3    0  502  0.98186767647E+03 -0.67837106306E+02 -0.55838778646E+03  0.11315754182E+04  0.25500000920E-02 0.  1.
</event>
<event>
 5   0  0.1031659E-06  0.3503043E+04  0.7818609E-02  0.8113069E-01
        2   -1    0    0  501    0  0.00000000000E+00  0.00000000000E+00  0.26949074698E+04  0.26949074698E+04  0.25500000920E-02 0.  1.
       -2   -1    0    0    0  501  0.00000000000E+00  0.00000000000E+00 -0.11383793207E+04  0.11383793207E+04  0.25500000920E-02 0. -1.
    10030    2    1    2    0    0  0.00000000000E+00  0.00000000000E+00  0.15565281490E+04  0.38332867905E+04  0.35030426403E+04 0.  0.
        2    1    3    3  502    0  0.80634773412E+03 -0.88257599538E+03 -0.62252993083E+03  0.13478429325E+04  0.25500000920E-02 0. -1.
       -2    1    3    3    0  502 -0.80634773412E+03  0.88257599538E+03  0.21790580799E+04  0.24854438580E+04  0.25500000920E-02 0.  1.
</event>
<event>
 5   0  0.3159875E-07  0.3510103E+04  0.7818609E-02  0.8111400E-01
        1   -1    0    0  501    0  0.00000000000E+00  0.00000000000E+00  0.25269151736E+04  0.25269151736E+04  0.50400001928E-02 0. -1.
       -1   -1    0    0    0  501  0.00000000000E+00  0.00000000000E+00 -0.12189588233E+04  0.12189588233E+04  0.50400001928E-02 0.  1.
    10030    2    1    2    0    0  0.00000000000E+00  0.00000000000E+00  0.13079563503E+04  0.37458739969E+04  0.35101028741E+04 0.  0.
        2    1    3    3  502    0 -0.11175898340E+04 -0.60372706899E+03  0.19464044015E+04  0.23242167509E+04  0.25500000920E-02 0. -1.
       -2    1    3    3    0  502  0.11175898340E+04  0.60372706899E+03 -0.63844805128E+03  0.14216572460E+04  0.25500000920E-02 0.  1.
</event>
<event>
 5   0  0.9878336E-07  0.3578634E+04  0.7818609E-02  0.8095403E-01
        2   -1    0    0  501    0  0.00000000000E+00  0.00000000000E+00  0.18212459024E+04  0.18212459024E+04  0.25500000920E-02 0.  1.
       -2   -1    0    0    0  501  0.00000000000E+00  0.00000000000E+00 -0.17579478101E+04  0.17579478101E+04  0.25500000920E-02 0. -1.
    10030    2    1    2    0    0  0.00000000000E+00  0.00000000000E+00  0.63298092311E+02  0.35791937125E+04  0.35786339549E+04 0.  0.
        3    1    3    3  502    0 -0.31632622240E+02 -0.17887435837E+04 -0.77522795421E+00  0.17890234325E+04  0.10100000352E+00 0. -1.
       -3    1    3    3    0  502  0.31632622240E+02  0.17887435837E+04  0.64073320265E+02  0.17901702800E+04  0.10100000352E+00 0.  1.
</event>
<event>
 5   0  0.9878977E-07  0.3655612E+04  0.7818609E-02  0.8077871E-01
        2   -1    0    0  501    0  0.00000000000E+00  0.00000000000E+00  0.15228501999E+04  0.15228501999E+04  0.25500000920E-02 0.  1.
       -2   -1    0    0    0  501  0.00000000000E+00  0.00000000000E+00 -0.21938300476E+04  0.21938300476E+04  0.25500000920E-02 0. -1.
    10030    2    1    2    0    0  0.00000000000E+00  0.00000000000E+00 -0.67097984767E+03  0.37166802475E+04  0.36556118648E+04 0.  0.
        5    1    3    3  502    0  0.15815054197E+04 -0.45750251614E+03  0.47174116890E+03  0.17126090520E+04  0.46999998093E+01 0. -1.
       -5    1    3    3    0  502 -0.15815054197E+04  0.45750251614E+03 -0.11427210166E+04  0.20040711954E+04  0.46999998093E+01 0.  1.
</event>
<event>
 5   0  0.3159875E-07  0.3523903E+04  0.7818609E-02  0.8108149E-01
       -1   -1    0    0    0  501  0.00000000000E+00  0.00000000000E+00  0.13887543042E+04  0.13887543042E+04  0.50400001928E-02 0. -1.
        1   -1    0    0  501    0  0.00000000000E+00  0.00000000000E+00 -0.22354366103E+04  0.22354366103E+04  0.50400001928E-02 0.  1.
    10030    2    1    2    0    0  0.00000000000E+00  0.00000000000E+00 -0.84668230608E+03  0.36241909145E+04  0.35239025039E+04 0.  0.
        5    1    3    3  502    0  0.11611393318E+04  0.51983136627E+03 -0.16770416576E+04  0.21049845625E+04  0.46999998093E+01 0.  1.
       -5    1    3    3    0  502 -0.11611393318E+04 -0.51983136627E+03  0.83035935151E+03  0.15192063520E+04  0.46999998093E+01 0. -1.
</event>
<event>
 5   0  0.3365378E-07  0.3609624E+04  0.7818609E-02  0.8088291E-01
       -1   -1    0    0    0  501  0.00000000000E+00  0.00000000000E+00  0.15530486623E+04  0.15530486623E+04  0.50400001928E-02 0.  1.
        1   -1    0    0  501    0  0.00000000000E+00  0.00000000000E+00 -0.20973884374E+04  0.20973884374E+04  0.50400001928E-02 0. -1.
    10030    2    1    2    0    0  0.00000000000E+00  0.00000000000E+00 -0.54433977511E+03  0.36504370997E+04  0.36096239732E+04 0.  0.
        3    1    3    3  502    0 -0.28314864695E+03 -0.14169053532E+04 -0.13658561124E+04  0.19883050234E+04  0.10100000352E+00 0. -1.
       -3    1    3    3    0  502  0.28314864695E+03  0.14169053532E+04  0.82151633730E+03  0.16621320762E+04  0.10100000352E+00 0.  1.
</event>
<event>
 5   0  0.9878336E-07  0.2887212E+04  0.7818609E-02  0.8276692E-01
       -2   -1    0    0    0  501  0.00000000000E+00  0.00000000000E+00  0.15789262600E+04  0.15789262600E+04  0.25500000920E-02 0. -1.
        2   -1    0    0  501    0  0.00000000000E+00  0.00000000000E+00 -0.13198835133E+04  0.13198835133E+04  0.25500000920E-02 0.  1.
    10030    2    1    2    0    0  0.00000000000E+00  0.00000000000E+00  0.25904274672E+03  0.28988097733E+04  0.28872123159E+04 0.  0.
        3    1    3    3  502    0 -0.67985669463E+03 -0.11892491844E+04 -0.32780799916E+03  0.14085371285E+04  0.10100000352E+00 0. -1.
       -3    1    3    3    0  502  0.67985669463E+03  0.11892491844E+04  0.58685074588E+03  0.14902726448E+04  0.10100000352E+00 0.  1.
</event>
<event>
 5   0  0.1006019E-06  0.3556380E+04  0.7818609E-02  0.8100557E-01
        2   -1    0    0  501    0  0.00000000000E+00  0.00000000000E+00  0.26626418080E+04  0.26626418081E+04  0.25500000920E-02 0. -1.
       -2   -1    0    0    0  501  0.00000000000E+00  0.00000000000E+00 -0.11875269845E+04  0.11875269845E+04  0.25500000920E-02 0.  1.
    10030    2    1    2    0    0  0.00000000000E+00  0.00000000000E+00  0.14751148236E+04  0.38501687926E+04  0.35563796182E+04 0.  0.
        1    1    3    3  502    0  0.14442522724E+04 -0.10177345285E+04  0.95491878431E+03  0.20083620394E+04  0.50400001928E-02 0.  1.
       -1    1    3    3    0  502 -0.14442522724E+04  0.10177345285E+04  0.52019603924E+03  0.18418067531E+04  0.50400001928E-02 0. -1.
</event>
<event>
 5   0  0.1006019E-06  0.3519555E+04  0.7818609E-02  0.8109171E-01
        2   -1    0    0  501    0  0.00000000000E+00  0.00000000000E+00  0.23680097649E+04  0.23680097649E+04  0.25500000920E-02 0.  1.
       -2   -1    0    0    0  501  0.00000000000E+00  0.00000000000E+00 -0.13077716583E+04  0.13077716583E+04  0.25500000920E-02 0. -1.
    10030    2    1    2    0    0  0.00000000000E+00  0.00000000000E+00  0.10602381066E+04  0.36757814231E+04  0.35195545497E+04 0.  0.
        1    1    3    3  502    0 -0.30335474164E+03  0.63886068802E+03 -0.11528208202E+04  0.13524654973E+04  0.50400001928E-02 0. -1.
       -1    1    3    3    0  502  0.30335474164E+03 -0.63886068802E+03  0.22130589267E+04  0.23233159258E+04  0.50400001928E-02 0.  1.
</event>
<event>
 5   0  0.1031659E-06  0.3582569E+04  0.7818609E-02  0.8094496E-01
       -2   -1    0    0    0  501  0.00000000000E+00  0.00000000000E+00  0.14459273789E+04  0.14459273789E+04  0.25500000920E-02 0.  1.
        2   -1    0    0  501    0  0.00000000000E+00  0.00000000000E+00 -0.22191300646E+04  0.22191300646E+04  0.25500000920E-02 0. -1.
    10030    2    1    2    0    0  0.00000000000E+00  0.00000000000E+00 -0.77320268579E+03  0.36650574435E+04  0.35825694230E+04 0.  0.
        2    1    3    3  502    0  0.41968874569E+03 -0.12934274947E+04 -0.15794709164E+04  0.20841837018E+04  0.25500000920E-02 0. -1.
       -2    1    3    3    0  502 -0.41968874569E+03  0.12934274947E+04  0.80626823057E+03  0.15808737417E+04  0.25500000920E-02 0.  1.
</event>
<event>
 5   0  0.3242047E-07  0.3633329E+04  0.7818609E-02  0.8082900E-01
        1   -1    0    0  501    0  0.00000000000E+00  0.00000000000E+00  0.19650171249E+04  0.19650171249E+04  0.50400001928E-02 0.  1.
       -1   -1    0    0    0  501  0.00000000000E+00  0.00000000000E+00 -0.16795124529E+04  0.16795124529E+04  0.50400001928E-02 0. -1.
    10030    2    1    2    0    0  0.00000000000E+00  0.00000000000E+00  0.28550467203E+03  0.36445295778E+04  0.36333294546E+04 0.  0.
        1    1    3    3  502    0  0.59688759969E+03 -0.17082258005E+04 -0.18867087499E+02  0.18096038680E+04  0.50400001928E-02 0. -1.
       -1    1    3    3    0  502 -0.59688759969E+03  0.17082258005E+04  0.30437175953E+03  0.18349257097E+04  0.50400001928E-02 0.  1.
</event>
<event>
 5   0  0.1006019E-06  0.3600595E+04  0.7818609E-02  0.8090355E-01
       -2   -1    0    0    0  501  0.00000000000E+00  0.00000000000E+00  0.20322600252E+04  0.20322600252E+04  0.25500000920E-02 0.  1.
        2   -1    0    0  501    0  0.00000000000E+00  0.00000000000E+00 -0.15948116118E+04  0.15948116118E+04  0.25500000920E-02 0. -1.
    10030    2    1    2    0    0  0.00000000000E+00  0.00000000000E+00  0.43744841344E+03  0.36270716370E+04  0.36005954432E+04 0.  0.
        1    1    3    3  502    0  0.10074799522E+04 -0.25318816746E+03  0.16998938678E+04  0.19921745064E+04  0.50400001928E-02 0.  1.
       -1    1    3    3    0  502 -0.10074799522E+04  0.25318816746E+03 -0.12624454544E+04  0.16348971306E+04  0.50400001928E-02 0. -1.
</event>
<event>
 5   0  0.9538919E-07  0.3491521E+04  0.7818609E-02  0.8115802E-01
       -2   -1    0    0    0  501  0.00000000000E+00  0.00000000000E+00  0.15149117174E+04  0.15149117174E+04  0.25500000920E-02 0. -1.
        2   -1    0    0  501    0  0.00000000000E+00  0.00000000000E+00 -0.20117866142E+04  0.20117866142E+04  0.25500000920E-02 0.  1.
    10030    2    1    2    0    0  0.00000000000E+00  0.00000000000E+00 -0.49687489680E+03  0.35266983317E+04  0.34915206515E+04 0.  0.
        4    1    3    3  502    0  0.14884961704E+04 -0.75140027134E+03  0.27393285247E+03  0.16897526558E+04  0.12699999809E+01 0. -1.
       -4    1    3    3    0  502 -0.14884961704E+04  0.75140027134E+03 -0.77080774927E+03  0.18369456759E+04  0.12699999809E+01 0.  1.
</event>
<event>
 5   0  0.9878336E-07  0.3563524E+04  0.7818609E-02  0.8098898E-01
       -2   -1    0    0    0  501  0.00000000000E+00  0.00000000000E+00  0.14345383331E+04  0.14345383331E+04  0.25500000920E-02 0. -1.
        2   -1    0    0  501    0  0.00000000000E+00  0.00000000000E+00 -0.22130297610E+04  0.22130297610E+04  0.25500000920E-02 0.  1.
    10030    2    1    2    0    0  0.00000000000E+00  0.00000000000E+00 -0.77849142782E+03  0.36475680941E+04  0.35635241122E+04 0.  0.
        3    1    3    3  502    0 -0.10543126693E+04  0.48580939773E+03 -0.17728238210E+04  0.21190776970E+04  0.10100000352E+00 0.  1.
       -3    1    3    3    0  502  0.10543126693E+04 -0.48580939773E+03  0.99433239321E+03  0.15284903971E+04  0.10100000352E+00 0. -1.
</event>
<event>
 5   0  0.3159875E-07  0.3657284E+04  0.7818609E-02  0.8077495E-01
        1   -1    0    0  501    0  0.00000000000E+00  0.00000000000E+00  0.19532100122E+04  0.19532100122E+04  0.50400001928E-02 0. -1.
       -1   -1    0    0    0  501  0.00000000000E+00  0.00000000000E+00 -0.17120181719E+04  0.17120181719E+04  0.50400001928E-02 0.  1.
    10030    2    1    2    0    0  0.00000000000E+00  0.00000000000E+00  0.24119184031E+03  0.36652281841E+04  0.36572837104E+04 0.  0.
        5    1    3    3  502    0  0.40880401245E+02 -0.27997836018E+03  0.19311331176E+04  0.19517572331E+04  0.46999998093E+01 0. -1.
       -5    1    3    3    0  502 -0.40880401245E+02  0.27997836018E+03 -0.16899412773E+04  0.17134709510E+04  0.46999998093E+01 0.  1.
</event>
<event>
 5   0  0.3159875E-07  0.3583791E+04  0.7818609E-02  0.8094215E-01
       -1   -1    0    0    0  501  0.00000000000E+00  0.00000000000E+00  0.12283047212E+04  0.12283047212E+04  0.50400001928E-02 0. -1.
        1   -1    0    0  501    0  0.00000000000E+00  0.00000000000E+00 -0.26140824457E+04  0.26140824457E+04  0.50400001928E-02 0.  1.
    10030    2    1    2    0    0  0.00000000000E+00  0.00000000000E+00 -0.13857777245E+04  0.38423871669E+04  0.35837911823E+04 0.  0.
        2    1    3    3  502    0 -0.17660502797E+04  0.30207043840E+03 -0.66432700197E+03  0.19108925940E+04  0.25500000920E-02 0. -1.
       -2    1    3    3    0  502  0.17660502797E+04 -0.30207043840E+03 -0.72145072258E+03  0.19314945729E+04  0.25500000920E-02 0.  1.
</event>
<event>
 5   0  0.1006019E-06  0.3610860E+04  0.7818609E-02  0.8088009E-01
        2   -1    0    0  501    0  0.00000000000E+00  0.00000000000E+00  0.12655370870E+04  0.12655370870E+04  0.25500000920E-02 0. -1.
       -2   -1    0    0    0  501  0.00000000000E+00  0.00000000000E+00 -0.25756470636E+04  0.25756470636E+04  0.25500000920E-02 0.  1.
    10030    2    1    2    0    0  0.00000000000E+00  0.00000000000E+00 -0.13101099766E+04  0.38411841506E+04  0.36108596661E+04 0.  0.
        1    1    3    3  502    0  0.17256761329E+04  0.39980027214E+03 -0.28382774202E+03  0.17939778595E+04  0.50400001928E-02 0.  1.
       -1    1    3    3    0  502 -0.17256761329E+04 -0.39980027214E+03 -0.10262822345E+04  0.20472062911E+04  0.50400001928E-02 0. -1.
</event>
<event>
 5   0  0.9538919E-07  0.3587548E+04  0.7818609E-02  0.8093350E-01
       -2   -1    0    0    0  501  0.00000000000E+00  0.00000000000E+00  0.16545484789E+04  0.16545484789E+04  0.25500000920E-02 0. -1.
        2   -1    0    0  501    0  0.00000000000E+00  0.00000000000E+00 -0.19447145822E+04  0.19447145822E+04  0.25500000920E-02 0.  1.
    10030    2    1    2    0    0  0.00000000000E+00  0.00000000000E+00 -0.29016610330E+03  0.35992630610E+04  0.35875476603E+04 0.  0.
        4    1    3    3  502    0 -0.13784913125E+03  0.25295946694E+03 -0.19213539309E+04  0.19428312885E+04  0.12699999809E+01 0.  1.
       -4    1    3    3    0  502  0.13784913125E+03 -0.25295946694E+03  0.16311878276E+04  0.16564317725E+04  0.12699999809E+01 0. -1.
</event>
<event>
 5   0  0.9878336E-07  0.2772244E+04  0.7818609E-02  0.8311938E-01
        2   -1    0    0  501    0  0.00000000000E+00  0.00000000000E+00  0.24184054734E+04  0.24184054734E+04  0.25500000920E-02 0.  1.
       -2   -1    0    0    0  501  0.00000000000E+00  0.00000000000E+00 -0.79446315790E+03  0.79446315790E+03  0.25500000920E-02 0. -1.
    10030    2    1    2    0    0  0.00000000000E+00  0.00000000000E+00  0.16239423155E+04  0.32128686313E+04  0.27722438922E+04 0.  0.
        3    1    3    3  502    0  0.33137287611E+02 -0.13804848435E+04  0.67242787501E+03  0.15359022561E+04  0.10100000352E+00 0.  1.
       -3    1    3    3    0  502 -0.33137287611E+02  0.13804848435E+04  0.95151444051E+03  0.16769663752E+04  0.10100000352E+00 0. -1.
</event>
<event>
 5   0  0.3242047E-07  0.3422892E+04  0.7818609E-02  0.8132311E-01
       -1   -1    0    0    0  501  0.00000000000E+00  0.00000000000E+00  0.16355019880E+04  0.16355019880E+04  0.50400001928E-02 0.  1.
        1   -1    0    0  501    0  0.00000000000E+00  0.00000000000E+00 -0.17909165831E+04  0.17909165831E+04  0.50400001928E-02 0. -1.
    10030    2    1    2    0    0  0.00000000000E+00  0.00000000000E+00 -0.15541459508E+03  0.34264185711E+04  0.34228921292E+04 0.  0.
        1    1    3    3  502    0 -0.36618690195E+03 -0.11239657317E+04  0.11611685752E+04  0.16570166786E+04  0.50400001928E-02 0.  1.
       -1    1    3    3    0  502  0.36618690195E+03  0.11239657317E+04 -0.13165831702E+04  0.17694018926E+04  0.50400001928E-02 0. -1.
</event>
<event>
 5   0  0.1031659E-06  0.3493882E+04  0.7818609E-02  0.8115241E-01
        2   -1    0    0  501    0  0.00000000000E+00  0.00000000000E+00  0.27957898601E+04  0.27957898601E+04  0.25500000920E-02 0.  1.
       -2   -1    0    0    0  501  0.00000000000E+00  0.00000000000E+00 -0.10915706642E+04  0.10915706642E+04  0.25500000920E-02 0. -1.
    10030    2    1    2    0    0  0.00000000000E+00  0.00000000000E+00  0.17042191959E+04  0.38873605242E+04  0.34938816204E+04 0.  0.
        2    1    3    3  502    0  0.19511637392E+03  0.15283103379E+04  0.17682483602E+04  0.23453155761E+04  0.25500000920E-02 0.  1.
       -2    1    3    3    0  502 -0.19511637392E+03 -0.15283103379E+04 -0.64029164253E+02  0.15420449481E+04  0.25500000920E-02 0. -1.
</event>
<event>
 5   0  0.3242047E-07  0.3791420E+04  0.7818609E-02  0.8047999E-01
       -1   -1    0    0    0  501  0.00000000000E+00  0.00000000000E+00  0.17153674320E+04  0.17153674321E+04  0.50400001928E-02 0. -1.
        1   -1    0    0  501    0  0.00000000000E+00  0.00000000000E+00 -0.20950120752E+04  0.20950120752E+04  0.50400001928E-02 0.  1.
    10030    2    1    2    0    0  0.00000000000E+00  0.00000000000E+00 -0.37964464317E+03  0.38103795073E+04  0.37914195144E+04 0.  0.
        1    1    3    3  502    0  0.12105737200E+04  0.16039757922E+01  0.12763164486E+04  0.17591119865E+04  0.50400001928E-02 0. -1.
       -1    1    3    3    0  502 -0.12105737200E+04 -0.16039757922E+01 -0.16559610918E+04  0.20512675207E+04  0.50400001928E-02 0.  1.
</event>
<event>
 5   0  0.3159875E-07  0.3947291E+04  0.7818609E-02  0.8015265E-01
        1   -1    0    0  501    0  0.00000000000E+00  0.00000000000E+00  0.18726424597E+04  0.18726424597E+04  0.50400001928E-02 0. -1.
       -1   -1    0    0    0  501  0.00000000000E+00  0.00000000000E+00 -0.20800960525E+04  0.20800960525E+04  0.50400001928E-02 0.  1.
    10030    2    1    2    0    0  0.00000000000E+00  0.00000000000E+00 -0.20745359279E+03  0.39527385121E+04  0.39472908117E+04 0.  0.
        2    1    3    3  502    0 -0.10752941136E+04  0.16548972716E+04 -0.85431994641E+02  0.19754090807E+04  0.25500000920E-02 0.  1.
       -2    1    3    3    0  502  0.10752941136E+04 -0.16548972716E+04 -0.12202159814E+03  0.19773294315E+04  0.25500000920E-02 0. -1.
</event>
<event>
 5   0  0.9878977E-07  0.3672047E+04  0.7818609E-02  0.8074185E-01
       -2   -1    0    0    0  501  0.00000000000E+00  0.00000000000E+00  0.14279566664E+04  0.14279566664E+04  0.25500000920E-02 0.  1.
        2   -1    0    0  501    0  0.00000000000E+00  0.00000000000E+00 -0.23607036800E+04  0.23607036800E+04  0.25500000920E-02 0. -1.
    10030    2    1    2    0    0  0.00000000000E+00  0.00000000000E+00 -0.93274701362E+03  0.37886603465E+04  0.36720471442E+04 0.  0.
        5    1    3    3  502    0 -0.17278840646E+03 -0.18265238454E+04 -0.53870899066E+03  0.19121387653E+04  0.46999998093E+01 0. -1.
       -5    1    3    3    0  502  0.17278840646E+03  0.18265238454E+04 -0.39403802295E+03  0.18765215812E+04  0.46999998093E+01 0.  1.
</event>
<event>
 5   0  0.3242047E-07  0.3610475E+04  0.7818609E-02  0.8088096E-01
       -1   -1    0    0    0  501  0.00000000000E+00  0.00000000000E+00  0.22479524193E+04  0.22479524193E+04  0.50400001928E-02 0.  1.
        1   -1    0    0  501    0  0.00000000000E+00  0.00000000000E+00 -0.14497116103E+04  0.14497116104E+04  0.50400001928E-02 0. -1.
    10030    2    1    2    0    0  0.00000000000E+00  0.00000000000E+00  0.79824080898E+03  0.36976640297E+04  0.36104751609E+04 0.  0.
        1    1    3    3  502    0 -0.12348168661E+04 -0.57062894089E+03  0.16145795847E+04  0.21112217591E+04  0.50400001928E-02 0.  1.
       -1    1    3    3    0  502  0.12348168661E+04  0.57062894089E+03 -0.81633877568E+03  0.15864422705E+04  0.50400001928E-02 0. -1.
</event>
<event>
 5   0  0.9538919E-07  0.3636500E+04  0.7818609E-02  0.8082182E-01
        2   -1    0    0  501    0  0.00000000000E+00  0.00000000000E+00  0.19456086786E+04  0.19456086786E+04  0.25500000920E-02 0. -1.
       -2   -1    0    0    0  501  0.00000000000E+00  0.00000000000E+00 -0.16992281253E+04  0.16992281253E+04  0.25500000920E-02 0.  1.
    10030    2    1    2    0    0  0.00000000000E+00  0.00000000000E+00  0.24638055329E+03  0.36448368039E+04  0.36364999587E+04 0.  0.
        4    1    3    3  502    0 -0.93438724714E+03  0.10889820372E+04 -0.99609273299E+03  0.17467580687E+04  0.12699999809E+01 0.  1.
       -4    1    3    3    0  502  0.93438724714E+03 -0.10889820372E+04  0.12424732863E+04  0.18980787352E+04  0.12699999809E+01 0. -1.
</event>
<event>
 5   0  0.3159875E-07  0.2579922E+04  0.7818609E-02  0.8375053E-01
       -3   -1    0    0    0  501  0.00000000000E+00  0.00000000000E+00  0.13606150379E+04  0.13606150417E+04  0.10100000352E+00 0. -1.
        3   -1    0    0  501    0  0.00000000000E+00  0.00000000000E+00 -0.12229757293E+04  0.12229757334E+04  0.10100000352E+00 0.  1.
    10030    2    1    2    0    0  0.00000000000E+00  0.00000000000E+00  0.13763930869E+03  0.25835907751E+04  0.25799218426E+04 0.  0.
        5    1    3    3  502    0 -0.10908277279E+04 -0.59172267270E+03 -0.28372677900E+03  0.12730136796E+04  0.46999998093E+01 0.  1.
       -5    1    3    3    0  502  0.10908277279E+04  0.59172267270E+03  0.42136608769E+03  0.13105770955E+04  0.46999998093E+01 0. -1.
</event>
<event>
 5   0  0.9878336E-07  0.3601460E+04  0.7818609E-02  0.8090157E-01
        2   -1    0    0  501    0  0.00000000000E+00  0.00000000000E+00  0.24744872892E+04  0.24744872892E+04  0.25500000920E-02 0.  1.
       -2   -1    0    0    0  501  0.00000000000E+00  0.00000000000E+00 -0.13104242628E+04  0.13104242628E+04  0.25500000920E-02 0. -1.
    10030    2    1    2    0    0  0.00000000000E+00  0.00000000000E+00  0.11640630264E+04  0.37849115519E+04  0.36014598049E+04 0.  0.
        3    1    3    3  502    0  0.13648391756E+04  0.45437014342E+03  0.17204405869E+04  0.22425775406E+04  0.10100000352E+00 0.  1.
       -3    1    3    3    0  502 -0.13648391756E+04 -0.45437014342E+03 -0.55637756047E+03  0.15423340113E+04  0.10100000352E+00 0. -1.
</event>
<event>
 5   0  0.9878336E-07  0.3653988E+04  0.7818609E-02  0.8078236E-01
       -2   -1    0    0    0  501  0.00000000000E+00  0.00000000000E+00  0.15251834699E+04  0.15251834699E+04  0.25500000920E-02 0.  1.
        2   -1    0    0  501    0  0.00000000000E+00  0.00000000000E+00 -0.21885281599E+04  0.21885281599E+04  0.25500000920E-02 0. -1.
    10030    2    1    2    0    0  0.00000000000E+00  0.00000000000E+00 -0.66334469001E+03  0.37137116298E+04  0.36539879436E+04 0.  0.
        3    1    3    3  502    0  0.13206962103E+04  0.85507067963E+03 -0.12755730560E+04  0.20254557459E+04  0.10100000352E+00 0. -1.
       -3    1    3    3    0  502 -0.13206962103E+04 -0.85507067963E+03  0.61222836601E+03  0.16882558839E+04  0.10100000352E+00 0.  1.
</event>
<event>
 5   0  0.3365378E-07  0.3579159E+04  0.7818609E-02  0.8095282E-01
        1   -1    0    0  501    0  0.00000000000E+00  0.00000000000E+00  0.18265608329E+04  0.18265608329E+04  0.50400001928E-02 0.  1.
       -1   -1    0    0    0  501  0.00000000000E+00  0.00000000000E+00 -0.17533467247E+04  0.17533467247E+04  0.50400001928E-02 0. -1.
    10030    2    1    2    0    0  0.00000000000E+00  0.00000000000E+00  0.73214108169E+02  0.35799075576E+04  0.35791588139E+04 0.  0.
        3    1    3    3  502    0 -0.94579811070E+03 -0.13589766695E+04  0.71589770547E+03  0.18038462211E+04  0.10100000352E+00 0.  1.
       -3    1    3    3    0  502  0.94579811070E+03  0.13589766695E+04 -0.64268359730E+03  0.17760613365E+04  0.10100000352E+00 0. -1.
</event>
<event>
 5   0  0.1031659E-06  0.2619461E+04  0.7818609E-02  0.8361621E-01
        2   -1    0    0  501    0  0.00000000000E+00  0.00000000000E+00  0.15685241030E+04  0.15685241030E+04  0.25500000920E-02 0.  1.
       -2   -1    0    0    0  501  0.00000000000E+00  0.00000000000E+00 -0.10936359574E+04  0.10936359574E+04  0.25500000920E-02 0. -1.
    10030    2    1    2    0    0  0.00000000000E+00  0.00000000000E+00  0.47488814553E+03  0.26621600604E+04  0.26194612875E+04 0.  0.
        2    1    3    3  502    0 -0.33974124077E+03  0.12588156414E+04  0.11151532691E+03  0.13086162913E+04  0.25500000920E-02 0. -1.
       -2    1    3    3    0  502  0.33974124077E+03 -0.12588156414E+04  0.36337281861E+03  0.13535437691E+04  0.25500000920E-02 0.  1.
</event>
<event>
 5   0  0.9538919E-07  0.3523643E+04  0.7818609E-02  0.8108210E-01
       -2   -1    0    0    0  501  0.00000000000E+00  0.00000000000E+00  0.14159773186E+04  0.14159773186E+04  0.25500000920E-02 0. -1.
        2   -1    0    0  501    0  0.00000000000E+00  0.00000000000E+00 -0.21921361465E+04  0.21921361465E+04  0.25500000920E-02 0.  1.
    10030    2    1    2    0    0  0.00000000000E+00  0.00000000000E+00 -0.77615882788E+03  0.36081134651E+04  0.35236430368E+04 0.  0.
        4    1    3    3  502    0  0.13157363995E+04 -0.27762788000E+03 -0.15536884376E+04  0.20547965561E+04  0.12699999809E+01 0.  1.
       -4    1    3    3    0  502 -0.13157363995E+04  0.27762788000E+03  0.77752960975E+03  0.15533169090E+04  0.12699999809E+01 0. -1.
</event>
<event>
 5   0  0.9538919E-07  0.3588995E+04  0.7818609E-02  0.8093017E-01
        2   -1    0    0  501    0  0.00000000000E+00  0.00000000000E+00  0.28717057123E+04  0.28717057123E+04  0.25500000920E-02 0. -1.
       -2   -1    0    0    0  501  0.00000000000E+00  0.00000000000E+00 -0.11213618073E+04  0.11213618073E+04  0.25500000920E-02 0.  1.
    10030    2    1    2    0    0  0.00000000000E+00  0.00000000000E+00  0.17503439051E+04  0.39930675196E+04  0.35889949053E+04 0.  0.
        4    1    3    3  502    0 -0.80706745782E+03  0.13641404047E+04  0.18113212048E+04  0.24068907422E+04  0.12699999809E+01 0. -1.
       -4    1    3    3    0  502  0.80706745782E+03 -0.13641404047E+04 -0.60977299739E+02  0.15861767774E+04  0.12699999809E+01 0.  1.
</event>
<event>
 5   0  0.3278988E-07  0.3473258E+04  0.7818609E-02  0.8120157E-01
       -1   -1    0    0    0  501  0.00000000000E+00  0.00000000000E+00  0.13513411658E+04  0.13513411658E+04  0.50400001928E-02 0.  1.
        1   -1    0    0  501    0  0.00000000000E+00  0.00000000000E+00 -0.22317679856E+04  0.22317679856E+04  0.50400001928E-02 0. -1.
    10030    2    1    2    0    0  0.00000000000E+00  0.00000000000E+00 -0.88042681978E+03  0.35831091514E+04  0.34732578087E+04 0.  0.
        4    1    3    3  502    0  0.22251147670E+03 -0.83279642051E+03  0.11150546812E+04  0.14094005074E+04  0.12699999809E+01 0.  1.
       -4    1    3    3    0  502 -0.22251147670E+03  0.83279642051E+03 -0.19954815010E+04  0.21737086440E+04  0.12699999809E+01 0. -1.
</event>
<event>
 5   0  0.3159875E-07  0.3608549E+04  0.7818609E-02  0.8088536E-01
        1   -1    0    0  501    0  0.00000000000E+00  0.00000000000E+00  0.99222012246E+03  0.99222012248E+03  0.50400001928E-02 0.  1.
       -1   -1    0    0    0  501  0.00000000000E+00  0.00000000000E+00 -0.32809318923E+04  0.32809318923E+04  0.50400001928E-02 0. -1.
    10030    2    1    2    0    0  0.00000000000E+00  0.00000000000E+00 -0.22887117698E+04  0.42731520148E+04  0.36085490957E+04 0.  0.
        5    1    3    3  502    0  0.16930585362E+04  0.56921574788E+03 -0.14461015446E+04  0.22981917984E+04  0.46999998093E+01 0. -1.
       -5    1    3    3    0  502 -0.16930585362E+04 -0.56921574788E+03 -0.84261022521E+03  0.19749602164E+04  0.46999998093E+01 0.  1.
</event>
<event>
 5   0  0.3242047E-07  0.3328453E+04  0.7818609E-02  0.8155693E-01
        1   -1    0    0  501    0  0.00000000000E+00  0.00000000000E+00  0.10145755173E+04  0.10145755173E+04  0.50400001928E-02 0. -1.
       -1   -1    0    0    0  501  0.00000000000E+00  0.00000000000E+00 -0.27298614487E+04  0.27298614487E+04  0.50400001928E-02 0.  1.
    10030    2    1    2    0    0  0.00000000000E+00  0.00000000000E+00 -0.17152859314E+04  0.37444369660E+04  0.33284534496E+04 0.  0.
        1    1    3    3  502    0  0.14100027992E+03  0.16518527058E+04 -0.69402864808E+03  0.17972685400E+04  0.50400001928E-02 0.  1.
       -1    1    3    3    0  502 -0.14100027992E+03 -0.16518527058E+04 -0.10212572833E+04  0.19471684260E+04  0.50400001928E-02 0. -1.
</event>
<event>
 5   0  0.3278988E-07  0.3592993E+04  0.7818609E-02  0.8092099E-01
        1   -1    0    0  501    0  0.00000000000E+00  0.00000000000E+00  0.12858436294E+04  0.12858436294E+04  0.50400001928E-02 0.  1.
       -1   -1    0    0    0  501  0.00000000000E+00  0.00000000000E+00 -0.25099470721E+04  0.25099470721E+04  0.50400001928E-02 0. -1.
    10030    2    1    2    0    0  0.00000000000E+00  0.00000000000E+00 -0.12241034427E+04  0.37957907016E+04  0.35929928767E+04 0.  0.
        4    1    3    3  502    0  0.27085942771E+03 -0.74996452511E+03  0.10886522762E+04  0.13494358117E+04  0.12699999809E+01 0.  1.
       -4    1    3    3    0  502 -0.27085942771E+03  0.74996452511E+03 -0.23127557190E+04  0.24463548898E+04  0.12699999809E+01 0. -1.
</event>
<event>
 5   0  0.3242047E-07  0.3727753E+04  0.7818609E-02  0.8061839E-01
       -1   -1    0    0    0  501  0.00000000000E+00  0.00000000000E+00  0.13169466038E+04  0.13169466038E+04  0.50400001928E-02 0.  1.
        1   -1    0    0  501    0  0.00000000000E+00  0.00000000000E+00 -0.26379470193E+04  0.26379470193E+04  0.50400001928E-02 0. -1.
    10030    2    1    2    0    0  0.00000000000E+00  0.00000000000E+00 -0.13210004155E+04  0.39548936232E+04  0.37277528717E+04 0.  0.
        1    1    3    3  502    0  0.56116866151E+03  0.40439355948E+03  0.11757376968E+04  0.13641127333E+04  0.50400001928E-02 0.  1.
       -1    1    3    3    0  502 -0.56116866151E+03 -0.40439355948E+03 -0.24967381123E+04  0.25907808898E+04  0.50400001928E-02 0. -1.
</event>
<event>
 5   0  0.1031659E-06  0.3684667E+04  0.7818609E-02  0.8071368E-01
       -2   -1    0    0    0  501  0.00000000000E+00  0.00000000000E+00  0.20508171977E+04  0.20508171977E+04  0.25500000920E-02 0. -1.
        2   -1    0    0  501    0  0.00000000000E+00  0.00000000000E+00 -0.16550438251E+04  0.16550438251E+04  0.25500000920E-02 0.  1.
    10030    2    1    2    0    0  0.00000000000E+00  0.00000000000E+00  0.39577337264E+03  0.37058610228E+04  0.36846667907E+04 0.  0.
        2    1    3    3  502    0  0.12450535621E+04  0.22425867553E+03 -0.11491235574E+04  0.17090743917E+04  0.25500000920E-02 0.  1.
       -2    1    3    3    0  502 -0.12450535621E+04 -0.22425867553E+03  0.15448969301E+04  0.19967866312E+04  0.25500000920E-02 0. -1.
</event>
<event>
 5   0  0.3278988E-07  0.3626531E+04  0.7818609E-02  0.8084441E-01
        1   -1    0    0  501    0  0.00000000000E+00  0.00000000000E+00  0.20842657857E+04  0.20842657857E+04  0.50400001928E-02 0.  1.
       -1   -1    0    0    0  501  0.00000000000E+00  0.00000000000E+00 -0.15775012016E+04  0.15775012016E+04  0.50400001928E-02 0. -1.
    10030    2    1    2    0    0  0.00000000000E+00  0.00000000000E+00  0.50676458409E+03  0.36617669873E+04  0.36265310044E+04 0.  0.
        4    1    3    3  502    0  0.82984263986E+03  0.14482486257E+04 -0.46192680980E+03  0.17318893958E+04  0.12699999809E+01 0. -1.
       -4    1    3    3    0  502 -0.82984263986E+03 -0.14482486257E+04  0.96869139389E+03  0.19298775915E+04  0.12699999809E+01 0.  1.
</event>
<event>
 5   0  0.9538919E-07  0.3319160E+04  0.7818609E-02  0.8158037E-01
        2   -1    0    0  501    0  0.00000000000E+00  0.00000000000E+00  0.17162140436E+04  0.17162140436E+04  0.25500000920E-02 0. -1.
       -2   -1    0    0    0  501  0.00000000000E+00  0.00000000000E+00 -0.16048149083E+04  0.16048149083E+04  0.25500000920E-02 0.  1.
    10030    2    1    2    0    0  0.00000000000E+00  0.00000000000E+00  0.11139913537E+03  0.33210289519E+04  0.33191600642E+04 0.  0.
        4    1    3    3  502    0  0.15764263279E+04  0.16545541580E+03  0.54761529027E+03  0.16770150807E+04  0.12699999809E+01 0. -1.
       -4    1    3    3    0  502 -0.15764263279E+04 -0.16545541580E+03 -0.43621615490E+03  0.16440138712E+04  0.12699999809E+01 0.  1.
</event>
<event>
 5   0  0.3242047E-07  0.3600274E+04  0.7818609E-02  0.8090429E-01
        1   -1    0    0  501    0  0.00000000000E+00  0.00000000000E+00  0.27896441258E+04  0.27896441258E+04  0.50400001928E-02 0.  1.
       -1   -1    0    0    0  501  0.00000000000E+00  0.00000000000E+00 -0.11616152252E+04  0.11616152252E+04  0.50400001928E-02 0. -1.
    10030    2    1    2    0    0  0.00000000000E+00  0.00000000000E+00  0.16280289007E+04  0.39512593510E+04  0.36002739281E+04 0.  0.
        1    1    3    3  502    0  0.27104572879E+03 -0.80637700211E+03  0.25551112386E+04  0.26930100442E+04  0.50400001928E-02 0.  1.
       -1    1    3    3    0  502 -0.27104572879E+03  0.80637700211E+03 -0.92708233795E+03  0.12582493068E+04  0.50400001928E-02 0. -1.
</event>
<event>
 5   0  0.3365378E-07  0.2633655E+04  0.7818609E-02  0.8356859E-01
       -1   -1    0    0    0  501  0.00000000000E+00  0.00000000000E+00  0.14993588695E+04  0.14993588695E+04  0.50400001928E-02 0. -1.
        1   -1    0    0  501    0  0.00000000000E+00  0.00000000000E+00 -0.11565172319E+04  0.11565172320E+04  0.50400001928E-02 0.  1.
    10030    2    1    2    0    0  0.00000000000E+00  0.00000000000E+00  0.34284163758E+03  0.26558761015E+04  0.26336547758E+04 0.  0.
        3    1    3    3  502    0 -0.46112747900E+02 -0.98672838483E+03  0.10495579741E+04  0.14412949879E+04  0.10100000352E+00 0. -1.
       -3    1    3    3    0  502  0.46112747900E+02  0.98672838483E+03 -0.70671633654E+03  0.12145811136E+04  0.10100000352E+00 0.  1.
</event>
<event>
 5   0  0.1031659E-06  0.3568868E+04  0.7818609E-02  0.8097660E-01
        2   -1    0    0  501    0  0.00000000000E+00  0.00000000000E+00  0.14922386723E+04  0.14922386723E+04  0.25500000920E-02 0.  1.
       -2   -1    0    0    0  501  0.00000000000E+00  0.00000000000E+00 -0.21338441614E+04  0.21338441614E+04  0.25500000920E-02 0. -1.
    10030    2    1    2    0    0  0.00000000000E+00  0.00000000000E+00 -0.64160548914E+03  0.36260828337E+04  0.35688680436E+04 0.  0.
        2    1    3    3  502    0  0.31889838554E+03  0.15024601826E+04  0.60212204898E+03  0.16497374768E+04  0.25500000920E-02 0.  1.
       -2    1    3    3    0  502 -0.31889838554E+03 -0.15024601826E+04 -0.12437275381E+04  0.19763453569E+04  0.25500000920E-02 0. -1.
</event>
<event>
 5   0  0.9878336E-07  0.3550560E+04  0.7818609E-02  0.8101911E-01
        2   -1    0    0  501    0  0.00000000000E+00  0.00000000000E+00  0.13383731123E+04  0.13383731123E+04  0.25500000920E-02 0.  1.
       -2   -1    0    0    0  501  0.00000000000E+00  0.00000000000E+00 -0.23548134205E+04  0.23548134205E+04  0.25500000920E-02 0. -1.
    10030    2    1    2    0    0  0.00000000000E+00  0.00000000000E+00 -0.10164403082E+04  0.36931865328E+04  0.35505599370E+04 0.  0.
        3    1    3    3  502    0 -0.97929061063E+03 -0.46378969591E+03 -0.19709479578E+04  0.22491658109E+04  0.10100000352E+00 0. -1.
       -3    1    3    3    0  502  0.97929061063E+03  0.46378969591E+03  0.95450764966E+03  0.14440207220E+04  0.10100000352E+00 0.  1.
</event>
<event>
 5   0  0.9878977E-07  0.3555620E+04  0.7818609E-02  0.8100734E-01
       -2   -1    0    0    0  501  0.00000000000E+00  0.00000000000E+00  0.22232979742E+04  0.22232979742E+04  0.25500000920E-02 0.  1.
        2   -1    0    0  501    0  0.00000000000E+00  0.00000000000E+00 -0.14215857832E+04  0.14215857832E+04  0.25500000920E-02 0. -1.
    10030    2    1    2    0    0  0.00000000000E+00  0.00000000000E+00  0.80171219106E+03  0.36448837574E+04  0.35556202227E+04 0.  0.
        5    1    3    3  502    0  0.34163719497E+03  0.16114639964E+04 -0.28455094080E+03  0.16716828385E+04  0.46999998093E+01 0. -1.
       -5    1    3    3    0  502 -0.34163719497E+03 -0.16114639964E+04  0.10862631319E+04  0.19732009189E+04  0.46999998093E+01 0.  1.
</event>
<event>
 5   0  0.3278988E-07  0.3595088E+04  0.7818609E-02  0.8091618E-01
        1   -1    0    0  501    0  0.00000000000E+00  0.00000000000E+00  0.11177916197E+04  0.11177916197E+04  0.50400001928E-02 0.  1.
       -1   -1    0    0    0  501  0.00000000000E+00  0.00000000000E+00 -0.28906682735E+04  0.28906682736E+04  0.50400001928E-02 0. -1.
    10030    2    1    2    0    0  0.00000000000E+00  0.00000000000E+00 -0.17728766538E+04  0.40084598933E+04  0.35950881890E+04 0.  0.
        4    1    3    3  502    0 -0.69251248202E+03 -0.10091667047E+04  0.58143591438E+03  0.13550130298E+04  0.12699999809E+01 0.  1.
       -4    1    3    3    0  502  0.69251248202E+03  0.10091667047E+04 -0.23543125682E+04  0.26534468635E+04  0.12699999809E+01 0. -1.
</event>
<event>
 5   0  0.3242047E-07  0.3397976E+04  0.7818609E-02  0.8138403E-01
       -1   -1    0    0    0  501  0.00000000000E+00  0.00000000000E+00  0.16946258598E+04  0.16946258598E+04  0.50400001928E-02 0.  1.
        1   -1    0    0  501    0  0.00000000000E+00  0.00000000000E+00 -0.17033612150E+04  0.17033612150E+04  0.50400001928E-02 0. -1.
    10030    2    1    2    0    0  0.00000000000E+00  0.00000000000E+00 -0.87353552454E+01  0.33979870748E+04  0.33979758466E+04 0.  0.
        1    1    3    3  502    0 -0.91901779537E+03  0.46916004702E+03 -0.13541332668E+04  0.17024634393E+04  0.50400001928E-02 0. -1.
       -1    1    3    3    0  502  0.91901779537E+03 -0.46916004702E+03  0.13453979116E+04  0.16955236355E+04  0.50400001928E-02 0.  1.
</event>
<event>
 5   0  0.3159875E-07  0.3375924E+04  0.7818609E-02  0.8143841E-01
       -1   -1    0    0    0  501  0.00000000000E+00  0.00000000000E+00  0.18528084203E+04  0.18528084203E+04  0.50400001928E-02 0.  1.
        1   -1    0    0  501    0  0.00000000000E+00  0.00000000000E+00 -0.15377820965E+04  0.15377820965E+04  0.50400001928E-02 0. -1.
    10030    2    1    2    0    0  0.00000000000E+00  0.00000000000E+00  0.31502632377E+03  0.33905905168E+04  0.33759239428E+04 0.  0.
        5    1    3    3  502    0 -0.95618337696E+03  0.76787946343E+03  0.13224090067E+04  0.18035279847E+04  0.46999998093E+01 0.  1.
       -5    1    3    3    0  502  0.95618337696E+03 -0.76787946343E+03 -0.10073826829E+04  0.15870625320E+04  0.46999998093E+01 0. -1.
</event>
<event>
 5   0  0.9878336E-07  0.3589239E+04  0.7818609E-02  0.8092961E-01
       -2   -1    0    0    0  501  0.00000000000E+00  0.00000000000E+00  0.16913661782E+04  0.16913661782E+04  0.25500000920E-02 0. -1.
        2   -1    0    0  501    0  0.00000000000E+00  0.00000000000E+00 -0.19041756759E+04  0.19041756759E+04  0.25500000920E-02 0.  1.
    10030    2    1    2    0    0  0.00000000000E+00  0.00000000000E+00 -0.21280949772E+03  0.35955418541E+04  0.35892385463E+04 0.  0.
        3    1    3    3  502    0 -0.46479173023E+03  0.38668688521E+03  0.15862668393E+04  0.16975866975E+04  0.10100000352E+00 0. -1.
       -3    1    3    3    0  502  0.46479173023E+03 -0.38668688521E+03 -0.17990763370E+04  0.18979551566E+04  0.10100000352E+00 0.  1.
</event>
<event>
 5   0  0.1031659E-06  0.3582535E+04  0.7818609E-02  0.8094504E-01
       -2   -1    0    0    0  501  0.00000000000E+00  0.00000000000E+00  0.10892184399E+04  0.10892184399E+04  0.25500000920E-02 0. -1.
        2   -1    0    0  501    0  0.00000000000E+00  0.00000000000E+00 -0.29458185739E+04  0.29458185739E+04  0.25500000920E-02 0.  1.
    10030    2    1    2    0    0  0.00000000000E+00  0.00000000000E+00 -0.18566001340E+04  0.40350370137E+04  0.35825353654E+04 0.  0.
        2    1    3    3  502    0  0.60335988598E+03 -0.51088662431E+03 -0.27386768437E+04  0.28505085773E+04  0.25500000920E-02 0.  1.
       -2    1    3    3    0  502 -0.60335988598E+03  0.51088662431E+03  0.88207670970E+03  0.11845284364E+04  0.25500000920E-02 0. -1.
</event>
<event>
 5   0  0.3159875E-07  0.3586938E+04  0.7818609E-02  0.8093490E-01
       -1   -1    0    0    0  501  0.00000000000E+00  0.00000000000E+00  0.15216860135E+04  0.15216860135E+04  0.50400001928E-02 0. -1.
        1   -1    0    0  501    0  0.00000000000E+00  0.00000000000E+00 -0.21137945678E+04  0.21137945678E+04  0.50400001928E-02 0.  1.
    10030    2    1    2    0    0  0.00000000000E+00  0.00000000000E+00 -0.59210855424E+03  0.36354805813E+04  0.35869383208E+04 0.  0.
        2    1    3    3  502    0  0.64544690978E+02 -0.75035755003E+03  0.13536491634E+04  0.15490540751E+04  0.25500000920E-02 0. -1.
       -2    1    3    3    0  502 -0.64544690978E+02  0.75035755003E+03 -0.19457577176E+04  0.20864265062E+04  0.25500000920E-02 0.  1.
</event>
<event>
 5   0  0.3159875E-07  0.3544353E+04  0.7818609E-02  0.8103359E-01
        1   -1    0    0  501    0  0.00000000000E+00  0.00000000000E+00  0.18382478790E+04  0.18382478790E+04  0.50400001928E-02 0. -1.
       -1   -1    0    0    0  501  0.00000000000E+00  0.00000000000E+00 -0.17084796084E+04  0.17084796084E+04  0.50400001928E-02 0.  1.
    10030    2    1    2    0    0  0.00000000000E+00  0.00000000000E+00  0.12976827055E+03  0.35467274874E+04  0.35443527005E+04 0.  0.
        2    1    3    3  502    0 -0.52922848302E+03 -0.16763610581E+04  0.28939986337E+03  0.17815783635E+04  0.25500000920E-02 0.  1.
       -2    1    3    3    0  502  0.52922848302E+03  0.16763610581E+04 -0.15963159282E+03  0.17651491239E+04  0.25500000920E-02 0. -1.
</event>
<event>
 5   0  0.9538919E-07  0.3617892E+04  0.7818609E-02  0.8086406E-01
        2   -1    0    0  501    0  0.00000000000E+00  0.00000000000E+00  0.26856426437E+04  0.26856426437E+04  0.25500000920E-02 0.  1.
       -2   -1    0    0    0  501  0.00000000000E+00  0.00000000000E+00 -0.12184364088E+04  0.12184364088E+04  0.25500000920E-02 0. -1.
    10030    2    1    2    0    0  0.00000000000E+00  0.00000000000E+00  0.14672062349E+04  0.39040790525E+04  0.36178915286E+04 0.  0.
        4    1    3    3  502    0 -0.36743580917E+02 -0.33298920706E+03  0.26518748413E+04  0.26729522423E+04  0.12699999809E+01 0.  1.
       -4    1    3    3    0  502  0.36743580917E+02  0.33298920706E+03 -0.11846686065E+04  0.12311268102E+04  0.12699999809E+01 0. -1.
</event>
<event>
 5   0  0.3365378E-07  0.3538702E+04  0.7818609E-02  0.8104679E-01
        1   -1    0    0  501    0  0.00000000000E+00  0.00000000000E+00  0.20575145472E+04  0.20575145472E+04  0.50400001928E-02 0. -1.
       -1   -1    0    0    0  501  0.00000000000E+00  0.00000000000E+00 -0.15215463426E+04  0.15215463426E+04  0.50400001928E-02 0.  1.
    10030    2    1    2    0    0  0.00000000000E+00  0.00000000000E+00  0.53596820455E+03  0.35790608898E+04  0.35387024368E+04 0.  0.
        3    1    3    3  502    0 -0.98413140143E+03 -0.14678232002E+04  0.35606441223E+03  0.18027205657E+04  0.10100000352E+00 0.  1.
       -3    1    3    3    0  502  0.98413140143E+03  0.14678232002E+04  0.17990379232E+03  0.17763403241E+04  0.10100000352E+00 0. -1.
</event>
<event>
 5   0  0.1006019E-06  0.3615427E+04  0.7818609E-02  0.8086967E-01
        2   -1    0    0  501    0  0.00000000000E+00  0.00000000000E+00  0.21894165218E+04  0.21894165218E+04  0.25500000920E-02 0.  1.
       -2   -1    0    0    0  501  0.00000000000E+00  0.00000000000E+00 -0.14925566746E+04  0.14925566746E+04  0.25500000920E-02 0. -1.
    10030    2    1    2    0    0  0.00000000000E+00  0.00000000000E+00  0.69685984718E+03  0.36819731964E+04  0.36154270802E+04 0.  0.
        1    1    3    3  502    0 -0.11113926053E+04  0.77132356873E+03  0.15695386860E+04  0.20720968264E+04  0.50400001928E-02 0.  1.
       -1    1    3    3    0  502  0.11113926053E+04 -0.77132356873E+03 -0.87267883885E+03  0.16098763700E+04  0.50400001928E-02 0. -1.
</event>
<event>
 5   0  0.3159875E-07  0.3663007E+04  0.7818609E-02  0.8076210E-01
        1   -1    0    0  501    0  0.00000000000E+00  0.00000000000E+00  0.18508970171E+04  0.18508970171E+04  0.50400001928E-02 0.  1.
       -1   -1    0    0    0  501  0.00000000000E+00  0.00000000000E+00 -0.18123134631E+04  0.18123134631E+04  0.50400001928E-02 0. -1.
    10030    2    1    2    0    0  0.00000000000E+00  0.00000000000E+00  0.38583554004E+02  0.36632104803E+04  0.36630072798E+04 0.  0.
        2    1    3    3  502    0  0.31327927413E+02 -0.10463205399E+04  0.15222515464E+04  0.18474354879E+04  0.25500000920E-02 0.  1.
       -2    1    3    3    0  502 -0.31327927413E+02  0.10463205399E+04 -0.14836679924E+04  0.18157749924E+04  0.25500000920E-02 0. -1.
</event>
<event>
 5   0  0.3278988E-07  0.3607991E+04  0.7818609E-02  0.8088664E-01
        1   -1    0    0  501    0  0.00000000000E+00  0.00000000000E+00  0.20693474282E+04  0.20693474282E+04  0.50400001928E-02 0.  1.
       -1   -1    0    0    0  501  0.00000000000E+00  0.00000000000E+00 -0.15726698251E+04  0.15726698251E+04  0.50400001928E-02 0. -1.
    10030    2    1    2    0    0  0.00000000000E+00  0.00000000000E+00  0.49667760311E+03  0.36420172532E+04  0.36079912737E+04 0.  0.
        4    1    3    3  502    0  0.54821317471E+03  0.47041389123E+03 -0.14202998760E+04  0.15934491723E+04  0.12699999809E+01 0. -1.
       -4    1    3    3    0  502 -0.54821317471E+03 -0.47041389123E+03  0.19169774791E+04  0.20485680810E+04  0.12699999809E+01 0.  1.
</event>
<event>
 5   0  0.9538919E-07  0.3651290E+04  0.7818609E-02  0.8078843E-01
        2   -1    0    0  501    0  0.00000000000E+00  0.00000000000E+00  0.19367529697E+04  0.19367529697E+04  0.25500000920E-02 0. -1.
       -2   -1    0    0    0  501  0.00000000000E+00  0.00000000000E+00 -0.17209113808E+04  0.17209113808E+04  0.25500000920E-02 0.  1.
    10030    2    1    2    0    0  0.00000000000E+00  0.00000000000E+00  0.21584158889E+03  0.36576643506E+04  0.36512903075E+04 0.  0.
        4    1    3    3  502    0  0.77040318620E+03 -0.69675367226E+03 -0.13960301036E+04  0.17400828751E+04  0.12699999809E+01 0.  1.
       -4    1    3    3    0  502 -0.77040318620E+03  0.69675367226E+03  0.16118716925E+04  0.19175814755E+04  0.12699999809E+01 0. -1.
</event>
<event>
 5   0  0.1031659E-06  0.3592877E+04  0.7818609E-02  0.8092125E-01
       -2   -1    0    0    0  501  0.00000000000E+00  0.00000000000E+00  0.15291730575E+04  0.15291730575E+04  0.25500000920E-02 0.  1.
        2   -1    0    0  501    0  0.00000000000E+00  0.00000000000E+00 -0.21104155072E+04  0.21104155072E+04  0.25500000920E-02 0. -1.
    10030    2    1    2    0    0  0.00000000000E+00  0.00000000000E+00 -0.58124244966E+03  0.36395885647E+04  0.35928765822E+04 0.  0.
        2    1    3    3  502    0  0.13842408718E+04 -0.35743599189E+03 -0.13925632753E+04  0.19957744750E+04  0.25500000920E-02 0.  1.
       -2    1    3    3    0  502 -0.13842408718E+04  0.35743599189E+03  0.81132082561E+03  0.16438140897E+04  0.25500000920E-02 0. -1.
</event>
<event>
 5   0  0.3159875E-07  0.3526256E+04  0.7818609E-02  0.8107596E-01
       -1   -1    0    0    0  501  0.00000000000E+00  0.00000000000E+00  0.25333516371E+04  0.25333516371E+04  0.50400001928E-02 0. -1.
        1   -1    0    0  501    0  0.00000000000E+00  0.00000000000E+00 -0.12270778743E+04  0.12270778744E+04  0.50400001928E-02 0.  1.
    10030    2    1    2    0    0  0.00000000000E+00  0.00000000000E+00  0.13062737627E+04  0.37604295114E+04  0.35262556582E+04 0.  0.
        5    1    3    3  502    0 -0.17243251380E+04  0.57181832285E+02  0.10406274469E+04  0.20148187305E+04  0.46999998093E+01 0. -1.
       -5    1    3    3    0  502  0.17243251380E+04 -0.57181832285E+02  0.26564631586E+03  0.17456107810E+04  0.46999998093E+01 0.  1.
</event>
<event>
 5   0  0.9878977E-07  0.3609708E+04  0.7818609E-02  0.8088271E-01
        2   -1    0    0  501    0  0.00000000000E+00  0.00000000000E+00  0.11179346461E+04  0.11179346461E+04  0.25500000920E-02 0.  1.
       -2   -1    0    0    0  501  0.00000000000E+00  0.00000000000E+00 -0.29138544452E+04  0.29138544452E+04  0.25500000920E-02 0. -1.
    10030    2    1    2    0    0  0.00000000000E+00  0.00000000000E+00 -0.17959197991E+04  0.40317890912E+04  0.36097084857E+04 0.  0.
        5    1    3    3  502    0 -0.14036636446E+03  0.11641906805E+04  0.63448745848E+03  0.13332813213E+04  0.46999998093E+01 0.  1.
       -5    1    3    3    0  502  0.14036636446E+03 -0.11641906805E+04 -0.24304072575E+04  0.26985077699E+04  0.46999998093E+01 0. -1.
</event>
<event>
 5   0  0.1031659E-06  0.3522959E+04  0.7818609E-02  0.8108370E-01
       -2   -1    0    0    0  501  0.00000000000E+00  0.00000000000E+00  0.18696882970E+04  0.18696882970E+04  0.25500000920E-02 0.  1.
        2   -1    0    0  501    0  0.00000000000E+00  0.00000000000E+00 -0.16595333687E+04  0.16595333687E+04  0.25500000920E-02 0. -1.
    10030    2    1    2    0    0  0.00000000000E+00  0.00000000000E+00  0.21015492822E+03  0.35292216657E+04  0.35229590506E+04 0.  0.
        2    1    3    3  502    0  0.57489865910E+03 -0.23206255775E+03 -0.15466253395E+04  0.16662567149E+04  0.25500000920E-02 0. -1.
       -2    1    3    3    0  502 -0.57489865910E+03  0.23206255775E+03  0.17567802677E+04  0.18629649509E+04  0.25500000920E-02 0.  1.
</event>
<event>
 5   0  0.3159875E-07  0.3606076E+04  0.7818609E-02  0.8089101E-01
        4   -1    0    0  501    0  0.00000000000E+00  0.00000000000E+00  0.19151903653E+04  0.19151907863E+04  0.12699999809E+01 0.  1.
       -4   -1    0    0    0  501  0.00000000000E+00  0.00000000000E+00 -0.16974519721E+04  0.16974524472E+04  0.12699999809E+01 0. -1.
    10030    2    1    2    0    0  0.00000000000E+00  0.00000000000E+00  0.21773839314E+03  0.36126432336E+04  0.36060755850E+04 0.  0.
        5    1    3    3  502    0  0.26728933657E+03 -0.15088645656E+04  0.10607614365E+04  0.18636933176E+04  0.46999998093E+01 0.  1.
       -5    1    3    3    0  502 -0.26728933657E+03  0.15088645656E+04 -0.84302304337E+03  0.17489499160E+04  0.46999998093E+01 0. -1.
</event>
<event>
 5   0  0.3365378E-07  0.3602016E+04  0.7818609E-02  0.8090030E-01
       -1   -1    0    0    0  501  0.00000000000E+00  0.00000000000E+00  0.16280324829E+04  0.16280324829E+04  0.50400001928E-02 0.  1.
        1   -1    0    0  501    0  0.00000000000E+00  0.00000000000E+00 -0.19923621014E+04  0.19923621014E+04  0.50400001928E-02 0. -1.
    10030    2    1    2    0    0  0.00000000000E+00  0.00000000000E+00 -0.36432961845E+03  0.36203945843E+04  0.36020162236E+04 0.  0.
        3    1    3    3  502    0 -0.27154944937E+03 -0.26095092574E+02 -0.19714755182E+04  0.19902602308E+04  0.10100000352E+00 0. -1.
       -3    1    3    3    0  502  0.27154944937E+03  0.26095092574E+02  0.16071458997E+04  0.16301343535E+04  0.10100000352E+00 0.  1.
</event>
<event>
 5   0  0.1006019E-06  0.3571554E+04  0.7818609E-02  0.8097039E-01
        2   -1    0    0  501    0  0.00000000000E+00  0.00000000000E+00  0.18490970817E+04  0.18490970817E+04  0.25500000920E-02 0.  1.
       -2   -1    0    0    0  501  0.00000000000E+00  0.00000000000E+00 -0.17246254938E+04  0.17246254938E+04  0.25500000920E-02 0. -1.
    10030    2    1    2    0    0  0.00000000000E+00  0.00000000000E+00  0.12447158790E+03  0.35737225756E+04  0.35715542654E+04 0.  0.
        1    1    3    3  502    0  0.77303375980E+03 -0.30645886244E+03 -0.15190722576E+04  0.17317848458E+04  0.50400001928E-02 0. -1.
       -1    1    3    3    0  502 -0.77303375980E+03  0.30645886244E+03  0.16435438455E+04  0.18419377298E+04  0.50400001928E-02 0.  1.
</event>
<event>
 5   0  0.3365378E-07  0.3617904E+04  0.7818609E-02  0.8086403E-01
       -1   -1    0    0    0  501  0.00000000000E+00  0.00000000000E+00  0.18283156813E+04  0.18283156813E+04  0.50400001928E-02 0. -1.
        1   -1    0    0  501    0  0.00000000000E+00  0.00000000000E+00 -0.17897933729E+04  0.17897933730E+04  0.50400001928E-02 0.  1.
    10030    2    1    2    0    0  0.00000000000E+00  0.00000000000E+00  0.38522308378E+02  0.36181090543E+04  0.36179039734E+04 0.  0.
        3    1    3    3  502    0 -0.16525862426E+03  0.39962083581E+03  0.17758629432E+04  0.18277572127E+04  0.10100000352E+00 0. -1.
       -3    1    3    3    0  502  0.16525862426E+03 -0.39962083581E+03 -0.17373406348E+04  0.17903518416E+04  0.10100000352E+00 0.  1.
</event>
<event>
 5   0  0.1031659E-06  0.3614054E+04  0.7818609E-02  0.8087280E-01
        2   -1    0    0  501    0  0.00000000000E+00  0.00000000000E+00  0.22910330785E+04  0.22910330785E+04  0.25500000920E-02 0. -1.
       -2   -1    0    0    0  501  0.00000000000E+00  0.00000000000E+00 -0.14252721974E+04  0.14252721974E+04  0.25500000920E-02 0.  1.
    10030    2    1    2    0    0  0.00000000000E+00  0.00000000000E+00  0.86576088114E+03  0.37163052759E+04  0.36140535414E+04 0.  0.
        2    1    3    3  502    0 -0.17384710686E+03  0.17838013956E+04  0.19575800374E+03  0.18029119312E+04  0.25500000920E-02 0.  1.
       -2    1    3    3    0  502  0.17384710686E+03 -0.17838013956E+04  0.67000287740E+03  0.19133933447E+04  0.25500000920E-02 0. -1.
</event>
<event>
 5   0  0.9878336E-07  0.3596563E+04  0.7818609E-02  0.8091280E-01
        2   -1    0    0  501    0  0.00000000000E+00  0.00000000000E+00  0.19568451426E+04  0.19568451426E+04  0.25500000920E-02 0.  1.
       -2   -1    0    0    0  501  0.00000000000E+00  0.00000000000E+00 -0.16525658995E+04  0.16525658995E+04  0.25500000920E-02 0. -1.
    10030    2    1    2    0    0  0.00000000000E+00  0.00000000000E+00  0.30427924311E+03  0.36094110420E+04  0.35965625551E+04 0.  0.
        3    1    3    3  502    0  0.12728513193E+04 -0.96214345364E+03 -0.68024796511E+03  0.17345338886E+04  0.10100000352E+00 0.  1.
       -3    1    3    3    0  502 -0.12728513193E+04  0.96214345364E+03  0.98452720822E+03  0.18748771534E+04  0.10100000352E+00 0. -1.
</event>
<event>
 5   0  0.1006019E-06  0.3593361E+04  0.7818609E-02  0.8092014E-01
        2   -1    0    0  501    0  0.00000000000E+00  0.00000000000E+00  0.22720549069E+04  0.22720549069E+04  0.25500000920E-02 0. -1.
       -2   -1    0    0    0  501  0.00000000000E+00  0.00000000000E+00 -0.14207670838E+04  0.14207670838E+04  0.25500000920E-02 0.  1.
    10030    2    1    2    0    0  0.00000000000E+00  0.00000000000E+00  0.85128782311E+03  0.36928219907E+04  0.35933610029E+04 0.  0.
        1    1    3    3  502    0  0.15250990568E+04 -0.84634615955E+02  0.13978580337E+04  0.20705306647E+04  0.50400001928E-02 0. -1.
       -1    1    3    3    0  502 -0.15250990568E+04  0.84634615955E+02 -0.54657021057E+03  0.16222913260E+04  0.50400001928E-02 0.  1.
</event>
<event>
 5   0  0.9878977E-07  0.3546606E+04  0.7818609E-02  0.8102833E-01
       -2   -1    0    0    0  501  0.00000000000E+00  0.00000000000E+00  0.12058733032E+04  0.12058733032E+04  0.25500000920E-02 0.  1.
        2   -1    0    0  501    0  0.00000000000E+00  0.00000000000E+00 -0.26077394422E+04  0.26077394422E+04  0.25500000920E-02 0. -1.
    10030    2    1    2    0    0  0.00000000000E+00  0.00000000000E+00 -0.14018661390E+04  0.38136127454E+04  0.35466059127E+04 0.  0.
        5    1    3    3  502    0  0.49318232105E+03  0.15656612800E+04  0.20436026086E+02  0.16416344802E+04  0.46999998093E+01 0. -1.
       -5    1    3    3    0  502 -0.49318232105E+03 -0.15656612800E+04 -0.14223021651E+04  0.21719782652E+04  0.46999998093E+01 0.  1.
</event>
<event>
 5   0  0.3278988E-07  0.3593069E+04  0.7818609E-02  0.8092081E-01
        1   -1    0    0  501    0  0.00000000000E+00  0.00000000000E+00  0.17030043217E+04  0.17030043217E+04  0.50400001928E-02 0. -1.
       -1   -1    0    0    0  501  0.00000000000E+00  0.00000000000E+00 -0.18952019316E+04  0.18952019316E+04  0.50400001928E-02 0.  1.
    10030    2    1    2    0    0  0.00000000000E+00  0.00000000000E+00 -0.19219760998E+03  0.35982062533E+04  0.35930694844E+04 0.  0.
        4    1    3    3  502    0  0.12457153023E+04 -0.12647697886E+04 -0.37233048459E+03  0.18138579975E+04  0.12699999809E+01 0. -1.
       -4    1    3    3    0  502 -0.12457153023E+04  0.12647697886E+04  0.18013287460E+03  0.17843482558E+04  0.12699999809E+01 0.  1.
</event>
<event>
 5   0  0.3159875E-07  0.3548050E+04  0.7818609E-02  0.8102496E-01
       -1   -1    0    0    0  501  0.00000000000E+00  0.00000000000E+00  0.13015509250E+04  0.13015509251E+04  0.50400001928E-02 0. -1.
        1   -1    0    0  501    0  0.00000000000E+00  0.00000000000E+00 -0.24180105248E+04  0.24180105248E+04  0.50400001928E-02 0.  1.
    10030    2    1    2    0    0  0.00000000000E+00  0.00000000000E+00 -0.11164595998E+04  0.37195614499E+04  0.35480495123E+04 0.  0.
        5    1    3    3  502    0  0.74677691519E+03  0.98776853660E+03  0.77352458938E+03  0.14600427471E+04  0.46999998093E+01 0. -1.
       -5    1    3    3    0  502 -0.74677691519E+03 -0.98776853660E+03 -0.18899841892E+04  0.22595187028E+04  0.46999998093E+01 0.  1.
</event>
<event>
 5   0  0.9538919E-07  0.3624447E+04  0.7818609E-02  0.8084915E-01
        2   -1    0    0  501    0  0.00000000000E+00  0.00000000000E+00  0.33816677157E+04  0.33816677157E+04  0.25500000920E-02 0.  1.
       -2   -1    0    0    0  501  0.00000000000E+00  0.00000000000E+00 -0.97116411009E+03  0.97116411009E+03  0.25500000920E-02 0. -1.
    10030    2    1    2    0    0  0.00000000000E+00  0.00000000000E+00  0.24105036056E+04  0.43528318258E+04  0.36244471676E+04 0.  0.
        4    1    3    3  502    0 -0.14174367002E+04 -0.14241977298E+03 -0.14001189040E+03  0.14314381346E+04  0.12699999809E+01 0. -1.
       -4    1    3    3    0  502  0.14174367002E+04  0.14241977298E+03  0.25505154960E+04  0.29213936912E+04  0.12699999809E+01 0.  1.
</event>
<event>
 5   0  0.3278988E-07  0.3655662E+04  0.7818609E-02  0.8077859E-01
        1   -1    0    0  501    0  0.00000000000E+00  0.00000000000E+00  0.17589517364E+04  0.17589517364E+04  0.50400001928E-02 0.  1.
       -1   -1    0    0    0  501  0.00000000000E+00  0.00000000000E+00 -0.18994075279E+04  0.18994075279E+04  0.50400001928E-02 0. -1.
    10030    2    1    2    0    0  0.00000000000E+00  0.00000000000E+00 -0.14045579147E+03  0.36583592642E+04  0.36556620026E+04 0.  0.
        4    1    3    3  502    0  0.32078432186E+03  0.17971737679E+04 -0.16100548054E+03  0.18326648660E+04  0.12699999809E+01 0. -1.
       -4    1    3    3    0  502 -0.32078432186E+03 -0.17971737679E+04  0.20549689072E+02  0.18256943983E+04  0.12699999809E+01 0.  1.
</event>
<event>
 5   0  0.3365378E-07  0.3377705E+04  0.7818609E-02  0.8143400E-01
        1   -1    0    0  501    0  0.00000000000E+00  0.00000000000E+00  0.30348393931E+04  0.30348393932E+04  0.50400001928E-02 0. -1.
       -1   -1    0    0    0  501  0.00000000000E+00  0.00000000000E+00 -0.93982685991E+03  0.93982685993E+03  0.50400001928E-02 0.  1.
    10030    2    1    2    0    0  0.00000000000E+00  0.00000000000E+00  0.20950125332E+04  0.39746662531E+04  0.33777054799E+04 0.  0.
        3    1    3    3  502    0 -0.35384033087E+03 -0.25372938464E+03 -0.87264426565E+03  0.97523822985E+03  0.10100000352E+00 0.  1.
       -3    1    3    3    0  502  0.35384033087E+03  0.25372938464E+03  0.29676567989E+04  0.29994280232E+04  0.10100000352E+00 0. -1.
</event>
<event>
 5   0  0.1006019E-06  0.3594285E+04  0.7818609E-02  0.8091802E-01
        2   -1    0    0  501    0  0.00000000000E+00  0.00000000000E+00  0.17058496314E+04  0.17058496314E+04  0.25500000920E-02 0.  1.
       -2   -1    0    0    0  501  0.00000000000E+00  0.00000000000E+00 -0.18933214087E+04  0.18933214087E+04  0.25500000920E-02 0. -1.
    10030    2    1    2    0    0  0.00000000000E+00  0.00000000000E+00 -0.18747177728E+03  0.35991710402E+04  0.35942852571E+04 0.  0.
        1    1    3    3  502    0  0.12445868138E+04  0.11169734265E+04 -0.75273049094E+03  0.18339108933E+04  0.50400001928E-02 0. -1.
       -1    1    3    3    0  502 -0.12445868138E+04 -0.11169734265E+04  0.56525871366E+03  0.17652601468E+04  0.50400001928E-02 0.  1.
</event>
<event>
 5   0  0.3159875E-07  0.3545304E+04  0.7818609E-02  0.8103137E-01
        1   -1    0    0  501    0  0.00000000000E+00  0.00000000000E+00  0.17763002012E+04  0.17763002012E+04  0.50400001928E-02 0. -1.
       -1   -1    0    0    0  501  0.00000000000E+00  0.00000000000E+00 -0.17690108793E+04  0.17690108793E+04  0.50400001928E-02 0.  1.
    10030    2    1    2    0    0  0.00000000000E+00  0.00000000000E+00  0.72893218677E+01  0.35453110806E+04  0.35453035870E+04 0.  0.
        5    1    3    3  502    0 -0.10684337769E+04 -0.13616768920E+04  0.38647388756E+03  0.17734426547E+04  0.46999998093E+01 0. -1.
       -5    1    3    3    0  502  0.10684337769E+04  0.13616768920E+04 -0.37918456569E+03  0.17718684259E+04  0.46999998093E+01 0.  1.
</event>
<event>
 5   0  0.9538919E-07  0.3571200E+04  0.7818609E-02  0.8097121E-01
        2   -1    0    0  501    0  0.00000000000E+00  0.00000000000E+00  0.21141844465E+04  0.21141844465E+04  0.25500000920E-02 0. -1.
       -2   -1    0    0    0  501  0.00000000000E+00  0.00000000000E+00 -0.15080837432E+04  0.15080837432E+04  0.25500000920E-02 0.  1.
    10030    2    1    2    0    0  0.00000000000E+00  0.00000000000E+00  0.60610070329E+03  0.36222681897E+04  0.35711999069E+04 0.  0.
        4    1    3    3  502    0 -0.71287052908E+03 -0.92444126038E+02 -0.13548370248E+04  0.15337259483E+04  0.12699999809E+01 0.  1.
       -4    1    3    3    0  502  0.71287052908E+03  0.92444126038E+02  0.19609377281E+04  0.20885422414E+04  0.12699999809E+01 0. -1.
</event>
<event>
 5   0  0.1006019E-06  0.3631982E+04  0.7818609E-02  0.8083205E-01
        2   -1    0    0  501    0  0.00000000000E+00  0.00000000000E+00  0.30933244522E+04  0.30933244522E+04  0.25500000920E-02 0. -1.
       -2   -1    0    0    0  501  0.00000000000E+00  0.00000000000E+00 -0.10661098512E+04  0.10661098512E+04  0.25500000920E-02 0.  1.
    10030    2    1    2    0    0  0.00000000000E+00  0.00000000000E+00  0.20272146010E+04  0.41594343035E+04  0.36319821979E+04 0.  0.
        1    1    3    3  502    0 -0.37167697922E+02  0.14894598929E+04 -0.17541544006E+03  0.15002142471E+04  0.50400001928E-02 0.  1.
       -1    1    3    3    0  502  0.37167697922E+02 -0.14894598929E+04  0.22026300411E+04  0.26592200564E+04  0.50400001928E-02 0. -1.
</event>
<event>
 5   0  0.9878336E-07  0.3615057E+04  0.7818609E-02  0.8087051E-01
       -2   -1    0    0    0  501  0.00000000000E+00  0.00000000000E+00  0.13313626094E+04  0.13313626094E+04  0.25500000920E-02 0. -1.
        2   -1    0    0  501    0  0.00000000000E+00  0.00000000000E+00 -0.24539962568E+04  0.24539962568E+04  0.25500000920E-02 0.  1.
    10030    2    1    2    0    0  0.00000000000E+00  0.00000000000E+00 -0.11226336473E+04  0.37853588662E+04  0.36150567685E+04 0.  0.
        3    1    3    3  502    0 -0.56030681381E+03  0.55587996829E+03  0.11413909583E+04  0.13877029922E+04  0.10100000352E+00 0. -1.
       -3    1    3    3    0  502  0.56030681381E+03 -0.55587996829E+03 -0.22640246056E+04  0.23976558740E+04  0.10100000352E+00 0.  1.
</event>
<event>
 5   0  0.1031659E-06  0.3589274E+04  0.7818609E-02  0.8092953E-01
        2   -1    0    0  501    0  0.00000000000E+00  0.00000000000E+00  0.17257857475E+04  0.17257857475E+04  0.25500000920E-02 0. -1.
       -2   -1    0    0    0  501  0.00000000000E+00  0.00000000000E+00 -0.18662348555E+04  0.18662348555E+04  0.25500000920E-02 0.  1.
    10030    2    1    2    0    0  0.00000000000E+00  0.00000000000E+00 -0.14044910798E+03  0.35920206030E+04  0.35892737511E+04 0.  0.
        2    1    3    3  502    0 -0.13694472147E+04  0.92498065525E+03  0.63013001080E+03  0.17686262231E+04  0.25500000920E-02 0. -1.
       -2    1    3    3    0  502  0.13694472147E+04 -0.92498065525E+03 -0.77057911878E+03  0.18233943799E+04  0.25500000920E-02 0.  1.
</event>
<event>
 5   0  0.1006019E-06  0.3427234E+04  0.7818609E-02  0.8131254E-01
       -2   -1    0    0    0  501  0.00000000000E+00  0.00000000000E+00  0.12920962549E+04  0.12920962549E+04  0.25500000920E-02 0.  1.
        2   -1    0    0  501    0  0.00000000000E+00  0.00000000000E+00 -0.22726501818E+04  0.22726501818E+04  0.25500000920E-02 0. -1.
    10030    2    1    2    0    0  0.00000000000E+00  0.00000000000E+00 -0.98055392691E+03  0.35647464367E+04  0.34272337467E+04 0.  0.
        1    1    3    3  502    0 -0.15915214374E+04  0.61865960889E+03 -0.64029505503E+03  0.18236386580E+04  0.50400001928E-02 0.  1.
       -1    1    3    3    0  502  0.15915214374E+04 -0.61865960889E+03 -0.34025887188E+03  0.17411077787E+04  0.50400001928E-02 0. -1.
</event>
<event>
 5   0  0.9878977E-07  0.3546273E+04  0.7818609E-02  0.8102911E-01
        2   -1    0    0  501    0  0.00000000000E+00  0.00000000000E+00  0.19670530466E+04  0.19670530466E+04  0.25500000920E-02 0.  1.
       -2   -1    0    0    0  501  0.00000000000E+00  0.00000000000E+00 -0.15983366644E+04  0.15983366644E+04  0.25500000920E-02 0. -1.
    10030    2    1    2    0    0  0.00000000000E+00  0.00000000000E+00  0.36871638223E+03  0.35653897110E+04  0.35462729760E+04 0.  0.
        5    1    3    3  502    0  0.99161243053E+03 -0.94141002020E+03  0.13193560216E+04  0.19000711671E+04  0.46999998093E+01 0.  1.
       -5    1    3    3    0  502 -0.99161243053E+03  0.94141002020E+03 -0.95063963934E+03  0.16653185438E+04  0.46999998093E+01 0. -1.
</event>
<event>
 5   0  0.1031659E-06  0.3511152E+04  0.7818609E-02  0.8111152E-01
       -2   -1    0    0    0  501  0.00000000000E+00  0.00000000000E+00  0.12342168175E+04  0.12342168175E+04  0.25500000920E-02 0. -1.
        2   -1    0    0  501    0  0.00000000000E+00  0.00000000000E+00 -0.24971680270E+04  0.24971680270E+04  0.25500000920E-02 0.  1.
    10030    2    1    2    0    0  0.00000000000E+00  0.00000000000E+00 -0.12629512095E+04  0.37313848445E+04  0.35111518196E+04 0.  0.
        2    1    3    3  502    0  0.44925527182E+03  0.46877369402E+03 -0.23648781507E+04  0.24523922490E+04  0.25500000920E-02 0.  1.
       -2    1    3    3    0  502 -0.44925527182E+03 -0.46877369402E+03  0.11019269412E+04  0.12789925955E+04  0.25500000920E-02 0. -1.
</event>
<event>
 5   0  0.3365378E-07  0.3503131E+04  0.7818609E-02  0.8113048E-01
        1   -1    0    0  501    0  0.00000000000E+00  0.00000000000E+00  0.24049574579E+04  0.24049574579E+04  0.50400001928E-02 0.  1.
       -1   -1    0    0    0  501  0.00000000000E+00  0.00000000000E+00 -0.12756904508E+04  0.12756904508E+04  0.50400001928E-02 0. -1.
    10030    2    1    2    0    0  0.00000000000E+00  0.00000000000E+00  0.11292670072E+04  0.36806479087E+04  0.35031307504E+04 0.  0.
        3    1    3    3  502    0  0.30061932519E+03 -0.11080004828E+04 -0.82525521072E+03  0.14138893951E+04  0.10100000352E+00 0. -1.
       -3    1    3    3    0  502 -0.30061932519E+03  0.11080004828E+04  0.19545222179E+04  0.22667585136E+04  0.10100000352E+00 0.  1.
</event>
<event>
 5   0  0.3242047E-07  0.3640895E+04  0.7818609E-02  0.8081188E-01
       -1   -1    0    0    0  501  0.00000000000E+00  0.00000000000E+00  0.25927760907E+04  0.25927760907E+04  0.50400001928E-02 0. -1.
        1   -1    0    0  501    0  0.00000000000E+00  0.00000000000E+00 -0.12781776687E+04  0.12781776687E+04  0.50400001928E-02 0.  1.
    10030    2    1    2    0    0  0.00000000000E+00  0.00000000000E+00  0.13145984220E+04  0.38709537594E+04  0.36408946698E+04 0.  0.
        1    1    3    3  502    0 -0.14463890080E+04  0.10892753471E+04  0.85752470343E+03  0.20034746221E+04  0.50400001928E-02 0. -1.
       -1    1    3    3    0  502  0.14463890080E+04 -0.10892753471E+04  0.45707371853E+03  0.18674791374E+04  0.50400001928E-02 0.  1.
</event>
<event>
 5   0  0.9538919E-07  0.3549932E+04  0.7818609E-02  0.8102058E-01
        2   -1    0    0  501    0  0.00000000000E+00  0.00000000000E+00  0.19476781753E+04  0.19476781753E+04  0.25500000920E-02 0. -1.
       -2   -1    0    0    0  501  0.00000000000E+00  0.00000000000E+00 -0.16175694432E+04  0.16175694432E+04  0.25500000920E-02 0.  1.
    10030    2    1    2    0    0  0.00000000000E+00  0.00000000000E+00  0.33010873208E+03  0.35652476185E+04  0.35499322256E+04 0.  0.
        4    1    3    3  502    0 -0.72648620181E+03 -0.72477707888E+03 -0.12894406695E+04  0.16479511123E+04  0.12699999809E+01 0.  1.
       -4    1    3    3    0  502  0.72648620181E+03  0.72477707888E+03  0.16195494016E+04  0.19172965062E+04  0.12699999809E+01 0. -1.
</event>
<event>
 5   0  0.9878977E-07  0.3554728E+04  0.7818609E-02  0.8100941E-01
        2   -1    0    0  501    0  0.00000000000E+00  0.00000000000E+00  0.21820177217E+04  0.21820177217E+04  0.25500000920E-02 0. -1.
       -2   -1    0    0    0  501  0.00000000000E+00  0.00000000000E+00 -0.14477530557E+04  0.14477530557E+04  0.25500000920E-02 0.  1.
    10030    2    1    2    0    0  0.00000000000E+00  0.00000000000E+00  0.73426466602E+03  0.36297707773E+04  0.35547280200E+04 0.  0.
        5    1    3    3  502    0 -0.15672339414E+03 -0.16021592097E+04 -0.40211337766E+03  0.16592750266E+04  0.46999998093E+01 0.  1.
       -5    1    3    3    0  502  0.15672339414E+03  0.16021592097E+04  0.11363780437E+04  0.19704957507E+04  0.46999998093E+01 0. -1.
</event>
<event>
 5   0  0.9878977E-07  0.3710342E+04  0.7818609E-02  0.8065674E-01
        2   -1    0    0  501    0  0.00000000000E+00  0.00000000000E+00  0.16849340856E+04  0.16849340856E+04  0.25500000920E-02 0. -1.
       -2   -1    0    0    0  501  0.00000000000E+00  0.00000000000E+00 -0.20426080901E+04  0.20426080901E+04  0.25500000920E-02 0.  1.
    10030    2    1    2    0    0  0.00000000000E+00  0.00000000000E+00 -0.35767400454E+03  0.37275421757E+04  0.37103422994E+04 0.  0.
        5    1    3    3  502    0  0.51181324887E+03  0.31010484987E+03 -0.19429726643E+04  0.20330476345E+04  0.46999998093E+01 0.  1.
       -5    1    3    3    0  502 -0.51181324887E+03 -0.31010484987E+03  0.15852986598E+04  0.16944945413E+04  0.46999998093E+01 0. -1.
</event>
<event>
 5   0  0.3278988E-07  0.2635088E+04  0.7818609E-02  0.8356380E-01
       -1   -1    0    0    0  501  0.00000000000E+00  0.00000000000E+00  0.16040688700E+04  0.16040688700E+04  0.50400001928E-02 0.  1.
        1   -1    0    0  501    0  0.00000000000E+00  0.00000000000E+00 -0.10821988930E+04  0.10821988930E+04  0.50400001928E-02 0. -1.
    10030    2    1    2    0    0  0.00000000000E+00  0.00000000000E+00  0.52186997699E+03  0.26862677629E+04  0.26350875168E+04 0.  0.
        4    1    3    3  502    0 -0.12798109923E+04 -0.29278936326E+03  0.37389398290E+03  0.13650787928E+04  0.12699999809E+01 0. -1.
       -4    1    3    3    0  502  0.12798109923E+04  0.29278936326E+03  0.14797599409E+03  0.13211889702E+04  0.12699999809E+01 0.  1.
</event>
<event>
 5   0  0.3159875E-07  0.3926455E+04  0.7818609E-02  0.8019549E-01
       -1   -1    0    0    0  501  0.00000000000E+00  0.00000000000E+00  0.23448571508E+04  0.23448571508E+04  0.50400001928E-02 0. -1.
        1   -1    0    0  501    0  0.00000000000E+00  0.00000000000E+00 -0.16437088927E+04  0.16437088927E+04  0.50400001928E-02 0.  1.
    10030    2    1    2    0    0  0.00000000000E+00  0.00000000000E+00  0.70114825806E+03  0.39885660435E+04  0.39264551702E+04 0.  0.
        5    1    3    3  502    0 -0.15580777848E+04 -0.11871378922E+04  0.21681854646E+03  0.19707701872E+04  0.46999998093E+01 0. -1.
       -5    1    3    3    0  502  0.15580777848E+04  0.11871378922E+04  0.48432971159E+03  0.20177958564E+04  0.46999998093E+01 0.  1.
</event>
<event>
 5   0  0.1006019E-06  0.3579095E+04  0.7818609E-02  0.8095297E-01
        2   -1    0    0  501    0  0.00000000000E+00  0.00000000000E+00  0.23461288937E+04  0.23461288937E+04  0.25500000920E-02 0. -1.
       -2   -1    0    0    0  501  0.00000000000E+00  0.00000000000E+00 -0.13650060191E+04  0.13650060191E+04  0.25500000920E-02 0.  1.
    10030    2    1    2    0    0  0.00000000000E+00  0.00000000000E+00  0.98112287467E+03  0.37111349128E+04  0.35790948920E+04 0.  0.
        1    1    3    3  502    0  0.11256740863E+04 -0.13677960586E+03  0.19260594182E+04  0.22350739790E+04  0.50400001928E-02 0. -1.
       -1    1    3    3    0  502 -0.11256740863E+04  0.13677960586E+03 -0.94493654351E+03  0.14760609338E+04  0.50400001928E-02 0.  1.
</event>
<event>
 5   0  0.9538919E-07  0.3580203E+04  0.7818609E-02  0.8095042E-01
       -2   -1    0    0    0  501  0.00000000000E+00  0.00000000000E+00  0.21501200630E+04  0.21501200630E+04  0.25500000920E-02 0. -1.
        2   -1    0    0  501    0  0.00000000000E+00  0.00000000000E+00 -0.14903644723E+04  0.14903644723E+04  0.25500000920E-02 0.  1.
    10030    2    1    2    0    0  0.00000000000E+00  0.00000000000E+00  0.65975559066E+03  0.36404845353E+04  0.35802025379E+04 0.  0.
        4    1    3    3  502    0  0.73708000383E+03  0.10714191430E+04  0.15807265119E+04  0.20469303433E+04  0.12699999809E+01 0. -1.
       -4    1    3    3    0  502 -0.73708000383E+03 -0.10714191430E+04 -0.92097092127E+03  0.15935541920E+04  0.12699999809E+01 0.  1.
</event>
<event>
 5   0  0.9538919E-07  0.3586316E+04  0.7818609E-02  0.8093633E-01
        2   -1    0    0  501    0  0.00000000000E+00  0.00000000000E+00  0.22726563498E+04  0.22726563498E+04  0.25500000920E-02 0.  1.
       -2   -1    0    0    0  501  0.00000000000E+00  0.00000000000E+00 -0.14148267515E+04  0.14148267515E+04  0.25500000920E-02 0. -1.
    10030    2    1    2    0    0  0.00000000000E+00  0.00000000000E+00  0.85782959829E+03  0.36874831013E+04  0.35863156585E+04 0.  0.
        4    1    3    3  502    0  0.12626602240E+04  0.11431450470E+04 -0.14754480621E+03  0.17096381261E+04  0.12699999809E+01 0. -1.
       -4    1    3    3    0  502 -0.12626602240E+04 -0.11431450470E+04  0.10053744045E+04  0.19778449752E+04  0.12699999809E+01 0.  1.
</event>
<event>
 5   0  0.1031659E-06  0.3690117E+04  0.7818609E-02  0.8070156E-01
       -2   -1    0    0    0  501  0.00000000000E+00  0.00000000000E+00  0.20169216040E+04  0.20169216040E+04  0.25500000920E-02 0. -1.
        2   -1    0    0  501    0  0.00000000000E+00  0.00000000000E+00 -0.16878401491E+04  0.16878401491E+04  0.25500000920E-02 0.  1.
    10030    2    1    2    0    0  0.00000000000E+00  0.00000000000E+00  0.32908145490E+03  0.37047617532E+04  0.36901172127E+04 0.  0.
        2    1    3    3  502    0 -0.36380617035E+03  0.93742034185E+03 -0.13885728536E+04  0.17144230507E+04  0.25500000920E-02 0.  1.
       -2    1    3    3    0  502  0.36380617035E+03 -0.93742034185E+03  0.17176543085E+04  0.19903387025E+04  0.25500000920E-02 0. -1.
</event>
<event>
 5   0  0.3159875E-07  0.3308256E+04  0.7818609E-02  0.8160798E-01
        1   -1    0    0  501    0  0.00000000000E+00  0.00000000000E+00  0.83229146626E+03  0.83229146627E+03  0.50400001928E-02 0.  1.
       -1   -1    0    0    0  501  0.00000000000E+00  0.00000000000E+00 -0.32874774828E+04  0.32874774828E+04  0.50400001928E-02 0. -1.
    10030    2    1    2    0    0  0.00000000000E+00  0.00000000000E+00 -0.24551860165E+04  0.41197689491E+04  0.33082560085E+04 0.  0.
        2    1    3    3  502    0 -0.93188423253E+03  0.13395156847E+04 -0.89014455259E+03  0.18587812719E+04  0.25500000920E-02 0.  1.
       -2    1    3    3    0  502  0.93188423253E+03 -0.13395156847E+04 -0.15650414639E+04  0.22609876771E+04  0.25500000920E-02 0. -1.
</event>
<event>
 5   0  0.3365378E-07  0.3560678E+04  0.7818609E-02  0.8099559E-01
       -1   -1    0    0    0  501  0.00000000000E+00  0.00000000000E+00  0.13897439076E+04  0.13897439076E+04  0.50400001928E-02 0.  1.
        1   -1    0    0  501    0  0.00000000000E+00  0.00000000000E+00 -0.22807132545E+04  0.22807132545E+04  0.50400001928E-02 0. -1.
    10030    2    1    2    0    0  0.00000000000E+00  0.00000000000E+00 -0.89096934694E+03  0.36704571621E+04  0.35606782222E+04 0.  0.
        3    1    3    3  502    0 -0.14195115456E+04 -0.10198067686E+04 -0.96538945310E+02  0.17505252502E+04  0.10100000352E+00 0.  1.
       -3    1    3    3    0  502  0.14195115456E+04  0.10198067686E+04 -0.79443040163E+03  0.19199319120E+04  0.10100000352E+00 0. -1.
</event>
<event>
 5   0  0.9878977E-07  0.3542705E+04  0.7818609E-02  0.8103743E-01
       -2   -1    0    0    0  501  0.00000000000E+00  0.00000000000E+00  0.12099585855E+04  0.12099585855E+04  0.25500000920E-02 0.  1.
        2   -1    0    0  501    0  0.00000000000E+00  0.00000000000E+00 -0.25932202439E+04  0.25932202439E+04  0.25500000920E-02 0. -1.
    10030    2    1    2    0    0  0.00000000000E+00  0.00000000000E+00 -0.13832616583E+04  0.38031788294E+04  0.35427046720E+04 0.  0.
        5    1    3    3  502    0 -0.13301717344E+03  0.67440092704E+03 -0.24441919854E+04  0.25390168826E+04  0.46999998093E+01 0. -1.
       -5    1    3    3    0  502  0.13301717344E+03 -0.67440092704E+03  0.10609303271E+04  0.12641619468E+04  0.46999998093E+01 0.  1.
</event>
<event>
 5   0  0.1006019E-06  0.3574725E+04  0.7818609E-02  0.8096306E-01
        2   -1    0    0  501    0  0.00000000000E+00  0.00000000000E+00  0.21123973364E+04  0.21123973364E+04  0.25500000920E-02 0. -1.
       -2   -1    0    0    0  501  0.00000000000E+00  0.00000000000E+00 -0.15123405749E+04  0.15123405749E+04  0.25500000920E-02 0.  1.
    10030    2    1    2    0    0  0.00000000000E+00  0.00000000000E+00  0.60005676150E+03  0.36247379112E+04  0.35747247178E+04 0.  0.
        1    1    3    3  502    0  0.72290217021E+03  0.14742174824E+04  0.10161381257E+04  0.19309172493E+04  0.50400001928E-02 0.  1.
       -1    1    3    3    0  502 -0.72290217021E+03 -0.14742174824E+04 -0.41608136419E+03  0.16938206619E+04  0.50400001928E-02 0. -1.
</event>
<event>
 5   0  0.3278988E-07  0.3650908E+04  0.7818609E-02  0.8078929E-01
        1   -1    0    0  501    0  0.00000000000E+00  0.00000000000E+00  0.18745107011E+04  0.18745107011E+04  0.50400001928E-02 0.  1.
       -1   -1    0    0    0  501  0.00000000000E+00  0.00000000000E+00 -0.17776809559E+04  0.17776809559E+04  0.50400001928E-02 0. -1.
    10030    2    1    2    0    0  0.00000000000E+00  0.00000000000E+00  0.96829745246E+02  0.36521916570E+04  0.36509078186E+04 0.  0.
        4    1    3    3  502    0 -0.64423493755E+03  0.67676797019E+03 -0.15203287953E+04  0.17845040765E+04  0.12699999809E+01 0. -1.
       -4    1    3    3    0  502  0.64423493755E+03 -0.67676797019E+03  0.16171585405E+04  0.18676875805E+04  0.12699999809E+01 0.  1.
</event>
<event>
 5   0  0.3365378E-07  0.3539835E+04  0.7818609E-02  0.8104414E-01
        1   -1    0    0  501    0  0.00000000000E+00  0.00000000000E+00  0.25416418704E+04  0.25416418704E+04  0.50400001928E-02 0. -1.
       -1   -1    0    0    0  501  0.00000000000E+00  0.00000000000E+00 -0.12325133213E+04  0.12325133213E+04  0.50400001928E-02 0.  1.
    10030    2    1    2    0    0  0.00000000000E+00  0.00000000000E+00  0.13091285491E+04  0.37741551917E+04  0.35398347212E+04 0.  0.
        3    1    3    3  502    0  0.93226784520E+02  0.14418138564E+04 -0.43540288404E+03  0.15090043444E+04  0.10100000352E+00 0.  1.
       -3    1    3    3    0  502 -0.93226784520E+02 -0.14418138564E+04  0.17445314332E+04  0.22651508473E+04  0.10100000352E+00 0. -1.
</event>
<event>
 5   0  0.9878977E-07  0.3529244E+04  0.7818609E-02  0.8106894E-01
        2   -1    0    0  501    0  0.00000000000E+00  0.00000000000E+00  0.20171430925E+04  0.20171430925E+04  0.25500000920E-02 0.  1.
       -2   -1    0    0    0  501  0.00000000000E+00  0.00000000000E+00 -0.15437137868E+04  0.15437137868E+04  0.25500000920E-02 0. -1.
    10030    2    1    2    0    0  0.00000000000E+00  0.00000000000E+00  0.47342930567E+03  0.35608568793E+04  0.35292444528E+04 0.  0.
        5    1    3    3  502    0 -0.76671346516E+03  0.45699388865E+03 -0.12991478627E+04  0.15762297456E+04  0.46999998093E+01 0. -1.
       -5    1    3    3    0  502  0.76671346516E+03 -0.45699388865E+03  0.17725771683E+04  0.19846271337E+04  0.46999998093E+01 0.  1.
</event>
<event>
 5   0  0.9878977E-07  0.3579473E+04  0.7818609E-02  0.8095210E-01
        2   -1    0    0  501    0  0.00000000000E+00  0.00000000000E+00  0.20681139888E+04  0.20681139888E+04  0.25500000920E-02 0.  1.
       -2   -1    0    0    0  501  0.00000000000E+00  0.00000000000E+00 -0.15488296003E+04  0.15488296003E+04  0.25500000920E-02 0. -1.
    10030    2    1    2    0    0  0.00000000000E+00  0.00000000000E+00  0.51928438849E+03  0.36169435891E+04  0.35794726777E+04 0.  0.
        5    1    3    3  502    0  0.52689279734E+03 -0.29385241486E+03  0.19622643930E+04  0.20529171682E+04  0.46999998093E+01 0.  1.
       -5    1    3    3    0  502 -0.52689279734E+03  0.29385241486E+03 -0.14429800045E+04  0.15640264208E+04  0.46999998093E+01 0. -1.
</event>
<event>
 5   0  0.1031659E-06  0.3630194E+04  0.7818609E-02  0.8083610E-01
        2   -1    0    0  501    0  0.00000000000E+00  0.00000000000E+00  0.26325486029E+04  0.26325486029E+04  0.25500000920E-02 0.  1.
       -2   -1    0    0    0  501  0.00000000000E+00  0.00000000000E+00 -0.12514783991E+04  0.12514783991E+04  0.25500000920E-02 0. -1.
    10030    2    1    2    0    0  0.00000000000E+00  0.00000000000E+00  0.13810702038E+04  0.38840270020E+04  0.36301943260E+04 0.  0.
        2    1    3    3  502    0  0.36459470252E+03  0.16842689322E+04  0.80691808985E+02  0.17251673255E+04  0.25500000920E-02 0. -1.
       -2    1    3    3    0  502 -0.36459470252E+03 -0.16842689322E+04  0.13003783949E+04  0.21588596765E+04  0.25500000920E-02 0.  1.
</event>
<event>
 5   0  0.9538919E-07  0.2789067E+04  0.7818609E-02  0.8306671E-01
       -2   -1    0    0    0  501  0.00000000000E+00  0.00000000000E+00  0.13623605566E+04  0.13623605566E+04  0.25500000920E-02 0. -1.
        2   -1    0    0  501    0  0.00000000000E+00  0.00000000000E+00 -0.14274666954E+04  0.14274666954E+04  0.25500000920E-02 0.  1.
    10030    2    1    2    0    0  0.00000000000E+00  0.00000000000E+00 -0.65106138744E+02  0.27898272520E+04  0.27890674583E+04 0.  0.
        4    1    3    3  502    0  0.46057501630E+03  0.89240702596E+03 -0.10003925245E+04  0.14175000746E+04  0.12699999809E+01 0.  1.
       -4    1    3    3    0  502 -0.46057501630E+03 -0.89240702596E+03  0.93528638571E+03  0.13723271774E+04  0.12699999809E+01 0. -1.
</event>
<event>
 5   0  0.3242047E-07  0.3598296E+04  0.7818609E-02  0.8090882E-01
       -1   -1    0    0    0  501  0.00000000000E+00  0.00000000000E+00  0.11747449085E+04  0.11747449085E+04  0.50400001928E-02 0.  1.
        1   -1    0    0  501    0  0.00000000000E+00  0.00000000000E+00 -0.27554351375E+04  0.27554351375E+04  0.50400001928E-02 0. -1.
    10030    2    1    2    0    0  0.00000000000E+00  0.00000000000E+00 -0.15806902290E+04  0.39301800460E+04  0.35982959291E+04 0.  0.
        1    1    3    3  502    0 -0.10905429625E+04 -0.85659974261E+03  0.46162645074E+03  0.14615560380E+04  0.50400001928E-02 0.  1.
       -1    1    3    3    0  502  0.10905429625E+04  0.85659974261E+03 -0.20423166798E+04  0.24686240080E+04  0.50400001928E-02 0. -1.
</event>
<event>
 5   0  0.3242047E-07  0.3560639E+04  0.7818609E-02  0.8099568E-01
       -1   -1    0    0    0  501  0.00000000000E+00  0.00000000000E+00  0.25624321743E+04  0.25624321743E+04  0.50400001928E-02 0. -1.
        1   -1    0    0  501    0  0.00000000000E+00  0.00000000000E+00 -0.12369251184E+04  0.12369251184E+04  0.50400001928E-02 0.  1.
    10030    2    1    2    0    0  0.00000000000E+00  0.00000000000E+00  0.13255070559E+04  0.37993572927E+04  0.35606385498E+04 0.  0.
        1    1    3    3  502    0  0.50258910430E+03  0.16337974250E+04  0.11937586174E+04  0.20849339247E+04  0.50400001928E-02 0. -1.
       -1    1    3    3    0  502 -0.50258910430E+03 -0.16337974250E+04  0.13174843847E+03  0.17144233680E+04  0.50400001928E-02 0.  1.
</event>
<event>
 5   0  0.3159875E-07  0.3739335E+04  0.7818609E-02  0.8059300E-01
       -1   -1    0    0    0  501  0.00000000000E+00  0.00000000000E+00  0.17516081401E+04  0.17516081401E+04  0.50400001928E-02 0. -1.
        1   -1    0    0  501    0  0.00000000000E+00  0.00000000000E+00 -0.19956845579E+04  0.19956845579E+04  0.50400001928E-02 0.  1.
    10030    2    1    2    0    0  0.00000000000E+00  0.00000000000E+00 -0.24407641771E+03  0.37472926980E+04  0.37393354044E+04 0.  0.
        5    1    3    3  502    0  0.15374139078E+04  0.93662704573E+03 -0.62781358874E+03  0.19065895570E+04  0.46999998093E+01 0.  1.
       -5    1    3    3    0  502 -0.15374139078E+04 -0.93662704573E+03  0.38373717102E+03  0.18407031410E+04  0.46999998093E+01 0. -1.
</event>
<event>
 5   0  0.1006019E-06  0.3534024E+04  0.7818609E-02  0.8105774E-01
       -2   -1    0    0    0  501  0.00000000000E+00  0.00000000000E+00  0.14753739285E+04  0.14753739285E+04  0.25500000920E-02 0. -1.
        2   -1    0    0  501    0  0.00000000000E+00  0.00000000000E+00 -0.21162985854E+04  0.21162985854E+04  0.25500000920E-02 0.  1.
    10030    2    1    2    0    0  0.00000000000E+00  0.00000000000E+00 -0.64092465690E+03  0.35916725139E+04  0.35340241979E+04 0.  0.
        1    1    3    3  502    0 -0.12483189208E+03  0.18169867219E+03 -0.21022681662E+04  0.21137948934E+04  0.50400001928E-02 0.  1.
       -1    1    3    3    0  502  0.12483189208E+03 -0.18169867219E+03  0.14613435093E+04  0.14778776205E+04  0.50400001928E-02 0. -1.
</event>
<event>
 5   0  0.9538919E-07  0.3585530E+04  0.7818609E-02  0.8093814E-01
        2   -1    0    0  501    0  0.00000000000E+00  0.00000000000E+00  0.26342142339E+04  0.26342142339E+04  0.25500000920E-02 0. -1.
       -2   -1    0    0    0  501  0.00000000000E+00  0.00000000000E+00 -0.12201005613E+04  0.12201005613E+04  0.25500000920E-02 0.  1.
    10030    2    1    2    0    0  0.00000000000E+00  0.00000000000E+00  0.14141136726E+04  0.38543147952E+04  0.35855299554E+04 0.  0.
        4    1    3    3  502    0 -0.50386300984E+03  0.17146834194E+04  0.55508155149E+03  0.18713990230E+04  0.12699999809E+01 0.  1.
       -4    1    3    3    0  502  0.50386300984E+03 -0.17146834194E+04  0.85903212114E+03  0.19829157722E+04  0.12699999809E+01 0. -1.
</event>
<event>
 5   0  0.3278988E-07  0.3617655E+04  0.7818609E-02  0.8086460E-01
        1   -1    0    0  501    0  0.00000000000E+00  0.00000000000E+00  0.20173365625E+04  0.20173365625E+04  0.50400001928E-02 0. -1.
       -1   -1    0    0    0  501  0.00000000000E+00  0.00000000000E+00 -0.16218692906E+04  0.16218692906E+04  0.50400001928E-02 0.  1.
    10030    2    1    2    0    0  0.00000000000E+00  0.00000000000E+00  0.39546727194E+03  0.36392058531E+04  0.36176546101E+04 0.  0.
        4    1    3    3  502    0 -0.48652886429E+03  0.11239371198E+03 -0.15511605454E+04  0.16295531083E+04  0.12699999809E+01 0.  1.
       -4    1    3    3    0  502  0.48652886429E+03 -0.11239371198E+03  0.19466278174E+04  0.20096527448E+04  0.12699999809E+01 0. -1.
</event>
<event>
 5   0  0.3159875E-07  0.3581535E+04  0.7818609E-02  0.8094735E-01
       -1   -1    0    0    0  501  0.00000000000E+00  0.00000000000E+00  0.16600333372E+04  0.16600333372E+04  0.50400001928E-02 0.  1.
        1   -1    0    0  501    0  0.00000000000E+00  0.00000000000E+00 -0.19317972696E+04  0.19317972696E+04  0.50400001928E-02 0. -1.
    10030    2    1    2    0    0  0.00000000000E+00  0.00000000000E+00 -0.27176393237E+03  0.35918306069E+04  0.35815347930E+04 0.  0.
        5    1    3    3  502    0 -0.41083775156E+02 -0.28475612029E+03 -0.19084617393E+04  0.19300316642E+04  0.46999998093E+01 0. -1.
       -5    1    3    3    0  502  0.41083775156E+02  0.28475612029E+03  0.16366978069E+04  0.16617989426E+04  0.46999998093E+01 0.  1.
</event>
<event>
 5   0  0.1006019E-06  0.3468031E+04  0.7818609E-02  0.8121408E-01
       -2   -1    0    0    0  501  0.00000000000E+00  0.00000000000E+00  0.18242383718E+04  0.18242383718E+04  0.25500000920E-02 0.  1.
        2   -1    0    0  501    0  0.00000000000E+00  0.00000000000E+00 -0.16482546032E+04  0.16482546032E+04  0.25500000920E-02 0. -1.
    10030    2    1    2    0    0  0.00000000000E+00  0.00000000000E+00  0.17598376861E+03  0.34724929750E+04  0.34680307343E+04 0.  0.
        1    1    3    3  502    0 -0.18835489674E+03 -0.67543023482E+03 -0.14999634692E+04  0.16557699049E+04  0.50400001928E-02 0. -1.
       -1    1    3    3    0  502  0.18835489674E+03  0.67543023482E+03  0.16759472378E+04  0.18167230700E+04  0.50400001928E-02 0.  1.
</event>
<event>
 5   0  0.3365378E-07  0.3042507E+04  0.7818609E-02  0.8231696E-01
        1   -1    0    0  501    0  0.00000000000E+00  0.00000000000E+00  0.92417527855E+03  0.92417527856E+03  0.50400001928E-02 0. -1.
       -1   -1    0    0    0  501  0.00000000000E+00  0.00000000000E+00 -0.25040833976E+04  0.25040833976E+04  0.50400001928E-02 0.  1.
    10030    2    1    2    0    0  0.00000000000E+00  0.00000000000E+00 -0.15799081191E+04  0.34282586762E+04  0.30425068424E+04 0.  0.
        3    1    3    3  502    0  0.99026620050E+03 -0.11101753224E+04 -0.43168601255E+03  0.15490220199E+04  0.10100000352E+00 0.  1.
       -3    1    3    3    0  502 -0.99026620050E+03  0.11101753224E+04 -0.11482221065E+04  0.18792366563E+04  0.10100000352E+00 0. -1.
</event>
<event>
 5   0  0.1031659E-06  0.3768382E+04  0.7818609E-02  0.8052974E-01
       -2   -1    0    0    0  501  0.00000000000E+00  0.00000000000E+00  0.23723673810E+04  0.23723673810E+04  0.25500000920E-02 0.  1.
        2   -1    0    0  501    0  0.00000000000E+00  0.00000000000E+00 -0.14964693426E+04  0.14964693426E+04  0.25500000920E-02 0. -1.
    10030    2    1    2    0    0  0.00000000000E+00  0.00000000000E+00  0.87589803843E+03  0.38688367235E+04  0.37683816446E+04 0.  0.
        2    1    3    3  502    0  0.11036872022E+03 -0.46216410250E+03  0.23098464033E+04  0.23582127382E+04  0.25500000920E-02 0.  1.
       -2    1    3    3    0  502 -0.11036872022E+03  0.46216410250E+03 -0.14339483648E+04  0.15106239853E+04  0.25500000920E-02 0. -1.
</event>
<event>
 5   0  0.1031659E-06  0.3560498E+04  0.7818609E-02  0.8099600E-01
       -2   -1    0    0    0  501  0.00000000000E+00  0.00000000000E+00  0.11307091060E+04  0.11307091060E+04  0.25500000920E-02 0. -1.
        2   -1    0    0  501    0  0.00000000000E+00  0.00000000000E+00 -0.28029201942E+04  0.28029201942E+04  0.25500000920E-02 0.  1.
    10030    2    1    2    0    0  0.00000000000E+00  0.00000000000E+00 -0.16722110881E+04  0.39336293002E+04  0.35604984971E+04 0.  0.
        2    1    3    3  502    0 -0.32276068650E+03 -0.10342777841E+04  0.72450914779E+03  0.13033873180E+04  0.25500000920E-02 0. -1.
       -2    1    3    3    0  502  0.32276068650E+03  0.10342777841E+04 -0.23967202359E+04  0.26302419822E+04  0.25500000920E-02 0.  1.
</event>
<event>
 5   0  0.9538919E-07  0.3598860E+04  0.7818609E-02  0.8090753E-01
       -2   -1    0    0    0  501  0.00000000000E+00  0.00000000000E+00  0.19722183662E+04  0.19722183662E+04  0.25500000920E-02 0. -1.
        2   -1    0    0  501    0  0.00000000000E+00  0.00000000000E+00 -0.16417800680E+04  0.16417800680E+04  0.25500000920E-02 0.  1.
    10030    2    1    2    0    0  0.00000000000E+00  0.00000000000E+00  0.33043829815E+03  0.36139984343E+04  0.35988602660E+04 0.  0.
        4    1    3    3  502    0 -0.10801837375E+04 -0.93790913753E+03  0.12613584738E+04  0.19072223964E+04  0.12699999809E+01 0. -1.
       -4    1    3    3    0  502  0.10801837375E+04  0.93790913753E+03 -0.93092017561E+03  0.17067760378E+04  0.12699999809E+01 0.  1.
</event>
<event>
 5   0  0.9878336E-07  0.3317986E+04  0.7818609E-02  0.8158334E-01
       -2   -1    0    0    0  501  0.00000000000E+00  0.00000000000E+00  0.96395849712E+03  0.96395849713E+03  0.25500000920E-02 0.  1.
        2   -1    0    0  501    0  0.00000000000E+00  0.00000000000E+00 -0.28551626652E+04  0.28551626652E+04  0.25500000920E-02 0. -1.
    10030    2    1    2    0    0  0.00000000000E+00  0.00000000000E+00 -0.18912041681E+04  0.38191211624E+04  0.33179863242E+04 0.  0.
        3    1    3    3  502    0 -0.12329910945E+04  0.28132388425E+02 -0.22227850531E+04  0.25420133502E+04  0.10100000352E+00 0. -1.
       -3    1    3    3    0  502  0.12329910945E+04 -0.28132388425E+02  0.33158088495E+03  0.12771078121E+04  0.10100000352E+00 0.  1.
</event>
<event>
 5   0  0.1006019E-06  0.3561264E+04  0.7818609E-02  0.8099423E-01
        2   -1    0    0  501    0  0.00000000000E+00  0.00000000000E+00  0.18125167305E+04  0.18125167305E+04  0.25500000920E-02 0.  1.
       -2   -1    0    0    0  501  0.00000000000E+00  0.00000000000E+00 -0.17493082459E+04  0.17493082459E+04  0.25500000920E-02 0. -1.
    10030    2    1    2    0    0  0.00000000000E+00  0.00000000000E+00  0.63208484653E+02  0.35618249764E+04  0.35612640803E+04 0.  0.
        1    1    3    3  502    0 -0.21162256135E+03  0.10713954032E+04  0.14382318949E+04  0.18058746362E+04  0.50400001928E-02 0.  1.
       -1    1    3    3    0  502  0.21162256135E+03 -0.10713954032E+04 -0.13750234102E+04  0.17559503401E+04  0.50400001928E-02 0. -1.
</event>
<event>
 5   0  0.9878977E-07  0.3211550E+04  0.7818609E-02  0.8185773E-01
       -2   -1    0    0    0  501  0.00000000000E+00  0.00000000000E+00  0.12251896541E+04  0.12251896541E+04  0.25500000920E-02 0.  1.
        2   -1    0    0  501    0  0.00000000000E+00  0.00000000000E+00 -0.21045830923E+04  0.21045830923E+04  0.25500000920E-02 0. -1.
    10030    2    1    2    0    0  0.00000000000E+00  0.00000000000E+00 -0.87939343813E+03  0.33297727464E+04  0.32115500500E+04 0.  0.
        5    1    3    3  502    0 -0.47329373396E+03 -0.15270036858E+04 -0.28333352804E+03  0.16235908331E+04  0.46999998093E+01 0. -1.
       -5    1    3    3    0  502  0.47329373396E+03  0.15270036858E+04 -0.59605991010E+03  0.17061819134E+04  0.46999998093E+01 0.  1.
</event>
<event>
 5   0  0.3278988E-07  0.3620795E+04  0.7818609E-02  0.8085745E-01
       -1   -1    0    0    0  501  0.00000000000E+00  0.00000000000E+00  0.16444437649E+04  0.16444437649E+04  0.50400001928E-02 0. -1.
        1   -1    0    0  501    0  0.00000000000E+00  0.00000000000E+00 -0.19930994620E+04  0.19930994620E+04  0.50400001928E-02 0.  1.
    10030    2    1    2    0    0  0.00000000000E+00  0.00000000000E+00 -0.34865569716E+03  0.36375432269E+04  0.36207954834E+04 0.  0.
        4    1    3    3  502    0 -0.65301907858E+03 -0.76027708123E+03  0.13403205690E+04  0.16735937373E+04  0.12699999809E+01 0. -1.
       -4    1    3    3    0  502  0.65301907858E+03  0.76027708123E+03 -0.16889762661E+04  0.19639494896E+04  0.12699999809E+01 0.  1.
</event>
<event>
 5   0  0.3159875E-07  0.3383574E+04  0.7818609E-02  0.8141950E-01
        1   -1    0    0  501    0  0.00000000000E+00  0.00000000000E+00  0.18003530546E+04  0.18003530546E+04  0.50400001928E-02 0.  1.
       -1   -1    0    0    0  501  0.00000000000E+00  0.00000000000E+00 -0.15897675840E+04  0.15897675840E+04  0.50400001928E-02 0. -1.
    10030    2    1    2    0    0  0.00000000000E+00  0.00000000000E+00  0.21058547061E+03  0.33901206386E+04  0.33835738065E+04 0.  0.
        5    1    3    3  502    0 -0.81830695205E+03  0.29990419113E+03  0.15581163020E+04  0.17853059380E+04  0.46999998093E+01 0.  1.
       -5    1    3    3    0  502  0.81830695205E+03 -0.29990419113E+03 -0.13475308314E+04  0.16048147006E+04  0.46999998093E+01 0. -1.
</event>
<event>
 5   0  0.9538919E-07  0.3665030E+04  0.7818609E-02  0.8075756E-01
        2   -1    0    0  501    0  0.00000000000E+00  0.00000000000E+00  0.17389964325E+04  0.17389964325E+04  0.25500000920E-02 0.  1.
       -2   -1    0    0    0  501  0.00000000000E+00  0.00000000000E+00 -0.19310628806E+04  0.19310628806E+04  0.25500000920E-02 0. -1.
    10030    2    1    2    0    0  0.00000000000E+00  0.00000000000E+00 -0.19206644815E+03  0.36700593131E+04  0.36650301283E+04 0.  0.
        4    1    3    3  502    0  0.10470412034E+04 -0.42072320661E+03 -0.15419004561E+04  0.19106967126E+04  0.12699999809E+01 0. -1.
       -4    1    3    3    0  502 -0.10470412034E+04  0.42072320661E+03  0.13498340079E+04  0.17593626005E+04  0.12699999809E+01 0.  1.
</event>
<event>
 5   0  0.1031659E-06  0.3580868E+04  0.7818609E-02  0.8094888E-01
       -2   -1    0    0    0  501  0.00000000000E+00  0.00000000000E+00  0.12912660888E+04  0.12912660888E+04  0.25500000920E-02 0. -1.
        2   -1    0    0  501    0  0.00000000000E+00  0.00000000000E+00 -0.24825658542E+04  0.24825658543E+04  0.25500000920E-02 0.  1.
    10030    2    1    2    0    0  0.00000000000E+00  0.00000000000E+00 -0.11912997655E+04  0.37738319430E+04  0.35808675490E+04 0.  0.
        2    1    3    3  502    0 -0.13052746141E+04  0.45329826570E+03 -0.17956164993E+04  0.22657139600E+04  0.25500000920E-02 0.  1.
       -2    1    3    3    0  502  0.13052746141E+04 -0.45329826570E+03  0.60431673386E+03  0.15081179830E+04  0.25500000920E-02 0. -1.
</event>
<event>
 5   0  0.3159875E-07  0.3295647E+04  0.7818609E-02  0.8164004E-01
        1   -1    0    0  501    0  0.00000000000E+00  0.00000000000E+00  0.13590298870E+04  0.13590298870E+04  0.50400001928E-02 0.  1.
       -1   -1    0    0    0  501  0.00000000000E+00  0.00000000000E+00 -0.19979858380E+04  0.19979858380E+04  0.50400001928E-02 0. -1.
    10030    2    1    2    0    0  0.00000000000E+00  0.00000000000E+00 -0.63895595096E+03  0.33570157250E+04  0.32956471095E+04 0.  0.
        5    1    3    3  502    0  0.16089318461E+04 -0.30556282020E+03 -0.13368066051E+03  0.16431442211E+04  0.46999998093E+01 0.  1.
       -5    1    3    3    0  502 -0.16089318461E+04  0.30556282020E+03 -0.50527529045E+03  0.17138715038E+04  0.46999998093E+01 0. -1.
</event>
<event>
 5   0  0.3278988E-07  0.3664711E+04  0.7818609E-02  0.8075828E-01
        1   -1    0    0  501    0  0.00000000000E+00  0.00000000000E+00  0.23061408350E+04  0.23061408350E+04  0.50400001928E-02 0. -1.
       -1   -1    0    0    0  501  0.00000000000E+00  0.00000000000E+00 -0.14559067043E+04  0.14559067043E+04  0.50400001928E-02 0.  1.
    10030    2    1    2    0    0  0.00000000000E+00  0.00000000000E+00  0.85023413068E+03  0.37620475393E+04  0.36647105767E+04 0.  0.
        4    1    3    3  502    0 -0.67776016176E+03  0.11844573012E+04  0.16803897234E+04  0.21647191898E+04  0.12699999809E+01 0. -1.
       -4    1    3    3    0  502  0.67776016176E+03 -0.11844573012E+04 -0.83015559270E+03  0.15973283495E+04  0.12699999809E+01 0.  1.
</event>
<event>
 5   0  0.9878977E-07  0.3574382E+04  0.7818609E-02  0.8096385E-01
       -2   -1    0    0    0  501  0.00000000000E+00  0.00000000000E+00  0.91996072503E+03  0.91996072503E+03  0.25500000920E-02 0. -1.
        2   -1    0    0  501    0  0.00000000000E+00  0.00000000000E+00 -0.34719432205E+04  0.34719432205E+04  0.25500000920E-02 0.  1.
    10030    2    1    2    0    0  0.00000000000E+00  0.00000000000E+00 -0.25519824955E+04  0.43919039456E+04  0.35743818500E+04 0.  0.
        5    1    3    3  502    0  0.63770923574E+03  0.16641540149E+04 -0.14406010818E+04  0.22916010171E+04  0.46999998093E+01 0. -1.
       -5    1    3    3    0  502 -0.63770923574E+03 -0.16641540149E+04 -0.11113814137E+04  0.21003029285E+04  0.46999998093E+01 0.  1.
</event>
<event>
 5   0  0.3159875E-07  0.3275273E+04  0.7818609E-02  0.8169216E-01
        1   -1    0    0  501    0  0.00000000000E+00  0.00000000000E+00  0.83300252703E+03  0.83300252704E+03  0.50400001928E-02 0.  1.
       -1   -1    0    0    0  501  0.00000000000E+00  0.00000000000E+00 -0.32195028902E+04  0.32195028902E+04  0.50400001928E-02 0. -1.
    10030    2    1    2    0    0  0.00000000000E+00  0.00000000000E+00 -0.23865003632E+04  0.40525054173E+04  0.32752734502E+04 0.  0.
        2    1    3    3  502    0 -0.14922281346E+04 -0.62345028364E+03 -0.87437395256E+03  0.18384680771E+04  0.25500000920E-02 0.  1.
       -2    1    3    3    0  502  0.14922281346E+04  0.62345028364E+03 -0.15121264106E+04  0.22140373401E+04  0.25500000920E-02 0. -1.
</event>
<event>
 5   0  0.3365378E-07  0.3597065E+04  0.7818609E-02  0.8091164E-01
        1   -1    0    0  501    0  0.00000000000E+00  0.00000000000E+00  0.18543440106E+04  0.18543440106E+04  0.50400001928E-02 0. -1.
       -1   -1    0    0    0  501  0.00000000000E+00  0.00000000000E+00 -0.17444003995E+04  0.17444003995E+04  0.50400001928E-02 0.  1.
    10030    2    1    2    0    0  0.00000000000E+00  0.00000000000E+00  0.10994361113E+03  0.35987444101E+04  0.35970645993E+04 0.  0.
        3    1    3    3  502    0  0.16814808648E+04  0.59754900909E+03  0.27929896333E+03  0.18062255225E+04  0.10100000352E+00 0. -1.
       -3    1    3    3    0  502 -0.16814808648E+04 -0.59754900909E+03 -0.16935535220E+03  0.17925188876E+04  0.10100000352E+00 0.  1.
</event>
<event>
 5   0  0.3242047E-07  0.3013066E+04  0.7818609E-02  0.8240010E-01
       -1   -1    0    0    0  501  0.00000000000E+00  0.00000000000E+00  0.10292958712E+04  0.10292958712E+04  0.50400001928E-02 0. -1.
        1   -1    0    0  501    0  0.00000000000E+00  0.00000000000E+00 -0.22050429926E+04  0.22050429926E+04  0.50400001928E-02 0.  1.
    10030    2    1    2    0    0  0.00000000000E+00  0.00000000000E+00 -0.11757471215E+04  0.32343388638E+04  0.30130659788E+04 0.  0.
        1    1    3    3  502    0  0.98648498046E+03  0.17644361101E+01  0.63437850381E+03  0.11728562640E+04  0.50400001928E-02 0. -1.
       -1    1    3    3    0  502 -0.98648498046E+03 -0.17644361101E+01 -0.18101256253E+04  0.20614825998E+04  0.50400001928E-02 0.  1.
</event>
<event>
 5   0  0.1006019E-06  0.3599729E+04  0.7818609E-02  0.8090554E-01
        2   -1    0    0  501    0  0.00000000000E+00  0.00000000000E+00  0.11638835686E+04  0.11638835686E+04  0.25500000920E-02 0. -1.
       -2   -1    0    0    0  501  0.00000000000E+00  0.00000000000E+00 -0.27833638724E+04  0.27833638724E+04  0.25500000920E-02 0.  1.
    10030    2    1    2    0    0  0.00000000000E+00  0.00000000000E+00 -0.16194803038E+04  0.39472474410E+04  0.35997285878E+04 0.  0.
        1    1    3    3  502    0 -0.77667645382E+02 -0.17978485659E+04 -0.84803669405E+03  0.19893360610E+04  0.50400001928E-02 0. -1.
       -1    1    3    3    0  502  0.77667645382E+02  0.17978485659E+04 -0.77144360972E+03  0.19579113800E+04  0.50400001928E-02 0.  1.
</event>
<event>
 5   0  0.9878336E-07  0.3859927E+04  0.7818609E-02  0.8033416E-01
        2   -1    0    0  501    0  0.00000000000E+00  0.00000000000E+00  0.21984803716E+04  0.21984803716E+04  0.25500000920E-02 0. -1.
       -2   -1    0    0    0  501  0.00000000000E+00  0.00000000000E+00 -0.16942429891E+04  0.16942429891E+04  0.25500000920E-02 0.  1.
    10030    2    1    2    0    0  0.00000000000E+00  0.00000000000E+00  0.50423738250E+03  0.38927233606E+04  0.38599274377E+04 0.  0.
        3    1    3    3  502    0  0.74392397588E+03  0.13176531427E+04 -0.95602782992E+03  0.17898664498E+04  0.10100000352E+00 0.  1.
       -3    1    3    3    0  502 -0.74392397588E+03 -0.13176531427E+04  0.14602652124E+04  0.21028569108E+04  0.10100000352E+00 0. -1.
</event>
<event>
 5   0  0.9878977E-07  0.2905904E+04  0.7818609E-02  0.8271123E-01
        2   -1    0    0  501    0  0.00000000000E+00  0.00000000000E+00  0.82555949732E+03  0.82555949732E+03  0.25500000920E-02 0.  1.
       -2   -1    0    0    0  501  0.00000000000E+00  0.00000000000E+00 -0.25571385639E+04  0.25571385639E+04  0.25500000920E-02 0. -1.
    10030    2    1    2    0    0  0.00000000000E+00  0.00000000000E+00 -0.17315790666E+04  0.33826980612E+04  0.29059043531E+04 0.  0.
        5    1    3    3  502    0 -0.83054341334E+03 -0.10219217979E+04 -0.15111661498E+03  0.13255130493E+04  0.46999998093E+01 0.  1.
       -5    1    3    3    0  502  0.83054341334E+03  0.10219217979E+04 -0.15804624516E+04  0.20571850120E+04  0.46999998093E+01 0. -1.
</event>
<event>
 5   0  0.9538919E-07  0.3270586E+04  0.7818609E-02  0.8170420E-01
       -2   -1    0    0    0  501  0.00000000000E+00  0.00000000000E+00  0.18083779445E+04  0.18083779445E+04  0.25500000920E-02 0. -1.
        2   -1    0    0  501    0  0.00000000000E+00  0.00000000000E+00 -0.14787744564E+04  0.14787744564E+04  0.25500000920E-02 0.  1.
    10030    2    1    2    0    0  0.00000000000E+00  0.00000000000E+00  0.32960348805E+03  0.32871524009E+04  0.32705859486E+04 0.  0.
        4    1    3    3  502    0 -0.31401589373E+02 -0.11237733203E+04  0.13583898585E+04  0.17632575410E+04  0.12699999809E+01 0. -1.
       -4    1    3    3    0  502  0.31401589373E+02  0.11237733203E+04 -0.10287863704E+04  0.15238948599E+04  0.12699999809E+01 0.  1.
</event>
<event>
 5   0  0.1006019E-06  0.3573136E+04  0.7818609E-02  0.8096673E-01
        2   -1    0    0  501    0  0.00000000000E+00  0.00000000000E+00  0.95467999849E+03  0.95467999850E+03  0.25500000920E-02 0. -1.
       -2   -1    0    0    0  501  0.00000000000E+00  0.00000000000E+00 -0.33433465685E+04  0.33433465685E+04  0.25500000920E-02 0.  1.
    10030    2    1    2    0    0  0.00000000000E+00  0.00000000000E+00 -0.23886665700E+04  0.42980265670E+04  0.35731364916E+04 0.  0.
        1    1    3    3  502    0  0.59106608677E+02  0.11930091531E+03  0.94870425141E+03  0.95800107320E+03  0.50400001928E-02 0. -1.
       -1    1    3    3    0  502 -0.59106608677E+02 -0.11930091531E+03 -0.33373708214E+04  0.33400254938E+04  0.50400001928E-02 0.  1.
</event>
<event>
 5   0  0.3159875E-07  0.3426269E+04  0.7818609E-02  0.8131489E-01
       -1   -1    0    0    0  501  0.00000000000E+00  0.00000000000E+00  0.21110879095E+04  0.21110879095E+04  0.50400001928E-02 0.  1.
        1   -1    0    0  501    0  0.00000000000E+00  0.00000000000E+00 -0.13901976217E+04  0.13901976217E+04  0.50400001928E-02 0. -1.
    10030    2    1    2    0    0  0.00000000000E+00  0.00000000000E+00  0.72089028783E+03  0.35012855312E+04  0.34262687524E+04 0.  0.
        2    1    3    3  502    0  0.49012715201E+03 -0.11435940094E+04 -0.84296212330E+03  0.15028695967E+04  0.25500000920E-02 0. -1.
       -2    1    3    3    0  502 -0.49012715201E+03  0.11435940094E+04  0.15638524111E+04  0.19984159345E+04  0.25500000920E-02 0.  1.
</event>
<event>
 5   0  0.3365378E-07  0.3443117E+04  0.7818609E-02  0.8127404E-01
       -1   -1    0    0    0  501  0.00000000000E+00  0.00000000000E+00  0.15587705307E+04  0.15587705307E+04  0.50400001928E-02 0. -1.
        1   -1    0    0  501    0  0.00000000000E+00  0.00000000000E+00 -0.19013471117E+04  0.19013471117E+04  0.50400001928E-02 0.  1.
    10030    2    1    2    0    0  0.00000000000E+00  0.00000000000E+00 -0.34257658094E+03  0.34601176424E+04  0.34431171031E+04 0.  0.
        3    1    3    3  502    0  0.15938940376E+04 -0.43012785311E+03 -0.66181277197E+03  0.17786242797E+04  0.10100000352E+00 0.  1.
       -3    1    3    3    0  502 -0.15938940376E+04  0.43012785311E+03  0.31923619102E+03  0.16814933627E+04  0.10100000352E+00 0. -1.
</event>
<event>
 5   0  0.9878336E-07  0.3513416E+04  0.7818609E-02  0.8110618E-01
        2   -1    0    0  501    0  0.00000000000E+00  0.00000000000E+00  0.17533709634E+04  0.17533709634E+04  0.25500000920E-02 0. -1.
       -2   -1    0    0    0  501  0.00000000000E+00  0.00000000000E+00 -0.17600517837E+04  0.17600517837E+04  0.25500000920E-02 0.  1.
    10030    2    1    2    0    0  0.00000000000E+00  0.00000000000E+00 -0.66808202852E+01  0.35134227472E+04  0.35134163953E+04 0.  0.
        3    1    3    3  502    0 -0.36761317800E+03 -0.18077752630E+03  0.17049377494E+04  0.17534630598E+04  0.10100000352E+00 0. -1.
       -3    1    3    3    0  502  0.36761317800E+03  0.18077752630E+03 -0.17116185697E+04  0.17599596873E+04  0.10100000352E+00 0.  1.
</event>
<event>
 5   0  0.9878336E-07  0.3300594E+04  0.7818609E-02  0.8162744E-01
        2   -1    0    0  501    0  0.00000000000E+00  0.00000000000E+00  0.23678597246E+04  0.23678597246E+04  0.25500000920E-02 0.  1.
       -2   -1    0    0    0  501  0.00000000000E+00  0.00000000000E+00 -0.11501864528E+04  0.11501864528E+04  0.25500000920E-02 0. -1.
    10030    2    1    2    0    0  0.00000000000E+00  0.00000000000E+00  0.12176732718E+04  0.35180461775E+04  0.33005939935E+04 0.  0.
        3    1    3    3  502    0 -0.38301638438E+03 -0.16041996907E+04  0.67027041148E+03  0.17802866716E+04  0.10100000352E+00 0.  1.
       -3    1    3    3    0  502  0.38301638438E+03  0.16041996907E+04  0.54740286034E+03  0.17377595058E+04  0.10100000352E+00 0. -1.
</event>
<event>
 5   0  0.3278988E-07  0.3599893E+04  0.7818609E-02  0.8090516E-01
       -1   -1    0    0    0  501  0.00000000000E+00  0.00000000000E+00  0.22869257593E+04  0.22869257593E+04  0.50400001928E-02 0.  1.
        1   -1    0    0  501    0  0.00000000000E+00  0.00000000000E+00 -0.14166647451E+04  0.14166647451E+04  0.50400001928E-02 0. -1.
    10030    2    1    2    0    0  0.00000000000E+00  0.00000000000E+00  0.87026101419E+03  0.37035905044E+04  0.35998928306E+04 0.  0.
        4    1    3    3  502    0 -0.11630346549E+03 -0.12426807482E+04 -0.89915701809E+03  0.15382674976E+04  0.12699999809E+01 0. -1.
       -4    1    3    3    0  502  0.11630346549E+03  0.12426807482E+04  0.17694180323E+04  0.21653230068E+04  0.12699999809E+01 0.  1.
</event>
<event>
 5   0  0.3242047E-07  0.3561622E+04  0.7818609E-02  0.8099340E-01
        1   -1    0    0  501    0  0.00000000000E+00  0.00000000000E+00  0.15055793610E+04  0.15055793610E+04  0.50400001928E-02 0.  1.
       -1   -1    0    0    0  501  0.00000000000E+00  0.00000000000E+00 -0.21063575961E+04  0.21063575961E+04  0.50400001928E-02 0. -1.
    10030    2    1    2    0    0  0.00000000000E+00  0.00000000000E+00 -0.60077823512E+03  0.36119369571E+04  0.35616223963E+04 0.  0.
        1    1    3    3  502    0  0.11607067411E+04  0.10235927872E+04 -0.11939184472E+04  0.19545903897E+04  0.50400001928E-02 0. -1.
       -1    1    3    3    0  502 -0.11607067411E+04 -0.10235927872E+04  0.59314021212E+03  0.16573465673E+04  0.50400001928E-02 0.  1.
</event>
<event>
 5   0  0.9878977E-07  0.3164734E+04  0.7818609E-02  0.8198193E-01
       -2   -1    0    0    0  501  0.00000000000E+00  0.00000000000E+00  0.12138707693E+04  0.12138707693E+04  0.25500000920E-02 0. -1.
        2   -1    0    0  501    0  0.00000000000E+00  0.00000000000E+00 -0.20627280901E+04  0.20627280901E+04  0.25500000920E-02 0.  1.
    10030    2    1    2    0    0  0.00000000000E+00  0.00000000000E+00 -0.84885732080E+03  0.32765988594E+04  0.31647340069E+04 0.  0.
        5    1    3    3  502    0  0.13696416973E+03 -0.93870432710E+03 -0.17356616994E+04  0.19779961128E+04  0.46999998093E+01 0.  1.
       -5    1    3    3    0  502 -0.13696416973E+03  0.93870432710E+03  0.88680437864E+03  0.12986027466E+04  0.46999998093E+01 0. -1.
</event>
<event>
 5   0  0.3278988E-07  0.3289131E+04  0.7818609E-02  0.8165667E-01
        1   -1    0    0  501    0  0.00000000000E+00  0.00000000000E+00  0.15426625487E+04  0.15426625487E+04  0.50400001928E-02 0. -1.
       -1   -1    0    0    0  501  0.00000000000E+00  0.00000000000E+00 -0.17531995031E+04  0.17531995031E+04  0.50400001928E-02 0.  1.
    10030    2    1    2    0    0  0.00000000000E+00  0.00000000000E+00 -0.21053695445E+03  0.32958620518E+04  0.32891307142E+04 0.  0.
        4    1    3    3  502    0  0.64648225761E+03  0.95560696358E+03 -0.12796181254E+04  0.17229475146E+04  0.12699999809E+01 0.  1.
       -4    1    3    3    0  502 -0.64648225761E+03 -0.95560696358E+03  0.10690811710E+04  0.15729145372E+04  0.12699999809E+01 0. -1.
</event>
<event>
 5   0  0.3242047E-07  0.3544081E+04  0.7818609E-02  0.8103422E-01
       -1   -1    0    0    0  501  0.00000000000E+00  0.00000000000E+00  0.26488358421E+04  0.26488358421E+04  0.50400001928E-02 0. -1.
        1   -1    0    0  501    0  0.00000000000E+00  0.00000000000E+00 -0.11854743434E+04  0.11854743434E+04  0.50400001928E-02 0.  1.
    10030    2    1    2    0    0  0.00000000000E+00  0.00000000000E+00  0.14633614987E+04  0.38343101855E+04  0.35440806597E+04 0.  0.
        1    1    3    3  502    0  0.16104195406E+04 -0.73897096138E+03  0.70522961840E+03  0.19070600392E+04  0.50400001928E-02 0.  1.
       -1    1    3    3    0  502 -0.16104195406E+04  0.73897096138E+03  0.75813188027E+03  0.19272501463E+04  0.50400001928E-02 0. -1.
</event>
<event>
 5   0  0.9538919E-07  0.3578620E+04  0.7818609E-02  0.8095407E-01
        2   -1    0    0  501    0  0.00000000000E+00  0.00000000000E+00  0.16960472750E+04  0.16960472750E+04  0.25500000920E-02 0.  1.
       -2   -1    0    0    0  501  0.00000000000E+00  0.00000000000E+00 -0.18877005800E+04  0.18877005800E+04  0.25500000920E-02 0. -1.
    10030    2    1    2    0    0  0.00000000000E+00  0.00000000000E+00 -0.19165330497E+03  0.35837478550E+04  0.35786195241E+04 0.  0.
        4    1    3    3  502    0 -0.25784496474E+03  0.14750799580E+04  0.88500680372E+03  0.17394204678E+04  0.12699999809E+01 0.  1.
       -4    1    3    3    0  502  0.25784496474E+03 -0.14750799580E+04 -0.10766601087E+04  0.18443273871E+04  0.12699999809E+01 0. -1.
</event>
<event>
 5   0  0.3365378E-07  0.3534945E+04  0.7818609E-02  0.8105558E-01
       -1   -1    0    0    0  501  0.00000000000E+00  0.00000000000E+00  0.14924954728E+04  0.14924954728E+04  0.50400001928E-02 0.  1.
        1   -1    0    0  501    0  0.00000000000E+00  0.00000000000E+00 -0.20931108345E+04  0.20931108346E+04  0.50400001928E-02 0. -1.
    10030    2    1    2    0    0  0.00000000000E+00  0.00000000000E+00 -0.60061536179E+03  0.35856063073E+04  0.35349446641E+04 0.  0.
        3    1    3    3  502    0  0.13648501161E+04  0.38441523697E+03 -0.13705922334E+04  0.19720836682E+04  0.10100000352E+00 0. -1.
       -3    1    3    3    0  502 -0.13648501161E+04 -0.38441523697E+03  0.76997687165E+03  0.16135226391E+04  0.10100000352E+00 0.  1.
</event>
<event>
 5   0  0.3365378E-07  0.3055377E+04  0.7818609E-02  0.8228092E-01
        1   -1    0    0  501    0  0.00000000000E+00  0.00000000000E+00  0.12763556349E+04  0.12763556349E+04  0.50400001928E-02 0. -1.
       -1   -1    0    0    0  501  0.00000000000E+00  0.00000000000E+00 -0.18285122184E+04  0.18285122184E+04  0.50400001928E-02 0.  1.
    10030    2    1    2    0    0  0.00000000000E+00  0.00000000000E+00 -0.55215658345E+03  0.31048678533E+04  0.30553768170E+04 0.  0.
        3    1    3    3  502    0  0.72153364754E+03  0.81368562555E+03  0.81421114253E+03  0.13585414593E+04  0.10100000352E+00 0. -1.
       -3    1    3    3    0  502 -0.72153364754E+03 -0.81368562555E+03 -0.13663677260E+04  0.17463263941E+04  0.10100000352E+00 0.  1.
</event>
<event>
 5   0  0.3242047E-07  0.3657857E+04  0.7818609E-02  0.8077366E-01
        1   -1    0    0  501    0  0.00000000000E+00  0.00000000000E+00  0.15635973037E+04  0.15635973037E+04  0.50400001928E-02 0.  1.
       -1   -1    0    0    0  501  0.00000000000E+00  0.00000000000E+00 -0.21392850003E+04  0.21392850003E+04  0.50400001928E-02 0. -1.
    10030    2    1    2    0    0  0.00000000000E+00  0.00000000000E+00 -0.57568769658E+03  0.37028823041E+04  0.36578574376E+04 0.  0.
        1    1    3    3  502    0 -0.68859570066E+03  0.14373184232E+04 -0.11960673202E+04  0.19926427986E+04  0.50400001928E-02 0. -1.
       -1    1    3    3    0  502  0.68859570066E+03 -0.14373184232E+04  0.62037962360E+03  0.17102395054E+04  0.50400001928E-02 0.  1.
</event>
<event>
 5   0  0.3159875E-07  0.3305084E+04  0.7818609E-02  0.8161603E-01
       -1   -1    0    0    0  501  0.00000000000E+00  0.00000000000E+00  0.12210795728E+04  0.12210795728E+04  0.50400001928E-02 0.  1.
        1   -1    0    0  501    0  0.00000000000E+00  0.00000000000E+00 -0.22364599208E+04  0.22364599208E+04  0.50400001928E-02 0. -1.
    10030    2    1    2    0    0  0.00000000000E+00  0.00000000000E+00 -0.10153803480E+04  0.34575394937E+04  0.33050842802E+04 0.  0.
        5    1    3    3  502    0  0.45288690910E+02  0.61944235216E+02  0.12192078453E+04  0.12216292456E+04  0.46999998093E+01 0.  1.
       -5    1    3    3    0  502 -0.45288690910E+02 -0.61944235216E+02 -0.22345881933E+04  0.22359102480E+04  0.46999998093E+01 0. -1.
</event>
<event>
 5   0  0.3159875E-07  0.2811102E+04  0.7818609E-02  0.8299830E-01
       -1   -1    0    0    0  501  0.00000000000E+00  0.00000000000E+00  0.95971907528E+03  0.95971907529E+03  0.50400001928E-02 0.  1.
        1   -1    0    0  501    0  0.00000000000E+00  0.00000000000E+00 -0.20584908280E+04  0.20584908280E+04  0.50400001928E-02 0. -1.
    10030    2    1    2    0    0  0.00000000000E+00  0.00000000000E+00 -0.10987717528E+04  0.30182099033E+04  0.28111015023E+04 0.  0.
        5    1    3    3  502    0  0.10763637508E+04  0.74968489090E+03 -0.10915274848E+04  0.17064702458E+04  0.46999998093E+01 0.  1.
       -5    1    3    3    0  502 -0.10763637508E+04 -0.74968489090E+03 -0.72442679487E+01  0.13117396575E+04  0.46999998093E+01 0. -1.
</event>
<event>
 5   0  0.3159875E-07  0.3591297E+04  0.7818609E-02  0.8092488E-01
       -1   -1    0    0    0  501  0.00000000000E+00  0.00000000000E+00  0.22846325201E+04  0.22846325201E+04  0.50400001928E-02 0.  1.
        1   -1    0    0  501    0  0.00000000000E+00  0.00000000000E+00 -0.14113226632E+04  0.14113226632E+04  0.50400001928E-02 0. -1.
    10030    2    1    2    0    0  0.00000000000E+00  0.00000000000E+00  0.87330985685E+03  0.36959551833E+04  0.35912970653E+04 0.  0.
        2    1    3    3  502    0 -0.90510102273E+03 -0.13166100958E+04 -0.40679198496E+03  0.16486812077E+04  0.25500000920E-02 0. -1.
       -2    1    3    3    0  502  0.90510102273E+03  0.13166100958E+04  0.12801018418E+04  0.20472739756E+04  0.25500000920E-02 0.  1.
</event>
<event>
 5   0  0.3159875E-07  0.3745673E+04  0.7818609E-02  0.8057915E-01
       -1   -1    0    0    0  501  0.00000000000E+00  0.00000000000E+00  0.26143782462E+04  0.26143782462E+04  0.50400001928E-02 0. -1.
        1   -1    0    0  501    0  0.00000000000E+00  0.00000000000E+00 -0.13416256157E+04  0.13416256157E+04  0.50400001928E-02 0.  1.
    10030    2    1    2    0    0  0.00000000000E+00  0.00000000000E+00  0.12727526305E+04  0.39560038619E+04  0.37456731434E+04 0.  0.
        2    1    3    3  502    0  0.73187648214E+03  0.10729364501E+04  0.20614711350E+04  0.24364931873E+04  0.25500000920E-02 0. -1.
       -2    1    3    3    0  502 -0.73187648214E+03 -0.10729364501E+04 -0.78871850451E+03  0.15195106746E+04  0.25500000920E-02 0.  1.
</event>
<event>
 5   0  0.3159875E-07  0.3708629E+04  0.7818609E-02  0.8066052E-01
       -1   -1    0    0    0  501  0.00000000000E+00  0.00000000000E+00  0.16303618965E+04  0.16303618965E+04  0.50400001928E-02 0. -1.
        1   -1    0    0  501    0  0.00000000000E+00  0.00000000000E+00 -0.21090298781E+04  0.21090298781E+04  0.50400001928E-02 0.  1.
    10030    2    1    2    0    0  0.00000000000E+00  0.00000000000E+00 -0.47866798160E+03  0.37393917746E+04  0.37086288312E+04 0.  0.
        2    1    3    3  502    0 -0.13263614447E+04  0.10944112025E+04 -0.93900016857E+03  0.19592579919E+04  0.25500000920E-02 0. -1.
       -2    1    3    3    0  502  0.13263614447E+04 -0.10944112025E+04  0.46033218697E+03  0.17801337828E+04  0.25500000920E-02 0.  1.
</event>
<event>
 5   0  0.9878977E-07  0.3603793E+04  0.7818609E-02  0.8089623E-01
       -2   -1    0    0    0  501  0.00000000000E+00  0.00000000000E+00  0.31170969851E+04  0.31170969851E+04  0.25500000920E-02 0. -1.
        2   -1    0    0  501    0  0.00000000000E+00  0.00000000000E+00 -0.10416200309E+04  0.10416200309E+04  0.25500000920E-02 0.  1.
    10030    2    1    2    0    0  0.00000000000E+00  0.00000000000E+00  0.20754769542E+04  0.41587170160E+04  0.36037928120E+04 0.  0.
        5    1    3    3  502    0 -0.66950263010E+03 -0.12657437203E+04 -0.22452504416E+03  0.14494048857E+04  0.46999998093E+01 0.  1.
       -5    1    3    3    0  502  0.66950263010E+03  0.12657437203E+04  0.23000019984E+04  0.27093121304E+04  0.46999998093E+01 0. -1.
</event>
<event>
 5   0  0.3242047E-07  0.3594457E+04  0.7818609E-02  0.8091762E-01
        1   -1    0    0  501    0  0.00000000000E+00  0.00000000000E+00  0.18258797999E+04  0.18258797999E+04  0.50400001928E-02 0. -1.
       -1   -1    0    0    0  501  0.00000000000E+00  0.00000000000E+00 -0.17690271644E+04  0.17690271644E+04  0.50400001928E-02 0.  1.
    10030    2    1    2    0    0  0.00000000000E+00  0.00000000000E+00  0.56852635505E+02  0.35949069643E+04  0.35944573805E+04 0.  0.
        1    1    3    3  502    0  0.11092250058E+04  0.13985455126E+04 -0.18069622635E+03  0.17941462567E+04  0.50400001928E-02 0. -1.
       -1    1    3    3    0  502 -0.11092250058E+04 -0.13985455126E+04  0.23754886185E+03  0.18007607076E+04  0.50400001928E-02 0.  1.
</event>
<event>
 5   0  0.9878336E-07  0.2806465E+04  0.7818609E-02  0.8301264E-01
       -2   -1    0    0    0  501  0.00000000000E+00  0.00000000000E+00  0.12005024779E+04  0.12005024779E+04  0.25500000920E-02 0.  1.
        2   -1    0    0  501    0  0.00000000000E+00  0.00000000000E+00 -0.16401974842E+04  0.16401974842E+04  0.25500000920E-02 0. -1.
    10030    2    1    2    0    0  0.00000000000E+00  0.00000000000E+00 -0.43969500621E+03  0.28406999621E+04  0.28064647826E+04 0.  0.
        3    1    3    3  502    0 -0.11371374790E+04  0.33728661399E+01  0.61235472284E+03  0.12915383615E+04  0.10100000352E+00 0.  1.
       -3    1    3    3    0  502  0.11371374790E+04 -0.33728661399E+01 -0.10520497291E+04  0.15491616006E+04  0.10100000352E+00 0. -1.
</event>
<event>
 5   0  0.3278988E-07  0.3607267E+04  0.7818609E-02  0.8088829E-01
        1   -1    0    0  501    0  0.00000000000E+00  0.00000000000E+00  0.25346195195E+04  0.25346195195E+04  0.50400001928E-02 0.  1.
       -1   -1    0    0    0  501  0.00000000000E+00  0.00000000000E+00 -0.12834642499E+04  0.12834642499E+04  0.50400001928E-02 0. -1.
    10030    2    1    2    0    0  0.00000000000E+00  0.00000000000E+00  0.12511552695E+04  0.38180837694E+04  0.36072668548E+04 0.  0.
        4    1    3    3  502    0 -0.19680632047E+03 -0.17598892421E+04  0.98785114271E+03  0.20277559926E+04  0.12699999809E+01 0.  1.
       -4    1    3    3    0  502  0.19680632047E+03  0.17598892421E+04  0.26330412683E+03  0.17903277768E+04  0.12699999809E+01 0. -1.
</event>
<event>
 5   0  0.9538919E-07  0.3563040E+04  0.7818609E-02  0.8099011E-01
        2   -1    0    0  501    0  0.00000000000E+00  0.00000000000E+00  0.27515272447E+04  0.27515272447E+04  0.25500000920E-02 0.  1.
       -2   -1    0    0    0  501  0.00000000000E+00  0.00000000000E+00 -0.11534731189E+04  0.11534731189E+04  0.25500000920E-02 0. -1.
    10030    2    1    2    0    0  0.00000000000E+00  0.00000000000E+00  0.15980541258E+04  0.39050003636E+04  0.35630395522E+04 0.  0.
        4    1    3    3  502    0  0.41270856790E+03  0.12022608951E+04  0.21670435663E+04  0.25123373684E+04  0.12699999809E+01 0.  1.
       -4    1    3    3    0  502 -0.41270856790E+03 -0.12022608951E+04 -0.56898944049E+03  0.13926629952E+04  0.12699999809E+01 0. -1.
</event>
<event>
 5   0  0.1006019E-06  0.3708571E+04  0.7818609E-02  0.8066065E-01
       -2   -1    0    0    0  501  0.00000000000E+00  0.00000000000E+00  0.21013639992E+04  0.21013639992E+04  0.25500000920E-02 0.  1.
        2   -1    0    0  501    0  0.00000000000E+00  0.00000000000E+00 -0.16362585847E+04  0.16362585847E+04  0.25500000920E-02 0. -1.
    10030    2    1    2    0    0  0.00000000000E+00  0.00000000000E+00  0.46510541445E+03  0.37376225839E+04  0.37085710905E+04 0.  0.
        1    1    3    3  502    0 -0.55072350888E+03  0.68869106151E+03 -0.14114161087E+04  0.16642377214E+04  0.50400001928E-02 0. -1.
       -1    1    3    3    0  502  0.55072350888E+03 -0.68869106151E+03  0.18765215231E+04  0.20733848625E+04  0.50400001928E-02 0.  1.
</event>
<event>
 5   0  0.3365378E-07  0.3805403E+04  0.7818609E-02  0.8044996E-01
        1   -1    0    0  501    0  0.00000000000E+00  0.00000000000E+00  0.14186083363E+04  0.14186083363E+04  0.50400001928E-02 0.  1.
       -1   -1    0    0    0  501  0.00000000000E+00  0.00000000000E+00 -0.25519887108E+04  0.25519887109E+04  0.50400001928E-02 0. -1.
    10030    2    1    2    0    0  0.00000000000E+00  0.00000000000E+00 -0.11333803746E+04  0.39705970471E+04  0.38054027168E+04 0.  0.
        3    1    3    3  502    0 -0.11004145411E+04 -0.14466524466E+04 -0.11537483651E+04  0.21528703546E+04  0.10100000352E+00 0. -1.
       -3    1    3    3    0  502  0.11004145411E+04  0.14466524466E+04  0.20367990548E+02  0.18177266925E+04  0.10100000352E+00 0.  1.
</event>
<event>
 5   0  0.9878336E-07  0.3525020E+04  0.7818609E-02  0.8107886E-01
        2   -1    0    0  501    0  0.00000000000E+00  0.00000000000E+00  0.22630628942E+04  0.22630628942E+04  0.25500000920E-02 0. -1.
       -2   -1    0    0    0  501  0.00000000000E+00  0.00000000000E+00 -0.13726712809E+04  0.13726712809E+04  0.25500000920E-02 0.  1.
    10030    2    1    2    0    0  0.00000000000E+00  0.00000000000E+00  0.89039161330E+03  0.36357341751E+04  0.35250199669E+04 0.  0.
        3    1    3    3  502    0  0.12111521616E+04  0.39270835433E+03 -0.81182455644E+03  0.15100226921E+04  0.10100000352E+00 0.  1.
       -3    1    3    3    0  502 -0.12111521616E+04 -0.39270835433E+03  0.17022161697E+04  0.21257114830E+04  0.10100000352E+00 0. -1.
</event>
<event>
 5   0  0.3278988E-07  0.3569946E+04  0.7818609E-02  0.8097411E-01
        1   -1    0    0  501    0  0.00000000000E+00  0.00000000000E+00  0.17215855690E+04  0.17215855690E+04  0.50400001928E-02 0.  1.
       -1   -1    0    0    0  501  0.00000000000E+00  0.00000000000E+00 -0.18506942852E+04  0.18506942852E+04  0.50400001928E-02 0. -1.
    10030    2    1    2    0    0  0.00000000000E+00  0.00000000000E+00 -0.12910871623E+03  0.35722798542E+04  0.35699459794E+04 0.  0.
        4    1    3    3  502    0 -0.91606403663E+03  0.11534966328E+04 -0.10733796895E+04  0.18226007165E+04  0.12699999809E+01 0. -1.
       -4    1    3    3    0  502  0.91606403663E+03 -0.11534966328E+04  0.94427097323E+03  0.17496791377E+04  0.12699999809E+01 0.  1.
</event>
<event>
 5   0  0.1031659E-06  0.3352972E+04  0.7818609E-02  0.8149546E-01
       -2   -1    0    0    0  501  0.00000000000E+00  0.00000000000E+00  0.13162023614E+04  0.13162023614E+04  0.25500000920E-02 0. -1.
        2   -1    0    0  501    0  0.00000000000E+00  0.00000000000E+00 -0.21353898468E+04  0.21353898468E+04  0.25500000920E-02 0.  1.
    10030    2    1    2    0    0  0.00000000000E+00  0.00000000000E+00 -0.81918748543E+03  0.34515922082E+04  0.33529719110E+04 0.  0.
        2    1    3    3  502    0  0.12181576713E+04 -0.11322412968E+04 -0.19188646015E+03  0.16741263035E+04  0.25500000920E-02 0. -1.
       -2    1    3    3    0  502 -0.12181576713E+04  0.11322412968E+04 -0.62730102528E+03  0.17774659048E+04  0.25500000920E-02 0.  1.
</event>
<event>
 5   0  0.3278988E-07  0.3583405E+04  0.7818609E-02  0.8094304E-01
       -1   -1    0    0    0  501  0.00000000000E+00  0.00000000000E+00  0.28526544823E+04  0.28526544823E+04  0.50400001928E-02 0. -1.
        1   -1    0    0  501    0  0.00000000000E+00  0.00000000000E+00 -0.11253372466E+04  0.11253372466E+04  0.50400001928E-02 0.  1.
    10030    2    1    2    0    0  0.00000000000E+00  0.00000000000E+00  0.17273172356E+04  0.39779917289E+04  0.35834052747E+04 0.  0.
        4    1    3    3  502    0 -0.78738864794E+03  0.60211550763E+03 -0.79323125839E+03  0.12695437801E+04  0.12699999809E+01 0.  1.
       -4    1    3    3    0  502  0.78738864794E+03 -0.60211550763E+03  0.25205484940E+04  0.27084479488E+04  0.12699999809E+01 0. -1.
</event>
<event>
 5   0  0.3278988E-07  0.3675206E+04  0.7818609E-02  0.8073479E-01
       -1   -1    0    0    0  501  0.00000000000E+00  0.00000000000E+00  0.15588676715E+04  0.15588676715E+04  0.50400001928E-02 0. -1.
        1   -1    0    0  501    0  0.00000000000E+00  0.00000000000E+00 -0.21661782262E+04  0.21661782262E+04  0.50400001928E-02 0.  1.
    10030    2    1    2    0    0  0.00000000000E+00  0.00000000000E+00 -0.60731055477E+03  0.37250458977E+04  0.36752062296E+04 0.  0.
        4    1    3    3  502    0 -0.77005185822E+03 -0.16628671015E+04 -0.16513914106E+03  0.18399400562E+04  0.12699999809E+01 0. -1.
       -4    1    3    3    0  502  0.77005185822E+03  0.16628671015E+04 -0.44217141371E+03  0.18851058415E+04  0.12699999809E+01 0.  1.
</event>
<event>
 5   0  0.3159875E-07  0.3590882E+04  0.7818609E-02  0.8092583E-01
        1   -1    0    0  501    0  0.00000000000E+00  0.00000000000E+00  0.18980331112E+04  0.18980331112E+04  0.50400001928E-02 0. -1.
       -1   -1    0    0    0  501  0.00000000000E+00  0.00000000000E+00 -0.16983942248E+04  0.16983942248E+04  0.50400001928E-02 0.  1.
    10030    2    1    2    0    0  0.00000000000E+00  0.00000000000E+00  0.19963888636E+03  0.35964273360E+04  0.35908820502E+04 0.  0.
        2    1    3    3  502    0 -0.10309796196E+04  0.12040620387E+03 -0.13674315767E+04  0.17167660723E+04  0.25500000920E-02 0.  1.
       -2    1    3    3    0  502  0.10309796196E+04 -0.12040620387E+03  0.15670704631E+04  0.18796612637E+04  0.25500000920E-02 0. -1.
</event>
<event>
 5   0  0.1031659E-06  0.3616340E+04  0.7818609E-02  0.8086759E-01
        2   -1    0    0  501    0  0.00000000000E+00  0.00000000000E+00  0.19462056183E+04  0.19462056183E+04  0.25500000920E-02 0.  1.
       -2   -1    0    0    0  501  0.00000000000E+00  0.00000000000E+00 -0.16799247801E+04  0.16799247801E+04  0.25500000920E-02 0. -1.
    10030    2    1    2    0    0  0.00000000000E+00  0.00000000000E+00  0.26628083817E+03  0.36261303984E+04  0.36163401640E+04 0.  0.
        2    1    3    3  502    0 -0.11454613475E+04 -0.13824677918E+04  0.34861786489E+03  0.18288885449E+04  0.25500000920E-02 0. -1.
       -2    1    3    3    0  502  0.11454613475E+04  0.13824677918E+04 -0.82337026722E+02  0.17972418535E+04  0.25500000920E-02 0.  1.
</event>
<event>
 5   0  0.1006019E-06  0.3518121E+04  0.7818609E-02  0.8109509E-01
       -2   -1    0    0    0  501  0.00000000000E+00  0.00000000000E+00  0.26820432466E+04  0.26820432466E+04  0.25500000920E-02 0.  1.
        2   -1    0    0  501    0  0.00000000000E+00  0.00000000000E+00 -0.11537074238E+04  0.11537074238E+04  0.25500000920E-02 0. -1.
    10030    2    1    2    0    0  0.00000000000E+00  0.00000000000E+00  0.15283358228E+04  0.38357506705E+04  0.35181206373E+04 0.  0.
        1    1    3    3  502    0 -0.55700769734E+03  0.48705957484E+03 -0.97578620588E+03  0.12245992504E+04  0.50400001928E-02 0. -1.
       -1    1    3    3    0  502  0.55700769734E+03 -0.48705957484E+03  0.25041220287E+04  0.26111514201E+04  0.50400001928E-02 0.  1.
</event>
<event>
 5   0  0.3159875E-07  0.3321988E+04  0.7818609E-02  0.8157323E-01
        4   -1    0    0  501    0  0.00000000000E+00  0.00000000000E+00  0.19962840426E+04  0.19962844466E+04  0.12699999809E+01 0. -1.
       -4   -1    0    0    0  501  0.00000000000E+00  0.00000000000E+00 -0.13820172487E+04  0.13820178323E+04  0.12699999809E+01 0.  1.
    10030    2    1    2    0    0  0.00000000000E+00  0.00000000000E+00  0.61426679385E+03  0.33783022788E+04  0.33219877473E+04 0.  0.
        2    1    3    3  502    0 -0.14672360745E+04  0.66429593368E+03 -0.10574145229E+03  0.16140793167E+04  0.25500000920E-02 0.  1.
       -2    1    3    3    0  502  0.14672360745E+04 -0.66429593368E+03  0.72000824614E+03  0.17642229622E+04  0.25500000920E-02 0. -1.
</event>
<event>
 5   0  0.1006019E-06  0.3597565E+04  0.7818609E-02  0.8091050E-01
       -2   -1    0    0    0  501  0.00000000000E+00  0.00000000000E+00  0.17145741042E+04  0.17145741042E+04  0.25500000920E-02 0. -1.
        2   -1    0    0  501    0  0.00000000000E+00  0.00000000000E+00 -0.18871266653E+04  0.18871266653E+04  0.25500000920E-02 0.  1.
    10030    2    1    2    0    0  0.00000000000E+00  0.00000000000E+00 -0.17255256112E+03  0.36017007696E+04  0.35975650164E+04 0.  0.
        1    1    3    3  502    0 -0.27547619354E+03  0.88338933892E+03 -0.16305652435E+04  0.18748351583E+04  0.50400001928E-02 0.  1.
       -1    1    3    3    0  502  0.27547619354E+03 -0.88338933892E+03  0.14580126824E+04  0.17268656113E+04  0.50400001928E-02 0. -1.
</event>
<event>
 5   0  0.3242047E-07  0.3575893E+04  0.7818609E-02  0.8096036E-01
       -1   -1    0    0    0  501  0.00000000000E+00  0.00000000000E+00  0.22857599400E+04  0.22857599400E+04  0.50400001928E-02 0. -1.
        1   -1    0    0  501    0  0.00000000000E+00  0.00000000000E+00 -0.13985510035E+04  0.13985510035E+04  0.50400001928E-02 0.  1.
    10030    2    1    2    0    0  0.00000000000E+00  0.00000000000E+00  0.88720893641E+03  0.36843109435E+04  0.35758925364E+04 0.  0.
        1    1    3    3  502    0 -0.15449693889E+02  0.89950924142E+03  0.20355715180E+04  0.22255127439E+04  0.50400001928E-02 0. -1.
       -1    1    3    3    0  502  0.15449693889E+02 -0.89950924142E+03 -0.11483625816E+04  0.14587981996E+04  0.50400001928E-02 0.  1.
</event>
<event>
 5   0  0.9878977E-07  0.3642433E+04  0.7818609E-02  0.8080840E-01
        2   -1    0    0  501    0  0.00000000000E+00  0.00000000000E+00  0.26393266084E+04  0.26393266084E+04  0.25500000920E-02 0.  1.
       -2   -1    0    0    0  501  0.00000000000E+00  0.00000000000E+00 -0.12566955116E+04  0.12566955116E+04  0.25500000920E-02 0. -1.
    10030    2    1    2    0    0  0.00000000000E+00  0.00000000000E+00  0.13826310968E+04  0.38960221201E+04  0.36424331991E+04 0.  0.
        5    1    3    3  502    0  0.19418377376E+02 -0.86541980566E+03  0.24052069248E+04  0.25562415681E+04  0.46999998093E+01 0.  1.
       -5    1    3    3    0  502 -0.19418377376E+02  0.86541980566E+03 -0.10225758280E+04  0.13397805520E+04  0.46999998093E+01 0. -1.
</event>
<event>
 5   0  0.9538919E-07  0.3650598E+04  0.7818609E-02  0.8078999E-01
       -2   -1    0    0    0  501  0.00000000000E+00  0.00000000000E+00  0.28205988086E+04  0.28205988086E+04  0.25500000920E-02 0.  1.
        2   -1    0    0  501    0  0.00000000000E+00  0.00000000000E+00 -0.11812092003E+04  0.11812092003E+04  0.25500000920E-02 0. -1.
    10030    2    1    2    0    0  0.00000000000E+00  0.00000000000E+00  0.16393896083E+04  0.40018080089E+04  0.36505984513E+04 0.  0.
        4    1    3    3  502    0 -0.11113379089E+04 -0.23629742216E+03 -0.74631031001E+03  0.13593708512E+04  0.12699999809E+01 0. -1.
       -4    1    3    3    0  502  0.11113379089E+04  0.23629742216E+03  0.23856999183E+04  0.26424371577E+04  0.12699999809E+01 0.  1.
</event>
<event>
 5   0  0.9538919E-07  0.3510084E+04  0.7818609E-02  0.8111404E-01
       -2   -1    0    0    0  501  0.00000000000E+00  0.00000000000E+00  0.20563485618E+04  0.20563485618E+04  0.25500000920E-02 0.  1.
        2   -1    0    0  501    0  0.00000000000E+00  0.00000000000E+00 -0.14978847793E+04  0.14978847793E+04  0.25500000920E-02 0. -1.
    10030    2    1    2    0    0  0.00000000000E+00  0.00000000000E+00  0.55846378251E+03  0.35542333411E+04  0.35100844501E+04 0.  0.
        4    1    3    3  502    0  0.16346478693E+04 -0.23414683267E+03  0.88107559158E+03  0.18716821864E+04  0.12699999809E+01 0.  1.
       -4    1    3    3    0  502 -0.16346478693E+04  0.23414683267E+03 -0.32261180907E+03  0.16825511547E+04  0.12699999809E+01 0. -1.
</event>
<event>
 5   0  0.3159875E-07  0.3372770E+04  0.7818609E-02  0.8144622E-01
        1   -1    0    0  501    0  0.00000000000E+00  0.00000000000E+00  0.18026162671E+04  0.18026162671E+04  0.50400001928E-02 0. -1.
       -1   -1    0    0    0  501  0.00000000000E+00  0.00000000000E+00 -0.15776486376E+04  0.15776486376E+04  0.50400001928E-02 0.  1.
    10030    2    1    2    0    0  0.00000000000E+00  0.00000000000E+00  0.22496762948E+03  0.33802649047E+04  0.33727704327E+04 0.  0.
        2    1    3    3  502    0  0.43740862061E+03  0.15804989568E+04 -0.28157154926E+03  0.16639067856E+04  0.25500000920E-02 0.  1.
       -2    1    3    3    0  502 -0.43740862061E+03 -0.15804989568E+04  0.50653917874E+03  0.17163581192E+04  0.25500000920E-02 0. -1.
</event>
<event>
 5   0  0.3365378E-07  0.2842057E+04  0.7818609E-02  0.8290329E-01
        1   -1    0    0  501    0  0.00000000000E+00  0.00000000000E+00  0.14259970493E+04  0.14259970493E+04  0.50400001928E-02 0. -1.
       -1   -1    0    0    0  501  0.00000000000E+00  0.00000000000E+00 -0.14160776560E+04  0.14160776560E+04  0.50400001928E-02 0.  1.
    10030    2    1    2    0    0  0.00000000000E+00  0.00000000000E+00  0.99193932883E+01  0.28420747053E+04  0.28420573949E+04 0.  0.
        3    1    3    3  502    0  0.78064917820E+03 -0.28252497045E+03  0.11582615882E+04  0.14250626005E+04  0.10100000352E+00 0. -1.
       -3    1    3    3    0  502 -0.78064917820E+03  0.28252497045E+03 -0.11483421949E+04  0.14170121048E+04  0.10100000352E+00 0.  1.
</event>
<event>
 5   0  0.3159875E-07  0.3539585E+04  0.7818609E-02  0.8104472E-01
       -1   -1    0    0    0  501  0.00000000000E+00  0.00000000000E+00  0.19973546239E+04  0.19973546239E+04  0.50400001928E-02 0. -1.
        1   -1    0    0  501    0  0.00000000000E+00  0.00000000000E+00 -0.15681573286E+04  0.15681573286E+04  0.50400001928E-02 0.  1.
    10030    2    1    2    0    0  0.00000000000E+00  0.00000000000E+00  0.42919729532E+03  0.35655119524E+04  0.35395854510E+04 0.  0.
        5    1    3    3  502    0  0.61648542253E+03  0.23432414270E+03 -0.14397408222E+04  0.15836154221E+04  0.46999998093E+01 0.  1.
       -5    1    3    3    0  502 -0.61648542253E+03 -0.23432414270E+03  0.18689381175E+04  0.19818965304E+04  0.46999998093E+01 0. -1.
</event>
<event>
 5   0  0.9538919E-07  0.3388764E+04  0.7818609E-02  0.8140669E-01
        2   -1    0    0  501    0  0.00000000000E+00  0.00000000000E+00  0.16348110836E+04  0.16348110836E+04  0.25500000920E-02 0.  1.
       -2   -1    0    0    0  501  0.00000000000E+00  0.00000000000E+00 -0.17561237283E+04  0.17561237283E+04  0.25500000920E-02 0. -1.
    10030    2    1    2    0    0  0.00000000000E+00  0.00000000000E+00 -0.12131264474E+03  0.33909348119E+04  0.33887641023E+04 0.  0.
        4    1    3    3  502    0 -0.64694183454E+03 -0.11671983446E+04 -0.11053764451E+04  0.17328428697E+04  0.12699999809E+01 0. -1.
       -4    1    3    3    0  502  0.64694183454E+03  0.11671983446E+04  0.98406380033E+03  0.16580919422E+04  0.12699999809E+01 0.  1.
</event>
<event>
 5   0  0.9878977E-07  0.3585991E+04  0.7818609E-02  0.8093708E-01
       -2   -1    0    0    0  501  0.00000000000E+00  0.00000000000E+00  0.14423453474E+04  0.14423453474E+04  0.25500000920E-02 0.  1.
        2   -1    0    0  501    0  0.00000000000E+00  0.00000000000E+00 -0.22288923283E+04  0.22288923283E+04  0.25500000920E-02 0. -1.
    10030    2    1    2    0    0  0.00000000000E+00  0.00000000000E+00 -0.78654698092E+03  0.36712376757E+04  0.35859907861E+04 0.  0.
        5    1    3    3  502    0  0.44081724819E+03 -0.15898662873E+03  0.13785369070E+04  0.14560160330E+04  0.46999998093E+01 0.  1.
       -5    1    3    3    0  502 -0.44081724819E+03  0.15898662873E+03 -0.21650838879E+04  0.22152216427E+04  0.46999998093E+01 0. -1.
</event>
<event>
 5   0  0.1006019E-06  0.3586764E+04  0.7818609E-02  0.8093530E-01
       -2   -1    0    0    0  501  0.00000000000E+00  0.00000000000E+00  0.16173987767E+04  0.16173987767E+04  0.25500000920E-02 0. -1.
        2   -1    0    0  501    0  0.00000000000E+00  0.00000000000E+00 -0.19885137765E+04  0.19885137765E+04  0.25500000920E-02 0.  1.
    10030    2    1    2    0    0  0.00000000000E+00  0.00000000000E+00 -0.37111499988E+03  0.36059125532E+04  0.35867644191E+04 0.  0.
        1    1    3    3  502    0  0.16625885243E+04 -0.55087454833E+03 -0.57304526307E+03  0.18428359240E+04  0.50400001928E-02 0.  1.
       -1    1    3    3    0  502 -0.16625885243E+04  0.55087454833E+03  0.20193026320E+03  0.17630766292E+04  0.50400001928E-02 0. -1.
</event>
<event>
 5   0  0.1006019E-06  0.2776226E+04  0.7818609E-02  0.8310687E-01
        2   -1    0    0  501    0  0.00000000000E+00  0.00000000000E+00  0.22752018960E+04  0.22752018960E+04  0.25500000920E-02 0. -1.
       -2   -1    0    0    0  501  0.00000000000E+00  0.00000000000E+00 -0.84689534367E+03  0.84689534367E+03  0.25500000920E-02 0.  1.
    10030    2    1    2    0    0  0.00000000000E+00  0.00000000000E+00  0.14283065523E+04  0.31220972396E+04  0.27762261375E+04 0.  0.
        1    1    3    3  502    0 -0.15593389949E+03  0.11275706313E+04  0.16075615299E+04  0.19697677483E+04  0.50400001928E-02 0.  1.
       -1    1    3    3    0  502  0.15593389949E+03 -0.11275706313E+04 -0.17925497765E+03  0.11523294913E+04  0.50400001928E-02 0. -1.
</event>
<event>
 5   0  0.3159875E-07  0.3561607E+04  0.7818609E-02  0.8099343E-01
       -3   -1    0    0    0  501  0.00000000000E+00  0.00000000000E+00  0.19003110899E+04  0.19003110926E+04  0.10100000352E+00 0.  1.
        3   -1    0    0  501    0  0.00000000000E+00  0.00000000000E+00 -0.16688117250E+04  0.16688117280E+04  0.10100000352E+00 0. -1.
    10030    2    1    2    0    0  0.00000000000E+00  0.00000000000E+00  0.23149936499E+03  0.35691228206E+04  0.35616071868E+04 0.  0.
        1    1    3    3  502    0  0.99855232323E+03 -0.64372580625E+03  0.14451128723E+04  0.18707861635E+04  0.50400001928E-02 0.  1.
       -1    1    3    3    0  502 -0.99855232323E+03  0.64372580625E+03 -0.12136135073E+04  0.16983366571E+04  0.50400001928E-02 0. -1.
</event>
<event>
 5   0  0.3159875E-07  0.3738997E+04  0.7818609E-02  0.8059374E-01
        3   -1    0    0  501    0  0.00000000000E+00  0.00000000000E+00  0.12816111583E+04  0.12816111623E+04  0.10100000352E+00 0. -1.
       -3   -1    0    0    0  501  0.00000000000E+00  0.00000000000E+00 -0.27270549815E+04  0.27270549833E+04  0.10100000352E+00 0.  1.
    10030    2    1    2    0    0  0.00000000000E+00  0.00000000000E+00 -0.14454438232E+04  0.40086661456E+04  0.37389967131E+04 0.  0.
        3    1    3    3  502    0  0.19525308915E+03 -0.52265902464E+03  0.11902684178E+04  0.13145475045E+04  0.10100000352E+00 0. -1.
       -3    1    3    3    0  502 -0.19525308915E+03  0.52265902464E+03 -0.26357122410E+04  0.26941186411E+04  0.10100000352E+00 0.  1.
</event>
<event>
 5   0  0.9538919E-07  0.3710840E+04  0.7818609E-02  0.8065564E-01
        2   -1    0    0  501    0  0.00000000000E+00  0.00000000000E+00  0.19296635977E+04  0.19296635977E+04  0.25500000920E-02 0.  1.
       -2   -1    0    0    0  501  0.00000000000E+00  0.00000000000E+00 -0.17840325519E+04  0.17840325519E+04  0.25500000920E-02 0. -1.
    10030    2    1    2    0    0  0.00000000000E+00  0.00000000000E+00  0.14563104579E+03  0.37136961496E+04  0.37108396207E+04 0.  0.
        4    1    3    3  502    0 -0.99918241217E+03  0.11422961601E+04 -0.99542127673E+03  0.18149576142E+04  0.12699999809E+01 0. -1.
       -4    1    3    3    0  502  0.99918241217E+03 -0.11422961601E+04  0.11410523225E+04  0.18987385354E+04  0.12699999809E+01 0.  1.
</event>
<event>
 5   0  0.3278988E-07  0.3614573E+04  0.7818609E-02  0.8087162E-01
        1   -1    0    0  501    0  0.00000000000E+00  0.00000000000E+00  0.30869226901E+04  0.30869226901E+04  0.50400001928E-02 0.  1.
       -1   -1    0    0    0  501  0.00000000000E+00  0.00000000000E+00 -0.10581035033E+04  0.10581035034E+04  0.50400001928E-02 0. -1.
    10030    2    1    2    0    0  0.00000000000E+00  0.00000000000E+00  0.20288191868E+04  0.41450261935E+04  0.36145725684E+04 0.  0.
        4    1    3    3  502    0 -0.65383278799E+03 -0.84019655232E+03 -0.66034412121E+03  0.12527902987E+04  0.12699999809E+01 0. -1.
       -4    1    3    3    0  502  0.65383278799E+03  0.84019655232E+03  0.26891633080E+04  0.28922358948E+04  0.12699999809E+01 0.  1.
</event>
<event>
 5   0  0.9538919E-07  0.3602593E+04  0.7818609E-02  0.8089898E-01
        2   -1    0    0  501    0  0.00000000000E+00  0.00000000000E+00  0.11162700443E+04  0.11162700443E+04  0.25500000920E-02 0. -1.
       -2   -1    0    0    0  501  0.00000000000E+00  0.00000000000E+00 -0.29067063121E+04  0.29067063121E+04  0.25500000920E-02 0.  1.
    10030    2    1    2    0    0  0.00000000000E+00  0.00000000000E+00 -0.17904362678E+04  0.40229763563E+04  0.36025930570E+04 0.  0.
        4    1    3    3  502    0 -0.17328605954E+03 -0.27433813004E+03 -0.28738002752E+04  0.28920613933E+04  0.12699999809E+01 0.  1.
       -4    1    3    3    0  502  0.17328605954E+03  0.27433813004E+03  0.10833640074E+04  0.11309149630E+04  0.12699999809E+01 0. -1.
</event>
<event>
 5   0  0.3365378E-07  0.3110975E+04  0.7818609E-02  0.8212732E-01
       -1   -1    0    0    0  501  0.00000000000E+00  0.00000000000E+00  0.17937872520E+04  0.17937872520E+04  0.50400001928E-02 0.  1.
        1   -1    0    0  501    0  0.00000000000E+00  0.00000000000E+00 -0.13488454943E+04  0.13488454943E+04  0.50400001928E-02 0. -1.
    10030    2    1    2    0    0  0.00000000000E+00  0.00000000000E+00  0.44494175767E+03  0.31426327463E+04  0.31109753150E+04 0.  0.
        3    1    3    3  502    0 -0.78124198736E+03 -0.11891823922E+04  0.85739528427E+03  0.16612105491E+04  0.10100000352E+00 0.  1.
       -3    1    3    3    0  502  0.78124198736E+03  0.11891823922E+04 -0.41245352661E+03  0.14814221972E+04  0.10100000352E+00 0. -1.
</event>
<event>
 5   0  0.3278988E-07  0.3612450E+04  0.7818609E-02  0.8087646E-01
       -1   -1    0    0    0  501  0.00000000000E+00  0.00000000000E+00  0.31028037312E+04  0.31028037312E+04  0.50400001928E-02 0.  1.
        1   -1    0    0  501    0  0.00000000000E+00  0.00000000000E+00 -0.10514520482E+04  0.10514520483E+04  0.50400001928E-02 0. -1.
    10030    2    1    2    0    0  0.00000000000E+00  0.00000000000E+00  0.20513516829E+04  0.41542557794E+04  0.36124503255E+04 0.  0.
        4    1    3    3  502    0 -0.11060917664E+04 -0.13631948685E+04  0.15145314653E+04  0.23185224643E+04  0.12699999809E+01 0. -1.
       -4    1    3    3    0  502  0.11060917664E+04  0.13631948685E+04  0.53682021764E+03  0.18357333151E+04  0.12699999809E+01 0.  1.
</event>
<event>
 5   0  0.3159875E-07  0.3570071E+04  0.7818609E-02  0.8097382E-01
       -1   -1    0    0    0  501  0.00000000000E+00  0.00000000000E+00  0.15612565209E+04  0.15612565209E+04  0.50400001928E-02 0. -1.
        1   -1    0    0  501    0  0.00000000000E+00  0.00000000000E+00 -0.20408898731E+04  0.20408898731E+04  0.50400001928E-02 0.  1.
    10030    2    1    2    0    0  0.00000000000E+00  0.00000000000E+00 -0.47963335220E+03  0.36021463941E+04  0.35700714968E+04 0.  0.
        2    1    3    3  502    0 -0.10318249694E+04  0.78782073653E+03 -0.14759886455E+04  0.19656720891E+04  0.25500000920E-02 0.  1.
       -2    1    3    3    0  502  0.10318249694E+04 -0.78782073653E+03  0.99635529331E+03  0.16364743050E+04  0.25500000920E-02 0. -1.
</event>
<event>
 5   0  0.1006019E-06  0.3312760E+04  0.7818609E-02  0.8159656E-01
        2   -1    0    0  501    0  0.00000000000E+00  0.00000000000E+00  0.18452297781E+04  0.18452297781E+04  0.25500000920E-02 0.  1.
       -2   -1    0    0    0  501  0.00000000000E+00  0.00000000000E+00 -0.14868576698E+04  0.14868576698E+04  0.25500000920E-02 0. -1.
    10030    2    1    2    0    0  0.00000000000E+00  0.00000000000E+00  0.35837210830E+03  0.33320874479E+04  0.33127596038E+04 0.  0.
        1    1    3    3  502    0  0.15120750337E+04 -0.49572054897E+03  0.64174332522E+03  0.17157926057E+04  0.50400001928E-02 0.  1.
       -1    1    3    3    0  502 -0.15120750337E+04  0.49572054897E+03 -0.28337121692E+03  0.16162948422E+04  0.50400001928E-02 0. -1.
</event>
<event>
 5   0  0.3365378E-07  0.3583856E+04  0.7818609E-02  0.8094200E-01
        1   -1    0    0  501    0  0.00000000000E+00  0.00000000000E+00  0.22163035503E+04  0.22163035503E+04  0.50400001928E-02 0.  1.
       -1   -1    0    0    0  501  0.00000000000E+00  0.00000000000E+00 -0.14488111729E+04  0.14488111729E+04  0.50400001928E-02 0. -1.
    10030    2    1    2    0    0  0.00000000000E+00  0.00000000000E+00  0.76749237741E+03  0.36651147232E+04  0.35838556590E+04 0.  0.
        3    1    3    3  502    0 -0.90680741472E+03 -0.10907216221E+04  0.15035770928E+04  0.20670552553E+04  0.10100000352E+00 0.  1.
       -3    1    3    3    0  502  0.90680741472E+03  0.10907216221E+04 -0.73608471538E+03  0.15980594679E+04  0.10100000352E+00 0. -1.
</event>
<event>
 5   0  0.1006019E-06  0.3721472E+04  0.7818609E-02  0.8063220E-01
        2   -1    0    0  501    0  0.00000000000E+00  0.00000000000E+00  0.13105031866E+04  0.13105031866E+04  0.25500000920E-02 0. -1.
       -2   -1    0    0    0  501  0.00000000000E+00  0.00000000000E+00 -0.26419910961E+04  0.26419910961E+04  0.25500000920E-02 0.  1.
    10030    2    1    2    0    0  0.00000000000E+00  0.00000000000E+00 -0.13314879095E+04  0.39524942827E+04  0.37214716177E+04 0.  0.
        1    1    3    3  502    0  0.13996566724E+04  0.59154140681E+03  0.47487955048E+03  0.15920020804E+04  0.50400001928E-02 0. -1.
       -1    1    3    3    0  502 -0.13996566724E+04 -0.59154140681E+03 -0.18063674600E+04  0.23604922023E+04  0.50400001928E-02 0.  1.
</event>
<event>
 5   0  0.1031659E-06  0.3670087E+04  0.7818609E-02  0.8074623E-01
       -2   -1    0    0    0  501  0.00000000000E+00  0.00000000000E+00  0.27171430589E+04  0.27171430589E+04  0.25500000920E-02 0.  1.
        2   -1    0    0  501    0  0.00000000000E+00  0.00000000000E+00 -0.12393107702E+04  0.12393107702E+04  0.25500000920E-02 0. -1.
    10030    2    1    2    0    0  0.00000000000E+00  0.00000000000E+00  0.14778322888E+04  0.39564538291E+04  0.36700870055E+04 0.  0.
        2    1    3    3  502    0 -0.79142039897E+03  0.27003565215E+03  0.24998066521E+04  0.26359625945E+04  0.25500000920E-02 0.  1.
       -2    1    3    3    0  502  0.79142039897E+03 -0.27003565215E+03 -0.10219743634E+04  0.13204912346E+04  0.25500000920E-02 0. -1.
</event>
<event>
 5   0  0.9538919E-07  0.3641243E+04  0.7818609E-02  0.8081109E-01
       -2   -1    0    0    0  501  0.00000000000E+00  0.00000000000E+00  0.21576555115E+04  0.21576555115E+04  0.25500000920E-02 0. -1.
        2   -1    0    0  501    0  0.00000000000E+00  0.00000000000E+00 -0.15362335895E+04  0.15362335895E+04  0.25500000920E-02 0.  1.
    10030    2    1    2    0    0  0.00000000000E+00  0.00000000000E+00  0.62142192196E+03  0.36938891010E+04  0.36412431236E+04 0.  0.
        4    1    3    3  502    0 -0.11872510963E+04  0.98547389708E+03  0.12910877794E+04  0.20118730662E+04  0.12699999809E+01 0. -1.
       -4    1    3    3    0  502  0.11872510963E+04 -0.98547389708E+03 -0.66966585748E+03  0.16820160347E+04  0.12699999809E+01 0.  1.
</event>
<event>
 5   0  0.3278988E-07  0.3673519E+04  0.7818609E-02  0.8073856E-01
        1   -1    0    0  501    0  0.00000000000E+00  0.00000000000E+00  0.25376270629E+04  0.25376270629E+04  0.50400001928E-02 0. -1.
       -1   -1    0    0    0  501  0.00000000000E+00  0.00000000000E+00 -0.13294647224E+04  0.13294647225E+04  0.50400001928E-02 0.  1.
    10030    2    1    2    0    0  0.00000000000E+00  0.00000000000E+00  0.12081623405E+04  0.38670917854E+04  0.36735191078E+04 0.  0.
        4    1    3    3  502    0 -0.65634187693E+03 -0.11316456685E+04 -0.75315034651E+03  0.15095176832E+04  0.12699999809E+01 0.  1.
       -4    1    3    3    0  502  0.65634187693E+03  0.11316456685E+04  0.19613126870E+04  0.23575741022E+04  0.12699999809E+01 0. -1.
</event>
<event>
 5   0  0.3242047E-07  0.3636694E+04  0.7818609E-02  0.8082138E-01
        1   -1    0    0  501    0  0.00000000000E+00  0.00000000000E+00  0.26160715377E+04  0.26160715377E+04  0.50400001928E-02 0.  1.
       -1   -1    0    0    0  501  0.00000000000E+00  0.00000000000E+00 -0.12638745684E+04  0.12638745684E+04  0.50400001928E-02 0. -1.
    10030    2    1    2    0    0  0.00000000000E+00  0.00000000000E+00  0.13521969693E+04  0.38799461061E+04  0.36366942602E+04 0.  0.
        1    1    3    3  502    0 -0.38818291364E+03 -0.82191115241E+03 -0.10040936945E+04  0.13544105967E+04  0.50400001928E-02 0. -1.
       -1    1    3    3    0  502  0.38818291364E+03  0.82191115241E+03  0.23562906639E+04  0.25255355094E+04  0.50400001928E-02 0.  1.
</event>
<event>
 5   0  0.9538919E-07  0.3836001E+04  0.7818609E-02  0.8038473E-01
       -2   -1    0    0    0  501  0.00000000000E+00  0.00000000000E+00  0.17618389808E+04  0.17618389808E+04  0.25500000920E-02 0.  1.
        2   -1    0    0  501    0  0.00000000000E+00  0.00000000000E+00 -0.20880035808E+04  0.20880035808E+04  0.25500000920E-02 0. -1.
    10030    2    1    2    0    0  0.00000000000E+00  0.00000000000E+00 -0.32616459997E+03  0.38498425617E+04  0.38360010953E+04 0.  0.
        4    1    3    3  502    0 -0.17287998329E+04  0.48341958890E+03  0.51484090474E+03  0.18674865813E+04  0.12699999809E+01 0.  1.
       -4    1    3    3    0  502  0.17287998329E+04 -0.48341958890E+03 -0.84100550472E+03  0.19823559804E+04  0.12699999809E+01 0. -1.
</event>
<event>
 5   0  0.9878977E-07  0.3088819E+04  0.7818609E-02  0.8218813E-01
        2   -1    0    0  501    0  0.00000000000E+00  0.00000000000E+00  0.13424557798E+04  0.13424557798E+04  0.25500000920E-02 0.  1.
       -2   -1    0    0    0  501  0.00000000000E+00  0.00000000000E+00 -0.17767443808E+04  0.17767443809E+04  0.25500000920E-02 0. -1.
    10030    2    1    2    0    0  0.00000000000E+00  0.00000000000E+00 -0.43428860101E+03  0.31192001607E+04  0.30888190386E+04 0.  0.
        5    1    3    3  502    0  0.42712283207E+03 -0.12922077723E+04  0.52006617812E+03  0.14569577070E+04  0.46999998093E+01 0.  1.
       -5    1    3    3    0  502 -0.42712283207E+03  0.12922077723E+04 -0.95435477912E+03  0.16622424537E+04  0.46999998093E+01 0. -1.
</event>
<event>
 5   0  0.3159875E-07  0.3142668E+04  0.7818609E-02  0.8204125E-01
       -1   -1    0    0    0  501  0.00000000000E+00  0.00000000000E+00  0.11191338843E+04  0.11191338843E+04  0.50400001928E-02 0. -1.
        1   -1    0    0  501    0  0.00000000000E+00  0.00000000000E+00 -0.22062510602E+04  0.22062510602E+04  0.50400001928E-02 0.  1.
    10030    2    1    2    0    0  0.00000000000E+00  0.00000000000E+00 -0.10871171760E+04  0.33253849445E+04  0.31426678594E+04 0.  0.
        2    1    3    3  502    0 -0.50603446443E+03  0.79951772106E+03 -0.18710048555E+04  0.20966541524E+04  0.25500000920E-02 0.  1.
       -2    1    3    3    0  502  0.50603446443E+03 -0.79951772106E+03  0.78388767948E+03  0.12287307921E+04  0.25500000920E-02 0. -1.
</event>
<event>
 5   0  0.3365378E-07  0.3564731E+04  0.7818609E-02  0.8098619E-01
        1   -1    0    0  501    0  0.00000000000E+00  0.00000000000E+00  0.98011166201E+03  0.98011166202E+03  0.50400001928E-02 0. -1.
       -1   -1    0    0    0  501  0.00000000000E+00  0.00000000000E+00 -0.32412910494E+04  0.32412910494E+04  0.50400001928E-02 0.  1.
    10030    2    1    2    0    0  0.00000000000E+00  0.00000000000E+00 -0.22611793874E+04  0.42214027115E+04  0.35647312143E+04 0.  0.
        3    1    3    3  502    0 -0.44879997483E+03 -0.59416776280E+03 -0.30482735525E+04  0.31379019119E+04  0.10100000352E+00 0.  1.
       -3    1    3    3    0  502  0.44879997483E+03  0.59416776280E+03  0.78709416506E+03  0.10835007996E+04  0.10100000352E+00 0. -1.
</event>
<event>
 5   0  0.1031659E-06  0.3594174E+04  0.7818609E-02  0.8091827E-01
        2   -1    0    0  501    0  0.00000000000E+00  0.00000000000E+00  0.16718019927E+04  0.16718019927E+04  0.25500000920E-02 0. -1.
       -2   -1    0    0    0  501  0.00000000000E+00  0.00000000000E+00 -0.19317611716E+04  0.19317611716E+04  0.25500000920E-02 0.  1.
    10030    2    1    2    0    0  0.00000000000E+00  0.00000000000E+00 -0.25995917892E+03  0.36035631643E+04  0.35941742730E+04 0.  0.
        2    1    3    3  502    0  0.15527031615E+03  0.60849185591E+03  0.15582095511E+04  0.16799964926E+04  0.25500000920E-02 0. -1.
       -2    1    3    3    0  502 -0.15527031615E+03 -0.60849185591E+03 -0.18181687300E+04  0.19235666718E+04  0.25500000920E-02 0.  1.
</event>
<event>
 5   0  0.9538919E-07  0.3597760E+04  0.7818609E-02  0.8091005E-01
       -2   -1    0    0    0  501  0.00000000000E+00  0.00000000000E+00  0.18553052136E+04  0.18553052136E+04  0.25500000920E-02 0. -1.
        2   -1    0    0  501    0  0.00000000000E+00  0.00000000000E+00 -0.17441705054E+04  0.17441705054E+04  0.25500000920E-02 0.  1.
    10030    2    1    2    0    0  0.00000000000E+00  0.00000000000E+00  0.11113470821E+03  0.35994757190E+04  0.35977596540E+04 0.  0.
        4    1    3    3  502    0  0.44606855348E+01  0.65015054212E+03 -0.16225076657E+04  0.17479268758E+04  0.12699999809E+01 0.  1.
       -4    1    3    3    0  502 -0.44606855348E+01 -0.65015054212E+03  0.17336423739E+04  0.18515488432E+04  0.12699999809E+01 0. -1.
</event>
<event>
 5   0  0.3242047E-07  0.2894245E+04  0.7818609E-02  0.8274592E-01
       -1   -1    0    0    0  501  0.00000000000E+00  0.00000000000E+00  0.13137951223E+04  0.13137951223E+04  0.50400001928E-02 0. -1.
        1   -1    0    0  501    0  0.00000000000E+00  0.00000000000E+00 -0.15939807206E+04  0.15939807206E+04  0.50400001928E-02 0.  1.
    10030    2    1    2    0    0  0.00000000000E+00  0.00000000000E+00 -0.28018559829E+03  0.29077758429E+04  0.28942453910E+04 0.  0.
        1    1    3    3  502    0 -0.12514914793E+04  0.42633183258E+03  0.45102360444E+03  0.13969295065E+04  0.50400001928E-02 0. -1.
       -1    1    3    3    0  502  0.12514914793E+04 -0.42633183258E+03 -0.73120920273E+03  0.15108463365E+04  0.50400001928E-02 0.  1.
</event>
<event>
 5   0  0.3242047E-07  0.3529802E+04  0.7818609E-02  0.8106763E-01
       -1   -1    0    0    0  501  0.00000000000E+00  0.00000000000E+00  0.26960799812E+04  0.26960799812E+04  0.50400001928E-02 0.  1.
        1   -1    0    0  501    0  0.00000000000E+00  0.00000000000E+00 -0.11553351721E+04  0.11553351721E+04  0.50400001928E-02 0. -1.
    10030    2    1    2    0    0  0.00000000000E+00  0.00000000000E+00  0.15407448091E+04  0.38514151532E+04  0.35298022772E+04 0.  0.
        1    1    3    3  502    0  0.89085649258E+03  0.14039415500E+04  0.14160672530E+04  0.21840154833E+04  0.50400001928E-02 0. -1.
       -1    1    3    3    0  502 -0.89085649258E+03 -0.14039415500E+04  0.12467755614E+03  0.16673996699E+04  0.50400001928E-02 0.  1.
</event>
<event>
 5   0  0.9878336E-07  0.3480433E+04  0.7818609E-02  0.8118443E-01
       -2   -1    0    0    0  501  0.00000000000E+00  0.00000000000E+00  0.12236857856E+04  0.12236857856E+04  0.25500000920E-02 0. -1.
        2   -1    0    0  501    0  0.00000000000E+00  0.00000000000E+00 -0.24747798048E+04  0.24747798048E+04  0.25500000920E-02 0.  1.
    10030    2    1    2    0    0  0.00000000000E+00  0.00000000000E+00 -0.12510940191E+04  0.36984655904E+04  0.34804326568E+04 0.  0.
        3    1    3    3  502    0  0.11844441566E+04  0.63122615502E+03  0.55154484087E+03  0.14510534589E+04  0.10100000352E+00 0. -1.
       -3    1    3    3    0  502 -0.11844441566E+04 -0.63122615502E+03 -0.18026388600E+04  0.22474121315E+04  0.10100000352E+00 0.  1.
</event>
<event>
 5   0  0.3278988E-07  0.3613692E+04  0.7818609E-02  0.8087362E-01
       -1   -1    0    0    0  501  0.00000000000E+00  0.00000000000E+00  0.28193315531E+04  0.28193315531E+04  0.50400001928E-02 0.  1.
        1   -1    0    0  501    0  0.00000000000E+00  0.00000000000E+00 -0.11579671078E+04  0.11579671078E+04  0.50400001928E-02 0. -1.
    10030    2    1    2    0    0  0.00000000000E+00  0.00000000000E+00  0.16613644453E+04  0.39772986609E+04  0.36136924077E+04 0.  0.
        4    1    3    3  502    0 -0.56945490217E+03 -0.13080886419E+04  0.20509887408E+04  0.24983857205E+04  0.12699999809E+01 0.  1.
       -4    1    3    3    0  502  0.56945490217E+03  0.13080886419E+04 -0.38962429542E+03  0.14789129404E+04  0.12699999809E+01 0. -1.
</event>
<event>
 5   0  0.3365378E-07  0.3620205E+04  0.7818609E-02  0.8085879E-01
        1   -1    0    0  501    0  0.00000000000E+00  0.00000000000E+00  0.23225930833E+04  0.23225930833E+04  0.50400001928E-02 0.  1.
       -1   -1    0    0    0  501  0.00000000000E+00  0.00000000000E+00 -0.14106951301E+04  0.14106951301E+04  0.50400001928E-02 0. -1.
    10030    2    1    2    0    0  0.00000000000E+00  0.00000000000E+00  0.91189795326E+03  0.37332882134E+04  0.36202048295E+04 0.  0.
        3    1    3    3  502    0 -0.17167013561E+03  0.57671674276E+03 -0.13045379274E+04  0.14366252299E+04  0.10100000352E+00 0. -1.
       -3    1    3    3    0  502  0.17167013561E+03 -0.57671674276E+03  0.22164358807E+04  0.22966629836E+04  0.10100000352E+00 0.  1.
</event>
<event>
 5   0  0.3242047E-07  0.3410833E+04  0.7818609E-02  0.8135253E-01
        1   -1    0    0  501    0  0.00000000000E+00  0.00000000000E+00  0.18081687804E+04  0.18081687804E+04  0.50400001928E-02 0. -1.
       -1   -1    0    0    0  501  0.00000000000E+00  0.00000000000E+00 -0.16085033054E+04  0.16085033054E+04  0.50400001928E-02 0.  1.
    10030    2    1    2    0    0  0.00000000000E+00  0.00000000000E+00  0.19966547494E+03  0.34166720858E+04  0.34108330126E+04 0.  0.
        1    1    3    3  502    0 -0.21075390608E+03  0.10751714419E+04  0.14089880622E+04  0.17848412249E+04  0.50400001928E-02 0. -1.
       -1    1    3    3    0  502  0.21075390608E+03 -0.10751714419E+04 -0.12093225873E+04  0.16318308609E+04  0.50400001928E-02 0.  1.
</event>
<event>
 5   0  0.3365378E-07  0.3621198E+04  0.7818609E-02  0.8085653E-01
        1   -1    0    0  501    0  0.00000000000E+00  0.00000000000E+00  0.16505589580E+04  0.16505589580E+04  0.50400001928E-02 0.  1.
       -1   -1    0    0    0  501  0.00000000000E+00  0.00000000000E+00 -0.19861571413E+04  0.19861571413E+04  0.50400001928E-02 0. -1.
    10030    2    1    2    0    0  0.00000000000E+00  0.00000000000E+00 -0.33559818330E+03  0.36367160993E+04  0.36211983992E+04 0.  0.
        3    1    3    3  502    0 -0.10602752237E+03 -0.44829904568E+03  0.15907200141E+04  0.16560809290E+04  0.10100000352E+00 0.  1.
       -3    1    3    3    0  502  0.10602752237E+03  0.44829904568E+03 -0.19263181974E+04  0.19806351703E+04  0.10100000352E+00 0. -1.
</event>
<event>
 5   0  0.9878977E-07  0.3704480E+04  0.7818609E-02  0.8066970E-01
       -2   -1    0    0    0  501  0.00000000000E+00  0.00000000000E+00  0.21743462266E+04  0.21743462266E+04  0.25500000920E-02 0.  1.
        2   -1    0    0  501    0  0.00000000000E+00  0.00000000000E+00 -0.15778504715E+04  0.15778504715E+04  0.25500000920E-02 0. -1.
    10030    2    1    2    0    0  0.00000000000E+00  0.00000000000E+00  0.59649575509E+03  0.37521966981E+04  0.37044801087E+04 0.  0.
        5    1    3    3  502    0 -0.58575445595E+03 -0.15394754840E+04 -0.55982301632E+03  0.17396887504E+04  0.46999998093E+01 0. -1.
       -5    1    3    3    0  502  0.58575445595E+03  0.15394754840E+04  0.11563187714E+04  0.20125079477E+04  0.46999998093E+01 0.  1.
</event>
<event>
 5   0  0.3278988E-07  0.3361613E+04  0.7818609E-02  0.8147392E-01
        1   -1    0    0  501    0  0.00000000000E+00  0.00000000000E+00  0.18002961386E+04  0.18002961386E+04  0.50400001928E-02 0. -1.
       -1   -1    0    0    0  501  0.00000000000E+00  0.00000000000E+00 -0.15692478966E+04  0.15692478966E+04  0.50400001928E-02 0.  1.
    10030    2    1    2    0    0  0.00000000000E+00  0.00000000000E+00  0.23104824201E+03  0.33695440352E+04  0.33616132608E+04 0.  0.
        4    1    3    3  502    0  0.14723166804E+04 -0.63420725610E+03  0.62186344110E+03  0.17194914955E+04  0.12699999809E+01 0. -1.
       -4    1    3    3    0  502 -0.14723166804E+04  0.63420725610E+03 -0.39081519909E+03  0.16500525397E+04  0.12699999809E+01 0.  1.
</event>
<event>
 5   0  0.3242047E-07  0.3602118E+04  0.7818609E-02  0.8090007E-01
        1   -1    0    0  501    0  0.00000000000E+00  0.00000000000E+00  0.21294941199E+04  0.21294941199E+04  0.50400001928E-02 0. -1.
       -1   -1    0    0    0  501  0.00000000000E+00  0.00000000000E+00 -0.15232791796E+04  0.15232791797E+04  0.50400001928E-02 0.  1.
    10030    2    1    2    0    0  0.00000000000E+00  0.00000000000E+00  0.60621494030E+03  0.36527732996E+04  0.36021182968E+04 0.  0.
        1    1    3    3  502    0 -0.45613310105E+03 -0.56730007165E+03  0.19736742903E+04  0.21036342319E+04  0.50400001928E-02 0. -1.
       -1    1    3    3    0  502  0.45613310105E+03  0.56730007165E+03 -0.13674593500E+04  0.15491390677E+04  0.50400001928E-02 0.  1.
</event>
<event>
 5   0  0.3365378E-07  0.3578348E+04  0.7818609E-02  0.8095469E-01
        1   -1    0    0  501    0  0.00000000000E+00  0.00000000000E+00  0.24448658460E+04  0.24448658460E+04  0.50400001928E-02 0.  1.
       -1   -1    0    0    0  501  0.00000000000E+00  0.00000000000E+00 -0.13093333534E+04  0.13093333534E+04  0.50400001928E-02 0. -1.
    10030    2    1    2    0    0  0.00000000000E+00  0.00000000000E+00  0.11355324926E+04  0.37541991994E+04  0.35783484440E+04 0.  0.
        3    1    3    3  502    0  0.10488674446E+04  0.11483243774E+04 -0.36021991400E+03  0.15964116602E+04  0.10100000352E+00 0.  1.
       -3    1    3    3    0  502 -0.10488674446E+04 -0.11483243774E+04  0.14957524066E+04  0.21577875392E+04  0.10100000352E+00 0. -1.
</event>
<event>
 5   0  0.9878977E-07  0.3615271E+04  0.7818609E-02  0.8087003E-01
       -2   -1    0    0    0  501  0.00000000000E+00  0.00000000000E+00  0.22036568505E+04  0.22036568505E+04  0.25500000920E-02 0. -1.
        2   -1    0    0  501    0  0.00000000000E+00  0.00000000000E+00 -0.14827837263E+04  0.14827837263E+04  0.25500000920E-02 0.  1.
    10030    2    1    2    0    0  0.00000000000E+00  0.00000000000E+00  0.72087312416E+03  0.36864405768E+04  0.36152712298E+04 0.  0.
        5    1    3    3  502    0 -0.37757631108E+03  0.17576517213E+04  0.55288717466E+03  0.18808534664E+04  0.46999998093E+01 0.  1.
       -5    1    3    3    0  502  0.37757631108E+03 -0.17576517213E+04  0.16798594950E+03  0.18055871104E+04  0.46999998093E+01 0. -1.
</event>
<event>
 5   0  0.9538919E-07  0.3252395E+04  0.7818609E-02  0.8175115E-01
       -2   -1    0    0    0  501  0.00000000000E+00  0.00000000000E+00  0.22201906041E+04  0.22201906041E+04  0.25500000920E-02 0.  1.
        2   -1    0    0  501    0  0.00000000000E+00  0.00000000000E+00 -0.11911225367E+04  0.11911225367E+04  0.25500000920E-02 0. -1.
    10030    2    1    2    0    0  0.00000000000E+00  0.00000000000E+00  0.10290680674E+04  0.34113131407E+04  0.32523954644E+04 0.  0.
        4    1    3    3  502    0  0.10515785756E+03 -0.13662080200E+04 -0.40400474788E+03  0.14285671066E+04  0.12699999809E+01 0. -1.
       -4    1    3    3    0  502 -0.10515785756E+03  0.13662080200E+04  0.14330728153E+04  0.19827460341E+04  0.12699999809E+01 0.  1.
</event>
<event>
 5   0  0.3159875E-07  0.3468589E+04  0.7818609E-02  0.8121275E-01
        1   -1    0    0  501    0  0.00000000000E+00  0.00000000000E+00  0.24707214823E+04  0.24707214823E+04  0.50400001928E-02 0. -1.
       -1   -1    0    0    0  501  0.00000000000E+00  0.00000000000E+00 -0.12173678544E+04  0.12173678544E+04  0.50400001928E-02 0.  1.
    10030    2    1    2    0    0  0.00000000000E+00  0.00000000000E+00  0.12533536279E+04  0.36880893367E+04  0.34685887100E+04 0.  0.
        5    1    3    3  502    0 -0.14688285522E+03 -0.97868511378E+03 -0.88765373698E+03  0.13294173054E+04  0.46999998093E+01 0.  1.
       -5    1    3    3    0  502  0.14688285522E+03  0.97868511378E+03  0.21410073649E+04  0.23586720313E+04  0.46999998093E+01 0. -1.
</event>
<event>
 5   0  0.9538919E-07  0.3613150E+04  0.7818609E-02  0.8087486E-01
       -2   -1    0    0    0  501  0.00000000000E+00  0.00000000000E+00  0.15061495192E+04  0.15061495192E+04  0.25500000920E-02 0. -1.
        2   -1    0    0  501    0  0.00000000000E+00  0.00000000000E+00 -0.21669246163E+04  0.21669246163E+04  0.25500000920E-02 0.  1.
    10030    2    1    2    0    0  0.00000000000E+00  0.00000000000E+00 -0.66077509718E+03  0.36730741355E+04  0.36131495784E+04 0.  0.
        4    1    3    3  502    0  0.11853002036E+03 -0.17245800565E+04  0.20318419843E+03  0.17405490996E+04  0.12699999809E+01 0.  1.
       -4    1    3    3    0  502 -0.11853002036E+03  0.17245800565E+04 -0.86395929561E+03  0.19325250359E+04  0.12699999809E+01 0. -1.
</event>
<event>
 5   0  0.3159875E-07  0.3691663E+04  0.7818609E-02  0.8069812E-01
        1   -1    0    0  501    0  0.00000000000E+00  0.00000000000E+00  0.20809046486E+04  0.20809046486E+04  0.50400001928E-02 0. -1.
       -1   -1    0    0    0  501  0.00000000000E+00  0.00000000000E+00 -0.16373141065E+04  0.16373141066E+04  0.50400001928E-02 0.  1.
    10030    2    1    2    0    0  0.00000000000E+00  0.00000000000E+00  0.44359054201E+03  0.37182187551E+04  0.36916633300E+04 0.  0.
        5    1    3    3  502    0  0.50262272979E+03  0.17604485138E+04 -0.14978442884E+02  0.18308618249E+04  0.46999998093E+01 0.  1.
       -5    1    3    3    0  502 -0.50262272979E+03 -0.17604485138E+04  0.45856898490E+03  0.18873569302E+04  0.46999998093E+01 0. -1.
</event>
<event>
 5   0  0.1031659E-06  0.3555557E+04  0.7818609E-02  0.8100748E-01
       -2   -1    0    0    0  501  0.00000000000E+00  0.00000000000E+00  0.19682867844E+04  0.19682867844E+04  0.25500000920E-02 0.  1.
        2   -1    0    0  501    0  0.00000000000E+00  0.00000000000E+00 -0.16057097180E+04  0.16057097180E+04  0.25500000920E-02 0. -1.
    10030    2    1    2    0    0  0.00000000000E+00  0.00000000000E+00  0.36257706639E+03  0.35739965023E+04  0.35555574626E+04 0.  0.
        2    1    3    3  502    0 -0.15065797370E+04  0.90441188710E+03  0.45241656247E+03  0.18145038196E+04  0.25500000920E-02 0.  1.
       -2    1    3    3    0  502  0.15065797370E+04 -0.90441188710E+03 -0.89839496080E+02  0.17594926827E+04  0.25500000920E-02 0. -1.
</event>
<event>
 5   0  0.1006019E-06  0.3589846E+04  0.7818609E-02  0.8092821E-01
       -2   -1    0    0    0  501  0.00000000000E+00  0.00000000000E+00  0.18753463190E+04  0.18753463190E+04  0.25500000920E-02 0. -1.
        2   -1    0    0  501    0  0.00000000000E+00  0.00000000000E+00 -0.17179489210E+04  0.17179489210E+04  0.25500000920E-02 0.  1.
    10030    2    1    2    0    0  0.00000000000E+00  0.00000000000E+00  0.15739739801E+03  0.35932952401E+04  0.35898463395E+04 0.  0.
        1    1    3    3  502    0  0.11756441972E+04 -0.82441581051E+03  0.11567424649E+04  0.18438692571E+04  0.50400001928E-02 0. -1.
       -1    1    3    3    0  502 -0.11756441972E+04  0.82441581051E+03 -0.99934506691E+03  0.17494259830E+04  0.50400001928E-02 0.  1.
</event>
<event>
 5   0  0.3278988E-07  0.3614177E+04  0.7818609E-02  0.8087252E-01
       -1   -1    0    0    0  501  0.00000000000E+00  0.00000000000E+00  0.25167430867E+04  0.25167430867E+04  0.50400001928E-02 0.  1.
        1   -1    0    0  501    0  0.00000000000E+00  0.00000000000E+00 -0.12975379656E+04  0.12975379656E+04  0.50400001928E-02 0. -1.
    10030    2    1    2    0    0  0.00000000000E+00  0.00000000000E+00  0.12192051211E+04  0.38142810523E+04  0.36141774747E+04 0.  0.
        4    1    3    3  502    0  0.79251865098E+03  0.94984171468E+03 -0.78063293058E+03  0.14627626193E+04  0.12699999809E+01 0. -1.
       -4    1    3    3    0  502 -0.79251865098E+03 -0.94984171468E+03  0.19998380517E+04  0.23515184331E+04  0.12699999809E+01 0.  1.
</event>
<event>
 5   0  0.1006019E-06  0.3591940E+04  0.7818609E-02  0.8092340E-01
       -2   -1    0    0    0  501  0.00000000000E+00  0.00000000000E+00  0.15350683946E+04  0.15350683946E+04  0.25500000920E-02 0.  1.
        2   -1    0    0  501    0  0.00000000000E+00  0.00000000000E+00 -0.21012150984E+04  0.21012150984E+04  0.25500000920E-02 0. -1.
    10030    2    1    2    0    0  0.00000000000E+00  0.00000000000E+00 -0.56614670384E+03  0.36362834930E+04  0.35919403602E+04 0.  0.
        1    1    3    3  502    0 -0.14293629283E+02 -0.92174638407E+03  0.12772813576E+04  0.15752042315E+04  0.50400001928E-02 0.  1.
       -1    1    3    3    0  502  0.14293629283E+02  0.92174638407E+03 -0.18434280615E+04  0.20610792615E+04  0.50400001928E-02 0. -1.
</event>
<event>
 5   0  0.3159875E-07  0.3588742E+04  0.7818609E-02  0.8093075E-01
        1   -1    0    0  501    0  0.00000000000E+00  0.00000000000E+00  0.13157262752E+04  0.13157262752E+04  0.50400001928E-02 0. -1.
       -1   -1    0    0    0  501  0.00000000000E+00  0.00000000000E+00 -0.24471409068E+04  0.24471409068E+04  0.50400001928E-02 0.  1.
    10030    2    1    2    0    0  0.00000000000E+00  0.00000000000E+00 -0.11314146316E+04  0.37628671820E+04  0.35887421697E+04 0.  0.
        2    1    3    3  502    0 -0.10790306063E+04 -0.16555087598E+03 -0.20589016369E+04  0.23304055640E+04  0.25500000920E-02 0.  1.
       -2    1    3    3    0  502  0.10790306063E+04  0.16555087598E+03  0.92748700534E+03  0.14324616180E+04  0.25500000920E-02 0. -1.
</event>
<event>
 5   0  0.9538919E-07  0.3578699E+04  0.7818609E-02  0.8095389E-01
        2   -1    0    0  501    0  0.00000000000E+00  0.00000000000E+00  0.26396898993E+04  0.26396898993E+04  0.25500000920E-02 0. -1.
       -2   -1    0    0    0  501  0.00000000000E+00  0.00000000000E+00 -0.12129344995E+04  0.12129344995E+04  0.25500000920E-02 0.  1.
    10030    2    1    2    0    0  0.00000000000E+00  0.00000000000E+00  0.14267553998E+04  0.38526243988E+04  0.35786986165E+04 0.  0.
        4    1    3    3  502    0  0.63918241410E+02 -0.15486312894E+04 -0.24916584724E+03  0.15698501981E+04  0.12699999809E+01 0. -1.
       -4    1    3    3    0  502 -0.63918241410E+02  0.15486312894E+04  0.16759212470E+04  0.22827742007E+04  0.12699999809E+01 0.  1.
</event>
<event>
 5   0  0.9878336E-07  0.3645542E+04  0.7818609E-02  0.8080139E-01
        2   -1    0    0  501    0  0.00000000000E+00  0.00000000000E+00  0.25422366204E+04  0.25422366204E+04  0.25500000920E-02 0. -1.
       -2   -1    0    0    0  501  0.00000000000E+00  0.00000000000E+00 -0.13069180611E+04  0.13069180611E+04  0.25500000920E-02 0.  1.
    10030    2    1    2    0    0  0.00000000000E+00  0.00000000000E+00  0.12353185593E+04  0.38491546815E+04  0.36455424588E+04 0.  0.
        3    1    3    3  502    0  0.19917950557E+03 -0.16315149434E+04 -0.21437749102E+03  0.16575497594E+04  0.10100000352E+00 0.  1.
       -3    1    3    3    0  502 -0.19917950557E+03  0.16315149434E+04  0.14496960504E+04  0.21916049221E+04  0.10100000352E+00 0. -1.
</event>
<event>
 5   0  0.3159875E-07  0.3413865E+04  0.7818609E-02  0.8134512E-01
        1   -1    0    0  501    0  0.00000000000E+00  0.00000000000E+00  0.11984189164E+04  0.11984189165E+04  0.50400001928E-02 0.  1.
       -1   -1    0    0    0  501  0.00000000000E+00  0.00000000000E+00 -0.24312189896E+04  0.24312189896E+04  0.50400001928E-02 0. -1.
    10030    2    1    2    0    0  0.00000000000E+00  0.00000000000E+00 -0.12328000732E+04  0.36296379061E+04  0.34138651568E+04 0.  0.
        2    1    3    3  502    0 -0.73108720275E+03  0.85497552467E+02  0.10210115069E+04  0.12586750283E+04  0.25500000920E-02 0.  1.
       -2    1    3    3    0  502  0.73108720275E+03 -0.85497552467E+02 -0.22538115801E+04  0.23709628778E+04  0.25500000920E-02 0. -1.
</event>
<event>
 5   0  0.3278988E-07  0.3602127E+04  0.7818609E-02  0.8090005E-01
        1   -1    0    0  501    0  0.00000000000E+00  0.00000000000E+00  0.21288654392E+04  0.21288654392E+04  0.50400001928E-02 0.  1.
       -1   -1    0    0    0  501  0.00000000000E+00  0.00000000000E+00 -0.15237367075E+04  0.15237367076E+04  0.50400001928E-02 0. -1.
    10030    2    1    2    0    0  0.00000000000E+00  0.00000000000E+00  0.60512873161E+03  0.36526021467E+04  0.36021273798E+04 0.  0.
        4    1    3    3  502    0 -0.16214202316E+03  0.11947216258E+03 -0.15122815118E+04  0.15256344965E+04  0.12699999809E+01 0. -1.
       -4    1    3    3    0  502  0.16214202316E+03 -0.11947216258E+03  0.21174102434E+04  0.21269676502E+04  0.12699999809E+01 0.  1.
</event>
<event>
 5   0  0.3365378E-07  0.3579253E+04  0.7818609E-02  0.8095261E-01
       -1   -1    0    0    0  501  0.00000000000E+00  0.00000000000E+00  0.26534027270E+04  0.26534027270E+04  0.50400001928E-02 0.  1.
        1   -1    0    0  501    0  0.00000000000E+00  0.00000000000E+00 -0.12070396806E+04  0.12070396806E+04  0.50400001928E-02 0. -1.
    10030    2    1    2    0    0  0.00000000000E+00  0.00000000000E+00  0.14463630464E+04  0.38604424076E+04  0.35792526483E+04 0.  0.
        3    1    3    3  502    0 -0.28574697964E+03  0.20854330147E+03  0.26153171878E+04  0.26391335032E+04  0.10100000352E+00 0.  1.
       -3    1    3    3    0  502  0.28574697964E+03 -0.20854330147E+03 -0.11689541414E+04  0.12213089044E+04  0.10100000352E+00 0. -1.
</event>
<event>
 5   0  0.3365378E-07  0.2701740E+04  0.7818609E-02  0.8334441E-01
        1   -1    0    0  501    0  0.00000000000E+00  0.00000000000E+00  0.12626265607E+04  0.12626265607E+04  0.50400001928E-02 0. -1.
       -1   -1    0    0    0  501  0.00000000000E+00  0.00000000000E+00 -0.14452803936E+04  0.14452803936E+04  0.50400001928E-02 0.  1.
    10030    2    1    2    0    0  0.00000000000E+00  0.00000000000E+00 -0.18265383289E+03  0.27079069543E+04  0.27017397451E+04 0.  0.
        3    1    3    3  502    0 -0.82129952449E+03 -0.69959393009E+03  0.72347701589E+03  0.12989932943E+04  0.10100000352E+00 0. -1.
       -3    1    3    3    0  502  0.82129952449E+03  0.69959393009E+03 -0.90613084878E+03  0.14089136600E+04  0.10100000352E+00 0.  1.
</event>
<event>
 5   0  0.1006019E-06  0.3605172E+04  0.7818609E-02  0.8089308E-01
       -2   -1    0    0    0  501  0.00000000000E+00  0.00000000000E+00  0.16570048335E+04  0.16570048335E+04  0.25500000920E-02 0.  1.
        2   -1    0    0  501    0  0.00000000000E+00  0.00000000000E+00 -0.19609577698E+04  0.19609577698E+04  0.25500000920E-02 0. -1.
    10030    2    1    2    0    0  0.00000000000E+00  0.00000000000E+00 -0.30395293624E+03  0.36179626033E+04  0.36051721195E+04 0.  0.
        1    1    3    3  502    0  0.25645863892E+03  0.17825151678E+04 -0.73051748527E+02  0.18023506637E+04  0.50400001928E-02 0.  1.
       -1    1    3    3    0  502 -0.25645863892E+03 -0.17825151678E+04 -0.23090118771E+03  0.18156119396E+04  0.50400001928E-02 0. -1.
</event>
<event>
 5   0  0.9878977E-07  0.3615123E+04  0.7818609E-02  0.8087036E-01
        2   -1    0    0  501    0  0.00000000000E+00  0.00000000000E+00  0.25904686704E+04  0.25904686704E+04  0.25500000920E-02 0. -1.
       -2   -1    0    0    0  501  0.00000000000E+00  0.00000000000E+00 -0.12612692665E+04  0.12612692665E+04  0.25500000920E-02 0.  1.
    10030    2    1    2    0    0  0.00000000000E+00  0.00000000000E+00  0.13291994038E+04  0.38517379369E+04  0.36151229688E+04 0.  0.
        5    1    3    3  502    0  0.72107689227E+03  0.94573399902E+03 -0.78570308080E+03  0.14253827916E+04  0.46999998093E+01 0.  1.
       -5    1    3    3    0  502 -0.72107689227E+03 -0.94573399902E+03  0.21149024846E+04  0.24263551453E+04  0.46999998093E+01 0. -1.
</event>
<event>
 5   0  0.1031659E-06  0.3307111E+04  0.7818609E-02  0.8161088E-01
        2   -1    0    0  501    0  0.00000000000E+00  0.00000000000E+00  0.21060443080E+04  0.21060443080E+04  0.25500000920E-02 0.  1.
       -2   -1    0    0    0  501  0.00000000000E+00  0.00000000000E+00 -0.12982853879E+04  0.12982853879E+04  0.25500000920E-02 0. -1.
    10030    2    1    2    0    0  0.00000000000E+00  0.00000000000E+00  0.80775892017E+03  0.34043296959E+04  0.33071114594E+04 0.  0.
        2    1    3    3  502    0  0.13627549969E+04 -0.36208091048E+03  0.12930081990E+04  0.19131319793E+04  0.25500000920E-02 0.  1.
       -2    1    3    3    0  502 -0.13627549969E+04  0.36208091048E+03 -0.48524927883E+03  0.14911977166E+04  0.25500000920E-02 0. -1.
</event>
<event>
 5   0  0.3365378E-07  0.2769231E+04  0.7818609E-02  0.8312885E-01
        1   -1    0    0  501    0  0.00000000000E+00  0.00000000000E+00  0.25940722169E+04  0.25940722169E+04  0.50400001928E-02 0. -1.
       -1   -1    0    0    0  501  0.00000000000E+00  0.00000000000E+00 -0.73905446609E+03  0.73905446611E+03  0.50400001928E-02 0.  1.
    10030    2    1    2    0    0  0.00000000000E+00  0.00000000000E+00  0.18550177508E+04  0.33331266830E+04  0.27692314149E+04 0.  0.
        3    1    3    3  502    0  0.11162974362E+04  0.56242609446E+03  0.21064958101E+03  0.12676025931E+04  0.10100000352E+00 0.  1.
       -3    1    3    3    0  502 -0.11162974362E+04 -0.56242609446E+03  0.16443681698E+04  0.20655240899E+04  0.10100000352E+00 0. -1.
</event>
<event>
 5   0  0.1031659E-06  0.3590712E+04  0.7818609E-02  0.8092623E-01
       -2   -1    0    0    0  501  0.00000000000E+00  0.00000000000E+00  0.14901718451E+04  0.14901718451E+04  0.25500000920E-02 0. -1.
        2   -1    0    0  501    0  0.00000000000E+00  0.00000000000E+00 -0.21630410662E+04  0.21630410662E+04  0.25500000920E-02 0.  1.
    10030    2    1    2    0    0  0.00000000000E+00  0.00000000000E+00 -0.67286922110E+03  0.36532129113E+04  0.35907118496E+04 0.  0.
        2    1    3    3  502    0  0.24075926000E+03 -0.17298449608E+04  0.86706482322E+02  0.17486699585E+04  0.25500000920E-02 0. -1.
       -2    1    3    3    0  502 -0.24075926000E+03  0.17298449608E+04 -0.75957570342E+03  0.19045429528E+04  0.25500000920E-02 0.  1.
</event>
<event>
 5   0  0.3242047E-07  0.3590794E+04  0.7818609E-02  0.8092604E-01
        1   -1    0    0  501    0  0.00000000000E+00  0.00000000000E+00  0.15529409850E+04  0.15529409850E+04  0.50400001928E-02 0.  1.
       -1   -1    0    0    0  501  0.00000000000E+00  0.00000000000E+00 -0.20757072420E+04  0.20757072421E+04  0.50400001928E-02 0. -1.
    10030    2    1    2    0    0  0.00000000000E+00  0.00000000000E+00 -0.52276625706E+03  0.36286482271E+04  0.35907942570E+04 0.  0.
        1    1    3    3  502    0  0.26120058876E+03  0.13859631884E+04 -0.13840998463E+04  0.19760698600E+04  0.50400001928E-02 0. -1.
       -1    1    3    3    0  502 -0.26120058876E+03 -0.13859631884E+04  0.86133358927E+03  0.16525783670E+04  0.50400001928E-02 0.  1.
</event>
<event>
 5   0  0.3159875E-07  0.2755821E+04  0.7818609E-02  0.8317117E-01
       -1   -1    0    0    0  501  0.00000000000E+00  0.00000000000E+00  0.12802119531E+04  0.12802119531E+04  0.50400001928E-02 0.  1.
        1   -1    0    0  501    0  0.00000000000E+00  0.00000000000E+00 -0.14830651100E+04  0.14830651100E+04  0.50400001928E-02 0. -1.
    10030    2    1    2    0    0  0.00000000000E+00  0.00000000000E+00 -0.20285315693E+03  0.27632770631E+04  0.27558212432E+04 0.  0.
        5    1    3    3  502    0 -0.81264782268E+03 -0.89901574932E+03 -0.75893672665E+03  0.14299065866E+04  0.46999998093E+01 0. -1.
       -5    1    3    3    0  502  0.81264782268E+03  0.89901574932E+03  0.55608356973E+03  0.13333704766E+04  0.46999998093E+01 0.  1.
</event>
<event>
 5   0  0.9538919E-07  0.3610728E+04  0.7818609E-02  0.8088039E-01
        2   -1    0    0  501    0  0.00000000000E+00  0.00000000000E+00  0.16653786587E+04  0.16653786587E+04  0.25500000920E-02 0. -1.
       -2   -1    0    0    0  501  0.00000000000E+00  0.00000000000E+00 -0.19571162563E+04  0.19571162563E+04  0.25500000920E-02 0.  1.
    10030    2    1    2    0    0  0.00000000000E+00  0.00000000000E+00 -0.29173759763E+03  0.36224949150E+04  0.36107282622E+04 0.  0.
        4    1    3    3  502    0 -0.48522380568E+03 -0.10304176859E+04  0.12594584040E+04  0.16980694430E+04  0.12699999809E+01 0. -1.
       -4    1    3    3    0  502  0.48522380568E+03  0.10304176859E+04 -0.15511960016E+04  0.19244254720E+04  0.12699999809E+01 0.  1.
</event>
<event>
 5   0  0.3365378E-07  0.3393737E+04  0.7818609E-02  0.8139445E-01
        1   -1    0    0  501    0  0.00000000000E+00  0.00000000000E+00  0.16317745661E+04  0.16317745661E+04  0.50400001928E-02 0. -1.
       -1   -1    0    0    0  501  0.00000000000E+00  0.00000000000E+00 -0.17645586280E+04  0.17645586280E+04  0.50400001928E-02 0.  1.
    10030    2    1    2    0    0  0.00000000000E+00  0.00000000000E+00 -0.13278406188E+03  0.33963331941E+04  0.33937365187E+04 0.  0.
        3    1    3    3  502    0 -0.16825760417E+04  0.34119757023E+02 -0.28366546095E+03  0.17066611843E+04  0.10100000352E+00 0.  1.
       -3    1    3    3    0  502  0.16825760417E+04 -0.34119757023E+02  0.15088139906E+03  0.16896720098E+04  0.10100000352E+00 0. -1.
</event>
<event>
 5   0  0.3242047E-07  0.3603662E+04  0.7818609E-02  0.8089653E-01
       -1   -1    0    0    0  501  0.00000000000E+00  0.00000000000E+00  0.15378077176E+04  0.15378077176E+04  0.50400001928E-02 0. -1.
        1   -1    0    0  501    0  0.00000000000E+00  0.00000000000E+00 -0.21111840484E+04  0.21111840485E+04  0.50400001928E-02 0.  1.
    10030    2    1    2    0    0  0.00000000000E+00  0.00000000000E+00 -0.57337633083E+03  0.36489917661E+04  0.36036620946E+04 0.  0.
        1    1    3    3  502    0 -0.93942197434E+03  0.13501957867E+04  0.45812724216E+03  0.17074609449E+04  0.50400001928E-02 0. -1.
       -1    1    3    3    0  502  0.93942197434E+03 -0.13501957867E+04 -0.10315035730E+04  0.19415308212E+04  0.50400001928E-02 0.  1.
</event>
<event>
 5   0  0.3159875E-07  0.3568339E+04  0.7818609E-02  0.8097783E-01
       -1   -1    0    0    0  501  0.00000000000E+00  0.00000000000E+00  0.19038985604E+04  0.19038985604E+04  0.50400001928E-02 0. -1.
        1   -1    0    0  501    0  0.00000000000E+00  0.00000000000E+00 -0.16719701254E+04  0.16719701254E+04  0.50400001928E-02 0.  1.
    10030    2    1    2    0    0  0.00000000000E+00  0.00000000000E+00  0.23192843503E+03  0.35758686858E+04  0.35683393980E+04 0.  0.
        2    1    3    3  502    0 -0.97878150139E+03 -0.48650864936E+03 -0.12971735289E+04  0.16962791803E+04  0.25500000920E-02 0.  1.
       -2    1    3    3    0  502  0.97878150139E+03  0.48650864936E+03  0.15291019639E+04  0.18795895056E+04  0.25500000920E-02 0. -1.
</event>
<event>
 5   0  0.3278988E-07  0.3613237E+04  0.7818609E-02  0.8087466E-01
       -1   -1    0    0    0  501  0.00000000000E+00  0.00000000000E+00  0.23408374595E+04  0.23408374595E+04  0.50400001928E-02 0. -1.
        1   -1    0    0  501    0  0.00000000000E+00  0.00000000000E+00 -0.13943177614E+04  0.13943177614E+04  0.50400001928E-02 0.  1.
    10030    2    1    2    0    0  0.00000000000E+00  0.00000000000E+00  0.94651969812E+03  0.37351552209E+04  0.36132374659E+04 0.  0.
        4    1    3    3  502    0 -0.23772969332E+03  0.17639663881E+04  0.15333915793E+03  0.17865070208E+04  0.12699999809E+01 0.  1.
       -4    1    3    3    0  502  0.23772969332E+03 -0.17639663881E+04  0.79318054019E+03  0.19486482000E+04  0.12699999809E+01 0. -1.
</event>
<event>
 5   0  0.3159875E-07  0.3633760E+04  0.7818609E-02  0.8082802E-01
       -3   -1    0    0    0  501  0.00000000000E+00  0.00000000000E+00  0.18014890589E+04  0.18014890617E+04  0.10100000352E+00 0.  1.
        3   -1    0    0  501    0  0.00000000000E+00  0.00000000000E+00 -0.18324025444E+04  0.18324025472E+04  0.10100000352E+00 0. -1.
    10030    2    1    2    0    0  0.00000000000E+00  0.00000000000E+00 -0.30913485537E+02  0.36338916089E+04  0.36337601161E+04 0.  0.
        1    1    3    3  502    0 -0.14327816587E+04 -0.72964338888E+02  0.10994226320E+04  0.18074615349E+04  0.50400001928E-02 0.  1.
       -1    1    3    3    0  502  0.14327816587E+04  0.72964338888E+02 -0.11303361176E+04  0.18264300740E+04  0.50400001928E-02 0. -1.
</event>
<event>
 5   0  0.1006019E-06  0.3531726E+04  0.7818609E-02  0.8106312E-01
        2   -1    0    0  501    0  0.00000000000E+00  0.00000000000E+00  0.28698546383E+04  0.28698546383E+04  0.25500000920E-02 0. -1.
       -2   -1    0    0    0  501  0.00000000000E+00  0.00000000000E+00 -0.10865610638E+04  0.10865610638E+04  0.25500000920E-02 0.  1.
    10030    2    1    2    0    0  0.00000000000E+00  0.00000000000E+00  0.17832935745E+04  0.39564157022E+04  0.35317260986E+04 0.  0.
        1    1    3    3  502    0 -0.78360647990E+03  0.42510246639E+03  0.25992549069E+04  0.27478859680E+04  0.50400001928E-02 0. -1.
       -1    1    3    3    0  502  0.78360647990E+03 -0.42510246639E+03 -0.81596133241E+03  0.12085297341E+04  0.50400001928E-02 0.  1.
</event>
<event>
 5   0  0.3159875E-07  0.3431530E+04  0.7818609E-02  0.8130211E-01
       -1   -1    0    0    0  501  0.00000000000E+00  0.00000000000E+00  0.11468030807E+04  0.11468030807E+04  0.50400001928E-02 0.  1.
        1   -1    0    0  501    0  0.00000000000E+00  0.00000000000E+00 -0.25670059343E+04  0.25670059343E+04  0.50400001928E-02 0. -1.
    10030    2    1    2    0    0  0.00000000000E+00  0.00000000000E+00 -0.14202028535E+04  0.37138090150E+04  0.34315304537E+04 0.  0.
        2    1    3    3  502    0 -0.84574401999E+03 -0.71221818203E+03  0.70981108487E+03  0.13139137956E+04  0.25500000920E-02 0.  1.
       -2    1    3    3    0  502  0.84574401999E+03  0.71221818203E+03 -0.21300139384E+04  0.23998952194E+04  0.25500000920E-02 0. -1.
</event>
<event>
 5   0  0.9878336E-07  0.3617313E+04  0.7818609E-02  0.8086537E-01
        2   -1    0    0  501    0  0.00000000000E+00  0.00000000000E+00  0.25235605122E+04  0.25235605122E+04  0.25500000920E-02 0. -1.
       -2   -1    0    0    0  501  0.00000000000E+00  0.00000000000E+00 -0.12962790840E+04  0.12962790840E+04  0.25500000920E-02 0.  1.
    10030    2    1    2    0    0  0.00000000000E+00  0.00000000000E+00  0.12272814282E+04  0.38198395962E+04  0.36173132069E+04 0.  0.
        3    1    3    3  502    0  0.16870960062E+03 -0.57586390358E+03 -0.11880979214E+04  0.13310367560E+04  0.10100000352E+00 0.  1.
       -3    1    3    3    0  502 -0.16870960062E+03  0.57586390358E+03  0.24153793496E+04  0.24888028402E+04  0.10100000352E+00 0. -1.
</event>
<event>
 5   0  0.3278988E-07  0.3517514E+04  0.7818609E-02  0.8109652E-01
        1   -1    0    0  501    0  0.00000000000E+00  0.00000000000E+00  0.27818636017E+04  0.27818636017E+04  0.50400001928E-02 0. -1.
       -1   -1    0    0    0  501  0.00000000000E+00  0.00000000000E+00 -0.11119256021E+04  0.11119256021E+04  0.50400001928E-02 0.  1.
    10030    2    1    2    0    0  0.00000000000E+00  0.00000000000E+00  0.16699379995E+04  0.38937892038E+04  0.35175135311E+04 0.  0.
        4    1    3    3  502    0  0.16827862100E+04 -0.50666213802E+03  0.91124408887E+03  0.19796068683E+04  0.12699999809E+01 0. -1.
       -4    1    3    3    0  502 -0.16827862100E+04  0.50666213802E+03  0.75869391065E+03  0.19141823355E+04  0.12699999809E+01 0.  1.
</event>
<event>
 5   0  0.1006019E-06  0.3177717E+04  0.7818609E-02  0.8194727E-01
       -2   -1    0    0    0  501  0.00000000000E+00  0.00000000000E+00  0.15388556973E+04  0.15388556973E+04  0.25500000920E-02 0. -1.
        2   -1    0    0  501    0  0.00000000000E+00  0.00000000000E+00 -0.16404860606E+04  0.16404860606E+04  0.25500000920E-02 0.  1.
    10030    2    1    2    0    0  0.00000000000E+00  0.00000000000E+00 -0.10163036325E+03  0.31793417579E+04  0.31777169922E+04 0.  0.
        1    1    3    3  502    0 -0.27816965601E+03 -0.73472262899E+03  0.13309324433E+04  0.15455021410E+04  0.50400001928E-02 0. -1.
       -1    1    3    3    0  502  0.27816965601E+03  0.73472262899E+03 -0.14325628066E+04  0.16338396169E+04  0.50400001928E-02 0.  1.
</event>
<event>
 5   0  0.3365378E-07  0.3507482E+04  0.7818609E-02  0.8112019E-01
       -1   -1    0    0    0  501  0.00000000000E+00  0.00000000000E+00  0.12278518425E+04  0.12278518426E+04  0.50400001928E-02 0. -1.
        1   -1    0    0  501    0  0.00000000000E+00  0.00000000000E+00 -0.25048683954E+04  0.25048683954E+04  0.50400001928E-02 0.  1.
    10030    2    1    2    0    0  0.00000000000E+00  0.00000000000E+00 -0.12770165529E+04  0.37327202380E+04  0.35074818743E+04 0.  0.
        3    1    3    3  502    0 -0.20107949076E+02 -0.64182898150E+03 -0.23752557123E+04  0.24605260576E+04  0.10100000352E+00 0.  1.
       -3    1    3    3    0  502  0.20107949076E+02  0.64182898150E+03  0.10982391594E+04  0.12721941804E+04  0.10100000352E+00 0. -1.
</event>
<event>
 5   0  0.9538919E-07  0.3531426E+04  0.7818609E-02  0.8106382E-01
        2   -1    0    0  501    0  0.00000000000E+00  0.00000000000E+00  0.18052532242E+04  0.18052532242E+04  0.25500000920E-02 0.  1.
       -2   -1    0    0    0  501  0.00000000000E+00  0.00000000000E+00 -0.17270389577E+04  0.17270389577E+04  0.25500000920E-02 0. -1.
    10030    2    1    2    0    0  0.00000000000E+00  0.00000000000E+00  0.78214266531E+02  0.35322921819E+04  0.35314261406E+04 0.  0.
        4    1    3    3  502    0 -0.14369074490E+04  0.27084477051E+03  0.10291382928E+04  0.17880679923E+04  0.12699999809E+01 0.  1.
       -4    1    3    3    0  502  0.14369074490E+04 -0.27084477051E+03 -0.95092402622E+03  0.17442241895E+04  0.12699999809E+01 0. -1.
</event>
<event>
 5   0  0.9538919E-07  0.3519493E+04  0.7818609E-02  0.8109186E-01
        2   -1    0    0  501    0  0.00000000000E+00  0.00000000000E+00  0.28193390083E+04  0.28193390083E+04  0.25500000920E-02 0. -1.
       -2   -1    0    0    0  501  0.00000000000E+00  0.00000000000E+00 -0.10983805882E+04  0.10983805882E+04  0.25500000920E-02 0.  1.
    10030    2    1    2    0    0  0.00000000000E+00  0.00000000000E+00  0.17209584202E+04  0.39177195965E+04  0.35194927124E+04 0.  0.
        4    1    3    3  502    0 -0.80195274324E+02 -0.17054803341E+04  0.38610118726E+03  0.17504771326E+04  0.12699999809E+01 0.  1.
       -4    1    3    3    0  502  0.80195274324E+02  0.17054803341E+04  0.13348572329E+04  0.21672424639E+04  0.12699999809E+01 0. -1.
</event>
<event>
 5   0  0.9878977E-07  0.2978229E+04  0.7818609E-02  0.8249975E-01
        2   -1    0    0  501    0  0.00000000000E+00  0.00000000000E+00  0.18394186714E+04  0.18394186714E+04  0.25500000920E-02 0. -1.
       -2   -1    0    0    0  501  0.00000000000E+00  0.00000000000E+00 -0.12055231263E+04  0.12055231263E+04  0.25500000920E-02 0.  1.
    10030    2    1    2    0    0  0.00000000000E+00  0.00000000000E+00  0.63389554512E+03  0.30449417977E+04  0.29782288343E+04 0.  0.
        5    1    3    3  502    0 -0.18107848128E+03  0.13441914023E+04 -0.31147475427E+03  0.13916459877E+04  0.46999998093E+01 0.  1.
       -5    1    3    3    0  502  0.18107848128E+03 -0.13441914023E+04  0.94537029939E+03  0.16532958100E+04  0.46999998093E+01 0. -1.
</event>
<event>
 5   0  0.1031659E-06  0.3475107E+04  0.7818609E-02  0.8119715E-01
        2   -1    0    0  501    0  0.00000000000E+00  0.00000000000E+00  0.13253995197E+04  0.13253995197E+04  0.25500000920E-02 0.  1.
       -2   -1    0    0    0  501  0.00000000000E+00  0.00000000000E+00 -0.22778733516E+04  0.22778733516E+04  0.25500000920E-02 0. -1.
    10030    2    1    2    0    0  0.00000000000E+00  0.00000000000E+00 -0.95247383183E+03  0.36032728713E+04  0.34751070465E+04 0.  0.
        2    1    3    3  502    0  0.14452232199E+04 -0.65669401657E+03  0.25634366800E+03  0.16079891986E+04  0.25500000920E-02 0.  1.
       -2    1    3    3    0  502 -0.14452232199E+04  0.65669401657E+03 -0.12088174998E+04  0.19952836727E+04  0.25500000920E-02 0. -1.
</event>
<event>
 5   0  0.9878336E-07  0.3601757E+04  0.7818609E-02  0.8090089E-01
       -2   -1    0    0    0  501  0.00000000000E+00  0.00000000000E+00  0.10100282565E+04  0.10100282565E+04  0.25500000920E-02 0.  1.
        2   -1    0    0  501    0  0.00000000000E+00  0.00000000000E+00 -0.32109633010E+04  0.32109633010E+04  0.25500000920E-02 0. -1.
    10030    2    1    2    0    0  0.00000000000E+00  0.00000000000E+00 -0.22009350445E+04  0.42209915575E+04  0.36017571626E+04 0.  0.
        3    1    3    3  502    0  0.49609959210E+03  0.91120848461E+02  0.92555629903E+03  0.10540741374E+04  0.10100000352E+00 0.  1.
       -3    1    3    3    0  502 -0.49609959210E+03 -0.91120848461E+02 -0.31264913435E+04  0.31669174201E+04  0.10100000352E+00 0. -1.
</event>
<event>
 5   0  0.9878336E-07  0.3605035E+04  0.7818609E-02  0.8089339E-01
       -2   -1    0    0    0  501  0.00000000000E+00  0.00000000000E+00  0.19598377669E+04  0.19598377669E+04  0.25500000920E-02 0.  1.
        2   -1    0    0  501    0  0.00000000000E+00  0.00000000000E+00 -0.16578259277E+04  0.16578259277E+04  0.25500000920E-02 0. -1.
    10030    2    1    2    0    0  0.00000000000E+00  0.00000000000E+00  0.30201183927E+03  0.36176636946E+04  0.36050352920E+04 0.  0.
        3    1    3    3  502    0  0.15283716872E+04  0.72950528414E+03 -0.46838542370E+03  0.17571234701E+04  0.10100000352E+00 0. -1.
       -3    1    3    3    0  502 -0.15283716872E+04 -0.72950528414E+03  0.77039726297E+03  0.18605402245E+04  0.10100000352E+00 0.  1.
</event>
<event>
 5   0  0.1031659E-06  0.3635371E+04  0.7818609E-02  0.8082437E-01
       -2   -1    0    0    0  501  0.00000000000E+00  0.00000000000E+00  0.14009214844E+04  0.14009214844E+04  0.25500000920E-02 0. -1.
        2   -1    0    0  501    0  0.00000000000E+00  0.00000000000E+00 -0.23584334060E+04  0.23584334060E+04  0.25500000920E-02 0.  1.
    10030    2    1    2    0    0  0.00000000000E+00  0.00000000000E+00 -0.95751192154E+03  0.37593548904E+04  0.36353706980E+04 0.  0.
        2    1    3    3  502    0  0.58255602359E+03  0.17180175583E+04 -0.36074026666E+03  0.18496187151E+04  0.25500000920E-02 0. -1.
       -2    1    3    3    0  502 -0.58255602359E+03 -0.17180175583E+04 -0.59677165488E+03  0.19097361753E+04  0.25500000920E-02 0.  1.
</event>
<event>
 5   0  0.3159875E-07  0.3585825E+04  0.7818609E-02  0.8093746E-01
       -4   -1    0    0    0  501  0.00000000000E+00  0.00000000000E+00  0.14045089571E+04  0.14045095313E+04  0.12699999809E+01 0. -1.
        4   -1    0    0  501    0  0.00000000000E+00  0.00000000000E+00 -0.22887236063E+04  0.22887239586E+04  0.12699999809E+01 0.  1.
    10030    2    1    2    0    0  0.00000000000E+00  0.00000000000E+00 -0.88421464921E+03  0.36932334899E+04  0.35858246004E+04 0.  0.
        4    1    3    3  502    0  0.43417278205E+03  0.15135774434E+04 -0.13251749302E+04  0.20580361733E+04  0.12699999809E+01 0.  1.
       -4    1    3    3    0  502 -0.43417278205E+03 -0.15135774434E+04  0.44096028102E+03  0.16351973166E+04  0.12699999809E+01 0. -1.
</event>
<event>
 5   0  0.9878336E-07  0.2909858E+04  0.7818609E-02  0.8269950E-01
        2   -1    0    0  501    0  0.00000000000E+00  0.00000000000E+00  0.12214976168E+04  0.12214976168E+04  0.25500000920E-02 0.  1.
       -2   -1    0    0    0  501  0.00000000000E+00  0.00000000000E+00 -0.17329702734E+04  0.17329702734E+04  0.25500000920E-02 0. -1.
    10030    2    1    2    0    0  0.00000000000E+00  0.00000000000E+00 -0.51147265660E+03  0.29544678902E+04  0.29098584563E+04 0.  0.
        3    1    3    3  502    0  0.12768151340E+04  0.40766707691E+03 -0.83042566481E+03  0.15767232246E+04  0.10100000352E+00 0. -1.
       -3    1    3    3    0  502 -0.12768151340E+04 -0.40766707691E+03  0.31895300822E+03  0.13777446656E+04  0.10100000352E+00 0.  1.
</event>
<event>
 5   0  0.3242047E-07  0.3604417E+04  0.7818609E-02  0.8089481E-01
       -1   -1    0    0    0  501  0.00000000000E+00  0.00000000000E+00  0.27562581105E+04  0.27562581105E+04  0.50400001928E-02 0.  1.
        1   -1    0    0  501    0  0.00000000000E+00  0.00000000000E+00 -0.11783929073E+04  0.11783929073E+04  0.50400001928E-02 0. -1.
    10030    2    1    2    0    0  0.00000000000E+00  0.00000000000E+00  0.15778652033E+04  0.39346510178E+04  0.36044167395E+04 0.  0.
        1    1    3    3  502    0 -0.32416118658E+00  0.20871984073E+03  0.27430199272E+04  0.27509493630E+04  0.50400001928E-02 0.  1.
       -1    1    3    3    0  502  0.32416118658E+00 -0.20871984073E+03 -0.11651547239E+04  0.11837016548E+04  0.50400001928E-02 0. -1.
</event>
<event>
 5   0  0.1006019E-06  0.2704227E+04  0.7818609E-02  0.8333635E-01
        2   -1    0    0  501    0  0.00000000000E+00  0.00000000000E+00  0.16568203055E+04  0.16568203055E+04  0.25500000920E-02 0. -1.
       -2   -1    0    0    0  501  0.00000000000E+00  0.00000000000E+00 -0.11034451129E+04  0.11034451129E+04  0.25500000920E-02 0.  1.
    10030    2    1    2    0    0  0.00000000000E+00  0.00000000000E+00  0.55337519260E+03  0.27602654184E+04  0.27042265209E+04 0.  0.
        1    1    3    3  502    0  0.30244985190E+03 -0.32038120479E+03 -0.10281179521E+04  0.11185466252E+04  0.50400001928E-02 0.  1.
       -1    1    3    3    0  502 -0.30244985190E+03  0.32038120479E+03  0.15814931447E+04  0.16417187932E+04  0.50400001928E-02 0. -1.
</event>
<event>
 5   0  0.1031659E-06  0.3626400E+04  0.7818609E-02  0.8084471E-01
        2   -1    0    0  501    0  0.00000000000E+00  0.00000000000E+00  0.19307178233E+04  0.19307178233E+04  0.25500000920E-02 0. -1.
       -2   -1    0    0    0  501  0.00000000000E+00  0.00000000000E+00 -0.17028352845E+04  0.17028352845E+04  0.25500000920E-02 0.  1.
    10030    2    1    2    0    0  0.00000000000E+00  0.00000000000E+00  0.22788253885E+03  0.36335531078E+04  0.36264001070E+04 0.  0.
        2    1    3    3  502    0  0.60655868053E+03  0.94298583630E+03 -0.13138462098E+04  0.17272311899E+04  0.25500000920E-02 0.  1.
       -2    1    3    3    0  502 -0.60655868053E+03 -0.94298583630E+03  0.15417287486E+04  0.19063219179E+04  0.25500000920E-02 0. -1.
</event>
<event>
 5   0  0.3159875E-07  0.3547932E+04  0.7818609E-02  0.8102524E-01
       -1   -1    0    0    0  501  0.00000000000E+00  0.00000000000E+00  0.12894834175E+04  0.12894834175E+04  0.50400001928E-02 0.  1.
        1   -1    0    0  501    0  0.00000000000E+00  0.00000000000E+00 -0.24404775767E+04  0.24404775767E+04  0.50400001928E-02 0. -1.
    10030    2    1    2    0    0  0.00000000000E+00  0.00000000000E+00 -0.11509941592E+04  0.37299609942E+04  0.35479319982E+04 0.  0.
        2    1    3    3  502    0  0.92027554104E+03  0.87525221353E+03  0.72658725676E+03  0.14631823367E+04  0.25500000920E-02 0.  1.
       -2    1    3    3    0  502 -0.92027554104E+03 -0.87525221353E+03 -0.18775814159E+04  0.22667786575E+04  0.25500000920E-02 0. -1.
</event>
<event>
 5   0  0.9878977E-07  0.3631775E+04  0.7818609E-02  0.8083252E-01
        2   -1    0    0  501    0  0.00000000000E+00  0.00000000000E+00  0.29698552745E+04  0.29698552745E+04  0.25500000920E-02 0.  1.
       -2   -1    0    0    0  501  0.00000000000E+00  0.00000000000E+00 -0.11103060502E+04  0.11103060502E+04  0.25500000920E-02 0. -1.
    10030    2    1    2    0    0  0.00000000000E+00  0.00000000000E+00  0.18595492242E+04  0.40801613247E+04  0.36317754774E+04 0.  0.
        5    1    3    3  502    0 -0.48169003433E+03  0.15710629874E+03  0.28888288146E+04  0.29329271536E+04  0.46999998093E+01 0.  1.
       -5    1    3    3    0  502  0.48169003433E+03 -0.15710629874E+03 -0.10292795903E+04  0.11472341711E+04  0.46999998093E+01 0. -1.
</event>
<event>
 5   0  0.3365378E-07  0.3549125E+04  0.7818609E-02  0.8102246E-01
        1   -1    0    0  501    0  0.00000000000E+00  0.00000000000E+00  0.20851392434E+04  0.20851392434E+04  0.50400001928E-02 0.  1.
       -1   -1    0    0    0  501  0.00000000000E+00  0.00000000000E+00 -0.15102456598E+04  0.15102456598E+04  0.50400001928E-02 0. -1.
    10030    2    1    2    0    0  0.00000000000E+00  0.00000000000E+00  0.57489358354E+03  0.35953849032E+04  0.35491252401E+04 0.  0.
        3    1    3    3  502    0 -0.14628855003E+04 -0.17100071382E+03 -0.71530206165E+03  0.16373552701E+04  0.10100000352E+00 0. -1.
       -3    1    3    3    0  502  0.14628855003E+04  0.17100071382E+03  0.12901956452E+04  0.19580296331E+04  0.10100000352E+00 0.  1.
</event>
<event>
 5   0  0.3365378E-07  0.2581563E+04  0.7818609E-02  0.8374491E-01
       -1   -1    0    0    0  501  0.00000000000E+00  0.00000000000E+00  0.11897890374E+04  0.11897890375E+04  0.50400001928E-02 0. -1.
        1   -1    0    0  501    0  0.00000000000E+00  0.00000000000E+00 -0.14003463094E+04  0.14003463094E+04  0.50400001928E-02 0.  1.
    10030    2    1    2    0    0  0.00000000000E+00  0.00000000000E+00 -0.21055727196E+03  0.25901353469E+04  0.25815628504E+04 0.  0.
        3    1    3    3  502    0 -0.11617202763E+04 -0.29146951286E+03 -0.58809192567E+03  0.13343165294E+04  0.10100000352E+00 0.  1.
       -3    1    3    3    0  502  0.11617202763E+04  0.29146951286E+03  0.37753465371E+03  0.12558188175E+04  0.10100000352E+00 0. -1.
</event>
<event>
 5   0  0.3278988E-07  0.3645274E+04  0.7818609E-02  0.8080199E-01
       -1   -1    0    0    0  501  0.00000000000E+00  0.00000000000E+00  0.18674018864E+04  0.18674018864E+04  0.50400001928E-02 0.  1.
        1   -1    0    0  501    0  0.00000000000E+00  0.00000000000E+00 -0.17789456078E+04  0.17789456078E+04  0.50400001928E-02 0. -1.
    10030    2    1    2    0    0  0.00000000000E+00  0.00000000000E+00  0.88456278530E+02  0.36463474942E+04  0.36452744115E+04 0.  0.
        4    1    3    3  502    0  0.20454709492E+03  0.15134870345E+03  0.18495471773E+04  0.18669687513E+04  0.12699999809E+01 0.  1.
       -4    1    3    3    0  502 -0.20454709492E+03 -0.15134870345E+03 -0.17610908988E+04  0.17793787429E+04  0.12699999809E+01 0. -1.
</event>
<event>
 5   0  0.9538919E-07  0.3068540E+04  0.7818609E-02  0.8224425E-01
        2   -1    0    0  501    0  0.00000000000E+00  0.00000000000E+00  0.14994010395E+04  0.14994010395E+04  0.25500000920E-02 0.  1.
       -2   -1    0    0    0  501  0.00000000000E+00  0.00000000000E+00 -0.15699501740E+04  0.15699501740E+04  0.25500000920E-02 0. -1.
    10030    2    1    2    0    0  0.00000000000E+00  0.00000000000E+00 -0.70549134505E+02  0.30693512134E+04  0.30685403193E+04 0.  0.
        4    1    3    3  502    0  0.45890816425E+03 -0.68897847343E+03  0.12568466836E+04  0.15049761590E+04  0.12699999809E+01 0. -1.
       -4    1    3    3    0  502 -0.45890816425E+03  0.68897847343E+03 -0.13273958181E+04  0.15643750544E+04  0.12699999809E+01 0.  1.
</event>
<event>
 5   0  0.1031659E-06  0.3551853E+04  0.7818609E-02  0.8101610E-01
       -2   -1    0    0    0  501  0.00000000000E+00  0.00000000000E+00  0.11605531030E+04  0.11605531030E+04  0.25500000920E-02 0.  1.
        2   -1    0    0  501    0  0.00000000000E+00  0.00000000000E+00 -0.27175959511E+04  0.27175959511E+04  0.25500000920E-02 0. -1.
    10030    2    1    2    0    0  0.00000000000E+00  0.00000000000E+00 -0.15570428481E+04  0.38781490540E+04  0.35518527073E+04 0.  0.
        2    1    3    3  502    0  0.10738134628E+04  0.56062645222E+03 -0.21964928892E+04  0.25083776399E+04  0.25500000920E-02 0. -1.
       -2    1    3    3    0  502 -0.10738134628E+04 -0.56062645222E+03  0.63945004115E+03  0.13697714141E+04  0.25500000920E-02 0.  1.
</event>
<event>
 5   0  0.9538919E-07  0.3591860E+04  0.7818609E-02  0.8092359E-01
       -2   -1    0    0    0  501  0.00000000000E+00  0.00000000000E+00  0.13600861815E+04  0.13600861815E+04  0.25500000920E-02 0. -1.
        2   -1    0    0  501    0  0.00000000000E+00  0.00000000000E+00 -0.23714419001E+04  0.23714419001E+04  0.25500000920E-02 0.  1.
    10030    2    1    2    0    0  0.00000000000E+00  0.00000000000E+00 -0.10113557187E+04  0.37315280816E+04  0.35918604419E+04 0.  0.
        4    1    3    3  502    0  0.14197844126E+04  0.97128346745E+03  0.30314445130E+02  0.17204940950E+04  0.12699999809E+01 0.  1.
       -4    1    3    3    0  502 -0.14197844126E+04 -0.97128346745E+03 -0.10416701638E+04  0.20110339866E+04  0.12699999809E+01 0. -1.
</event>
<event>
 5   0  0.1006019E-06  0.3614036E+04  0.7818609E-02  0.8087284E-01
        2   -1    0    0  501    0  0.00000000000E+00  0.00000000000E+00  0.15349253106E+04  0.15349253106E+04  0.25500000920E-02 0. -1.
       -2   -1    0    0    0  501  0.00000000000E+00  0.00000000000E+00 -0.21273435867E+04  0.21273435867E+04  0.25500000920E-02 0.  1.
    10030    2    1    2    0    0  0.00000000000E+00  0.00000000000E+00 -0.59241827616E+03  0.36622688973E+04  0.36140357030E+04 0.  0.
        1    1    3    3  502    0 -0.14838514769E+04 -0.41568269826E+02  0.74796539011E+03  0.16622260229E+04  0.50400001928E-02 0. -1.
       -1    1    3    3    0  502  0.14838514769E+04  0.41568269826E+02 -0.13403836663E+04  0.20000428744E+04  0.50400001928E-02 0.  1.
</event>
<event>
 5   0  0.9878336E-07  0.3571801E+04  0.7818609E-02  0.8096982E-01
       -2   -1    0    0    0  501  0.00000000000E+00  0.00000000000E+00  0.25728130903E+04  0.25728130903E+04  0.25500000920E-02 0. -1.
        2   -1    0    0  501    0  0.00000000000E+00  0.00000000000E+00 -0.12396707584E+04  0.12396707584E+04  0.25500000920E-02 0.  1.
    10030    2    1    2    0    0  0.00000000000E+00  0.00000000000E+00  0.13331423319E+04  0.38124838487E+04  0.35718013130E+04 0.  0.
        3    1    3    3  502    0 -0.82590552092E+03  0.14346614912E+04 -0.48709672743E+02  0.16561238378E+04  0.10100000352E+00 0.  1.
       -3    1    3    3    0  502  0.82590552092E+03 -0.14346614912E+04  0.13818520046E+04  0.21563600109E+04  0.10100000352E+00 0. -1.
</event>
<event>
 5   0  0.3242047E-07  0.3244181E+04  0.7818609E-02  0.8177246E-01
       -1   -1    0    0    0  501  0.00000000000E+00  0.00000000000E+00  0.10117513696E+04  0.10117513696E+04  0.50400001928E-02 0.  1.
        1   -1    0    0  501    0  0.00000000000E+00  0.00000000000E+00 -0.26006165350E+04  0.26006165350E+04  0.50400001928E-02 0. -1.
    10030    2    1    2    0    0  0.00000000000E+00  0.00000000000E+00 -0.15888651654E+04  0.36123679046E+04  0.32441808464E+04 0.  0.
        1    1    3    3  502    0  0.98264944644E+02 -0.14008204282E+04 -0.16985050626E+04  0.22038315087E+04  0.50400001928E-02 0. -1.
       -1    1    3    3    0  502 -0.98264944644E+02  0.14008204282E+04  0.10963989713E+03  0.14085363958E+04  0.50400001928E-02 0.  1.
</event>
<event>
 5   0  0.1031659E-06  0.3484360E+04  0.7818609E-02  0.8117506E-01
       -2   -1    0    0    0  501  0.00000000000E+00  0.00000000000E+00  0.22359614406E+04  0.22359614406E+04  0.25500000920E-02 0. -1.
        2   -1    0    0  501    0  0.00000000000E+00  0.00000000000E+00 -0.13574435137E+04  0.13574435137E+04  0.25500000920E-02 0.  1.
    10030    2    1    2    0    0  0.00000000000E+00  0.00000000000E+00  0.87851792686E+03  0.35934049544E+04  0.34843601160E+04 0.  0.
        2    1    3    3  502    0 -0.14902041507E+04 -0.46292640204E+03 -0.35970031406E+03  0.16013724053E+04  0.25500000920E-02 0.  1.
       -2    1    3    3    0  502  0.14902041507E+04  0.46292640204E+03  0.12382182409E+04  0.19920325491E+04  0.25500000920E-02 0. -1.
</event>
<event>
 5   0  0.3159875E-07  0.3257873E+04  0.7818609E-02  0.8173698E-01
        1   -1    0    0  501    0  0.00000000000E+00  0.00000000000E+00  0.22592689249E+04  0.22592689250E+04  0.50400001928E-02 0. -1.
       -1   -1    0    0    0  501  0.00000000000E+00  0.00000000000E+00 -0.11744659148E+04  0.11744659148E+04  0.50400001928E-02 0.  1.
    10030    2    1    2    0    0  0.00000000000E+00  0.00000000000E+00  0.10848030101E+04  0.34337348398E+04  0.32578731374E+04 0.  0.
        2    1    3    3  502    0  0.21571115233E+03 -0.15936840651E+04  0.81536851093E+03  0.18031045475E+04  0.25500000920E-02 0. -1.
       -2    1    3    3    0  502 -0.21571115233E+03  0.15936840651E+04  0.26943449918E+03  0.16306302923E+04  0.25500000920E-02 0.  1.
</event>
<event>
 5   0  0.9538919E-07  0.3603292E+04  0.7818609E-02  0.8089738E-01
        2   -1    0    0  501    0  0.00000000000E+00  0.00000000000E+00  0.25610072218E+04  0.25610072218E+04  0.25500000920E-02 0.  1.
       -2   -1    0    0    0  501  0.00000000000E+00  0.00000000000E+00 -0.12674421697E+04  0.12674421697E+04  0.25500000920E-02 0. -1.
    10030    2    1    2    0    0  0.00000000000E+00  0.00000000000E+00  0.12935650521E+04  0.38284493916E+04  0.36032921336E+04 0.  0.
        4    1    3    3  502    0 -0.16915815483E+04 -0.48008661933E+01 -0.12006899671E+02  0.16916314496E+04  0.12699999809E+01 0. -1.
       -4    1    3    3    0  502  0.16915815483E+04  0.48008661933E+01  0.13055719517E+04  0.21368179419E+04  0.12699999809E+01 0.  1.
</event>
<event>
 5   0  0.9538919E-07  0.3211423E+04  0.7818609E-02  0.8185807E-01
        2   -1    0    0  501    0  0.00000000000E+00  0.00000000000E+00  0.26862559773E+04  0.26862559773E+04  0.25500000920E-02 0. -1.
       -2   -1    0    0    0  501  0.00000000000E+00  0.00000000000E+00 -0.95981506387E+03  0.95981506387E+03  0.25500000920E-02 0.  1.
    10030    2    1    2    0    0  0.00000000000E+00  0.00000000000E+00  0.17264409135E+04  0.36460710412E+04  0.32114227081E+04 0.  0.
        4    1    3    3  502    0  0.19314726444E+03  0.26184917867E+03 -0.92199329630E+03  0.97772394338E+03  0.12699999809E+01 0.  1.
       -4    1    3    3    0  502 -0.19314726444E+03 -0.26184917867E+03  0.26484342098E+04  0.26683470978E+04  0.12699999809E+01 0. -1.
</event>
<event>
 5   0  0.3242047E-07  0.2687095E+04  0.7818609E-02  0.8339204E-01
       -1   -1    0    0    0  501  0.00000000000E+00  0.00000000000E+00  0.31169140143E+04  0.31169140143E+04  0.50400001928E-02 0.  1.
        1   -1    0    0  501    0  0.00000000000E+00  0.00000000000E+00 -0.57913687563E+03  0.57913687565E+03  0.50400001928E-02 0. -1.
    10030    2    1    2    0    0  0.00000000000E+00  0.00000000000E+00  0.25377771387E+04  0.36960508900E+04  0.26870949696E+04 0.  0.
        1    1    3    3  502    0 -0.13161263160E+04 -0.25307042203E+03  0.13985544797E+04  0.19370564656E+04  0.50400001928E-02 0.  1.
       -1    1    3    3    0  502  0.13161263160E+04  0.25307042203E+03  0.11392226590E+04  0.17589944244E+04  0.50400001928E-02 0. -1.
</event>
<event>
 5   0  0.3159875E-07  0.3705375E+04  0.7818609E-02  0.8066772E-01
       -1   -1    0    0    0  501  0.00000000000E+00  0.00000000000E+00  0.19340371145E+04  0.19340371145E+04  0.50400001928E-02 0. -1.
        1   -1    0    0  501    0  0.00000000000E+00  0.00000000000E+00 -0.17747592230E+04  0.17747592230E+04  0.50400001928E-02 0.  1.
    10030    2    1    2    0    0  0.00000000000E+00  0.00000000000E+00  0.15927789150E+03  0.37087963376E+04  0.37053745866E+04 0.  0.
        5    1    3    3  502    0 -0.10350180065E+04 -0.80588705410E+03  0.13891712059E+04  0.19106373144E+04  0.46999998093E+01 0. -1.
       -5    1    3    3    0  502  0.10350180065E+04  0.80588705410E+03 -0.12298933144E+04  0.17981590232E+04  0.46999998093E+01 0.  1.
</event>
<event>
 5   0  0.9878336E-07  0.3620286E+04  0.7818609E-02  0.8085861E-01
       -2   -1    0    0    0  501  0.00000000000E+00  0.00000000000E+00  0.15613810535E+04  0.15613810535E+04  0.25500000920E-02 0. -1.
        2   -1    0    0  501    0  0.00000000000E+00  0.00000000000E+00 -0.20985381582E+04  0.20985381582E+04  0.25500000920E-02 0.  1.
    10030    2    1    2    0    0  0.00000000000E+00  0.00000000000E+00 -0.53715710469E+03  0.36599192116E+04  0.36202860219E+04 0.  0.
        3    1    3    3  502    0 -0.70567083771E+03  0.66142093473E+03  0.12782599463E+04  0.16029340238E+04  0.10100000352E+00 0. -1.
       -3    1    3    3    0  502  0.70567083771E+03 -0.66142093473E+03 -0.18154170510E+04  0.20569851879E+04  0.10100000352E+00 0.  1.
</event>
<event>
 5   0  0.3159875E-07  0.3632458E+04  0.7818609E-02  0.8083097E-01
       -1   -1    0    0    0  501  0.00000000000E+00  0.00000000000E+00  0.10872577887E+04  0.10872577887E+04  0.50400001928E-02 0. -1.
        1   -1    0    0  501    0  0.00000000000E+00  0.00000000000E+00 -0.30339523775E+04  0.30339523775E+04  0.50400001928E-02 0.  1.
    10030    2    1    2    0    0  0.00000000000E+00  0.00000000000E+00 -0.19466945888E+04  0.41212101661E+04  0.36324583152E+04 0.  0.
        5    1    3    3  502    0 -0.16576565334E+03  0.91773192731E+01 -0.30253186088E+04  0.30298741310E+04  0.46999998093E+01 0.  1.
       -5    1    3    3    0  502  0.16576565334E+03 -0.91773192731E+01  0.10786240200E+04  0.10913360351E+04  0.46999998093E+01 0. -1.
</event>
<event>
 5   0  0.3278988E-07  0.3421857E+04  0.7818609E-02  0.8132563E-01
        1   -1    0    0  501    0  0.00000000000E+00  0.00000000000E+00  0.25254768091E+04  0.25254768091E+04  0.50400001928E-02 0.  1.
       -1   -1    0    0    0  501  0.00000000000E+00  0.00000000000E+00 -0.11590982175E+04  0.11590982175E+04  0.50400001928E-02 0. -1.
    10030    2    1    2    0    0  0.00000000000E+00  0.00000000000E+00  0.13663785917E+04  0.36845750266E+04  0.34218566117E+04 0.  0.
        4    1    3    3  502    0  0.28247416476E+03  0.59688836164E+02 -0.11326786302E+04  0.11688955912E+04  0.12699999809E+01 0. -1.
       -4    1    3    3    0  502 -0.28247416476E+03 -0.59688836164E+02  0.24990572218E+04  0.25156794354E+04  0.12699999809E+01 0.  1.
</event>
<event>
 5   0  0.9538919E-07  0.3631014E+04  0.7818609E-02  0.8083424E-01
       -2   -1    0    0    0  501  0.00000000000E+00  0.00000000000E+00  0.19218189130E+04  0.19218189130E+04  0.25500000920E-02 0. -1.
        2   -1    0    0  501    0  0.00000000000E+00  0.00000000000E+00 -0.17150760002E+04  0.17150760002E+04  0.25500000920E-02 0.  1.
    10030    2    1    2    0    0  0.00000000000E+00  0.00000000000E+00  0.20674291275E+03  0.36368949132E+04  0.36310139049E+04 0.  0.
        4    1    3    3  502    0  0.26593032244E+03 -0.31185162775E+03 -0.16681348546E+04  0.17177444164E+04  0.12699999809E+01 0.  1.
       -4    1    3    3    0  502 -0.26593032244E+03  0.31185162775E+03  0.18748777673E+04  0.19191504968E+04  0.12699999809E+01 0. -1.
</event>
<event>
 5   0  0.1006019E-06  0.3550385E+04  0.7818609E-02  0.8101952E-01
       -2   -1    0    0    0  501  0.00000000000E+00  0.00000000000E+00  0.25267760569E+04  0.25267760569E+04  0.25500000920E-02 0. -1.
        2   -1    0    0  501    0  0.00000000000E+00  0.00000000000E+00 -0.12471657079E+04  0.12471657079E+04  0.25500000920E-02 0.  1.
    10030    2    1    2    0    0  0.00000000000E+00  0.00000000000E+00  0.12796103489E+04  0.37739417648E+04  0.35503850212E+04 0.  0.
        1    1    3    3  502    0 -0.34809491257E+03 -0.98463618122E+03  0.21656829512E+04  0.24043421393E+04  0.50400001928E-02 0. -1.
       -1    1    3    3    0  502  0.34809491257E+03  0.98463618122E+03 -0.88607260230E+03  0.13695996255E+04  0.50400001928E-02 0.  1.
</event>
<event>
 5   0  0.3159875E-07  0.3615619E+04  0.7818609E-02  0.8086923E-01
        1   -1    0    0  501    0  0.00000000000E+00  0.00000000000E+00  0.23316216505E+04  0.23316216505E+04  0.50400001928E-02 0. -1.
       -1   -1    0    0    0  501  0.00000000000E+00  0.00000000000E+00 -0.14016748462E+04  0.14016748462E+04  0.50400001928E-02 0.  1.
    10030    2    1    2    0    0  0.00000000000E+00  0.00000000000E+00  0.92994680427E+03  0.37332964967E+04  0.36156191273E+04 0.  0.
        2    1    3    3  502    0 -0.95346866025E+03  0.13437682079E+03 -0.11148625042E+04  0.14731184675E+04  0.25500000920E-02 0.  1.
       -2    1    3    3    0  502  0.95346866025E+03 -0.13437682079E+03  0.20448093084E+04  0.22601780293E+04  0.25500000920E-02 0. -1.
</event>
<event>
 5   0  0.1031659E-06  0.3527447E+04  0.7818609E-02  0.8107316E-01
       -2   -1    0    0    0  501  0.00000000000E+00  0.00000000000E+00  0.13261763412E+04  0.13261763412E+04  0.25500000920E-02 0.  1.
        2   -1    0    0  501    0  0.00000000000E+00  0.00000000000E+00 -0.23456308372E+04  0.23456308372E+04  0.25500000920E-02 0. -1.
    10030    2    1    2    0    0  0.00000000000E+00  0.00000000000E+00 -0.10194544960E+04  0.36718071784E+04  0.35274467375E+04 0.  0.
        2    1    3    3  502    0  0.53748387939E+03 -0.12905779740E+04 -0.16290190916E+04  0.21466680294E+04  0.25500000920E-02 0. -1.
       -2    1    3    3    0  502 -0.53748387939E+03  0.12905779740E+04  0.60956459568E+03  0.15251391490E+04  0.25500000920E-02 0.  1.
</event>
<event>
 5   0  0.1006019E-06  0.3521354E+04  0.7818609E-02  0.8108748E-01
       -2   -1    0    0    0  501  0.00000000000E+00  0.00000000000E+00  0.11938276252E+04  0.11938276252E+04  0.25500000920E-02 0.  1.
        2   -1    0    0  501    0  0.00000000000E+00  0.00000000000E+00 -0.25966754211E+04  0.25966754211E+04  0.25500000920E-02 0. -1.
    10030    2    1    2    0    0  0.00000000000E+00  0.00000000000E+00 -0.14028477958E+04  0.37905030463E+04  0.35213536326E+04 0.  0.
        1    1    3    3  502    0 -0.50440190206E+03  0.16728297797E+04 -0.93529032086E+03  0.19818044139E+04  0.50400001928E-02 0. -1.
       -1    1    3    3    0  502  0.50440190206E+03 -0.16728297797E+04 -0.46755747498E+03  0.18086986324E+04  0.50400001928E-02 0.  1.
</event>
<event>
 5   0  0.9878336E-07  0.3567358E+04  0.7818609E-02  0.8098010E-01
       -2   -1    0    0    0  501  0.00000000000E+00  0.00000000000E+00  0.17993441482E+04  0.17993441482E+04  0.25500000920E-02 0. -1.
        2   -1    0    0  501    0  0.00000000000E+00  0.00000000000E+00 -0.17681498697E+04  0.17681498697E+04  0.25500000920E-02 0.  1.
    10030    2    1    2    0    0  0.00000000000E+00  0.00000000000E+00  0.31194278448E+02  0.35674940179E+04  0.35673576334E+04 0.  0.
        3    1    3    3  502    0  0.94011866054E+03 -0.12573637828E+04 -0.83103036816E+03  0.17763440717E+04  0.10100000352E+00 0.  1.
       -3    1    3    3    0  502 -0.94011866054E+03  0.12573637828E+04  0.86222464661E+03  0.17911499462E+04  0.10100000352E+00 0. -1.
</event>
<event>
 5   0  0.1031659E-06  0.3632516E+04  0.7818609E-02  0.8083084E-01
        2   -1    0    0  501    0  0.00000000000E+00  0.00000000000E+00  0.18491443031E+04  0.18491443031E+04  0.25500000920E-02 0.  1.
       -2   -1    0    0    0  501  0.00000000000E+00  0.00000000000E+00 -0.17839566353E+04  0.17839566353E+04  0.25500000920E-02 0. -1.
    10030    2    1    2    0    0  0.00000000000E+00  0.00000000000E+00  0.65187667833E+02  0.36331009384E+04  0.36325160696E+04 0.  0.
        2    1    3    3  502    0  0.19105374229E+02  0.16271139828E+04  0.83952502594E+03  0.18310289996E+04  0.25500000920E-02 0.  1.
       -2    1    3    3    0  502 -0.19105374229E+02 -0.16271139828E+04 -0.77433735811E+03  0.18020719387E+04  0.25500000920E-02 0. -1.
</event>
<event>
 5   0  0.3159875E-07  0.2769343E+04  0.7818609E-02  0.8312850E-01
        1   -1    0    0  501    0  0.00000000000E+00  0.00000000000E+00  0.15709795323E+04  0.15709795323E+04  0.50400001928E-02 0. -1.
       -1   -1    0    0    0  501  0.00000000000E+00  0.00000000000E+00 -0.12204585975E+04  0.12204585975E+04  0.50400001928E-02 0.  1.
    10030    2    1    2    0    0  0.00000000000E+00  0.00000000000E+00  0.35052093482E+03  0.27914381298E+04  0.27693432266E+04 0.  0.
        5    1    3    3  502    0  0.30700256917E+03 -0.10259141224E+04 -0.70954881060E+03  0.12846135484E+04  0.46999998093E+01 0. -1.
       -5    1    3    3    0  502 -0.30700256917E+03  0.10259141224E+04  0.10600697454E+04  0.15068245814E+04  0.46999998093E+01 0.  1.
</event>
<event>
 5   0  0.9538919E-07  0.3614182E+04  0.7818609E-02  0.8087251E-01
       -2   -1    0    0    0  501  0.00000000000E+00  0.00000000000E+00  0.16256571533E+04  0.16256571533E+04  0.25500000920E-02 0.  1.
        2   -1    0    0  501    0  0.00000000000E+00  0.00000000000E+00 -0.20087737494E+04  0.20087737494E+04  0.25500000920E-02 0. -1.
    10030    2    1    2    0    0  0.00000000000E+00  0.00000000000E+00 -0.38311659606E+03  0.36344309027E+04  0.36141817415E+04 0.  0.
        4    1    3    3  502    0  0.13128245031E+04  0.74757679736E+03 -0.11886764073E+04  0.19223247535E+04  0.12699999809E+01 0. -1.
       -4    1    3    3    0  502 -0.13128245031E+04 -0.74757679736E+03  0.80555981120E+03  0.17121061492E+04  0.12699999809E+01 0.  1.
</event>
<event>
 5   0  0.3365378E-07  0.3610460E+04  0.7818609E-02  0.8088100E-01
        1   -1    0    0  501    0  0.00000000000E+00  0.00000000000E+00  0.21054836921E+04  0.21054836921E+04  0.50400001928E-02 0. -1.
       -1   -1    0    0    0  501  0.00000000000E+00  0.00000000000E+00 -0.15477940170E+04  0.15477940170E+04  0.50400001928E-02 0.  1.
    10030    2    1    2    0    0  0.00000000000E+00  0.00000000000E+00  0.55768967507E+03  0.36532777091E+04  0.36104598386E+04 0.  0.
        3    1    3    3  502    0 -0.13127712363E+04 -0.32974328255E+03  0.14874794787E+04  0.20111425014E+04  0.10100000352E+00 0. -1.
       -3    1    3    3    0  502  0.13127712363E+04  0.32974328255E+03 -0.92978980360E+03  0.16421352077E+04  0.10100000352E+00 0.  1.
</event>
<event>
 5   0  0.3365378E-07  0.3634171E+04  0.7818609E-02  0.8082709E-01
       -1   -1    0    0    0  501  0.00000000000E+00  0.00000000000E+00  0.21873548577E+04  0.21873548577E+04  0.50400001928E-02 0.  1.
        1   -1    0    0  501    0  0.00000000000E+00  0.00000000000E+00 -0.15094945921E+04  0.15094945921E+04  0.50400001928E-02 0. -1.
    10030    2    1    2    0    0  0.00000000000E+00  0.00000000000E+00  0.67786026566E+03  0.36968494498E+04  0.36341713381E+04 0.  0.
        3    1    3    3  502    0  0.17076521915E+04  0.42710450829E+03 -0.11974111584E+03  0.17643220265E+04  0.10100000352E+00 0. -1.
       -3    1    3    3    0  502 -0.17076521915E+04 -0.42710450829E+03  0.79760138150E+03  0.19325274234E+04  0.10100000352E+00 0.  1.
</event>
<event>
 5   0  0.9878336E-07  0.3581008E+04  0.7818609E-02  0.8094856E-01
       -2   -1    0    0    0  501  0.00000000000E+00  0.00000000000E+00  0.27858818249E+04  0.27858818249E+04  0.25500000920E-02 0. -1.
        2   -1    0    0  501    0  0.00000000000E+00  0.00000000000E+00 -0.11507684326E+04  0.11507684326E+04  0.25500000920E-02 0.  1.
    10030    2    1    2    0    0  0.00000000000E+00  0.00000000000E+00  0.16351133924E+04  0.39366502575E+04  0.35810081603E+04 0.  0.
        3    1    3    3  502    0 -0.76185747576E+03 -0.91291823904E+03  0.22891831709E+04  0.25795747954E+04  0.10100000352E+00 0. -1.
       -3    1    3    3    0  502  0.76185747576E+03  0.91291823904E+03 -0.65406977856E+03  0.13570754622E+04  0.10100000352E+00 0.  1.
</event>
<event>
 5   0  0.3365378E-07  0.3603078E+04  0.7818609E-02  0.8089787E-01
        1   -1    0    0  501    0  0.00000000000E+00  0.00000000000E+00  0.20817782374E+04  0.20817782374E+04  0.50400001928E-02 0.  1.
       -1   -1    0    0    0  501  0.00000000000E+00  0.00000000000E+00 -0.15590239673E+04  0.15590239673E+04  0.50400001928E-02 0. -1.
    10030    2    1    2    0    0  0.00000000000E+00  0.00000000000E+00  0.52275427005E+03  0.36408022047E+04  0.36030776660E+04 0.  0.
        3    1    3    3  502    0  0.15957840139E+04 -0.44033922672E+03 -0.45677988930E+03  0.17172865606E+04  0.10100000352E+00 0. -1.
       -3    1    3    3    0  502 -0.15957840139E+04  0.44033922672E+03  0.97953415935E+03  0.19235156441E+04  0.10100000352E+00 0.  1.
</event>
<event>
 5   0  0.3278988E-07  0.3587857E+04  0.7818609E-02  0.8093279E-01
       -1   -1    0    0    0  501  0.00000000000E+00  0.00000000000E+00  0.15296724711E+04  0.15296724711E+04  0.50400001928E-02 0. -1.
        1   -1    0    0  501    0  0.00000000000E+00  0.00000000000E+00 -0.21038356715E+04  0.21038356715E+04  0.50400001928E-02 0.  1.
    10030    2    1    2    0    0  0.00000000000E+00  0.00000000000E+00 -0.57416320039E+03  0.36335081426E+04  0.35878570264E+04 0.  0.
        4    1    3    3  502    0 -0.51138815006E+03 -0.79495246782E+03 -0.18311817328E+04  0.20607511780E+04  0.12699999809E+01 0.  1.
       -4    1    3    3    0  502  0.51138815006E+03  0.79495246782E+03  0.12570185324E+04  0.15727569646E+04  0.12699999809E+01 0. -1.
</event>
<event>
 5   0  0.3159875E-07  0.3581089E+04  0.7818609E-02  0.8094837E-01
        1   -1    0    0  501    0  0.00000000000E+00  0.00000000000E+00  0.22246369067E+04  0.22246369067E+04  0.50400001928E-02 0.  1.
       -1   -1    0    0    0  501  0.00000000000E+00  0.00000000000E+00 -0.14411565258E+04  0.14411565258E+04  0.50400001928E-02 0. -1.
    10030    2    1    2    0    0  0.00000000000E+00  0.00000000000E+00  0.78348038089E+03  0.36657934324E+04  0.35810892173E+04 0.  0.
        5    1    3    3  502    0 -0.23862263156E+03  0.26111286827E+03 -0.14050284435E+04  0.14488780857E+04  0.46999998093E+01 0. -1.
       -5    1    3    3    0  502  0.23862263156E+03 -0.26111286827E+03  0.21885088244E+04  0.22169153467E+04  0.46999998093E+01 0.  1.
</event>
<event>
 5   0  0.3278988E-07  0.3403580E+04  0.7818609E-02  0.8137028E-01
        1   -1    0    0  501    0  0.00000000000E+00  0.00000000000E+00  0.21305079993E+04  0.21305079993E+04  0.50400001928E-02 0. -1.
       -1   -1    0    0    0  501  0.00000000000E+00  0.00000000000E+00 -0.13593418389E+04  0.13593418390E+04  0.50400001928E-02 0.  1.
    10030    2    1    2    0    0  0.00000000000E+00  0.00000000000E+00  0.77116616038E+03  0.34898498383E+04  0.34035796813E+04 0.  0.
        4    1    3    3  502    0  0.22252309044E+03 -0.78499793076E+03  0.19168722425E+04  0.20833000466E+04  0.12699999809E+01 0. -1.
       -4    1    3    3    0  502 -0.22252309044E+03  0.78499793076E+03 -0.11457060821E+04  0.14065497917E+04  0.12699999809E+01 0.  1.
</event>
<event>
 5   0  0.9878336E-07  0.3587314E+04  0.7818609E-02  0.8093404E-01
       -2   -1    0    0    0  501  0.00000000000E+00  0.00000000000E+00  0.17018480504E+04  0.17018480504E+04  0.25500000920E-02 0.  1.
        2   -1    0    0  501    0  0.00000000000E+00  0.00000000000E+00 -0.18904192106E+04  0.18904192106E+04  0.25500000920E-02 0. -1.
    10030    2    1    2    0    0  0.00000000000E+00  0.00000000000E+00 -0.18857116012E+03  0.35922672610E+04  0.35873144540E+04 0.  0.
        3    1    3    3  502    0  0.12541172132E+04  0.51948642706E+03  0.10797366519E+04  0.17345049380E+04  0.10100000352E+00 0.  1.
       -3    1    3    3    0  502 -0.12541172132E+04 -0.51948642706E+03 -0.12683078120E+04  0.18577623230E+04  0.10100000352E+00 0. -1.
</event>
<event>
 5   0  0.3242047E-07  0.3039762E+04  0.7818609E-02  0.8232467E-01
       -1   -1    0    0    0  501  0.00000000000E+00  0.00000000000E+00  0.12671410965E+04  0.12671410965E+04  0.50400001928E-02 0. -1.
        1   -1    0    0  501    0  0.00000000000E+00  0.00000000000E+00 -0.18230312084E+04  0.18230312084E+04  0.50400001928E-02 0.  1.
    10030    2    1    2    0    0  0.00000000000E+00  0.00000000000E+00 -0.55589011189E+03  0.30901723050E+04  0.30397616778E+04 0.  0.
        1    1    3    3  502    0  0.19725465425E+03  0.11747548884E+04  0.68167947705E+03  0.13724596008E+04  0.50400001928E-02 0. -1.
       -1    1    3    3    0  502 -0.19725465425E+03 -0.11747548884E+04 -0.12375695889E+04  0.17177127041E+04  0.50400001928E-02 0.  1.
</event>
<event>
 5   0  0.9878336E-07  0.3592621E+04  0.7818609E-02  0.8092184E-01
       -2   -1    0    0    0  501  0.00000000000E+00  0.00000000000E+00  0.17754822156E+04  0.17754822156E+04  0.25500000920E-02 0. -1.
        2   -1    0    0  501    0  0.00000000000E+00  0.00000000000E+00 -0.18173829730E+04  0.18173829730E+04  0.25500000920E-02 0.  1.
    10030    2    1    2    0    0  0.00000000000E+00  0.00000000000E+00 -0.41900757388E+02  0.35928651887E+04  0.35926208526E+04 0.  0.
        3    1    3    3  502    0  0.16030094289E+04 -0.73077459191E+03  0.32987314291E+03  0.17923412159E+04  0.10100000352E+00 0. -1.
       -3    1    3    3    0  502 -0.16030094289E+04  0.73077459191E+03 -0.37177390030E+03  0.18005239728E+04  0.10100000352E+00 0.  1.
</event>
<event>
 5   0  0.9538919E-07  0.3482300E+04  0.7818609E-02  0.8117998E-01
        2   -1    0    0  501    0  0.00000000000E+00  0.00000000000E+00  0.17490919579E+04  0.17490919579E+04  0.25500000920E-02 0. -1.
       -2   -1    0    0    0  501  0.00000000000E+00  0.00000000000E+00 -0.17332439286E+04  0.17332439286E+04  0.25500000920E-02 0.  1.
    10030    2    1    2    0    0  0.00000000000E+00  0.00000000000E+00  0.15848029371E+02  0.34823358865E+04  0.34822998243E+04 0.  0.
        4    1    3    3  502    0 -0.20501106281E+03 -0.40452330049E+03 -0.16731444840E+04  0.17335174397E+04  0.12699999809E+01 0.  1.
       -4    1    3    3    0  502  0.20501106281E+03  0.40452330049E+03  0.16889925134E+04  0.17488184468E+04  0.12699999809E+01 0. -1.
</event>
<event>
 5   0  0.3278988E-07  0.3362801E+04  0.7818609E-02  0.8147097E-01
        1   -1    0    0  501    0  0.00000000000E+00  0.00000000000E+00  0.15118356179E+04  0.15118356179E+04  0.50400001928E-02 0.  1.
       -1   -1    0    0    0  501  0.00000000000E+00  0.00000000000E+00 -0.18699829815E+04  0.18699829815E+04  0.50400001928E-02 0. -1.
    10030    2    1    2    0    0  0.00000000000E+00  0.00000000000E+00 -0.35814736361E+03  0.33818185994E+04  0.33628005450E+04 0.  0.
        4    1    3    3  502    0  0.99083935671E+02  0.47695865032E+03 -0.17974598267E+04  0.18623025055E+04  0.12699999809E+01 0. -1.
       -4    1    3    3    0  502 -0.99083935671E+02 -0.47695865032E+03  0.14393124631E+04  0.15195160939E+04  0.12699999809E+01 0.  1.
</event>
<event>
 5   0  0.3242047E-07  0.3620387E+04  0.7818609E-02  0.8085838E-01
        1   -1    0    0  501    0  0.00000000000E+00  0.00000000000E+00  0.28444114169E+04  0.28444114169E+04  0.50400001928E-02 0.  1.
       -1   -1    0    0    0  501  0.00000000000E+00  0.00000000000E+00 -0.11520133202E+04  0.11520133202E+04  0.50400001928E-02 0. -1.
    10030    2    1    2    0    0  0.00000000000E+00  0.00000000000E+00  0.16923980967E+04  0.39964247371E+04  0.36203866315E+04 0.  0.
        1    1    3    3  502    0 -0.94200940079E+03 -0.12018843756E+04 -0.22682088435E+03  0.15438119954E+04  0.50400001928E-02 0. -1.
       -1    1    3    3    0  502  0.94200940079E+03  0.12018843756E+04  0.19192189810E+04  0.24526127417E+04  0.50400001928E-02 0.  1.
</event>
<event>
 5   0  0.1031659E-06  0.2617712E+04  0.7818609E-02  0.8362210E-01
       -2   -1    0    0    0  501  0.00000000000E+00  0.00000000000E+00  0.80540430425E+03  0.80540430426E+03  0.25500000920E-02 0.  1.
        2   -1    0    0  501    0  0.00000000000E+00  0.00000000000E+00 -0.21270113087E+04  0.21270113087E+04  0.25500000920E-02 0. -1.
    10030    2    1    2    0    0  0.00000000000E+00  0.00000000000E+00 -0.13216070045E+04  0.29324156130E+04  0.26177120264E+04 0.  0.
        2    1    3    3  502    0  0.13026969823E+04 -0.12557006063E+03 -0.64086497021E+03  0.14572217325E+04  0.25500000920E-02 0. -1.
       -2    1    3    3    0  502 -0.13026969823E+04  0.12557006063E+03 -0.68074203429E+03  0.14751938805E+04  0.25500000920E-02 0.  1.
</event>
<event>
 5   0  0.9878336E-07  0.3562934E+04  0.7818609E-02  0.8099035E-01
       -2   -1    0    0    0  501  0.00000000000E+00  0.00000000000E+00  0.17089264311E+04  0.17089264311E+04  0.25500000920E-02 0.  1.
        2   -1    0    0  501    0  0.00000000000E+00  0.00000000000E+00 -0.18570867537E+04  0.18570867537E+04  0.25500000920E-02 0. -1.
    10030    2    1    2    0    0  0.00000000000E+00  0.00000000000E+00 -0.14816032262E+03  0.35660131847E+04  0.35629339810E+04 0.  0.
        3    1    3    3  502    0 -0.10337812515E+04 -0.85703892722E+03 -0.12457349529E+04  0.18316863765E+04  0.10100000352E+00 0. -1.
       -3    1    3    3    0  502  0.10337812515E+04  0.85703892722E+03  0.10975746303E+04  0.17343268083E+04  0.10100000352E+00 0.  1.
</event>
<event>
 5   0  0.3278988E-07  0.3532040E+04  0.7818609E-02  0.8106239E-01
       -1   -1    0    0    0  501  0.00000000000E+00  0.00000000000E+00  0.15631856453E+04  0.15631856453E+04  0.50400001928E-02 0.  1.
        1   -1    0    0  501    0  0.00000000000E+00  0.00000000000E+00 -0.19951738632E+04  0.19951738633E+04  0.50400001928E-02 0. -1.
    10030    2    1    2    0    0  0.00000000000E+00  0.00000000000E+00 -0.43198821798E+03  0.35583595085E+04  0.35320402845E+04 0.  0.
        4    1    3    3  502    0  0.14525920193E+04 -0.17143702642E+03  0.78103245823E+03  0.16581397837E+04  0.12699999809E+01 0.  1.
       -4    1    3    3    0  502 -0.14525920193E+04  0.17143702642E+03 -0.12130206762E+04  0.19002197248E+04  0.12699999809E+01 0. -1.
</event>
<event>
 5   0  0.3159875E-07  0.3799853E+04  0.7818609E-02  0.8046186E-01
        1   -1    0    0  501    0  0.00000000000E+00  0.00000000000E+00  0.25601047887E+04  0.25601047887E+04  0.50400001928E-02 0. -1.
       -1   -1    0    0    0  501  0.00000000000E+00  0.00000000000E+00 -0.14099893525E+04  0.14099893526E+04  0.50400001928E-02 0.  1.
    10030    2    1    2    0    0  0.00000000000E+00  0.00000000000E+00  0.11501154361E+04  0.39700941412E+04  0.37998528884E+04 0.  0.
        2    1    3    3  502    0 -0.36640572234E+03 -0.13572180161E+04 -0.76025760709E+03  0.15982132292E+04  0.25500000920E-02 0.  1.
       -2    1    3    3    0  502  0.36640572234E+03  0.13572180161E+04  0.19103730432E+04  0.23718809120E+04  0.25500000920E-02 0. -1.
</event>
<event>
 5   0  0.3242047E-07  0.3523045E+04  0.7818609E-02  0.8108350E-01
        1   -1    0    0  501    0  0.00000000000E+00  0.00000000000E+00  0.11159622947E+04  0.11159622947E+04  0.50400001928E-02 0.  1.
       -1   -1    0    0    0  501  0.00000000000E+00  0.00000000000E+00 -0.27805253539E+04  0.27805253540E+04  0.50400001928E-02 0. -1.
    10030    2    1    2    0    0  0.00000000000E+00  0.00000000000E+00 -0.16645630593E+04  0.38964876487E+04  0.35230449639E+04 0.  0.
        1    1    3    3  502    0 -0.16742333963E+04  0.37540113626E+03 -0.12732663088E+04  0.21366306587E+04  0.50400001928E-02 0.  1.
       -1    1    3    3    0  502  0.16742333963E+04 -0.37540113626E+03 -0.39129675042E+03  0.17598569900E+04  0.50400001928E-02 0. -1.
</event>
<event>
 5   0  0.1031659E-06  0.3562170E+04  0.7818609E-02  0.8099212E-01
        2   -1    0    0  501    0  0.00000000000E+00  0.00000000000E+00  0.14558374135E+04  0.14558374135E+04  0.25500000920E-02 0.  1.
       -2   -1    0    0    0  501  0.00000000000E+00  0.00000000000E+00 -0.21789960292E+04  0.21789960292E+04  0.25500000920E-02 0. -1.
    10030    2    1    2    0    0  0.00000000000E+00  0.00000000000E+00 -0.72315861565E+03  0.36348334428E+04  0.35621700932E+04 0.  0.
        2    1    3    3  502    0  0.10566095602E+04  0.68817727188E+03 -0.16451143185E+04  0.20727790141E+04  0.25500000920E-02 0. -1.
       -2    1    3    3    0  502 -0.10566095602E+04 -0.68817727188E+03  0.92195570286E+03  0.15620544287E+04  0.25500000920E-02 0.  1.
</event>
<event>
 5   0  0.3159875E-07  0.3599594E+04  0.7818609E-02  0.8090585E-01
       -1   -1    0    0    0  501  0.00000000000E+00  0.00000000000E+00  0.15175453552E+04  0.15175453552E+04  0.50400001928E-02 0. -1.
        1   -1    0    0  501    0  0.00000000000E+00  0.00000000000E+00 -0.21345457360E+04  0.21345457361E+04  0.50400001928E-02 0.  1.
    10030    2    1    2    0    0  0.00000000000E+00  0.00000000000E+00 -0.61700038083E+03  0.36520910913E+04  0.35995944034E+04 0.  0.
        5    1    3    3  502    0  0.70002843085E+03 -0.11422153759E+04  0.91092353239E+03  0.16200307222E+04  0.46999998093E+01 0. -1.
       -5    1    3    3    0  502 -0.70002843085E+03  0.11422153759E+04 -0.15279239132E+04  0.20320603691E+04  0.46999998093E+01 0.  1.
</event>
<event>
 5   0  0.3365378E-07  0.3623545E+04  0.7818609E-02  0.8085120E-01
        1   -1    0    0  501    0  0.00000000000E+00  0.00000000000E+00  0.23044678098E+04  0.23044678099E+04  0.50400001928E-02 0. -1.
       -1   -1    0    0    0  501  0.00000000000E+00  0.00000000000E+00 -0.14244154380E+04  0.14244154381E+04  0.50400001928E-02 0.  1.
    10030    2    1    2    0    0  0.00000000000E+00  0.00000000000E+00  0.88005237180E+03  0.37288832479E+04  0.36235449631E+04 0.  0.
        3    1    3    3  502    0 -0.15430943409E+04 -0.90471353543E+03  0.73627123902E+03  0.19343583106E+04  0.10100000352E+00 0.  1.
       -3    1    3    3    0  502  0.15430943409E+04  0.90471353543E+03  0.14378113279E+03  0.17945249373E+04  0.10100000352E+00 0. -1.
</event>
<event>
 5   0  0.9878336E-07  0.3464695E+04  0.7818609E-02  0.8122208E-01
       -2   -1    0    0    0  501  0.00000000000E+00  0.00000000000E+00  0.16635787251E+04  0.16635787251E+04  0.25500000920E-02 0. -1.
        2   -1    0    0  501    0  0.00000000000E+00  0.00000000000E+00 -0.18039585607E+04  0.18039585607E+04  0.25500000920E-02 0.  1.
    10030    2    1    2    0    0  0.00000000000E+00  0.00000000000E+00 -0.14037983565E+03  0.34675372858E+04  0.34646945508E+04 0.  0.
        3    1    3    3  502    0 -0.61821917351E+03 -0.22864918304E+03 -0.16735504658E+04  0.17986791173E+04  0.10100000352E+00 0.  1.
       -3    1    3    3    0  502  0.61821917351E+03  0.22864918304E+03  0.15331706301E+04  0.16688581685E+04  0.10100000352E+00 0. -1.
</event>
<event>
 5   0  0.9878336E-07  0.3688885E+04  0.7818609E-02  0.8070429E-01
        2   -1    0    0  501    0  0.00000000000E+00  0.00000000000E+00  0.20757565088E+04  0.20757565088E+04  0.25500000920E-02 0.  1.
       -2   -1    0    0    0  501  0.00000000000E+00  0.00000000000E+00 -0.16389054190E+04  0.16389054190E+04  0.25500000920E-02 0. -1.
    10030    2    1    2    0    0  0.00000000000E+00  0.00000000000E+00  0.43685108986E+03  0.37146619278E+04  0.36888852467E+04 0.  0.
        3    1    3    3  502    0 -0.11702484081E+04  0.14175098349E+03  0.16469268635E+04  0.20253253521E+04  0.10100000352E+00 0.  1.
       -3    1    3    3    0  502  0.11702484081E+04 -0.14175098349E+03 -0.12100757736E+04  0.16893365757E+04  0.10100000352E+00 0. -1.
</event>
<event>
 5   0  0.3242047E-07  0.3098986E+04  0.7818609E-02  0.8216016E-01
        1   -1    0    0  501    0  0.00000000000E+00  0.00000000000E+00  0.21690395664E+04  0.21690395665E+04  0.50400001928E-02 0. -1.
       -1   -1    0    0    0  501  0.00000000000E+00  0.00000000000E+00 -0.11069087634E+04  0.11069087634E+04  0.50400001928E-02 0.  1.
    10030    2    1    2    0    0  0.00000000000E+00  0.00000000000E+00  0.10621308031E+04  0.32759483298E+04  0.30989862240E+04 0.  0.
        1    1    3    3  502    0 -0.57931177388E+03 -0.65409399844E+03 -0.82165000343E+03  0.11993956054E+04  0.50400001928E-02 0.  1.
       -1    1    3    3    0  502  0.57931177388E+03  0.65409399844E+03  0.18837808065E+04  0.20765527244E+04  0.50400001928E-02 0. -1.
</event>
<event>
 5   0  0.1006019E-06  0.2839565E+04  0.7818609E-02  0.8291089E-01
        2   -1    0    0  501    0  0.00000000000E+00  0.00000000000E+00  0.21376340101E+04  0.21376340101E+04  0.25500000920E-02 0.  1.
       -2   -1    0    0    0  501  0.00000000000E+00  0.00000000000E+00 -0.94299662384E+03  0.94299662384E+03  0.25500000920E-02 0. -1.
    10030    2    1    2    0    0  0.00000000000E+00  0.00000000000E+00  0.11946373862E+04  0.30806306339E+04  0.28395645120E+04 0.  0.
        1    1    3    3  502    0 -0.53179901012E+03 -0.24905287913E+03  0.19997088487E+04  0.20841480282E+04  0.50400001928E-02 0.  1.
       -1    1    3    3    0  502  0.53179901012E+03  0.24905287913E+03 -0.80507146248E+03  0.99648260572E+03  0.50400001928E-02 0. -1.
</event>
<event>
 5   0  0.3159875E-07  0.2574548E+04  0.7818609E-02  0.8376898E-01
        1   -1    0    0  501    0  0.00000000000E+00  0.00000000000E+00  0.19856637185E+04  0.19856637185E+04  0.50400001928E-02 0. -1.
       -1   -1    0    0    0  501  0.00000000000E+00  0.00000000000E+00 -0.83451943677E+03  0.83451943678E+03  0.50400001928E-02 0.  1.
    10030    2    1    2    0    0  0.00000000000E+00  0.00000000000E+00  0.11511442818E+04  0.28201831553E+04  0.25745484793E+04 0.  0.
        2    1    3    3  502    0 -0.82499878700E+03 -0.35970877610E+03  0.15837420445E+04  0.18216070558E+04  0.25500000920E-02 0. -1.
       -2    1    3    3    0  502  0.82499878700E+03  0.35970877610E+03 -0.43259776276E+03  0.99857609951E+03  0.25500000920E-02 0.  1.
</event>
<event>
 5   0  0.3242047E-07  0.3726224E+04  0.7818609E-02  0.8062175E-01
       -1   -1    0    0    0  501  0.00000000000E+00  0.00000000000E+00  0.15833278851E+04  0.15833278851E+04  0.50400001928E-02 0. -1.
        1   -1    0    0  501    0  0.00000000000E+00  0.00000000000E+00 -0.21923361915E+04  0.21923361915E+04  0.50400001928E-02 0.  1.
    10030    2    1    2    0    0  0.00000000000E+00  0.00000000000E+00 -0.60900830639E+03  0.37756640766E+04  0.37262243762E+04 0.  0.
        1    1    3    3  502    0  0.12367756437E+04  0.13212113923E+04 -0.75306669913E+03  0.19601844274E+04  0.50400001928E-02 0.  1.
       -1    1    3    3    0  502 -0.12367756437E+04 -0.13212113923E+04  0.14405839274E+03  0.18154796492E+04  0.50400001928E-02 0. -1.
</event>
<event>
 5   0  0.3159875E-07  0.3592831E+04  0.7818609E-02  0.8092136E-01
       -1   -1    0    0    0  501  0.00000000000E+00  0.00000000000E+00  0.15251684452E+04  0.15251684452E+04  0.50400001928E-02 0. -1.
        1   -1    0    0  501    0  0.00000000000E+00  0.00000000000E+00 -0.21159033772E+04  0.21159033772E+04  0.50400001928E-02 0.  1.
    10030    2    1    2    0    0  0.00000000000E+00  0.00000000000E+00 -0.59073493200E+03  0.36410718224E+04  0.35928312312E+04 0.  0.
        2    1    3    3  502    0 -0.38075472619E+03 -0.17246916185E+04  0.37020681540E+02  0.17666085790E+04  0.25500000920E-02 0.  1.
       -2    1    3    3    0  502  0.38075472619E+03  0.17246916185E+04 -0.62775561354E+03  0.18744632434E+04  0.25500000920E-02 0. -1.
</event>
<event>
 5   0  0.1006019E-06  0.3598886E+04  0.7818609E-02  0.8090747E-01
       -2   -1    0    0    0  501  0.00000000000E+00  0.00000000000E+00  0.15893924281E+04  0.15893924281E+04  0.25500000920E-02 0.  1.
        2   -1    0    0  501    0  0.00000000000E+00  0.00000000000E+00 -0.20372530234E+04  0.20372530234E+04  0.25500000920E-02 0. -1.
    10030    2    1    2    0    0  0.00000000000E+00  0.00000000000E+00 -0.44786059528E+03  0.36266454515E+04  0.35988856773E+04 0.  0.
        1    1    3    3  502    0  0.12467170477E+03  0.10724232563E+04 -0.16746036531E+04  0.19924688378E+04  0.50400001928E-02 0. -1.
       -1    1    3    3    0  502 -0.12467170477E+03 -0.10724232563E+04  0.12267430579E+04  0.16341766137E+04  0.50400001928E-02 0.  1.
</event>
<event>
 5   0  0.3278988E-07  0.3795124E+04  0.7818609E-02  0.8047202E-01
        1   -1    0    0  501    0  0.00000000000E+00  0.00000000000E+00  0.22259285483E+04  0.22259285483E+04  0.50400001928E-02 0.  1.
       -1   -1    0    0    0  501  0.00000000000E+00  0.00000000000E+00 -0.16176354603E+04  0.16176354603E+04  0.50400001928E-02 0. -1.
    10030    2    1    2    0    0  0.00000000000E+00  0.00000000000E+00  0.60829308802E+03  0.38435640086E+04  0.37951236880E+04 0.  0.
        4    1    3    3  502    0 -0.41402280133E+03 -0.56751956533E+03  0.20893840495E+04  0.22043186376E+04  0.12699999809E+01 0.  1.
       -4    1    3    3    0  502  0.41402280133E+03  0.56751956533E+03 -0.14810909615E+04  0.16392453709E+04  0.12699999809E+01 0. -1.
</event>
<event>
 5   0  0.3159875E-07  0.3426830E+04  0.7818609E-02  0.8131353E-01
       -1   -1    0    0    0  501  0.00000000000E+00  0.00000000000E+00  0.12393151528E+04  0.12393151528E+04  0.50400001928E-02 0. -1.
        1   -1    0    0  501    0  0.00000000000E+00  0.00000000000E+00 -0.23688816955E+04  0.23688816955E+04  0.50400001928E-02 0.  1.
    10030    2    1    2    0    0  0.00000000000E+00  0.00000000000E+00 -0.11295665427E+04  0.36081968483E+04  0.34268300106E+04 0.  0.
        2    1    3    3  502    0 -0.32372985083E+03  0.14385802897E+04  0.35402728207E+03  0.15164595552E+04  0.25500000920E-02 0. -1.
       -2    1    3    3    0  502  0.32372985083E+03 -0.14385802897E+04 -0.14835938248E+04  0.20917372931E+04  0.25500000920E-02 0.  1.
</event>
<event>
 5   0  0.1031659E-06  0.3617240E+04  0.7818609E-02  0.8086554E-01
        2   -1    0    0  501    0  0.00000000000E+00  0.00000000000E+00  0.16239737978E+04  0.16239737978E+04  0.25500000920E-02 0.  1.
       -2   -1    0    0    0  501  0.00000000000E+00  0.00000000000E+00 -0.20142610426E+04  0.20142610426E+04  0.25500000920E-02 0. -1.
    10030    2    1    2    0    0  0.00000000000E+00  0.00000000000E+00 -0.39028724483E+03  0.36382348404E+04  0.36172404703E+04 0.  0.
        2    1    3    3  502    0 -0.52099547592E+03  0.91282256442E+03  0.12852774570E+04  0.16603070383E+04  0.25500000920E-02 0.  1.
       -2    1    3    3    0  502  0.52099547592E+03 -0.91282256442E+03 -0.16755647018E+04  0.19779278020E+04  0.25500000920E-02 0. -1.
</event>
<event>
 5   0  0.3365378E-07  0.3523659E+04  0.7818609E-02  0.8108206E-01
       -1   -1    0    0    0  501  0.00000000000E+00  0.00000000000E+00  0.21047854494E+04  0.21047854494E+04  0.50400001928E-02 0.  1.
        1   -1    0    0  501    0  0.00000000000E+00  0.00000000000E+00 -0.14747547694E+04  0.14747547694E+04  0.50400001928E-02 0. -1.
    10030    2    1    2    0    0  0.00000000000E+00  0.00000000000E+00  0.63003067997E+03  0.35795402188E+04  0.35236585419E+04 0.  0.
        3    1    3    3  502    0 -0.11776213426E+04 -0.11240940595E+04  0.99924210186E+03  0.19102000601E+04  0.10100000352E+00 0. -1.
       -3    1    3    3    0  502  0.11776213426E+04  0.11240940595E+04 -0.36921142189E+03  0.16693401587E+04  0.10100000352E+00 0.  1.
</event>
<event>
 5   0  0.9878977E-07  0.3608547E+04  0.7818609E-02  0.8088537E-01
       -2   -1    0    0    0  501  0.00000000000E+00  0.00000000000E+00  0.16857904297E+04  0.16857904297E+04  0.25500000920E-02 0.  1.
        2   -1    0    0  501    0  0.00000000000E+00  0.00000000000E+00 -0.19310835834E+04  0.19310835834E+04  0.25500000920E-02 0. -1.
    10030    2    1    2    0    0  0.00000000000E+00  0.00000000000E+00 -0.24529315369E+03  0.36168740131E+04  0.36085466459E+04 0.  0.
        5    1    3    3  502    0 -0.40861374769E+03 -0.13609655279E+04  0.99175900612E+03  0.17328590188E+04  0.46999998093E+01 0.  1.
       -5    1    3    3    0  502  0.40861374769E+03  0.13609655279E+04 -0.12370521598E+04  0.18840149943E+04  0.46999998093E+01 0. -1.
</event>
<event>
 5   0  0.3365378E-07  0.3634116E+04  0.7818609E-02  0.8082721E-01
        1   -1    0    0  501    0  0.00000000000E+00  0.00000000000E+00  0.15281164230E+04  0.15281164230E+04  0.50400001928E-02 0. -1.
       -1   -1    0    0    0  501  0.00000000000E+00  0.00000000000E+00 -0.21606334857E+04  0.21606334857E+04  0.50400001928E-02 0.  1.
    10030    2    1    2    0    0  0.00000000000E+00  0.00000000000E+00 -0.63251706271E+03  0.36887499087E+04  0.36341158559E+04 0.  0.
        3    1    3    3  502    0  0.40963759822E+03  0.13549957776E+04  0.84011518681E+03  0.16460893221E+04  0.10100000352E+00 0.  1.
       -3    1    3    3    0  502 -0.40963759822E+03 -0.13549957776E+04 -0.14726322495E+04  0.20426605865E+04  0.10100000352E+00 0. -1.
</event>
<event>
 5   0  0.1031659E-06  0.3527641E+04  0.7818609E-02  0.8107271E-01
        2   -1    0    0  501    0  0.00000000000E+00  0.00000000000E+00  0.19441476562E+04  0.19441476562E+04  0.25500000920E-02 0. -1.
       -2   -1    0    0    0  501  0.00000000000E+00  0.00000000000E+00 -0.16002191232E+04  0.16002191232E+04  0.25500000920E-02 0.  1.
    10030    2    1    2    0    0  0.00000000000E+00  0.00000000000E+00  0.34392853304E+03  0.35443667794E+04  0.35276407174E+04 0.  0.
        2    1    3    3  502    0 -0.16075406749E+03  0.42702220137E+03 -0.15398958973E+04  0.16060726028E+04  0.25500000920E-02 0.  1.
       -2    1    3    3    0  502  0.16075406749E+03 -0.42702220137E+03  0.18838244304E+04  0.19382941766E+04  0.25500000920E-02 0. -1.
</event>
<event>
 5   0  0.9538919E-07  0.3539787E+04  0.7818609E-02  0.8104425E-01
        2   -1    0    0  501    0  0.00000000000E+00  0.00000000000E+00  0.15260886548E+04  0.15260886549E+04  0.25500000920E-02 0. -1.
       -2   -1    0    0    0  501  0.00000000000E+00  0.00000000000E+00 -0.20526480798E+04  0.20526480798E+04  0.25500000920E-02 0.  1.
    10030    2    1    2    0    0  0.00000000000E+00  0.00000000000E+00 -0.52655942496E+03  0.35787367347E+04  0.35397869693E+04 0.  0.
        4    1    3    3  502    0 -0.97206340677E+03  0.78293485660E+03  0.10053692912E+04  0.16027049888E+04  0.12699999809E+01 0. -1.
       -4    1    3    3    0  502  0.97206340677E+03 -0.78293485660E+03 -0.15319287162E+04  0.19760317459E+04  0.12699999809E+01 0.  1.
</event>
<event>
 5   0  0.3242047E-07  0.3670782E+04  0.7818609E-02  0.8074468E-01
       -1   -1    0    0    0  501  0.00000000000E+00  0.00000000000E+00  0.16537953130E+04  0.16537953130E+04  0.50400001928E-02 0. -1.
        1   -1    0    0  501    0  0.00000000000E+00  0.00000000000E+00 -0.20369271395E+04  0.20369271395E+04  0.50400001928E-02 0.  1.
    10030    2    1    2    0    0  0.00000000000E+00  0.00000000000E+00 -0.38313182651E+03  0.36907224525E+04  0.36707822361E+04 0.  0.
        1    1    3    3  502    0 -0.12123220249E+04 -0.11434389007E+04  0.58169138089E+03  0.17650898205E+04  0.50400001928E-02 0.  1.
       -1    1    3    3    0  502  0.12123220249E+04  0.11434389007E+04 -0.96482320740E+03  0.19256326320E+04  0.50400001928E-02 0. -1.
</event>
<event>
 5   0  0.9878336E-07  0.3541757E+04  0.7818609E-02  0.8103965E-01
        2   -1    0    0  501    0  0.00000000000E+00  0.00000000000E+00  0.15744942922E+04  0.15744942922E+04  0.25500000920E-02 0.  1.
       -2   -1    0    0    0  501  0.00000000000E+00  0.00000000000E+00 -0.19917577222E+04  0.19917577222E+04  0.25500000920E-02 0. -1.
    10030    2    1    2    0    0  0.00000000000E+00  0.00000000000E+00 -0.41726343004E+03  0.35662520144E+04  0.35417572842E+04 0.  0.
        3    1    3    3  502    0  0.16765224926E+04  0.42562716181E+03  0.17363184787E+03  0.17383998900E+04  0.10100000352E+00 0. -1.
       -3    1    3    3    0  502 -0.16765224926E+04 -0.42562716181E+03 -0.59089527791E+03  0.18278521244E+04  0.10100000352E+00 0.  1.
</event>
<event>
 5   0  0.1031659E-06  0.3494396E+04  0.7818609E-02  0.8115119E-01
       -2   -1    0    0    0  501  0.00000000000E+00  0.00000000000E+00  0.14073090932E+04  0.14073090932E+04  0.25500000920E-02 0. -1.
        2   -1    0    0  501    0  0.00000000000E+00  0.00000000000E+00 -0.21691759409E+04  0.21691759409E+04  0.25500000920E-02 0.  1.
    10030    2    1    2    0    0  0.00000000000E+00  0.00000000000E+00 -0.76186684770E+03  0.35764850341E+04  0.34943961003E+04 0.  0.
        2    1    3    3  502    0 -0.31228489240E+03 -0.17094647480E+04 -0.56660463817E+03  0.18277944071E+04  0.25500000920E-02 0. -1.
       -2    1    3    3    0  502  0.31228489240E+03  0.17094647480E+04 -0.19526220953E+03  0.17486906270E+04  0.25500000920E-02 0.  1.
</event>
<event>
 5   0  0.3365378E-07  0.3298289E+04  0.7818609E-02  0.8163331E-01
        1   -1    0    0  501    0  0.00000000000E+00  0.00000000000E+00  0.21960857653E+04  0.21960857654E+04  0.50400001928E-02 0.  1.
       -1   -1    0    0    0  501  0.00000000000E+00  0.00000000000E+00 -0.12384202138E+04  0.12384202138E+04  0.50400001928E-02 0. -1.
    10030    2    1    2    0    0  0.00000000000E+00  0.00000000000E+00  0.95766555151E+03  0.34345059792E+04  0.32982886491E+04 0.  0.
        3    1    3    3  502    0  0.13632232578E+04 -0.88512620205E+03  0.18829167932E+03  0.16362395335E+04  0.10100000352E+00 0. -1.
       -3    1    3    3    0  502 -0.13632232578E+04  0.88512620205E+03  0.76937387220E+03  0.17982664457E+04  0.10100000352E+00 0.  1.
</event>
<event>
 5   0  0.3159875E-07  0.3626611E+04  0.7818609E-02  0.8084423E-01
        1   -1    0    0  501    0  0.00000000000E+00  0.00000000000E+00  0.13502118566E+04  0.13502118566E+04  0.50400001928E-02 0. -1.
       -1   -1    0    0    0  501  0.00000000000E+00  0.00000000000E+00 -0.24352308356E+04  0.24352308356E+04  0.50400001928E-02 0.  1.
    10030    2    1    2    0    0  0.00000000000E+00  0.00000000000E+00 -0.10850189790E+04  0.37854426922E+04  0.36266113924E+04 0.  0.
        5    1    3    3  502    0 -0.33355746751E+03 -0.14335341444E+04  0.56301528813E+03  0.15758454975E+04  0.46999998093E+01 0.  1.
       -5    1    3    3    0  502  0.33355746751E+03  0.14335341444E+04 -0.16480342671E+04  0.22095971947E+04  0.46999998093E+01 0. -1.
</event>
<event>
 5   0  0.3278988E-07  0.3500742E+04  0.7818609E-02  0.8113614E-01
        1   -1    0    0  501    0  0.00000000000E+00  0.00000000000E+00  0.17142273923E+04  0.17142273923E+04  0.50400001928E-02 0. -1.
       -1   -1    0    0    0  501  0.00000000000E+00  0.00000000000E+00 -0.17872766691E+04  0.17872766691E+04  0.50400001928E-02 0.  1.
    10030    2    1    2    0    0  0.00000000000E+00  0.00000000000E+00 -0.73049276818E+02  0.35015040613E+04  0.35007419920E+04 0.  0.
        4    1    3    3  502    0 -0.10219663967E+04  0.11688309660E+04 -0.84491828816E+03  0.17676169466E+04  0.12699999809E+01 0.  1.
       -4    1    3    3    0  502  0.10219663967E+04 -0.11688309660E+04  0.77186901134E+03  0.17338871148E+04  0.12699999809E+01 0. -1.
</event>
<event>
 5   0  0.9878336E-07  0.3590137E+04  0.7818609E-02  0.8092755E-01
       -2   -1    0    0    0  501  0.00000000000E+00  0.00000000000E+00  0.14154627283E+04  0.14154627283E+04  0.25500000920E-02 0.  1.
        2   -1    0    0  501    0  0.00000000000E+00  0.00000000000E+00 -0.22764790818E+04  0.22764790818E+04  0.25500000920E-02 0. -1.
    10030    2    1    2    0    0  0.00000000000E+00  0.00000000000E+00 -0.86101635350E+03  0.36919418100E+04  0.35901372074E+04 0.  0.
        3    1    3    3  502    0 -0.37175319144E+03  0.24044821628E+03  0.13584352084E+04  0.14287624035E+04  0.10100000352E+00 0.  1.
       -3    1    3    3    0  502  0.37175319144E+03 -0.24044821628E+03 -0.22194515619E+04  0.22631794065E+04  0.10100000352E+00 0. -1.
</event>
<event>
 5   0  0.1031659E-06  0.3533950E+04  0.7818609E-02  0.8105791E-01
        2   -1    0    0  501    0  0.00000000000E+00  0.00000000000E+00  0.23550962619E+04  0.23550962619E+04  0.25500000920E-02 0.  1.
       -2   -1    0    0    0  501  0.00000000000E+00  0.00000000000E+00 -0.13257211350E+04  0.13257211350E+04  0.25500000920E-02 0. -1.
    10030    2    1    2    0    0  0.00000000000E+00  0.00000000000E+00  0.10293751270E+04  0.36808173969E+04  0.35339501351E+04 0.  0.
        2    1    3    3  502    0 -0.40610687930E+03  0.16135463485E+04  0.11341711332E+04  0.20136530921E+04  0.25500000920E-02 0.  1.
       -2    1    3    3    0  502  0.40610687930E+03 -0.16135463485E+04 -0.10479600623E+03  0.16671643047E+04  0.25500000920E-02 0. -1.
</event>
<event>
 5   0  0.9538919E-07  0.3293822E+04  0.7818609E-02  0.8164469E-01
        2   -1    0    0  501    0  0.00000000000E+00  0.00000000000E+00  0.13671938859E+04  0.13671938859E+04  0.25500000920E-02 0. -1.
       -2   -1    0    0    0  501  0.00000000000E+00  0.00000000000E+00 -0.19838556137E+04  0.19838556137E+04  0.25500000920E-02 0.  1.
    10030    2    1    2    0    0  0.00000000000E+00  0.00000000000E+00 -0.61666172778E+03  0.33510494996E+04  0.32938216500E+04 0.  0.
        4    1    3    3  502    0 -0.88405383420E+03 -0.91448837763E+03  0.75601648852E+03  0.14796630422E+04  0.12699999809E+01 0. -1.
       -4    1    3    3    0  502  0.88405383420E+03  0.91448837763E+03 -0.13726782163E+04  0.18713864574E+04  0.12699999809E+01 0.  1.
</event>
<event>
 5   0  0.3159875E-07  0.3593216E+04  0.7818609E-02  0.8092047E-01
       -1   -1    0    0    0  501  0.00000000000E+00  0.00000000000E+00  0.17287893589E+04  0.17287893589E+04  0.50400001928E-02 0.  1.
        1   -1    0    0  501    0  0.00000000000E+00  0.00000000000E+00 -0.18670869056E+04  0.18670869056E+04  0.50400001928E-02 0. -1.
    10030    2    1    2    0    0  0.00000000000E+00  0.00000000000E+00 -0.13829754665E+03  0.35958762645E+04  0.35932158157E+04 0.  0.
        2    1    3    3  502    0 -0.32084070621E+03 -0.17561868222E+04 -0.27096380548E+03  0.18056999466E+04  0.25500000920E-02 0.  1.
       -2    1    3    3    0  502  0.32084070621E+03  0.17561868222E+04  0.13266625884E+03  0.17901763180E+04  0.25500000920E-02 0. -1.
</event>
<event>
 5   0  0.9878336E-07  0.3499080E+04  0.7818609E-02  0.8114008E-01
        2   -1    0    0  501    0  0.00000000000E+00  0.00000000000E+00  0.16798728847E+04  0.16798728847E+04  0.25500000920E-02 0. -1.
       -2   -1    0    0    0  501  0.00000000000E+00  0.00000000000E+00 -0.18220966873E+04  0.18220966873E+04  0.25500000920E-02 0.  1.
    10030    2    1    2    0    0  0.00000000000E+00  0.00000000000E+00 -0.14222380260E+03  0.35019695720E+04  0.34990803468E+04 0.  0.
        3    1    3    3  502    0 -0.11194803739E+04 -0.13357629249E+04  0.81958522592E+02  0.17447682106E+04  0.10100000352E+00 0. -1.
       -3    1    3    3    0  502  0.11194803739E+04  0.13357629249E+04 -0.22418232519E+03  0.17572013614E+04  0.10100000352E+00 0.  1.
</event>
<event>
 5   0  0.1031659E-06  0.3613131E+04  0.7818609E-02  0.8087491E-01
        2   -1    0    0  501    0  0.00000000000E+00  0.00000000000E+00  0.14557284050E+04  0.14557284050E+04  0.25500000920E-02 0. -1.
       -2   -1    0    0    0  501  0.00000000000E+00  0.00000000000E+00 -0.22419558234E+04  0.22419558234E+04  0.25500000920E-02 0.  1.
    10030    2    1    2    0    0  0.00000000000E+00  0.00000000000E+00 -0.78622741839E+03  0.36976842284E+04  0.36131309275E+04 0.  0.
        2    1    3    3  502    0  0.14460216794E+04  0.99728230508E+03 -0.82504266243E+03  0.19406818617E+04  0.25500000920E-02 0.  1.
       -2    1    3    3    0  502 -0.14460216794E+04 -0.99728230508E+03  0.38815244038E+02  0.17570023667E+04  0.25500000920E-02 0. -1.
</event>
<event>
 5   0  0.3242047E-07  0.3474885E+04  0.7818609E-02  0.8119768E-01
       -1   -1    0    0    0  501  0.00000000000E+00  0.00000000000E+00  0.15408028438E+04  0.15408028438E+04  0.50400001928E-02 0. -1.
        1   -1    0    0  501    0  0.00000000000E+00  0.00000000000E+00 -0.19591778846E+04  0.19591778846E+04  0.50400001928E-02 0.  1.
    10030    2    1    2    0    0  0.00000000000E+00  0.00000000000E+00 -0.41837504075E+03  0.34999807284E+04  0.34748852390E+04 0.  0.
        1    1    3    3  502    0  0.16117848970E+04  0.59685211193E+03 -0.46523566229E+03  0.17805974332E+04  0.50400001928E-02 0.  1.
       -1    1    3    3    0  502 -0.16117848970E+04 -0.59685211193E+03  0.46860621534E+02  0.17193832952E+04  0.50400001928E-02 0. -1.
</event>
<event>
 5   0  0.3159875E-07  0.3576986E+04  0.7818609E-02  0.8095784E-01
        1   -1    0    0  501    0  0.00000000000E+00  0.00000000000E+00  0.16989675048E+04  0.16989675048E+04  0.50400001928E-02 0. -1.
       -1   -1    0    0    0  501  0.00000000000E+00  0.00000000000E+00 -0.18827355217E+04  0.18827355217E+04  0.50400001928E-02 0.  1.
    10030    2    1    2    0    0  0.00000000000E+00  0.00000000000E+00 -0.18376801686E+03  0.35817030265E+04  0.35769855865E+04 0.  0.
        5    1    3    3  502    0 -0.14457983143E+04  0.10273787328E+04 -0.32206661733E+03  0.18026615939E+04  0.46999998093E+01 0.  1.
       -5    1    3    3    0  502  0.14457983143E+04 -0.10273787328E+04  0.13829860047E+03  0.17790414326E+04  0.46999998093E+01 0. -1.
</event>
<event>
 5   0  0.3278988E-07  0.3497367E+04  0.7818609E-02  0.8114414E-01
       -1   -1    0    0    0  501  0.00000000000E+00  0.00000000000E+00  0.17104408419E+04  0.17104408419E+04  0.50400001928E-02 0.  1.
        1   -1    0    0  501    0  0.00000000000E+00  0.00000000000E+00 -0.17877812881E+04  0.17877812881E+04  0.50400001928E-02 0. -1.
    10030    2    1    2    0    0  0.00000000000E+00  0.00000000000E+00 -0.77340446200E+02  0.34982221300E+04  0.34973670849E+04 0.  0.
        4    1    3    3  502    0  0.17394578947E+04  0.15169717667E+03 -0.13443660888E+03  0.17512283162E+04  0.12699999809E+01 0.  1.
       -4    1    3    3    0  502 -0.17394578947E+04 -0.15169717667E+03  0.57096162676E+02  0.17469938138E+04  0.12699999809E+01 0. -1.
</event>
<event>
 5   0  0.3365378E-07  0.3556747E+04  0.7818609E-02  0.8100472E-01
       -1   -1    0    0    0  501  0.00000000000E+00  0.00000000000E+00  0.22993339969E+04  0.22993339969E+04  0.50400001928E-02 0.  1.
        1   -1    0    0  501    0  0.00000000000E+00  0.00000000000E+00 -0.13754471942E+04  0.13754471942E+04  0.50400001928E-02 0. -1.
    10030    2    1    2    0    0  0.00000000000E+00  0.00000000000E+00  0.92388680273E+03  0.36747811910E+04  0.35567471063E+04 0.  0.
        3    1    3    3  502    0 -0.13490732302E+04  0.44315305867E+03 -0.64420716301E+03  0.15592902529E+04  0.10100000352E+00 0. -1.
       -3    1    3    3    0  502  0.13490732302E+04 -0.44315305867E+03  0.15680939657E+04  0.21154909381E+04  0.10100000352E+00 0.  1.
</event>
<event>
 5   0  0.9878336E-07  0.3620885E+04  0.7818609E-02  0.8085725E-01
        2   -1    0    0  501    0  0.00000000000E+00  0.00000000000E+00  0.17033189708E+04  0.17033189708E+04  0.25500000920E-02 0. -1.
       -2   -1    0    0    0  501  0.00000000000E+00  0.00000000000E+00 -0.19243026594E+04  0.19243026594E+04  0.25500000920E-02 0.  1.
    10030    2    1    2    0    0  0.00000000000E+00  0.00000000000E+00 -0.22098368858E+03  0.36276216302E+04  0.36208845468E+04 0.  0.
        3    1    3    3  502    0  0.13207347727E+04  0.49179283212E+03 -0.12490484462E+04  0.18831682242E+04  0.10100000352E+00 0.  1.
       -3    1    3    3    0  502 -0.13207347727E+04 -0.49179283212E+03  0.10280647576E+04  0.17444534060E+04  0.10100000352E+00 0. -1.
</event>
<event>
 5   0  0.3159875E-07  0.3179931E+04  0.7818609E-02  0.8194138E-01
        1   -1    0    0  501    0  0.00000000000E+00  0.00000000000E+00  0.20561559794E+04  0.20561559794E+04  0.50400001928E-02 0.  1.
       -1   -1    0    0    0  501  0.00000000000E+00  0.00000000000E+00 -0.12294737788E+04  0.12294737788E+04  0.50400001928E-02 0. -1.
    10030    2    1    2    0    0  0.00000000000E+00  0.00000000000E+00  0.82668220065E+03  0.32856297582E+04  0.31799307299E+04 0.  0.
        2    1    3    3  502    0 -0.22143142960E+03  0.29800714414E+03  0.20107405015E+04  0.20447291998E+04  0.25500000920E-02 0.  1.
       -2    1    3    3    0  502  0.22143142960E+03 -0.29800714414E+03 -0.11840583009E+04  0.12409005584E+04  0.25500000920E-02 0. -1.
</event>
<event>
 5   0  0.1006019E-06  0.3693595E+04  0.7818609E-02  0.8069383E-01
        2   -1    0    0  501    0  0.00000000000E+00  0.00000000000E+00  0.29813295308E+04  0.29813295308E+04  0.25500000920E-02 0. -1.
       -2   -1    0    0    0  501  0.00000000000E+00  0.00000000000E+00 -0.11440068721E+04  0.11440068721E+04  0.25500000920E-02 0.  1.
    10030    2    1    2    0    0  0.00000000000E+00  0.00000000000E+00  0.18373226588E+04  0.41253364029E+04  0.36935952519E+04 0.  0.
        1    1    3    3  502    0  0.80336271644E+03 -0.16243545875E+04  0.52103939964E+03  0.18855772421E+04  0.50400001928E-02 0.  1.
       -1    1    3    3    0  502 -0.80336271644E+03  0.16243545875E+04  0.13162832591E+04  0.22397591608E+04  0.50400001928E-02 0. -1.
</event>
<event>
 5   0  0.3159875E-07  0.3590093E+04  0.7818609E-02  0.8092765E-01
       -1   -1    0    0    0  501  0.00000000000E+00  0.00000000000E+00  0.17954479334E+04  0.17954479334E+04  0.50400001928E-02 0.  1.
        1   -1    0    0  501    0  0.00000000000E+00  0.00000000000E+00 -0.17946447441E+04  0.17946447442E+04  0.50400001928E-02 0. -1.
    10030    2    1    2    0    0  0.00000000000E+00  0.00000000000E+00  0.80318921643E+00  0.35900926775E+04  0.35900925877E+04 0.  0.
        2    1    3    3  502    0 -0.47261848393E+03 -0.17236701532E+04  0.16708743736E+03  0.17950836304E+04  0.25500000920E-02 0.  1.
       -2    1    3    3    0  502  0.47261848393E+03  0.17236701532E+04 -0.16628424815E+03  0.17950090472E+04  0.25500000920E-02 0. -1.
</event>
<event>
 5   0  0.3365378E-07  0.3590491E+04  0.7818609E-02  0.8092673E-01
       -1   -1    0    0    0  501  0.00000000000E+00  0.00000000000E+00  0.16707077317E+04  0.16707077317E+04  0.50400001928E-02 0.  1.
        1   -1    0    0  501    0  0.00000000000E+00  0.00000000000E+00 -0.19290662156E+04  0.19290662156E+04  0.50400001928E-02 0. -1.
    10030    2    1    2    0    0  0.00000000000E+00  0.00000000000E+00 -0.25835848392E+03  0.35997739474E+04  0.35904906859E+04 0.  0.
        3    1    3    3  502    0 -0.15339270495E+04  0.39692661068E+03 -0.97541302993E+03  0.18606218092E+04  0.10100000352E+00 0.  1.
       -3    1    3    3    0  502  0.15339270495E+04 -0.39692661068E+03  0.71705454602E+03  0.17391521382E+04  0.10100000352E+00 0. -1.
</event>
<event>
 5   0  0.9538919E-07  0.3443101E+04  0.7818609E-02  0.8127408E-01
        2   -1    0    0  501    0  0.00000000000E+00  0.00000000000E+00  0.19347071722E+04  0.19347071722E+04  0.25500000920E-02 0.  1.
       -2   -1    0    0    0  501  0.00000000000E+00  0.00000000000E+00 -0.15318782508E+04  0.15318782508E+04  0.25500000920E-02 0. -1.
    10030    2    1    2    0    0  0.00000000000E+00  0.00000000000E+00  0.40282892134E+03  0.34665854230E+04  0.34431008343E+04 0.  0.
        4    1    3    3  502    0  0.10776208861E+04  0.88777570641E+02 -0.11473443724E+04  0.15765623848E+04  0.12699999809E+01 0. -1.
       -4    1    3    3    0  502 -0.10776208861E+04 -0.88777570641E+02  0.15501732938E+04  0.18900230382E+04  0.12699999809E+01 0.  1.
</event>
<event>
 5   0  0.3278988E-07  0.3569864E+04  0.7818609E-02  0.8097430E-01
       -1   -1    0    0    0  501  0.00000000000E+00  0.00000000000E+00  0.24460087247E+04  0.24460087247E+04  0.50400001928E-02 0.  1.
        1   -1    0    0  501    0  0.00000000000E+00  0.00000000000E+00 -0.13025231513E+04  0.13025231514E+04  0.50400001928E-02 0. -1.
    10030    2    1    2    0    0  0.00000000000E+00  0.00000000000E+00  0.11434855733E+04  0.37485318760E+04  0.35698644189E+04 0.  0.
        4    1    3    3  502    0  0.10210030456E+04 -0.12136154148E+04  0.14316755665E+04  0.21365874976E+04  0.12699999809E+01 0.  1.
       -4    1    3    3    0  502 -0.10210030456E+04  0.12136154148E+04 -0.28818999317E+03  0.16119443785E+04  0.12699999809E+01 0. -1.
</event>
<event>
 5   0  0.1031659E-06  0.3588110E+04  0.7818609E-02  0.8093221E-01
       -2   -1    0    0    0  501  0.00000000000E+00  0.00000000000E+00  0.27717646265E+04  0.27717646265E+04  0.25500000920E-02 0. -1.
        2   -1    0    0  501    0  0.00000000000E+00  0.00000000000E+00 -0.11612217199E+04  0.11612217199E+04  0.25500000920E-02 0.  1.
    10030    2    1    2    0    0  0.00000000000E+00  0.00000000000E+00  0.16105429066E+04  0.39329863465E+04  0.35881099687E+04 0.  0.
        2    1    3    3  502    0  0.13184016256E+04 -0.98759966793E+03  0.26259300103E+02  0.16474906680E+04  0.25500000920E-02 0. -1.
       -2    1    3    3    0  502 -0.13184016256E+04  0.98759966793E+03  0.15842836065E+04  0.22854956784E+04  0.25500000920E-02 0.  1.
</event>
<event>
 5   0  0.3159875E-07  0.3618091E+04  0.7818609E-02  0.8086360E-01
       -1   -1    0    0    0  501  0.00000000000E+00  0.00000000000E+00  0.14663259321E+04  0.14663259321E+04  0.50400001928E-02 0.  1.
        1   -1    0    0  501    0  0.00000000000E+00  0.00000000000E+00 -0.22318681780E+04  0.22318681780E+04  0.50400001928E-02 0. -1.
    10030    2    1    2    0    0  0.00000000000E+00  0.00000000000E+00 -0.76554224595E+03  0.36981941101E+04  0.36180913125E+04 0.  0.
        5    1    3    3  502    0  0.12086613126E+04 -0.11296293703E+04 -0.11308902611E+04  0.20039609665E+04  0.46999998093E+01 0. -1.
       -5    1    3    3    0  502 -0.12086613126E+04  0.11296293703E+04  0.36534801517E+03  0.16942331436E+04  0.46999998093E+01 0.  1.
</event>
<event>
 5   0  0.9878336E-07  0.3595418E+04  0.7818609E-02  0.8091542E-01
       -2   -1    0    0    0  501  0.00000000000E+00  0.00000000000E+00  0.12868083833E+04  0.12868083833E+04  0.25500000920E-02 0.  1.
        2   -1    0    0  501    0  0.00000000000E+00  0.00000000000E+00 -0.25114522471E+04  0.25114522471E+04  0.25500000920E-02 0. -1.
    10030    2    1    2    0    0  0.00000000000E+00  0.00000000000E+00 -0.12246438638E+04  0.37982606305E+04  0.35954180875E+04 0.  0.
        3    1    3    3  502    0  0.16506178471E+04  0.69554231655E+03 -0.45058520466E+03  0.18469827904E+04  0.10100000352E+00 0.  1.
       -3    1    3    3    0  502 -0.16506178471E+04 -0.69554231655E+03 -0.77405865915E+03  0.19512778401E+04  0.10100000352E+00 0. -1.
</event>
<event>
 5   0  0.3159875E-07  0.3575971E+04  0.7818609E-02  0.8096018E-01
       -1   -1    0    0    0  501  0.00000000000E+00  0.00000000000E+00  0.12804705462E+04  0.12804705462E+04  0.50400001928E-02 0. -1.
        1   -1    0    0  501    0  0.00000000000E+00  0.00000000000E+00 -0.24966539572E+04  0.24966539572E+04  0.50400001928E-02 0.  1.
    10030    2    1    2    0    0  0.00000000000E+00  0.00000000000E+00 -0.12161834109E+04  0.37771245034E+04  0.35759708367E+04 0.  0.
        2    1    3    3  502    0  0.14546675079E+02  0.11763851036E+04  0.81404740251E+03  0.14306525403E+04  0.25500000920E-02 0. -1.
       -2    1    3    3    0  502 -0.14546675079E+02 -0.11763851036E+04 -0.20302308134E+04  0.23464719631E+04  0.25500000920E-02 0.  1.
</event>
<event>
 5   0  0.1031659E-06  0.3616944E+04  0.7818609E-02  0.8086621E-01
        2   -1    0    0  501    0  0.00000000000E+00  0.00000000000E+00  0.20250031526E+04  0.20250031526E+04  0.25500000920E-02 0.  1.
       -2   -1    0    0    0  501  0.00000000000E+00  0.00000000000E+00 -0.16150946724E+04  0.16150946724E+04  0.25500000920E-02 0. -1.
    10030    2    1    2    0    0  0.00000000000E+00  0.00000000000E+00  0.40990848025E+03  0.36400978250E+04  0.36169444581E+04 0.  0.
        2    1    3    3  502    0 -0.17179074895E+04  0.12051328112E+03  0.76061376854E+03  0.18826212838E+04  0.25500000920E-02 0. -1.
       -2    1    3    3    0  502  0.17179074895E+04 -0.12051328112E+03 -0.35070528829E+03  0.17574765411E+04  0.25500000920E-02 0.  1.
</event>
<event>
 5   0  0.1006019E-06  0.3527634E+04  0.7818609E-02  0.8107272E-01
        2   -1    0    0  501    0  0.00000000000E+00  0.00000000000E+00  0.16791707177E+04  0.16791707177E+04  0.25500000920E-02 0. -1.
       -2   -1    0    0    0  501  0.00000000000E+00  0.00000000000E+00 -0.18527299367E+04  0.18527299367E+04  0.25500000920E-02 0.  1.
    10030    2    1    2    0    0  0.00000000000E+00  0.00000000000E+00 -0.17355921892E+03  0.35319006544E+04  0.35276336871E+04 0.  0.
        1    1    3    3  502    0 -0.14088805087E+04 -0.45576832251E+03 -0.10462606495E+04  0.18130996658E+04  0.50400001928E-02 0.  1.
       -1    1    3    3    0  502  0.14088805087E+04  0.45576832251E+03  0.87270143054E+03  0.17188009886E+04  0.50400001928E-02 0. -1.
</event>
<event>
 5   0  0.3365378E-07  0.3645476E+04  0.7818609E-02  0.8080153E-01
        1   -1    0    0  501    0  0.00000000000E+00  0.00000000000E+00  0.15681055138E+04  0.15681055138E+04  0.50400001928E-02 0. -1.
       -1   -1    0    0    0  501  0.00000000000E+00  0.00000000000E+00 -0.21187187295E+04  0.21187187295E+04  0.50400001928E-02 0.  1.
    10030    2    1    2    0    0  0.00000000000E+00  0.00000000000E+00 -0.55061321569E+03  0.36868242433E+04  0.36454763870E+04 0.  0.
        3    1    3    3  502    0 -0.12790038377E+04 -0.26305324636E+03  0.10108593815E+04  0.16513281099E+04  0.10100000352E+00 0. -1.
       -3    1    3    3    0  502  0.12790038377E+04  0.26305324636E+03 -0.15614725972E+04  0.20354961334E+04  0.10100000352E+00 0.  1.
</event>
<event>
 5   0  0.3278988E-07  0.3746629E+04  0.7818609E-02  0.8057706E-01
       -1   -1    0    0    0  501  0.00000000000E+00  0.00000000000E+00  0.15075583589E+04  0.15075583589E+04  0.50400001928E-02 0. -1.
        1   -1    0    0  501    0  0.00000000000E+00  0.00000000000E+00 -0.23278091395E+04  0.23278091395E+04  0.50400001928E-02 0.  1.
    10030    2    1    2    0    0  0.00000000000E+00  0.00000000000E+00 -0.82025078059E+03  0.38353674983E+04  0.37466294858E+04 0.  0.
        4    1    3    3  502    0  0.53771016499E+03 -0.11065392749E+04  0.10360427029E+04  0.16083990436E+04  0.12699999809E+01 0. -1.
       -4    1    3    3    0  502 -0.53771016499E+03  0.11065392749E+04 -0.18562934835E+04  0.22269684547E+04  0.12699999809E+01 0.  1.
</event>
<event>
 5   0  0.1031659E-06  0.3008472E+04  0.7818609E-02  0.8241316E-01
       -2   -1    0    0    0  501  0.00000000000E+00  0.00000000000E+00  0.13593449962E+04  0.13593449962E+04  0.25500000920E-02 0. -1.
        2   -1    0    0  501    0  0.00000000000E+00  0.00000000000E+00 -0.16645709409E+04  0.16645709409E+04  0.25500000920E-02 0.  1.
    10030    2    1    2    0    0  0.00000000000E+00  0.00000000000E+00 -0.30522594477E+03  0.30239159371E+04  0.30084721566E+04 0.  0.
        2    1    3    3  502    0 -0.50212400477E+03  0.34180067189E+03 -0.15358204546E+04  0.16515752130E+04  0.25500000920E-02 0.  1.
       -2    1    3    3    0  502  0.50212400477E+03 -0.34180067189E+03  0.12305945098E+04  0.13723407241E+04  0.25500000920E-02 0. -1.
</event>
<event>
 5   0  0.9538919E-07  0.3511807E+04  0.7818609E-02  0.8110997E-01
        2   -1    0    0  501    0  0.00000000000E+00  0.00000000000E+00  0.24990048903E+04  0.24990048903E+04  0.25500000920E-02 0. -1.
       -2   -1    0    0    0  501  0.00000000000E+00  0.00000000000E+00 -0.12337701609E+04  0.12337701609E+04  0.25500000920E-02 0.  1.
    10030    2    1    2    0    0  0.00000000000E+00  0.00000000000E+00  0.12652347293E+04  0.37327750512E+04  0.35118073214E+04 0.  0.
        4    1    3    3  502    0 -0.14586347659E+04 -0.32763498394E+03  0.16115650558E+04  0.21982046322E+04  0.12699999809E+01 0. -1.
       -4    1    3    3    0  502  0.14586347659E+04  0.32763498394E+03 -0.34633032648E+03  0.15345704190E+04  0.12699999809E+01 0.  1.
</event>
<event>
 5   0  0.9878336E-07  0.3626398E+04  0.7818609E-02  0.8084472E-01
        2   -1    0    0  501    0  0.00000000000E+00  0.00000000000E+00  0.13131827636E+04  0.13131827636E+04  0.25500000920E-02 0. -1.
       -2   -1    0    0    0  501  0.00000000000E+00  0.00000000000E+00 -0.25036044685E+04  0.25036044685E+04  0.25500000920E-02 0.  1.
    10030    2    1    2    0    0  0.00000000000E+00  0.00000000000E+00 -0.11904217049E+04  0.38167872322E+04  0.36263977912E+04 0.  0.
        3    1    3    3  502    0  0.61788159908E+02 -0.43670760537E+03  0.12558624868E+04  0.13310604439E+04  0.10100000352E+00 0. -1.
       -3    1    3    3    0  502 -0.61788159908E+02  0.43670760537E+03 -0.24462841917E+04  0.24857267883E+04  0.10100000352E+00 0.  1.
</event>
<event>
 5   0  0.9878977E-07  0.3455477E+04  0.7818609E-02  0.8124423E-01
       -2   -1    0    0    0  501  0.00000000000E+00  0.00000000000E+00  0.21646584327E+04  0.21646584327E+04  0.25500000920E-02 0. -1.
        2   -1    0    0  501    0  0.00000000000E+00  0.00000000000E+00 -0.13790076218E+04  0.13790076218E+04  0.25500000920E-02 0.  1.
    10030    2    1    2    0    0  0.00000000000E+00  0.00000000000E+00  0.78565081096E+03  0.35436660545E+04  0.34554770885E+04 0.  0.
        5    1    3    3  502    0 -0.16440451426E+04  0.16170875553E+03  0.91172736306E+03  0.18868765267E+04  0.46999998093E+01 0. -1.
       -5    1    3    3    0  502  0.16440451426E+04 -0.16170875553E+03 -0.12607655210E+03  0.16567895278E+04  0.46999998093E+01 0.  1.
</event>
<event>
 5   0  0.3278988E-07  0.3608609E+04  0.7818609E-02  0.8088523E-01
        1   -1    0    0  501    0  0.00000000000E+00  0.00000000000E+00  0.18072293561E+04  0.18072293561E+04  0.50400001928E-02 0. -1.
       -1   -1    0    0    0  501  0.00000000000E+00  0.00000000000E+00 -0.18013842712E+04  0.18013842712E+04  0.50400001928E-02 0.  1.
    10030    2    1    2    0    0  0.00000000000E+00  0.00000000000E+00  0.58450849308E+01  0.36086136273E+04  0.36086088935E+04 0.  0.
        4    1    3    3  502    0  0.11672175626E+04  0.19498370858E+03  0.13649439467E+04  0.18065129603E+04  0.12699999809E+01 0. -1.
       -4    1    3    3    0  502 -0.11672175626E+04 -0.19498370858E+03 -0.13590988618E+04  0.18021006670E+04  0.12699999809E+01 0.  1.
</event>
<event>
 5   0  0.3159875E-07  0.3549371E+04  0.7818609E-02  0.8102188E-01
       -1   -1    0    0    0  501  0.00000000000E+00  0.00000000000E+00  0.18239550072E+04  0.18239550072E+04  0.50400001928E-02 0.  1.
        1   -1    0    0  501    0  0.00000000000E+00  0.00000000000E+00 -0.17267472204E+04  0.17267472204E+04  0.50400001928E-02 0. -1.
    10030    2    1    2    0    0  0.00000000000E+00  0.00000000000E+00  0.97207786814E+02  0.35507022276E+04  0.35493713465E+04 0.  0.
        5    1    3    3  502    0  0.24487145881E+03 -0.95582661993E+02 -0.17071579259E+04  0.17272835177E+04  0.46999998093E+01 0. -1.
       -5    1    3    3    0  502 -0.24487145881E+03  0.95582661993E+02  0.18043657127E+04  0.18234187099E+04  0.46999998093E+01 0.  1.
</event>
<event>
 5   0  0.3242047E-07  0.3776529E+04  0.7818609E-02  0.8051211E-01
       -1   -1    0    0    0  501  0.00000000000E+00  0.00000000000E+00  0.15746974004E+04  0.15746974004E+04  0.50400001928E-02 0.  1.
        1   -1    0    0  501    0  0.00000000000E+00  0.00000000000E+00 -0.22642718327E+04  0.22642718327E+04  0.50400001928E-02 0. -1.
    10030    2    1    2    0    0  0.00000000000E+00  0.00000000000E+00 -0.68957443236E+03  0.38389692331E+04  0.37765290778E+04 0.  0.
        1    1    3    3  502    0  0.69076447347E+03 -0.35016712309E+03  0.14058274460E+04  0.16050306476E+04  0.50400001928E-02 0.  1.
       -1    1    3    3    0  502 -0.69076447347E+03  0.35016712309E+03 -0.20954018784E+04  0.22339385855E+04  0.50400001928E-02 0. -1.
</event>
<event>
 5   0  0.9538919E-07  0.3327534E+04  0.7818609E-02  0.8155924E-01
        2   -1    0    0  501    0  0.00000000000E+00  0.00000000000E+00  0.22279689776E+04  0.22279689776E+04  0.25500000920E-02 0.  1.
       -2   -1    0    0    0  501  0.00000000000E+00  0.00000000000E+00 -0.12424414909E+04  0.12424414909E+04  0.25500000920E-02 0. -1.
    10030    2    1    2    0    0  0.00000000000E+00  0.00000000000E+00  0.98552748666E+03  0.34704104685E+04  0.33275342813E+04 0.  0.
        4    1    3    3  502    0  0.38091467675E+03  0.30256103961E+03  0.21521427193E+04  0.22064358297E+04  0.12699999809E+01 0.  1.
       -4    1    3    3    0  502 -0.38091467675E+03 -0.30256103961E+03 -0.11666152326E+04  0.12639746388E+04  0.12699999809E+01 0. -1.
</event>
<event>
 5   0  0.9538919E-07  0.3607211E+04  0.7818609E-02  0.8088842E-01
        2   -1    0    0  501    0  0.00000000000E+00  0.00000000000E+00  0.19877623812E+04  0.19877623812E+04  0.25500000920E-02 0. -1.
       -2   -1    0    0    0  501  0.00000000000E+00  0.00000000000E+00 -0.16365098671E+04  0.16365098671E+04  0.25500000920E-02 0.  1.
    10030    2    1    2    0    0  0.00000000000E+00  0.00000000000E+00  0.35125251410E+03  0.36242722484E+04  0.36072109727E+04 0.  0.
        4    1    3    3  502    0  0.16849939096E+04 -0.63049454030E+03  0.30375706518E+03  0.18245541396E+04  0.12699999809E+01 0.  1.
       -4    1    3    3    0  502 -0.16849939096E+04  0.63049454030E+03  0.47495448926E+02  0.17997181088E+04  0.12699999809E+01 0. -1.
</event>
<event>
 5   0  0.3159875E-07  0.3600524E+04  0.7818609E-02  0.8090372E-01
        3   -1    0    0  501    0  0.00000000000E+00  0.00000000000E+00  0.21578055979E+04  0.21578056003E+04  0.10100000352E+00 0.  1.
       -3   -1    0    0    0  501  0.00000000000E+00  0.00000000000E+00 -0.15019623655E+04  0.15019623689E+04  0.10100000352E+00 0. -1.
    10030    2    1    2    0    0  0.00000000000E+00  0.00000000000E+00  0.65584323244E+03  0.36597679691E+04  0.36005237456E+04 0.  0.
        5    1    3    3  502    0  0.74697386510E+02  0.94497757004E+03  0.18835811210E+04  0.21086636140E+04  0.46999998093E+01 0.  1.
       -5    1    3    3    0  502 -0.74697386510E+02 -0.94497757004E+03 -0.12277378886E+04  0.15511043551E+04  0.46999998093E+01 0. -1.
</event>
<event>
 5   0  0.1031659E-06  0.3630297E+04  0.7818609E-02  0.8083587E-01
       -2   -1    0    0    0  501  0.00000000000E+00  0.00000000000E+00  0.17055997320E+04  0.17055997320E+04  0.25500000920E-02 0.  1.
        2   -1    0    0  501    0  0.00000000000E+00  0.00000000000E+00 -0.19317329479E+04  0.19317329479E+04  0.25500000920E-02 0. -1.
    10030    2    1    2    0    0  0.00000000000E+00  0.00000000000E+00 -0.22613321592E+03  0.36373326799E+04  0.36302965159E+04 0.  0.
        2    1    3    3  502    0  0.46438773210E+03 -0.32399184040E+03  0.16148444168E+04  0.17112419960E+04  0.25500000920E-02 0.  1.
       -2    1    3    3    0  502 -0.46438773210E+03  0.32399184040E+03 -0.18409776327E+04  0.19260906839E+04  0.25500000920E-02 0. -1.
</event>
<event>
 5   0  0.3159875E-07  0.3558814E+04  0.7818609E-02  0.8099991E-01
       -1   -1    0    0    0  501  0.00000000000E+00  0.00000000000E+00  0.22198106808E+04  0.22198106808E+04  0.50400001928E-02 0.  1.
        1   -1    0    0  501    0  0.00000000000E+00  0.00000000000E+00 -0.14263783649E+04  0.14263783649E+04  0.50400001928E-02 0. -1.
    10030    2    1    2    0    0  0.00000000000E+00  0.00000000000E+00  0.79343231595E+03  0.36461890457E+04  0.35588143696E+04 0.  0.
        2    1    3    3  502    0  0.47486865807E+03  0.38250484075E+03  0.21094281110E+04  0.21957907804E+04  0.25500000920E-02 0.  1.
       -2    1    3    3    0  502 -0.47486865807E+03 -0.38250484075E+03 -0.13159957951E+04  0.14503982654E+04  0.25500000920E-02 0. -1.
</event>
<event>
 5   0  0.3365378E-07  0.3431381E+04  0.7818609E-02  0.8130247E-01
       -1   -1    0    0    0  501  0.00000000000E+00  0.00000000000E+00  0.28256533393E+04  0.28256533393E+04  0.50400001928E-02 0. -1.
        1   -1    0    0  501    0  0.00000000000E+00  0.00000000000E+00 -0.10417391766E+04  0.10417391766E+04  0.50400001928E-02 0.  1.
    10030    2    1    2    0    0  0.00000000000E+00  0.00000000000E+00  0.17839141627E+04  0.38673925160E+04  0.34313809367E+04 0.  0.
        3    1    3    3  502    0  0.14055533260E+04  0.94266175135E+02  0.19957497164E+04  0.24428432624E+04  0.10100000352E+00 0. -1.
       -3    1    3    3    0  502 -0.14055533260E+04 -0.94266175135E+02 -0.21183555365E+03  0.14245492536E+04  0.10100000352E+00 0.  1.
</event>
<event>
 5   0  0.9878977E-07  0.3604102E+04  0.7818609E-02  0.8089553E-01
        2   -1    0    0  501    0  0.00000000000E+00  0.00000000000E+00  0.20370207726E+04  0.20370207726E+04  0.25500000920E-02 0. -1.
       -2   -1    0    0    0  501  0.00000000000E+00  0.00000000000E+00 -0.15941852437E+04  0.15941852437E+04  0.25500000920E-02 0.  1.
    10030    2    1    2    0    0  0.00000000000E+00  0.00000000000E+00  0.44283552882E+03  0.36312060163E+04  0.36041023608E+04 0.  0.
        5    1    3    3  502    0 -0.79272601593E+03  0.12323377769E+04 -0.83542025308E+03  0.16867187145E+04  0.46999998093E+01 0.  1.
       -5    1    3    3    0  502  0.79272601593E+03 -0.12323377769E+04  0.12782557819E+04  0.19444873018E+04  0.46999998093E+01 0. -1.
</event>
<event>
 5   0  0.1006019E-06  0.3625904E+04  0.7818609E-02  0.8084584E-01
       -2   -1    0    0    0  501  0.00000000000E+00  0.00000000000E+00  0.15429958554E+04  0.15429958554E+04  0.25500000920E-02 0. -1.
        2   -1    0    0  501    0  0.00000000000E+00  0.00000000000E+00 -0.21301389159E+04  0.21301389159E+04  0.25500000920E-02 0.  1.
    10030    2    1    2    0    0  0.00000000000E+00  0.00000000000E+00 -0.58714306051E+03  0.36731347713E+04  0.36259043113E+04 0.  0.
        1    1    3    3  502    0 -0.52868635103E+03  0.48964822080E+03 -0.19788309465E+04  0.21059526473E+04  0.50400001928E-02 0.  1.
       -1    1    3    3    0  502  0.52868635103E+03 -0.48964822080E+03  0.13916878860E+04  0.15671821240E+04  0.50400001928E-02 0. -1.
</event>
<event>
 5   0  0.3278988E-07  0.3440371E+04  0.7818609E-02  0.8128068E-01
        1   -1    0    0  501    0  0.00000000000E+00  0.00000000000E+00  0.23297802022E+04  0.23297802022E+04  0.50400001928E-02 0.  1.
       -1   -1    0    0    0  501  0.00000000000E+00  0.00000000000E+00 -0.12700933973E+04  0.12700933973E+04  0.50400001928E-02 0. -1.
    10030    2    1    2    0    0  0.00000000000E+00  0.00000000000E+00  0.10596868049E+04  0.35998735995E+04  0.34403711729E+04 0.  0.
        4    1    3    3  502    0  0.21233671449E+03 -0.13773743221E+04 -0.52526618961E+03  0.14893465300E+04  0.12699999809E+01 0. -1.
       -4    1    3    3    0  502 -0.21233671449E+03  0.13773743221E+04  0.15849529945E+04  0.21105270695E+04  0.12699999809E+01 0.  1.
</event>
<event>
 5   0  0.3278988E-07  0.3407260E+04  0.7818609E-02  0.8136127E-01
        1   -1    0    0  501    0  0.00000000000E+00  0.00000000000E+00  0.11565523752E+04  0.11565523752E+04  0.50400001928E-02 0.  1.
       -1   -1    0    0    0  501  0.00000000000E+00  0.00000000000E+00 -0.25094885552E+04  0.25094885552E+04  0.50400001928E-02 0. -1.
    10030    2    1    2    0    0  0.00000000000E+00  0.00000000000E+00 -0.13529361800E+04  0.36660409304E+04  0.34072598663E+04 0.  0.
        4    1    3    3  502    0 -0.81880092842E+03  0.11901776595E+03  0.92584969717E+03  0.12416921775E+04  0.12699999809E+01 0.  1.
       -4    1    3    3    0  502  0.81880092842E+03 -0.11901776595E+03 -0.22787858772E+04  0.24243487529E+04  0.12699999809E+01 0. -1.
</event>
<event>
 5   0  0.3159875E-07  0.3580662E+04  0.7818609E-02  0.8094936E-01
        1   -1    0    0  501    0  0.00000000000E+00  0.00000000000E+00  0.18700213880E+04  0.18700213880E+04  0.50400001928E-02 0.  1.
       -1   -1    0    0    0  501  0.00000000000E+00  0.00000000000E+00 -0.17140365087E+04  0.17140365087E+04  0.50400001928E-02 0. -1.
    10030    2    1    2    0    0  0.00000000000E+00  0.00000000000E+00  0.15598487933E+03  0.35840578968E+04  0.35806619115E+04 0.  0.
        5    1    3    3  502    0  0.12306937772E+04  0.12519230085E+04  0.42952981359E+03  0.18073285101E+04  0.46999998093E+01 0.  1.
       -5    1    3    3    0  502 -0.12306937772E+04 -0.12519230085E+04 -0.27354493426E+03  0.17767293867E+04  0.46999998093E+01 0. -1.
</event>
<event>
 5   0  0.9538919E-07  0.3565924E+04  0.7818609E-02  0.8098342E-01
       -2   -1    0    0    0  501  0.00000000000E+00  0.00000000000E+00  0.13780130835E+04  0.13780130835E+04  0.25500000920E-02 0. -1.
        2   -1    0    0  501    0  0.00000000000E+00  0.00000000000E+00 -0.23069114805E+04  0.23069114805E+04  0.25500000920E-02 0.  1.
    10030    2    1    2    0    0  0.00000000000E+00  0.00000000000E+00 -0.92889839700E+03  0.36849245640E+04  0.35659243977E+04 0.  0.
        4    1    3    3  502    0  0.14789430419E+04  0.11871801772E+03  0.55727570588E+03  0.15849051436E+04  0.12699999809E+01 0. -1.
       -4    1    3    3    0  502 -0.14789430419E+04 -0.11871801772E+03 -0.14861741029E+04  0.21000194204E+04  0.12699999809E+01 0.  1.
</event>
<event>
 5   0  0.3159875E-07  0.3740341E+04  0.7818609E-02  0.8059080E-01
        1   -1    0    0  501    0  0.00000000000E+00  0.00000000000E+00  0.13688032723E+04  0.13688032723E+04  0.50400001928E-02 0.  1.
       -1   -1    0    0    0  501  0.00000000000E+00  0.00000000000E+00 -0.25551797428E+04  0.25551797428E+04  0.50400001928E-02 0. -1.
    10030    2    1    2    0    0  0.00000000000E+00  0.00000000000E+00 -0.11863764705E+04  0.39239830151E+04  0.37403413712E+04 0.  0.
        5    1    3    3  502    0  0.91118619930E+02 -0.13804369195E+04 -0.19133880522E+04  0.23611405337E+04  0.46999998093E+01 0. -1.
       -5    1    3    3    0  502 -0.91118619930E+02  0.13804369195E+04  0.72701158174E+03  0.15628424814E+04  0.46999998093E+01 0.  1.
</event>
<event>
 5   0  0.9878336E-07  0.3425131E+04  0.7818609E-02  0.8131766E-01
        2   -1    0    0  501    0  0.00000000000E+00  0.00000000000E+00  0.10932509932E+04  0.10932509932E+04  0.25500000920E-02 0. -1.
       -2   -1    0    0    0  501  0.00000000000E+00  0.00000000000E+00 -0.26827154593E+04  0.26827154593E+04  0.25500000920E-02 0.  1.
    10030    2    1    2    0    0  0.00000000000E+00  0.00000000000E+00 -0.15894644661E+04  0.37759664525E+04  0.34251314371E+04 0.  0.
        3    1    3    3  502    0 -0.14238402330E+04 -0.49677498767E+03 -0.16895187224E+04  0.22646368188E+04  0.10100000352E+00 0.  1.
       -3    1    3    3    0  502  0.14238402330E+04  0.49677498767E+03  0.10005425634E+03  0.15113296337E+04  0.10100000352E+00 0. -1.
</event>
<event>
 5   0  0.9878336E-07  0.3382471E+04  0.7818609E-02  0.8142222E-01
        2   -1    0    0  501    0  0.00000000000E+00  0.00000000000E+00  0.23246338139E+04  0.23246338139E+04  0.25500000920E-02 0. -1.
       -2   -1    0    0    0  501  0.00000000000E+00  0.00000000000E+00 -0.12304206312E+04  0.12304206312E+04  0.25500000920E-02 0.  1.
    10030    2    1    2    0    0  0.00000000000E+00  0.00000000000E+00  0.10942131827E+04  0.35550544450E+04  0.33824709338E+04 0.  0.
        3    1    3    3  502    0 -0.28702162782E+03 -0.66674804777E+03 -0.10583607558E+04  0.12833790842E+04  0.10100000352E+00 0.  1.
       -3    1    3    3    0  502  0.28702162782E+03  0.66674804777E+03  0.21525739385E+04  0.22716753608E+04  0.10100000352E+00 0. -1.
</event>
<event>
 5   0  0.3159875E-07  0.3564236E+04  0.7818609E-02  0.8098733E-01
       -1   -1    0    0    0  501  0.00000000000E+00  0.00000000000E+00  0.18481778126E+04  0.18481778126E+04  0.50400001928E-02 0.  1.
        1   -1    0    0  501    0  0.00000000000E+00  0.00000000000E+00 -0.17184197813E+04  0.17184197813E+04  0.50400001928E-02 0. -1.
    10030    2    1    2    0    0  0.00000000000E+00  0.00000000000E+00  0.12975803130E+03  0.35665975939E+04  0.35642364189E+04 0.  0.
        5    1    3    3  502    0  0.17444020258E+04  0.20512175675E+03  0.36659137611E+03  0.17942755334E+04  0.46999998093E+01 0. -1.
       -5    1    3    3    0  502 -0.17444020258E+04 -0.20512175675E+03 -0.23683334480E+03  0.17723220605E+04  0.46999998093E+01 0.  1.
</event>
<event>
 5   0  0.9878336E-07  0.3541486E+04  0.7818609E-02  0.8104028E-01
       -2   -1    0    0    0  501  0.00000000000E+00  0.00000000000E+00  0.13374168512E+04  0.13374168512E+04  0.25500000920E-02 0.  1.
        2   -1    0    0  501    0  0.00000000000E+00  0.00000000000E+00 -0.23444680563E+04  0.23444680563E+04  0.25500000920E-02 0. -1.
    10030    2    1    2    0    0  0.00000000000E+00  0.00000000000E+00 -0.10070512051E+04  0.36818849075E+04  0.35414861771E+04 0.  0.
        3    1    3    3  502    0  0.23557776740E+03  0.11888358999E+04  0.83866383753E+03  0.14738333433E+04  0.10100000352E+00 0.  1.
       -3    1    3    3    0  502 -0.23557776740E+03 -0.11888358999E+04 -0.18457150427E+04  0.22080515642E+04  0.10100000352E+00 0. -1.
</event>
<event>
 5   0  0.1031659E-06  0.3617847E+04  0.7818609E-02  0.8086416E-01
        2   -1    0    0  501    0  0.00000000000E+00  0.00000000000E+00  0.23055812725E+04  0.23055812725E+04  0.25500000920E-02 0. -1.
       -2   -1    0    0    0  501  0.00000000000E+00  0.00000000000E+00 -0.14192535419E+04  0.14192535419E+04  0.25500000920E-02 0.  1.
    10030    2    1    2    0    0  0.00000000000E+00  0.00000000000E+00  0.88632773055E+03  0.37248348144E+04  0.36178470875E+04 0.  0.
        2    1    3    3  502    0  0.16905281305E+04  0.38702122762E+03  0.97270198503E+03  0.19884214700E+04  0.25500000920E-02 0. -1.
       -2    1    3    3    0  502 -0.16905281305E+04 -0.38702122762E+03 -0.86374254485E+02  0.17364133444E+04  0.25500000920E-02 0.  1.
</event>
<event>
 5   0  0.1006019E-06  0.3614474E+04  0.7818609E-02  0.8087184E-01
        2   -1    0    0  501    0  0.00000000000E+00  0.00000000000E+00  0.20641684710E+04  0.20641684710E+04  0.25500000920E-02 0. -1.
       -2   -1    0    0    0  501  0.00000000000E+00  0.00000000000E+00 -0.15822865423E+04  0.15822865423E+04  0.25500000920E-02 0.  1.
    10030    2    1    2    0    0  0.00000000000E+00  0.00000000000E+00  0.48188192870E+03  0.36464550133E+04  0.36144742316E+04 0.  0.
        1    1    3    3  502    0  0.16894022544E+04 -0.80023020029E+02 -0.40157904307E+03  0.17383179769E+04  0.50400001928E-02 0.  1.
       -1    1    3    3    0  502 -0.16894022544E+04  0.80023020029E+02  0.88346097178E+03  0.19081370364E+04  0.50400001928E-02 0. -1.
</event>
<event>
 5   0  0.3242047E-07  0.3907643E+04  0.7818609E-02  0.8023441E-01
        1   -1    0    0  501    0  0.00000000000E+00  0.00000000000E+00  0.19803343154E+04  0.19803343154E+04  0.50400001928E-02 0.  1.
       -1   -1    0    0    0  501  0.00000000000E+00  0.00000000000E+00 -0.19276640038E+04  0.19276640038E+04  0.50400001928E-02 0. -1.
    10030    2    1    2    0    0  0.00000000000E+00  0.00000000000E+00  0.52670311590E+02  0.39079983192E+04  0.39076433692E+04 0.  0.
        1    1    3    3  502    0 -0.91917181826E+03  0.14255160817E+04 -0.94351900988E+03  0.19409278845E+04  0.50400001928E-02 0. -1.
       -1    1    3    3    0  502  0.91917181826E+03 -0.14255160817E+04  0.99618932147E+03  0.19670704347E+04  0.50400001928E-02 0.  1.
</event>
<event>
 5   0  0.9538919E-07  0.3491690E+04  0.7818609E-02  0.8115762E-01
       -2   -1    0    0    0  501  0.00000000000E+00  0.00000000000E+00  0.15152020881E+04  0.15152020881E+04  0.25500000920E-02 0. -1.
        2   -1    0    0  501    0  0.00000000000E+00  0.00000000000E+00 -0.20115967317E+04  0.20115967317E+04  0.25500000920E-02 0.  1.
    10030    2    1    2    0    0  0.00000000000E+00  0.00000000000E+00 -0.49639464358E+03  0.35267988199E+04  0.34916904607E+04 0.  0.
        4    1    3    3  502    0  0.66460894769E+02 -0.17409639121E+04 -0.13481192113E+03  0.17474404884E+04  0.12699999809E+01 0.  1.
       -4    1    3    3    0  502 -0.66460894769E+02  0.17409639121E+04 -0.36158272246E+03  0.17793583314E+04  0.12699999809E+01 0. -1.
</event>
<event>
 5   0  0.9538919E-07  0.2713363E+04  0.7818609E-02  0.8330682E-01
        2   -1    0    0  501    0  0.00000000000E+00  0.00000000000E+00  0.77895063248E+03  0.77895063248E+03  0.25500000920E-02 0.  1.
       -2   -1    0    0    0  501  0.00000000000E+00  0.00000000000E+00 -0.23629032597E+04  0.23629032597E+04  0.25500000920E-02 0. -1.
    10030    2    1    2    0    0  0.00000000000E+00  0.00000000000E+00 -0.15839526272E+04  0.31418538922E+04  0.27133632183E+04 0.  0.
        4    1    3    3  502    0 -0.24368781841E+03 -0.71653720965E+03  0.51178767254E+03  0.91363973223E+03  0.12699999809E+01 0.  1.
       -4    1    3    3    0  502  0.24368781841E+03  0.71653720965E+03 -0.20957402997E+04  0.22282141599E+04  0.12699999809E+01 0. -1.
</event>
<event>
 5   0  0.9878977E-07  0.3620242E+04  0.7818609E-02  0.8085871E-01
       -2   -1    0    0    0  501  0.00000000000E+00  0.00000000000E+00  0.13366791531E+04  0.13366791531E+04  0.25500000920E-02 0.  1.
        2   -1    0    0  501    0  0.00000000000E+00  0.00000000000E+00 -0.24512519274E+04  0.24512519274E+04  0.25500000920E-02 0. -1.
    10030    2    1    2    0    0  0.00000000000E+00  0.00000000000E+00 -0.11145727743E+04  0.37879310804E+04  0.36202416219E+04 0.  0.
        5    1    3    3  502    0  0.53949387395E+03 -0.10594946933E+04  0.87082829652E+03  0.14737525767E+04  0.46999998093E+01 0.  1.
       -5    1    3    3    0  502 -0.53949387395E+03  0.10594946933E+04 -0.19854010709E+04  0.23141785038E+04  0.46999998093E+01 0. -1.
</event>
<event>
 5   0  0.3278988E-07  0.3501344E+04  0.7818609E-02  0.8113471E-01
        1   -1    0    0  501    0  0.00000000000E+00  0.00000000000E+00  0.21575143533E+04  0.21575143533E+04  0.50400001928E-02 0.  1.
       -1   -1    0    0    0  501  0.00000000000E+00  0.00000000000E+00 -0.14205479143E+04  0.14205479143E+04  0.50400001928E-02 0. -1.
    10030    2    1    2    0    0  0.00000000000E+00  0.00000000000E+00  0.73696643898E+03  0.35780622676E+04  0.35013440360E+04 0.  0.
        4    1    3    3  502    0  0.89884677220E+03 -0.14516101793E+04 -0.26975598825E+02  0.17075792597E+04  0.12699999809E+01 0. -1.
       -4    1    3    3    0  502 -0.89884677220E+03  0.14516101793E+04  0.76394203780E+03  0.18704830078E+04  0.12699999809E+01 0.  1.
</event>
<event>
 5   0  0.3159875E-07  0.3019396E+04  0.7818609E-02  0.8238214E-01
       -1   -1    0    0    0  501  0.00000000000E+00  0.00000000000E+00  0.14253207411E+04  0.14253207411E+04  0.50400001928E-02 0.  1.
        1   -1    0    0  501    0  0.00000000000E+00  0.00000000000E+00 -0.15990698906E+04  0.15990698906E+04  0.50400001928E-02 0. -1.
    10030    2    1    2    0    0  0.00000000000E+00  0.00000000000E+00 -0.17374914945E+03  0.30243906317E+04  0.30193956226E+04 0.  0.
        2    1    3    3  502    0 -0.11220443163E+03  0.13965541576E+04  0.47640270541E+03  0.14798354258E+04  0.25500000920E-02 0.  1.
       -2    1    3    3    0  502  0.11220443163E+03 -0.13965541576E+04 -0.65015185485E+03  0.15445552059E+04  0.25500000920E-02 0. -1.
</event>
<event>
 5   0  0.9878336E-07  0.3610637E+04  0.7818609E-02  0.8088059E-01
       -2   -1    0    0    0  501  0.00000000000E+00  0.00000000000E+00  0.16303623104E+04  0.16303623104E+04  0.25500000920E-02 0.  1.
        2   -1    0    0  501    0  0.00000000000E+00  0.00000000000E+00 -0.19990494850E+04  0.19990494850E+04  0.25500000920E-02 0. -1.
    10030    2    1    2    0    0  0.00000000000E+00  0.00000000000E+00 -0.36868717460E+03  0.36294117954E+04  0.36106370280E+04 0.  0.
        3    1    3    3  502    0  0.57061142656E+03  0.86971398826E+03 -0.16675414623E+04  0.19653738474E+04  0.10100000352E+00 0. -1.
       -3    1    3    3    0  502 -0.57061142656E+03 -0.86971398826E+03  0.12988542877E+04  0.16640379480E+04  0.10100000352E+00 0.  1.
</event>
<event>
 5   0  0.9538919E-07  0.3624725E+04  0.7818609E-02  0.8084851E-01
        2   -1    0    0  501    0  0.00000000000E+00  0.00000000000E+00  0.18566680473E+04  0.18566680473E+04  0.25500000920E-02 0. -1.
       -2   -1    0    0    0  501  0.00000000000E+00  0.00000000000E+00 -0.17691142896E+04  0.17691142896E+04  0.25500000920E-02 0.  1.
    10030    2    1    2    0    0  0.00000000000E+00  0.00000000000E+00  0.87553757659E+02  0.36257823370E+04  0.36247250785E+04 0.  0.
        4    1    3    3  502    0 -0.73969828050E+03 -0.25106910027E+03  0.16796336954E+04  0.18523931016E+04  0.12699999809E+01 0. -1.
       -4    1    3    3    0  502  0.73969828050E+03  0.25106910027E+03 -0.15920799377E+04  0.17733892354E+04  0.12699999809E+01 0.  1.
</event>
<event>
 5   0  0.9538919E-07  0.3553106E+04  0.7818609E-02  0.8101318E-01
        2   -1    0    0  501    0  0.00000000000E+00  0.00000000000E+00  0.23446659700E+04  0.23446659700E+04  0.25500000920E-02 0.  1.
       -2   -1    0    0    0  501  0.00000000000E+00  0.00000000000E+00 -0.13460942263E+04  0.13460942263E+04  0.25500000920E-02 0. -1.
    10030    2    1    2    0    0  0.00000000000E+00  0.00000000000E+00  0.99857174372E+03  0.36907601963E+04  0.35531064295E+04 0.  0.
        4    1    3    3  502    0 -0.59433270130E+02 -0.88773897325E+03  0.20965610494E+04  0.22775387252E+04  0.12699999809E+01 0.  1.
       -4    1    3    3    0  502  0.59433270130E+02  0.88773897325E+03 -0.10979893056E+04  0.14132214711E+04  0.12699999809E+01 0. -1.
</event>
<event>
 5   0  0.3365378E-07  0.3583711E+04  0.7818609E-02  0.8094233E-01
        1   -1    0    0  501    0  0.00000000000E+00  0.00000000000E+00  0.10762120668E+04  0.10762120668E+04  0.50400001928E-02 0.  1.
       -1   -1    0    0    0  501  0.00000000000E+00  0.00000000000E+00 -0.29833766316E+04  0.29833766316E+04  0.50400001928E-02 0. -1.
    10030    2    1    2    0    0  0.00000000000E+00  0.00000000000E+00 -0.19071645649E+04  0.40595886984E+04  0.35837108872E+04 0.  0.
        3    1    3    3  502    0 -0.88163420788E+03  0.10358370204E+04  0.36771253687E+03  0.14090598743E+04  0.10100000352E+00 0. -1.
       -3    1    3    3    0  502  0.88163420788E+03 -0.10358370204E+04 -0.22748771017E+04  0.26505288241E+04  0.10100000352E+00 0.  1.
</event>
<event>
 5   0  0.3242047E-07  0.3567194E+04  0.7818609E-02  0.8098048E-01
        1   -1    0    0  501    0  0.00000000000E+00  0.00000000000E+00  0.20819325425E+04  0.20819325425E+04  0.50400001928E-02 0.  1.
       -1   -1    0    0    0  501  0.00000000000E+00  0.00000000000E+00 -0.15280119590E+04  0.15280119590E+04  0.50400001928E-02 0. -1.
    10030    2    1    2    0    0  0.00000000000E+00  0.00000000000E+00  0.55392058352E+03  0.36099445016E+04  0.35671937558E+04 0.  0.
        1    1    3    3  502    0  0.90542709703E+03 -0.10837865795E+04  0.13794318565E+04  0.19741387552E+04  0.50400001928E-02 0.  1.
       -1    1    3    3    0  502 -0.90542709703E+03  0.10837865795E+04 -0.82551127302E+03  0.16358057464E+04  0.50400001928E-02 0. -1.
</event>
<event>
 5   0  0.3278988E-07  0.3598503E+04  0.7818609E-02  0.8090835E-01
        1   -1    0    0  501    0  0.00000000000E+00  0.00000000000E+00  0.21361718009E+04  0.21361718009E+04  0.50400001928E-02 0. -1.
       -1   -1    0    0    0  501  0.00000000000E+00  0.00000000000E+00 -0.15154704135E+04  0.15154704135E+04  0.50400001928E-02 0.  1.
    10030    2    1    2    0    0  0.00000000000E+00  0.00000000000E+00  0.62070138738E+03  0.36516422144E+04  0.35985025566E+04 0.  0.
        4    1    3    3  502    0 -0.52097043034E+03  0.11966693791E+04  0.15671371597E+04  0.20394480337E+04  0.12699999809E+01 0. -1.
       -4    1    3    3    0  502  0.52097043034E+03 -0.11966693791E+04 -0.94643577229E+03  0.16121941807E+04  0.12699999809E+01 0.  1.
</event>
<event>
 5   0  0.1006019E-06  0.3545864E+04  0.7818609E-02  0.8103006E-01
       -2   -1    0    0    0  501  0.00000000000E+00  0.00000000000E+00  0.20983637837E+04  0.20983637837E+04  0.25500000920E-02 0.  1.
        2   -1    0    0  501    0  0.00000000000E+00  0.00000000000E+00 -0.14979708014E+04  0.14979708014E+04  0.25500000920E-02 0. -1.
    10030    2    1    2    0    0  0.00000000000E+00  0.00000000000E+00  0.60039298226E+03  0.35963345852E+04  0.35458638884E+04 0.  0.
        1    1    3    3  502    0  0.39731465468E+03  0.39273985648E+03  0.20067585575E+04  0.20830706752E+04  0.50400001928E-02 0.  1.
       -1    1    3    3    0  502 -0.39731465468E+03 -0.39273985648E+03 -0.14063655753E+04  0.15132639099E+04  0.50400001928E-02 0. -1.
</event>
<event>
 5   0  0.9538919E-07  0.2816479E+04  0.7818609E-02  0.8298170E-01
       -2   -1    0    0    0  501  0.00000000000E+00  0.00000000000E+00  0.15852383168E+04  0.15852383168E+04  0.25500000920E-02 0. -1.
        2   -1    0    0  501    0  0.00000000000E+00  0.00000000000E+00 -0.12510035755E+04  0.12510035755E+04  0.25500000920E-02 0.  1.
    10030    2    1    2    0    0  0.00000000000E+00  0.00000000000E+00  0.33423474133E+03  0.28362418923E+04  0.28164792223E+04 0.  0.
        4    1    3    3  502    0  0.97291644155E+03  0.41902643931E+03 -0.76728766825E+03  0.13080067040E+04  0.12699999809E+01 0.  1.
       -4    1    3    3    0  502 -0.97291644155E+03 -0.41902643931E+03  0.11015224096E+04  0.15282351883E+04  0.12699999809E+01 0. -1.
</event>
<event>
 5   0  0.3159875E-07  0.3654545E+04  0.7818609E-02  0.8078111E-01
        1   -1    0    0  501    0  0.00000000000E+00  0.00000000000E+00  0.18922303742E+04  0.18922303742E+04  0.50400001928E-02 0. -1.
       -1   -1    0    0    0  501  0.00000000000E+00  0.00000000000E+00 -0.17645444614E+04  0.17645444614E+04  0.50400001928E-02 0.  1.
    10030    2    1    2    0    0  0.00000000000E+00  0.00000000000E+00  0.12768591276E+03  0.36567748356E+04  0.36545449109E+04 0.  0.
        5    1    3    3  502    0  0.12016541377E+03  0.18069235173E+04 -0.18021202466E+03  0.18198655961E+04  0.46999998093E+01 0. -1.
       -5    1    3    3    0  502 -0.12016541377E+03 -0.18069235173E+04  0.30789793742E+03  0.18369092395E+04  0.46999998093E+01 0.  1.
</event>
<event>
 5   0  0.1006019E-06  0.3706547E+04  0.7818609E-02  0.8066512E-01
        2   -1    0    0  501    0  0.00000000000E+00  0.00000000000E+00  0.18441181589E+04  0.18441181589E+04  0.25500000920E-02 0.  1.
       -2   -1    0    0    0  501  0.00000000000E+00  0.00000000000E+00 -0.18624746119E+04  0.18624746119E+04  0.25500000920E-02 0. -1.
    10030    2    1    2    0    0  0.00000000000E+00  0.00000000000E+00 -0.18356452982E+02  0.37065927709E+04  0.37065473165E+04 0.  0.
        1    1    3    3  502    0  0.13426189971E+04  0.44266449435E+03  0.11891876808E+04  0.18473616230E+04  0.50400001928E-02 0.  1.
       -1    1    3    3    0  502 -0.13426189971E+04 -0.44266449435E+03 -0.12075441338E+04  0.18592311478E+04  0.50400001928E-02 0. -1.
</event>
<event>
 5   0  0.3365378E-07  0.3576615E+04  0.7818609E-02  0.8095869E-01
        1   -1    0    0  501    0  0.00000000000E+00  0.00000000000E+00  0.17701456077E+04  0.17701456077E+04  0.50400001928E-02 0. -1.
       -1   -1    0    0    0  501  0.00000000000E+00  0.00000000000E+00 -0.18066553271E+04  0.18066553272E+04  0.50400001928E-02 0.  1.
    10030    2    1    2    0    0  0.00000000000E+00  0.00000000000E+00 -0.36509719463E+02  0.35768009348E+04  0.35766145959E+04 0.  0.
        3    1    3    3  502    0 -0.80458132996E+03  0.10428701509E+04 -0.12279102535E+04  0.18007478638E+04  0.10100000352E+00 0.  1.
       -3    1    3    3    0  502  0.80458132996E+03 -0.10428701509E+04  0.11914005341E+04  0.17760530710E+04  0.10100000352E+00 0. -1.
</event>
<event>
 5   0  0.3159875E-07  0.3641698E+04  0.7818609E-02  0.8081006E-01
        3   -1    0    0  501    0  0.00000000000E+00  0.00000000000E+00  0.27848595520E+04  0.27848595538E+04  0.10100000352E+00 0. -1.
       -3   -1    0    0    0  501  0.00000000000E+00  0.00000000000E+00 -0.11905416898E+04  0.11905416941E+04  0.10100000352E+00 0.  1.
    10030    2    1    2    0    0  0.00000000000E+00  0.00000000000E+00  0.15943178622E+04  0.39754012479E+04  0.36416981802E+04 0.  0.
        1    1    3    3  502    0 -0.23068598223E+03  0.17698050325E+04  0.11908523307E+04  0.21455896973E+04  0.50400001928E-02 0. -1.
       -1    1    3    3    0  502  0.23068598223E+03 -0.17698050325E+04  0.40346553147E+03  0.18298115506E+04  0.50400001928E-02 0.  1.
</event>
<event>
 5   0  0.3159875E-07  0.3501701E+04  0.7818609E-02  0.8113387E-01
       -1   -1    0    0    0  501  0.00000000000E+00  0.00000000000E+00  0.20105602122E+04  0.20105602122E+04  0.50400001928E-02 0.  1.
        1   -1    0    0  501    0  0.00000000000E+00  0.00000000000E+00 -0.15246880748E+04  0.15246880748E+04  0.50400001928E-02 0. -1.
    10030    2    1    2    0    0  0.00000000000E+00  0.00000000000E+00  0.48587213742E+03  0.35352482870E+04  0.35017008320E+04 0.  0.
        5    1    3    3  502    0  0.27035209862E+03  0.45475990366E+02 -0.15028781519E+04  0.15276855542E+04  0.46999998093E+01 0. -1.
       -5    1    3    3    0  502 -0.27035209862E+03 -0.45475990366E+02  0.19887502893E+04  0.20075627328E+04  0.46999998093E+01 0.  1.
</event>
<event>
 5   0  0.3159875E-07  0.3594930E+04  0.7818609E-02  0.8091654E-01
       -4   -1    0    0    0  501  0.00000000000E+00  0.00000000000E+00  0.22360881091E+04  0.22360884698E+04  0.12699999809E+01 0.  1.
        4   -1    0    0  501    0  0.00000000000E+00  0.00000000000E+00 -0.14448796187E+04  0.14448801768E+04  0.12699999809E+01 0. -1.
    10030    2    1    2    0    0  0.00000000000E+00  0.00000000000E+00  0.79120849044E+03  0.36809686466E+04  0.35949296657E+04 0.  0.
        2    1    3    3  502    0  0.58200554004E+02  0.15509645441E+03 -0.14370471232E+04  0.14465637383E+04  0.25500000920E-02 0. -1.
       -2    1    3    3    0  502 -0.58200554004E+02 -0.15509645441E+03  0.22282556136E+04  0.22344049083E+04  0.25500000920E-02 0.  1.
</event>
<event>
 5   0  0.9878977E-07  0.3249137E+04  0.7818609E-02  0.8175959E-01
       -2   -1    0    0    0  501  0.00000000000E+00  0.00000000000E+00  0.12141000472E+04  0.12141000473E+04  0.25500000920E-02 0.  1.
        2   -1    0    0  501    0  0.00000000000E+00  0.00000000000E+00 -0.21738095983E+04  0.21738095983E+04  0.25500000920E-02 0. -1.
    10030    2    1    2    0    0  0.00000000000E+00  0.00000000000E+00 -0.95970955102E+03  0.33879096455E+04  0.32491367075E+04 0.  0.
        5    1    3    3  502    0 -0.11821281561E+04 -0.74485815549E+03  0.38437541193E+03  0.14491401577E+04  0.46999998093E+01 0.  1.
       -5    1    3    3    0  502  0.11821281561E+04  0.74485815549E+03 -0.13440849629E+04  0.19387694878E+04  0.46999998093E+01 0. -1.
</event>
<event>
 5   0  0.9538919E-07  0.3610823E+04  0.7818609E-02  0.8088017E-01
       -2   -1    0    0    0  501  0.00000000000E+00  0.00000000000E+00  0.17336396822E+04  0.17336396822E+04  0.25500000920E-02 0. -1.
        2   -1    0    0  501    0  0.00000000000E+00  0.00000000000E+00 -0.18801549550E+04  0.18801549550E+04  0.25500000920E-02 0.  1.
    10030    2    1    2    0    0  0.00000000000E+00  0.00000000000E+00 -0.14651527282E+03  0.36137946372E+04  0.36108233071E+04 0.  0.
        4    1    3    3  502    0 -0.13331987264E+04 -0.16992872206E+03  0.11332280383E+04  0.17579823703E+04  0.12699999809E+01 0. -1.
       -4    1    3    3    0  502  0.13331987264E+04  0.16992872206E+03 -0.12797433112E+04  0.18558122669E+04  0.12699999809E+01 0.  1.
</event>
<event>
 5   0  0.3242047E-07  0.3604979E+04  0.7818609E-02  0.8089352E-01
       -1   -1    0    0    0  501  0.00000000000E+00  0.00000000000E+00  0.17950746346E+04  0.17950746346E+04  0.50400001928E-02 0. -1.
        1   -1    0    0  501    0  0.00000000000E+00  0.00000000000E+00 -0.18099351014E+04  0.18099351014E+04  0.50400001928E-02 0.  1.
    10030    2    1    2    0    0  0.00000000000E+00  0.00000000000E+00 -0.14860466838E+02  0.36050097361E+04  0.36049791072E+04 0.  0.
        1    1    3    3  502    0 -0.11222891158E+04 -0.12787171143E+04  0.58782122100E+03  0.18000511397E+04  0.50400001928E-02 0. -1.
       -1    1    3    3    0  502  0.11222891158E+04  0.12787171143E+04 -0.60268168784E+03  0.18049585964E+04  0.50400001928E-02 0.  1.
</event>
<event>
 5   0  0.9878977E-07  0.3597752E+04  0.7818609E-02  0.8091007E-01
        2   -1    0    0  501    0  0.00000000000E+00  0.00000000000E+00  0.20350722635E+04  0.20350722636E+04  0.25500000920E-02 0. -1.
       -2   -1    0    0    0  501  0.00000000000E+00  0.00000000000E+00 -0.15900929908E+04  0.15900929908E+04  0.25500000920E-02 0.  1.
    10030    2    1    2    0    0  0.00000000000E+00  0.00000000000E+00  0.44497927272E+03  0.36251652544E+04  0.35977515990E+04 0.  0.
        5    1    3    3  502    0 -0.69731083336E+03 -0.11514064148E+04 -0.97989785472E+03  0.16649928006E+04  0.46999998093E+01 0.  1.
       -5    1    3    3    0  502  0.69731083336E+03  0.11514064148E+04  0.14248771274E+04  0.19601724538E+04  0.46999998093E+01 0. -1.
</event>
<event>
 5   0  0.3159875E-07  0.2622746E+04  0.7818609E-02  0.8360516E-01
       -1   -1    0    0    0  501  0.00000000000E+00  0.00000000000E+00  0.12028040845E+04  0.12028040845E+04  0.50400001928E-02 0. -1.
        1   -1    0    0  501    0  0.00000000000E+00  0.00000000000E+00 -0.14297418144E+04  0.14297418144E+04  0.50400001928E-02 0.  1.
    10030    2    1    2    0    0  0.00000000000E+00  0.00000000000E+00 -0.22693772987E+03  0.26325458990E+04  0.26227461137E+04 0.  0.
        5    1    3    3  502    0 -0.94896879506E+02  0.12196354759E+04 -0.58763325935E+03  0.13571481309E+04  0.46999998093E+01 0.  1.
       -5    1    3    3    0  502  0.94896879506E+02 -0.12196354759E+04  0.36069552948E+03  0.12753977680E+04  0.46999998093E+01 0. -1.
</event>
<event>
 5   0  0.9878336E-07  0.3621858E+04  0.7818609E-02  0.8085503E-01
       -2   -1    0    0    0  501  0.00000000000E+00  0.00000000000E+00  0.18708075550E+04  0.18708075550E+04  0.25500000920E-02 0. -1.
        2   -1    0    0  501    0  0.00000000000E+00  0.00000000000E+00 -0.17529668583E+04  0.17529668583E+04  0.25500000920E-02 0.  1.
    10030    2    1    2    0    0  0.00000000000E+00  0.00000000000E+00  0.11784069667E+03  0.36237744133E+04  0.36218578891E+04 0.  0.
        3    1    3    3  502    0 -0.14500591482E+04 -0.87500363159E+03 -0.58263712687E+03  0.17910245449E+04  0.10100000352E+00 0.  1.
       -3    1    3    3    0  502  0.14500591482E+04  0.87500363159E+03  0.70047782354E+03  0.18327498684E+04  0.10100000352E+00 0. -1.
</event>
<event>
 5   0  0.9878977E-07  0.3680573E+04  0.7818609E-02  0.8072281E-01
        2   -1    0    0  501    0  0.00000000000E+00  0.00000000000E+00  0.14457443646E+04  0.14457443646E+04  0.25500000920E-02 0.  1.
       -2   -1    0    0    0  501  0.00000000000E+00  0.00000000000E+00 -0.23424986758E+04  0.23424986758E+04  0.25500000920E-02 0. -1.
    10030    2    1    2    0    0  0.00000000000E+00  0.00000000000E+00 -0.89675431115E+03  0.37882430403E+04  0.36805729225E+04 0.  0.
        5    1    3    3  502    0 -0.58212207703E+03 -0.66909497381E+03 -0.21080236515E+04  0.22869936602E+04  0.46999998093E+01 0. -1.
       -5    1    3    3    0  502  0.58212207703E+03  0.66909497381E+03  0.12112693403E+04  0.15012493801E+04  0.46999998093E+01 0.  1.
</event>
<event>
 5   0  0.3278988E-07  0.2596876E+04  0.7818609E-02  0.8369263E-01
        1   -1    0    0  501    0  0.00000000000E+00  0.00000000000E+00  0.16797404618E+04  0.16797404618E+04  0.50400001928E-02 0. -1.
       -1   -1    0    0    0  501  0.00000000000E+00  0.00000000000E+00 -0.10036916080E+04  0.10036916080E+04  0.50400001928E-02 0.  1.
    10030    2    1    2    0    0  0.00000000000E+00  0.00000000000E+00  0.67604885375E+03  0.26834320698E+04  0.25968761273E+04 0.  0.
        4    1    3    3  502    0 -0.39111510881E+03  0.24163464779E+03 -0.91677339592E+03  0.10255892958E+04  0.12699999809E+01 0.  1.
       -4    1    3    3    0  502  0.39111510881E+03 -0.24163464779E+03  0.15928222497E+04  0.16578427740E+04  0.12699999809E+01 0. -1.
</event>
<event>
 5   0  0.9878336E-07  0.3616473E+04  0.7818609E-02  0.8086729E-01
       -2   -1    0    0    0  501  0.00000000000E+00  0.00000000000E+00  0.12262124851E+04  0.12262124851E+04  0.25500000920E-02 0.  1.
        2   -1    0    0  501    0  0.00000000000E+00  0.00000000000E+00 -0.26665196213E+04  0.26665196213E+04  0.25500000920E-02 0. -1.
    10030    2    1    2    0    0  0.00000000000E+00  0.00000000000E+00 -0.14403071362E+04  0.38927321063E+04  0.36164732275E+04 0.  0.
        3    1    3    3  502    0  0.68645899263E+03 -0.11615076189E+04 -0.20160266056E+04  0.24258378310E+04  0.10100000352E+00 0. -1.
       -3    1    3    3    0  502 -0.68645899263E+03  0.11615076189E+04  0.57571946943E+03  0.14668942753E+04  0.10100000352E+00 0.  1.
</event>
<event>
 5   0  0.1031659E-06  0.3633243E+04  0.7818609E-02  0.8082919E-01
        2   -1    0    0  501    0  0.00000000000E+00  0.00000000000E+00  0.20689525074E+04  0.20689525074E+04  0.25500000920E-02 0. -1.
       -2   -1    0    0    0  501  0.00000000000E+00  0.00000000000E+00 -0.15950654009E+04  0.15950654009E+04  0.25500000920E-02 0.  1.
    10030    2    1    2    0    0  0.00000000000E+00  0.00000000000E+00  0.47388710647E+03  0.36640179082E+04  0.36332434879E+04 0.  0.
        2    1    3    3  502    0  0.55440569172E+03  0.17115812055E+04 -0.16659475615E+02  0.17992091129E+04  0.25500000920E-02 0.  1.
       -2    1    3    3    0  502 -0.55440569172E+03 -0.17115812055E+04  0.49054658208E+03  0.18648087953E+04  0.25500000920E-02 0. -1.
</event>
<event>
 5   0  0.9538919E-07  0.3409376E+04  0.7818609E-02  0.8135609E-01
       -2   -1    0    0    0  501  0.00000000000E+00  0.00000000000E+00  0.20349856402E+04  0.20349856402E+04  0.25500000920E-02 0.  1.
        2   -1    0    0  501    0  0.00000000000E+00  0.00000000000E+00 -0.14280012084E+04  0.14280012084E+04  0.25500000920E-02 0. -1.
    10030    2    1    2    0    0  0.00000000000E+00  0.00000000000E+00  0.60698443184E+03  0.34629868486E+04  0.34093764551E+04 0.  0.
        4    1    3    3  502    0 -0.12013508721E+04 -0.73275067899E+03 -0.67381881176E+03  0.15601925777E+04  0.12699999809E+01 0. -1.
       -4    1    3    3    0  502  0.12013508721E+04  0.73275067899E+03  0.12808032436E+04  0.19027942709E+04  0.12699999809E+01 0.  1.
</event>
<event>
 5   0  0.9878977E-07  0.3599590E+04  0.7818609E-02  0.8090586E-01
       -2   -1    0    0    0  501  0.00000000000E+00  0.00000000000E+00  0.16669871762E+04  0.16669871762E+04  0.25500000920E-02 0.  1.
        2   -1    0    0  501    0  0.00000000000E+00  0.00000000000E+00 -0.19431838406E+04  0.19431838406E+04  0.25500000920E-02 0. -1.
    10030    2    1    2    0    0  0.00000000000E+00  0.00000000000E+00 -0.27619666441E+03  0.36101710168E+04  0.35995902785E+04 0.  0.
        5    1    3    3  502    0 -0.12688538282E+03 -0.15644338726E+04  0.74522158013E+03  0.17375069887E+04  0.46999998093E+01 0.  1.
       -5    1    3    3    0  502  0.12688538282E+03  0.15644338726E+04 -0.10214182445E+04  0.18726640282E+04  0.46999998093E+01 0. -1.
</event>
<event>
 5   0  0.1006019E-06  0.2574524E+04  0.7818609E-02  0.8376907E-01
       -2   -1    0    0    0  501  0.00000000000E+00  0.00000000000E+00  0.10210815524E+04  0.10210815524E+04  0.25500000920E-02 0. -1.
        2   -1    0    0  501    0  0.00000000000E+00  0.00000000000E+00 -0.16228315855E+04  0.16228315855E+04  0.25500000920E-02 0.  1.
    10030    2    1    2    0    0  0.00000000000E+00  0.00000000000E+00 -0.60175003311E+03  0.26439131380E+04  0.25745239519E+04 0.  0.
        1    1    3    3  502    0  0.72427170253E+03  0.89336556364E+03  0.29295905282E+03  0.11868009673E+04  0.50400001928E-02 0. -1.
       -1    1    3    3    0  502 -0.72427170253E+03 -0.89336556364E+03 -0.89470908593E+03  0.14571121706E+04  0.50400001928E-02 0.  1.
</event>
<event>
 5   0  0.1006019E-06  0.3877268E+04  0.7818609E-02  0.8029774E-01
        2   -1    0    0  501    0  0.00000000000E+00  0.00000000000E+00  0.19255637401E+04  0.19255637401E+04  0.25500000920E-02 0.  1.
       -2   -1    0    0    0  501  0.00000000000E+00  0.00000000000E+00 -0.19517930597E+04  0.19517930597E+04  0.25500000920E-02 0. -1.
    10030    2    1    2    0    0  0.00000000000E+00  0.00000000000E+00 -0.26229319644E+02  0.38773567998E+04  0.38772680815E+04 0.  0.
        1    1    3    3  502    0  0.33885328966E+02  0.96347639204E+03 -0.16950767373E+04  0.19500564399E+04  0.50400001928E-02 0. -1.
       -1    1    3    3    0  502 -0.33885328966E+02 -0.96347639204E+03  0.16688474177E+04  0.19273003598E+04  0.50400001928E-02 0.  1.
</event>
<event>
 5   0  0.3242047E-07  0.3590695E+04  0.7818609E-02  0.8092626E-01
        1   -1    0    0  501    0  0.00000000000E+00  0.00000000000E+00  0.22013951367E+04  0.22013951367E+04  0.50400001928E-02 0. -1.
       -1   -1    0    0    0  501  0.00000000000E+00  0.00000000000E+00 -0.14641955490E+04  0.14641955490E+04  0.50400001928E-02 0.  1.
    10030    2    1    2    0    0  0.00000000000E+00  0.00000000000E+00  0.73719958772E+03  0.36655906856E+04  0.35906951754E+04 0.  0.
        1    1    3    3  502    0  0.44459401957E+03  0.13928747937E+04 -0.69500951558E+03  0.16188892055E+04  0.50400001928E-02 0.  1.
       -1    1    3    3    0  502 -0.44459401957E+03 -0.13928747937E+04  0.14322091033E+04  0.20467014801E+04  0.50400001928E-02 0. -1.
</event>
<event>
 5   0  0.3159875E-07  0.3617622E+04  0.7818609E-02  0.8086467E-01
        1   -1    0    0  501    0  0.00000000000E+00  0.00000000000E+00  0.19751377266E+04  0.19751377266E+04  0.50400001928E-02 0.  1.
       -1   -1    0    0    0  501  0.00000000000E+00  0.00000000000E+00 -0.16564902571E+04  0.16564902571E+04  0.50400001928E-02 0. -1.
    10030    2    1    2    0    0  0.00000000000E+00  0.00000000000E+00  0.31864746955E+03  0.36316279837E+04  0.36176215394E+04 0.  0.
        2    1    3    3  502    0  0.16152529978E+04  0.76040062780E+03 -0.13256832904E+03  0.17902027046E+04  0.25500000920E-02 0. -1.
       -2    1    3    3    0  502 -0.16152529978E+04 -0.76040062780E+03  0.45121579859E+03  0.18414252791E+04  0.25500000920E-02 0.  1.
</event>
<event>
 5   0  0.1006019E-06  0.3490031E+04  0.7818609E-02  0.8116157E-01
        2   -1    0    0  501    0  0.00000000000E+00  0.00000000000E+00  0.30608458409E+04  0.30608458409E+04  0.25500000920E-02 0.  1.
       -2   -1    0    0    0  501  0.00000000000E+00  0.00000000000E+00 -0.99484860763E+03  0.99484860763E+03  0.25500000920E-02 0. -1.
    10030    2    1    2    0    0  0.00000000000E+00  0.00000000000E+00  0.20659972333E+04  0.40556944485E+04  0.34900305002E+04 0.  0.
        1    1    3    3  502    0  0.13429035035E+04  0.89769777659E+03  0.26582594453E+03  0.16370444559E+04  0.50400001928E-02 0. -1.
       -1    1    3    3    0  502 -0.13429035035E+04 -0.89769777659E+03  0.18001712887E+04  0.24186499926E+04  0.50400001928E-02 0.  1.
</event>
<event>
 5   0  0.3159875E-07  0.3623911E+04  0.7818609E-02  0.8085036E-01
       -1   -1    0    0    0  501  0.00000000000E+00  0.00000000000E+00  0.19996643793E+04  0.19996643793E+04  0.50400001928E-02 0. -1.
        1   -1    0    0  501    0  0.00000000000E+00  0.00000000000E+00 -0.16418671546E+04  0.16418671546E+04  0.50400001928E-02 0.  1.
    10030    2    1    2    0    0  0.00000000000E+00  0.00000000000E+00  0.35779722472E+03  0.36415315339E+04  0.36239112928E+04 0.  0.
        5    1    3    3  502    0 -0.14469527763E+04  0.73158768710E+02 -0.91457277909E+03  0.17133271726E+04  0.46999998093E+01 0.  1.
       -5    1    3    3    0  502  0.14469527763E+04 -0.73158768710E+02  0.12723700038E+04  0.19282043612E+04  0.46999998093E+01 0. -1.
</event>
<event>
 5   0  0.9878977E-07  0.3584346E+04  0.7818609E-02  0.8094087E-01
        2   -1    0    0  501    0  0.00000000000E+00  0.00000000000E+00  0.26000466447E+04  0.26000466447E+04  0.25500000920E-02 0.  1.
       -2   -1    0    0    0  501  0.00000000000E+00  0.00000000000E+00 -0.12353177838E+04  0.12353177838E+04  0.25500000920E-02 0. -1.
    10030    2    1    2    0    0  0.00000000000E+00  0.00000000000E+00  0.13647288609E+04  0.38353644285E+04  0.35843458867E+04 0.  0.
        5    1    3    3  502    0 -0.59674609290E+03 -0.80476945980E+03 -0.90766911953E+03  0.13519042508E+04  0.46999998093E+01 0. -1.
       -5    1    3    3    0  502  0.59674609290E+03  0.80476945980E+03  0.22723979804E+04  0.24834601777E+04  0.46999998093E+01 0.  1.
</event>
<event>
 5   0  0.3365378E-07  0.2831464E+04  0.7818609E-02  0.8293566E-01
       -1   -1    0    0    0  501  0.00000000000E+00  0.00000000000E+00  0.13495949127E+04  0.13495949127E+04  0.50400001928E-02 0.  1.
        1   -1    0    0  501    0  0.00000000000E+00  0.00000000000E+00 -0.14851099787E+04  0.14851099787E+04  0.50400001928E-02 0. -1.
    10030    2    1    2    0    0  0.00000000000E+00  0.00000000000E+00 -0.13551506600E+03  0.28347048914E+04  0.28314638419E+04 0.  0.
        3    1    3    3  502    0 -0.32409895626E+03  0.13220659708E+03  0.13055918703E+04  0.13516985092E+04  0.10100000352E+00 0.  1.
       -3    1    3    3    0  502  0.32409895626E+03 -0.13220659708E+03 -0.14411069363E+04  0.14830063822E+04  0.10100000352E+00 0. -1.
</event>
<event>
 5   0  0.1031659E-06  0.3526120E+04  0.7818609E-02  0.8107628E-01
       -2   -1    0    0    0  501  0.00000000000E+00  0.00000000000E+00  0.17969378270E+04  0.17969378270E+04  0.25500000920E-02 0.  1.
        2   -1    0    0  501    0  0.00000000000E+00  0.00000000000E+00 -0.17298205150E+04  0.17298205150E+04  0.25500000920E-02 0. -1.
    10030    2    1    2    0    0  0.00000000000E+00  0.00000000000E+00  0.67117312037E+02  0.35267583420E+04  0.35261196334E+04 0.  0.
        2    1    3    3  502    0 -0.10255669457E+04  0.13454018421E+04 -0.46300507995E+03  0.17539291265E+04  0.25500000920E-02 0. -1.
       -2    1    3    3    0  502  0.10255669457E+04 -0.13454018421E+04  0.53012239199E+03  0.17728292155E+04  0.25500000920E-02 0.  1.
</event>
<event>
 5   0  0.3278988E-07  0.3607456E+04  0.7818609E-02  0.8088786E-01
       -1   -1    0    0    0  501  0.00000000000E+00  0.00000000000E+00  0.27324828677E+04  0.27324828677E+04  0.50400001928E-02 0. -1.
        1   -1    0    0  501    0  0.00000000000E+00  0.00000000000E+00 -0.11906514284E+04  0.11906514284E+04  0.50400001928E-02 0.  1.
    10030    2    1    2    0    0  0.00000000000E+00  0.00000000000E+00  0.15418314393E+04  0.39231342961E+04  0.36074559621E+04 0.  0.
        4    1    3    3  502    0 -0.16411912666E+04 -0.74059866992E+03  0.88722232985E+03  0.20072768217E+04  0.12699999809E+01 0.  1.
       -4    1    3    3    0  502  0.16411912666E+04  0.74059866992E+03  0.65460910941E+03  0.19158574744E+04  0.12699999809E+01 0. -1.
</event>
<event>
 5   0  0.3159875E-07  0.3594385E+04  0.7818609E-02  0.8091779E-01
        1   -1    0    0  501    0  0.00000000000E+00  0.00000000000E+00  0.24444964635E+04  0.24444964635E+04  0.50400001928E-02 0. -1.
       -1   -1    0    0    0  501  0.00000000000E+00  0.00000000000E+00 -0.13212949623E+04  0.13212949623E+04  0.50400001928E-02 0.  1.
    10030    2    1    2    0    0  0.00000000000E+00  0.00000000000E+00  0.11232015012E+04  0.37657914258E+04  0.35943849891E+04 0.  0.
        5    1    3    3  502    0  0.15084856588E+04 -0.97682734122E+03  0.57477560333E+03  0.18868253024E+04  0.46999998093E+01 0. -1.
       -5    1    3    3    0  502 -0.15084856588E+04  0.97682734122E+03  0.54842589788E+03  0.18789661234E+04  0.46999998093E+01 0.  1.
</event>
<event>
 5   0  0.3242047E-07  0.3512717E+04  0.7818609E-02  0.8110783E-01
        1   -1    0    0  501    0  0.00000000000E+00  0.00000000000E+00  0.11519024139E+04  0.11519024139E+04  0.50400001928E-02 0.  1.
       -1   -1    0    0    0  501  0.00000000000E+00  0.00000000000E+00 -0.26779997779E+04  0.26779997779E+04  0.50400001928E-02 0. -1.
    10030    2    1    2    0    0  0.00000000000E+00  0.00000000000E+00 -0.15260973640E+04  0.38299021918E+04  0.35127165605E+04 0.  0.
        1    1    3    3  502    0  0.13547479306E+03  0.14399937446E+04 -0.18494451985E+04  0.23478464486E+04  0.50400001928E-02 0. -1.
       -1    1    3    3    0  502 -0.13547479306E+03 -0.14399937446E+04  0.32334783445E+03  0.14820557432E+04  0.50400001928E-02 0.  1.
</event>
<event>
 5   0  0.3159875E-07  0.3375602E+04  0.7818609E-02  0.8143920E-01
        1   -1    0    0  501    0  0.00000000000E+00  0.00000000000E+00  0.17754281631E+04  0.17754281631E+04  0.50400001928E-02 0. -1.
       -1   -1    0    0    0  501  0.00000000000E+00  0.00000000000E+00 -0.16044991812E+04  0.16044991812E+04  0.50400001928E-02 0.  1.
    10030    2    1    2    0    0  0.00000000000E+00  0.00000000000E+00  0.17092898190E+03  0.33799273444E+04  0.33756024850E+04 0.  0.
        2    1    3    3  502    0  0.12070167953E+03  0.53358521910E+03 -0.15132624255E+04  0.16091131875E+04  0.25500000920E-02 0.  1.
       -2    1    3    3    0  502 -0.12070167953E+03 -0.53358521910E+03  0.16841914074E+04  0.17708141569E+04  0.25500000920E-02 0. -1.
</event>
<event>
 5   0  0.9878336E-07  0.3584803E+04  0.7818609E-02  0.8093982E-01
        2   -1    0    0  501    0  0.00000000000E+00  0.00000000000E+00  0.28963279955E+04  0.28963279955E+04  0.25500000920E-02 0. -1.
       -2   -1    0    0    0  501  0.00000000000E+00  0.00000000000E+00 -0.11092331156E+04  0.11092331156E+04  0.25500000920E-02 0.  1.
    10030    2    1    2    0    0  0.00000000000E+00  0.00000000000E+00  0.17870948799E+04  0.40055611110E+04  0.35848028822E+04 0.  0.
        3    1    3    3  502    0  0.34098824969E+03 -0.15491642666E+03  0.28521176251E+04  0.28766033865E+04  0.10100000352E+00 0. -1.
       -3    1    3    3    0  502 -0.34098824969E+03  0.15491642666E+03 -0.10650227452E+04  0.11289577245E+04  0.10100000352E+00 0.  1.
</event>
<event>
 5   0  0.1006019E-06  0.3635294E+04  0.7818609E-02  0.8082455E-01
        2   -1    0    0  501    0  0.00000000000E+00  0.00000000000E+00  0.18424299946E+04  0.18424299946E+04  0.25500000920E-02 0. -1.
       -2   -1    0    0    0  501  0.00000000000E+00  0.00000000000E+00 -0.17931969591E+04  0.17931969591E+04  0.25500000920E-02 0.  1.
    10030    2    1    2    0    0  0.00000000000E+00  0.00000000000E+00  0.49233035451E+02  0.36356269537E+04  0.36352935857E+04 0.  0.
        1    1    3    3  502    0 -0.81356069343E+03  0.14230973914E+04 -0.76079152774E+03  0.18071776161E+04  0.50400001928E-02 0.  1.
       -1    1    3    3    0  502  0.81356069343E+03 -0.14230973914E+04  0.81002456319E+03  0.18284493376E+04  0.50400001928E-02 0. -1.
</event>
<event>
 5   0  0.3159875E-07  0.3640928E+04  0.7818609E-02  0.8081180E-01
        1   -1    0    0  501    0  0.00000000000E+00  0.00000000000E+00  0.24239888902E+04  0.24239888902E+04  0.50400001928E-02 0.  1.
       -1   -1    0    0    0  501  0.00000000000E+00  0.00000000000E+00 -0.13672049468E+04  0.13672049469E+04  0.50400001928E-02 0. -1.
    10030    2    1    2    0    0  0.00000000000E+00  0.00000000000E+00  0.10567839433E+04  0.37911938370E+04  0.36409282343E+04 0.  0.
        2    1    3    3  502    0 -0.28233087962E+03  0.17947668719E+04  0.64798301256E+03  0.19289325635E+04  0.25500000920E-02 0. -1.
       -2    1    3    3    0  502  0.28233087962E+03 -0.17947668719E+04  0.40880093078E+03  0.18622612735E+04  0.25500000920E-02 0.  1.
</event>
<event>
 5   0  0.3278988E-07  0.3606508E+04  0.7818609E-02  0.8089003E-01
        1   -1    0    0  501    0  0.00000000000E+00  0.00000000000E+00  0.25259256237E+04  0.25259256237E+04  0.50400001928E-02 0.  1.
       -1   -1    0    0    0  501  0.00000000000E+00  0.00000000000E+00 -0.12873396419E+04  0.12873396419E+04  0.50400001928E-02 0. -1.
    10030    2    1    2    0    0  0.00000000000E+00  0.00000000000E+00  0.12385859819E+04  0.38132652656E+04  0.36065075560E+04 0.  0.
        4    1    3    3  502    0 -0.18409424790E+03 -0.23501037598E+03  0.24996159209E+04  0.25173799740E+04  0.12699999809E+01 0.  1.
       -4    1    3    3    0  502  0.18409424790E+03  0.23501037598E+03 -0.12610299390E+04  0.12958852916E+04  0.12699999809E+01 0. -1.
</event>
<event>
 5   0  0.3365378E-07  0.3595691E+04  0.7818609E-02  0.8091480E-01
        1   -1    0    0  501    0  0.00000000000E+00  0.00000000000E+00  0.19536529286E+04  0.19536529286E+04  0.50400001928E-02 0. -1.
       -1   -1    0    0    0  501  0.00000000000E+00  0.00000000000E+00 -0.16544636931E+04  0.16544636931E+04  0.50400001928E-02 0.  1.
    10030    2    1    2    0    0  0.00000000000E+00  0.00000000000E+00  0.29918923550E+03  0.36081166217E+04  0.35956906648E+04 0.  0.
        3    1    3    3  502    0  0.15119248021E+04 -0.78903552690E+03 -0.42136569552E+03  0.17567136162E+04  0.10100000352E+00 0.  1.
       -3    1    3    3    0  502 -0.15119248021E+04  0.78903552690E+03  0.72055493102E+03  0.18514030055E+04  0.10100000352E+00 0. -1.
</event>
<event>
 5   0  0.3278988E-07  0.3589683E+04  0.7818609E-02  0.8092859E-01
       -1   -1    0    0    0  501  0.00000000000E+00  0.00000000000E+00  0.32692733876E+04  0.32692733876E+04  0.50400001928E-02 0. -1.
        1   -1    0    0  501    0  0.00000000000E+00  0.00000000000E+00 -0.98537387253E+03  0.98537387255E+03  0.50400001928E-02 0.  1.
    10030    2    1    2    0    0  0.00000000000E+00  0.00000000000E+00  0.22838995150E+04  0.42546472601E+04  0.35896833166E+04 0.  0.
        4    1    3    3  502    0 -0.13905561609E+04 -0.72074261758E+03  0.21808736918E+04  0.26850191862E+04  0.12699999809E+01 0. -1.
       -4    1    3    3    0  502  0.13905561609E+04  0.72074261758E+03  0.10302582320E+03  0.15696280740E+04  0.12699999809E+01 0.  1.
</event>
<event>
 5   0  0.1031659E-06  0.3597924E+04  0.7818609E-02  0.8090967E-01
       -2   -1    0    0    0  501  0.00000000000E+00  0.00000000000E+00  0.21800629867E+04  0.21800629867E+04  0.25500000920E-02 0.  1.
        2   -1    0    0  501    0  0.00000000000E+00  0.00000000000E+00 -0.14844819920E+04  0.14844819920E+04  0.25500000920E-02 0. -1.
    10030    2    1    2    0    0  0.00000000000E+00  0.00000000000E+00  0.69558099469E+03  0.36645449787E+04  0.35979239821E+04 0.  0.
        2    1    3    3  502    0 -0.12808692712E+03  0.14410841721E+04 -0.74118151757E+03  0.16255706364E+04  0.25500000920E-02 0. -1.
       -2    1    3    3    0  502  0.12808692712E+03 -0.14410841721E+04  0.14367625123E+04  0.20389743423E+04  0.25500000920E-02 0.  1.
</event>
<event>
 5   0  0.1006019E-06  0.3617010E+04  0.7818609E-02  0.8086606E-01
        2   -1    0    0  501    0  0.00000000000E+00  0.00000000000E+00  0.21133866777E+04  0.21133866777E+04  0.25500000920E-02 0. -1.
       -2   -1    0    0    0  501  0.00000000000E+00  0.00000000000E+00 -0.15476061534E+04  0.15476061534E+04  0.25500000920E-02 0.  1.
    10030    2    1    2    0    0  0.00000000000E+00  0.00000000000E+00  0.56578052435E+03  0.36609928311E+04  0.36170099402E+04 0.  0.
        1    1    3    3  502    0  0.35662849468E+02 -0.17844876506E+04  0.57802163531E+03  0.18761068799E+04  0.50400001928E-02 0. -1.
       -1    1    3    3    0  502 -0.35662849468E+02  0.17844876506E+04 -0.12241110965E+02  0.17848859512E+04  0.50400001928E-02 0.  1.
</event>
<event>
 5   0  0.3242047E-07  0.3475265E+04  0.7818609E-02  0.8119677E-01
       -1   -1    0    0    0  501  0.00000000000E+00  0.00000000000E+00  0.11909896433E+04  0.11909896433E+04  0.50400001928E-02 0.  1.
        1   -1    0    0  501    0  0.00000000000E+00  0.00000000000E+00 -0.25351753187E+04  0.25351753187E+04  0.50400001928E-02 0. -1.
    10030    2    1    2    0    0  0.00000000000E+00  0.00000000000E+00 -0.13441856754E+04  0.37261649620E+04  0.34752654854E+04 0.  0.
        1    1    3    3  502    0  0.15885050817E+04  0.88283561619E+00 -0.14272250086E+04  0.21354906695E+04  0.50400001928E-02 0. -1.
       -1    1    3    3    0  502 -0.15885050817E+04 -0.88283561619E+00  0.83039333252E+02  0.15906742925E+04  0.50400001928E-02 0.  1.
</event>
<event>
 5   0  0.1031659E-06  0.3621711E+04  0.7818609E-02  0.8085537E-01
       -2   -1    0    0    0  501  0.00000000000E+00  0.00000000000E+00  0.13977286701E+04  0.13977286701E+04  0.25500000920E-02 0.  1.
        2   -1    0    0  501    0  0.00000000000E+00  0.00000000000E+00 -0.23460904646E+04  0.23460904646E+04  0.25500000920E-02 0. -1.
    10030    2    1    2    0    0  0.00000000000E+00  0.00000000000E+00 -0.94836179445E+03  0.37438191347E+04  0.36217111453E+04 0.  0.
        2    1    3    3  502    0  0.10984228817E+04 -0.13705758113E+04 -0.92970478087E+03  0.19873001437E+04  0.25500000920E-02 0.  1.
       -2    1    3    3    0  502 -0.10984228817E+04  0.13705758113E+04 -0.18657013576E+02  0.17565189910E+04  0.25500000920E-02 0. -1.
</event>
<event>
 5   0  0.3365378E-07  0.3587974E+04  0.7818609E-02  0.8093252E-01
       -1   -1    0    0    0  501  0.00000000000E+00  0.00000000000E+00  0.11894887052E+04  0.11894887052E+04  0.50400001928E-02 0.  1.
        1   -1    0    0  501    0  0.00000000000E+00  0.00000000000E+00 -0.27056917232E+04  0.27056917233E+04  0.50400001928E-02 0. -1.
    10030    2    1    2    0    0  0.00000000000E+00  0.00000000000E+00 -0.15162030180E+04  0.38951804285E+04  0.35879742166E+04 0.  0.
        3    1    3    3  502    0  0.41558915070E+03 -0.14668087392E+04  0.26845498054E+03  0.15480020370E+04  0.10100000352E+00 0.  1.
       -3    1    3    3    0  502 -0.41558915070E+03  0.14668087392E+04 -0.17846579986E+04  0.23471783915E+04  0.10100000352E+00 0. -1.
</event>
<event>
 5   0  0.1006019E-06  0.3596881E+04  0.7818609E-02  0.8091206E-01
        2   -1    0    0  501    0  0.00000000000E+00  0.00000000000E+00  0.20323403232E+04  0.20323403232E+04  0.25500000920E-02 0.  1.
       -2   -1    0    0    0  501  0.00000000000E+00  0.00000000000E+00 -0.15914600147E+04  0.15914600147E+04  0.25500000920E-02 0. -1.
    10030    2    1    2    0    0  0.00000000000E+00  0.00000000000E+00  0.44088030856E+03  0.36238003379E+04  0.35968810715E+04 0.  0.
        1    1    3    3  502    0 -0.60558732763E+02  0.10852133579E+04  0.16640044918E+04  0.19875276957E+04  0.50400001928E-02 0.  1.
       -1    1    3    3    0  502  0.60558732763E+02 -0.10852133579E+04 -0.12231241832E+04  0.16362726423E+04  0.50400001928E-02 0. -1.
</event>
<event>
 5   0  0.3365378E-07  0.2761744E+04  0.7818609E-02  0.8315245E-01
        1   -1    0    0  501    0  0.00000000000E+00  0.00000000000E+00  0.17490896198E+04  0.17490896198E+04  0.50400001928E-02 0.  1.
       -1   -1    0    0    0  501  0.00000000000E+00  0.00000000000E+00 -0.10901710825E+04  0.10901710825E+04  0.50400001928E-02 0. -1.
    10030    2    1    2    0    0  0.00000000000E+00  0.00000000000E+00  0.65891853724E+03  0.28392607023E+04  0.27617435973E+04 0.  0.
        3    1    3    3  502    0  0.11712112748E+04 -0.72525492699E+03  0.42740322523E+03  0.14423605952E+04  0.10100000352E+00 0.  1.
       -3    1    3    3    0  502 -0.11712112748E+04  0.72525492699E+03  0.23151531201E+03  0.13969001071E+04  0.10100000352E+00 0. -1.
</event>
<event>
 5   0  0.9878977E-07  0.3736121E+04  0.7818609E-02  0.8060004E-01
        2   -1    0    0  501    0  0.00000000000E+00  0.00000000000E+00  0.20342968371E+04  0.20342968371E+04  0.25500000920E-02 0.  1.
       -2   -1    0    0    0  501  0.00000000000E+00  0.00000000000E+00 -0.17154088319E+04  0.17154088319E+04  0.25500000920E-02 0. -1.
    10030    2    1    2    0    0  0.00000000000E+00  0.00000000000E+00  0.31888800525E+03  0.37497056690E+04  0.37361213904E+04 0.  0.
        5    1    3    3  502    0 -0.37598492869E+02  0.93564477124E+02  0.20315574788E+04  0.20340638725E+04  0.46999998093E+01 0.  1.
       -5    1    3    3    0  502  0.37598492869E+02 -0.93564477124E+02 -0.17126694735E+04  0.17156417964E+04  0.46999998093E+01 0. -1.
</event>
<event>
 5   0  0.1006019E-06  0.3567810E+04  0.7818609E-02  0.8097905E-01
        2   -1    0    0  501    0  0.00000000000E+00  0.00000000000E+00  0.17630647820E+04  0.17630647820E+04  0.25500000920E-02 0. -1.
       -2   -1    0    0    0  501  0.00000000000E+00  0.00000000000E+00 -0.18049916332E+04  0.18049916332E+04  0.25500000920E-02 0.  1.
    10030    2    1    2    0    0  0.00000000000E+00  0.00000000000E+00 -0.41926851228E+02  0.35680564152E+04  0.35678100736E+04 0.  0.
        1    1    3    3  502    0 -0.90131309367E+03  0.15394437788E+04 -0.29010065115E+02  0.17841227606E+04  0.50400001928E-02 0. -1.
       -1    1    3    3    0  502  0.90131309367E+03 -0.15394437788E+04 -0.12916786112E+02  0.17839336547E+04  0.50400001928E-02 0.  1.
</event>
<event>
 5   0  0.3159875E-07  0.3597393E+04  0.7818609E-02  0.8091089E-01
        1   -1    0    0  501    0  0.00000000000E+00  0.00000000000E+00  0.24729545529E+04  0.24729545530E+04  0.50400001928E-02 0.  1.
       -1   -1    0    0    0  501  0.00000000000E+00  0.00000000000E+00 -0.13082765665E+04  0.13082765665E+04  0.50400001928E-02 0. -1.
    10030    2    1    2    0    0  0.00000000000E+00  0.00000000000E+00  0.11646779865E+04  0.37812311195E+04  0.35973926623E+04 0.  0.
        2    1    3    3  502    0 -0.15407406453E+04 -0.90817346144E+03  0.78355793315E+03  0.19525941224E+04  0.25500000920E-02 0.  1.
       -2    1    3    3    0  502  0.15407406453E+04  0.90817346144E+03  0.38112005331E+03  0.18286369971E+04  0.25500000920E-02 0. -1.
</event>
<event>
 5   0  0.1031659E-06  0.3604139E+04  0.7818609E-02  0.8089544E-01
        2   -1    0    0  501    0  0.00000000000E+00  0.00000000000E+00  0.25308248171E+04  0.25308248171E+04  0.25500000920E-02 0. -1.
       -2   -1    0    0    0  501  0.00000000000E+00  0.00000000000E+00 -0.12831606475E+04  0.12831606475E+04  0.25500000920E-02 0.  1.
    10030    2    1    2    0    0  0.00000000000E+00  0.00000000000E+00  0.12476641696E+04  0.38139854646E+04  0.36041391821E+04 0.  0.
        2    1    3    3  502    0 -0.26760674822E+03 -0.10868746057E+04 -0.87067990172E+03  0.14180949445E+04  0.25500000920E-02 0.  1.
       -2    1    3    3    0  502  0.26760674822E+03  0.10868746057E+04  0.21183440713E+04  0.23958905201E+04  0.25500000920E-02 0. -1.
</event>
<event>
 5   0  0.1006019E-06  0.3590426E+04  0.7818609E-02  0.8092688E-01
        2   -1    0    0  501    0  0.00000000000E+00  0.00000000000E+00  0.13610766299E+04  0.13610766299E+04  0.25500000920E-02 0. -1.
       -2   -1    0    0    0  501  0.00000000000E+00  0.00000000000E+00 -0.23678233593E+04  0.23678233593E+04  0.25500000920E-02 0.  1.
    10030    2    1    2    0    0  0.00000000000E+00  0.00000000000E+00 -0.10067467293E+04  0.37288999892E+04  0.35904256227E+04 0.  0.
        1    1    3    3  502    0  0.15114051677E+04 -0.50480051927E+03  0.35532798787E+03  0.16326135869E+04  0.50400001928E-02 0. -1.
       -1    1    3    3    0  502 -0.15114051677E+04  0.50480051927E+03 -0.13620747172E+04  0.20962864023E+04  0.50400001928E-02 0.  1.
</event>
<event>
 5   0  0.3159875E-07  0.3789783E+04  0.7818609E-02  0.8048351E-01
       -1   -1    0    0    0  501  0.00000000000E+00  0.00000000000E+00  0.22723215488E+04  0.22723215488E+04  0.50400001928E-02 0.  1.
        1   -1    0    0  501    0  0.00000000000E+00  0.00000000000E+00 -0.15801525557E+04  0.15801525557E+04  0.50400001928E-02 0. -1.
    10030    2    1    2    0    0  0.00000000000E+00  0.00000000000E+00  0.69216899309E+03  0.38524741045E+04  0.37897834781E+04 0.  0.
        2    1    3    3  502    0  0.10713083694E+04 -0.15007781482E+04  0.78985838703E+03  0.20059693278E+04  0.25500000920E-02 0. -1.
       -2    1    3    3    0  502 -0.10713083694E+04  0.15007781482E+04 -0.97689393947E+02  0.18465047767E+04  0.25500000920E-02 0.  1.
</event>
<event>
 5   0  0.3278988E-07  0.3591963E+04  0.7818609E-02  0.8092335E-01
       -1   -1    0    0    0  501  0.00000000000E+00  0.00000000000E+00  0.14697168999E+04  0.14697168999E+04  0.50400001928E-02 0. -1.
        1   -1    0    0  501    0  0.00000000000E+00  0.00000000000E+00 -0.21946741395E+04  0.21946741395E+04  0.50400001928E-02 0.  1.
    10030    2    1    2    0    0  0.00000000000E+00  0.00000000000E+00 -0.72495723961E+03  0.36643910393E+04  0.35919630691E+04 0.  0.
        4    1    3    3  502    0 -0.11085404141E+04  0.11949069119E+04 -0.11319308945E+04  0.19844227222E+04  0.12699999809E+01 0.  1.
       -4    1    3    3    0  502  0.11085404141E+04 -0.11949069119E+04  0.40697365486E+03  0.16799683171E+04  0.12699999809E+01 0. -1.
</event>
<event>
 5   0  0.9878977E-07  0.3498357E+04  0.7818609E-02  0.8114179E-01
       -2   -1    0    0    0  501  0.00000000000E+00  0.00000000000E+00  0.18668854720E+04  0.18668854720E+04  0.25500000920E-02 0. -1.
        2   -1    0    0  501    0  0.00000000000E+00  0.00000000000E+00 -0.16388929266E+04  0.16388929266E+04  0.25500000920E-02 0.  1.
    10030    2    1    2    0    0  0.00000000000E+00  0.00000000000E+00  0.22799254546E+03  0.35057783986E+04  0.34983569829E+04 0.  0.
        5    1    3    3  502    0  0.15871864660E+04  0.33459227626E+03  0.76997673253E+03  0.17955498121E+04  0.46999998093E+01 0. -1.
       -5    1    3    3    0  502 -0.15871864660E+04 -0.33459227626E+03 -0.54198418707E+03  0.17102285865E+04  0.46999998093E+01 0.  1.
</event>
<event>
 5   0  0.3159875E-07  0.3566674E+04  0.7818609E-02  0.8098168E-01
        1   -1    0    0  501    0  0.00000000000E+00  0.00000000000E+00  0.17388140005E+04  0.17388140005E+04  0.50400001928E-02 0.  1.
       -1   -1    0    0    0  501  0.00000000000E+00  0.00000000000E+00 -0.18290005300E+04  0.18290005300E+04  0.50400001928E-02 0. -1.
    10030    2    1    2    0    0  0.00000000000E+00  0.00000000000E+00 -0.90186529531E+02  0.35678145305E+04  0.35666744895E+04 0.  0.
        5    1    3    3  502    0  0.87901333145E+03  0.15174296687E+04  0.27906648703E+03  0.17757132174E+04  0.46999998093E+01 0.  1.
       -5    1    3    3    0  502 -0.87901333145E+03 -0.15174296687E+04 -0.36925301656E+03  0.17921013131E+04  0.46999998093E+01 0. -1.
</event>
<event>
 5   0  0.3365378E-07  0.2592992E+04  0.7818609E-02  0.8370586E-01
        1   -1    0    0  501    0  0.00000000000E+00  0.00000000000E+00  0.75589150159E+03  0.75589150161E+03  0.50400001928E-02 0.  1.
       -1   -1    0    0    0  501  0.00000000000E+00  0.00000000000E+00 -0.22237341566E+04  0.22237341566E+04  0.50400001928E-02 0. -1.
    10030    2    1    2    0    0  0.00000000000E+00  0.00000000000E+00 -0.14678426550E+04  0.29796256582E+04  0.25929919019E+04 0.  0.
        3    1    3    3  502    0  0.12899876165E+04  0.12588820624E+03 -0.77000126755E+03  0.15075867648E+04  0.10100000352E+00 0.  1.
       -3    1    3    3    0  502 -0.12899876165E+04 -0.12588820624E+03 -0.69784138741E+03  0.14720388933E+04  0.10100000352E+00 0. -1.
</event>
<event>
 5   0  0.9878336E-07  0.3612776E+04  0.7818609E-02  0.8087571E-01
       -2   -1    0    0    0  501  0.00000000000E+00  0.00000000000E+00  0.14138194286E+04  0.14138194286E+04  0.25500000920E-02 0. -1.
        2   -1    0    0  501    0  0.00000000000E+00  0.00000000000E+00 -0.23079591583E+04  0.23079591583E+04  0.25500000920E-02 0.  1.
    10030    2    1    2    0    0  0.00000000000E+00  0.00000000000E+00 -0.89413972979E+03  0.37217785869E+04  0.36127759401E+04 0.  0.
        3    1    3    3  502    0 -0.49699706709E+02 -0.71074013459E+03 -0.21570973232E+04  0.22717153149E+04  0.10100000352E+00 0.  1.
       -3    1    3    3    0  502  0.49699706709E+02  0.71074013459E+03  0.12629575935E+04  0.14500632720E+04  0.10100000352E+00 0. -1.
</event>
<event>
 5   0  0.9878977E-07  0.3494732E+04  0.7818609E-02  0.8115040E-01
       -2   -1    0    0    0  501  0.00000000000E+00  0.00000000000E+00  0.13672221692E+04  0.13672221692E+04  0.25500000920E-02 0. -1.
        2   -1    0    0  501    0  0.00000000000E+00  0.00000000000E+00 -0.22332053489E+04  0.22332053489E+04  0.25500000920E-02 0.  1.
    10030    2    1    2    0    0  0.00000000000E+00  0.00000000000E+00 -0.86598317967E+03  0.36004275181E+04  0.34947319562E+04 0.  0.
        5    1    3    3  502    0  0.46553913371E+03  0.10682442649E+04 -0.17744444922E+04  0.21228631233E+04  0.46999998093E+01 0.  1.
       -5    1    3    3    0  502 -0.46553913371E+03 -0.10682442649E+04  0.90846131251E+03  0.14775643948E+04  0.46999998093E+01 0. -1.
</event>
<event>
 5   0  0.3159875E-07  0.3497440E+04  0.7818609E-02  0.8114397E-01
       -1   -1    0    0    0  501  0.00000000000E+00  0.00000000000E+00  0.14779300881E+04  0.14779300882E+04  0.50400001928E-02 0. -1.
        1   -1    0    0  501    0  0.00000000000E+00  0.00000000000E+00 -0.20691251119E+04  0.20691251119E+04  0.50400001928E-02 0.  1.
    10030    2    1    2    0    0  0.00000000000E+00  0.00000000000E+00 -0.59119502379E+03  0.35470552001E+04  0.34974403549E+04 0.  0.
        5    1    3    3  502    0 -0.14647463367E+04 -0.79639513434E+03 -0.83059687538E+03  0.18626970501E+04  0.46999998093E+01 0.  1.
       -5    1    3    3    0  502  0.14647463367E+04  0.79639513434E+03  0.23940185159E+03  0.16843581500E+04  0.46999998093E+01 0. -1.
</event>
<event>
 5   0  0.3159875E-07  0.3610872E+04  0.7818609E-02  0.8088006E-01
        1   -1    0    0  501    0  0.00000000000E+00  0.00000000000E+00  0.28141688425E+04  0.28141688425E+04  0.50400001928E-02 0.  1.
       -1   -1    0    0    0  501  0.00000000000E+00  0.00000000000E+00 -0.11582815369E+04  0.11582815369E+04  0.50400001928E-02 0. -1.
    10030    2    1    2    0    0  0.00000000000E+00  0.00000000000E+00  0.16558873056E+04  0.39724503794E+04  0.36108723666E+04 0.  0.
        2    1    3    3  502    0  0.94305344315E+03  0.14874669913E+04  0.12648125497E+04  0.21683308402E+04  0.25500000920E-02 0.  1.
       -2    1    3    3    0  502 -0.94305344315E+03 -0.14874669913E+04  0.39107475590E+03  0.18041195392E+04  0.25500000920E-02 0. -1.
</event>
<event>
 5   0  0.9538919E-07  0.3565314E+04  0.7818609E-02  0.8098483E-01
        2   -1    0    0  501    0  0.00000000000E+00  0.00000000000E+00  0.22790450221E+04  0.22790450221E+04  0.25500000920E-02 0.  1.
       -2   -1    0    0    0  501  0.00000000000E+00  0.00000000000E+00 -0.13943850862E+04  0.13943850862E+04  0.25500000920E-02 0. -1.
    10030    2    1    2    0    0  0.00000000000E+00  0.00000000000E+00  0.88465993589E+03  0.36734301083E+04  0.35653142299E+04 0.  0.
        4    1    3    3  502    0  0.78563297316E+03 -0.30651532519E+03  0.20605277598E+04  0.22264202377E+04  0.12699999809E+01 0.  1.
       -4    1    3    3    0  502 -0.78563297316E+03  0.30651532519E+03 -0.11758678239E+04  0.14470098705E+04  0.12699999809E+01 0. -1.
</event>
<event>
 5   0  0.9878977E-07  0.3598831E+04  0.7818609E-02  0.8090760E-01
       -2   -1    0    0    0  501  0.00000000000E+00  0.00000000000E+00  0.14506362753E+04  0.14506362753E+04  0.25500000920E-02 0.  1.
        2   -1    0    0  501    0  0.00000000000E+00  0.00000000000E+00 -0.22320520692E+04  0.22320520692E+04  0.25500000920E-02 0. -1.
    10030    2    1    2    0    0  0.00000000000E+00  0.00000000000E+00 -0.78141579395E+03  0.36826883445E+04  0.35988307545E+04 0.  0.
        5    1    3    3  502    0  0.11123368937E+04 -0.13202080190E+04  0.12869292212E+03  0.17311344652E+04  0.46999998093E+01 0.  1.
       -5    1    3    3    0  502 -0.11123368937E+04  0.13202080190E+04 -0.91010871607E+03  0.19515538792E+04  0.46999998093E+01 0. -1.
</event>
<event>
 5   0  0.3242047E-07  0.3694273E+04  0.7818609E-02  0.8069232E-01
       -1   -1    0    0    0  501  0.00000000000E+00  0.00000000000E+00  0.15091648026E+04  0.15091648026E+04  0.50400001928E-02 0.  1.
        1   -1    0    0  501    0  0.00000000000E+00  0.00000000000E+00 -0.22607953165E+04  0.22607953165E+04  0.50400001928E-02 0. -1.
    10030    2    1    2    0    0  0.00000000000E+00  0.00000000000E+00 -0.75163051392E+03  0.37699601191E+04  0.36942727119E+04 0.  0.
        1    1    3    3  502    0  0.10264149168E+04 -0.50068793397E+02 -0.19421487173E+04  0.21972655975E+04  0.50400001928E-02 0. -1.
       -1    1    3    3    0  502 -0.10264149168E+04  0.50068793397E+02  0.11905182034E+04  0.15726945216E+04  0.50400001928E-02 0.  1.
</event>
<event>
 5   0  0.1031659E-06  0.3323214E+04  0.7818609E-02  0.8157013E-01
        2   -1    0    0  501    0  0.00000000000E+00  0.00000000000E+00  0.30058902844E+04  0.30058902844E+04  0.25500000920E-02 0.  1.
       -2   -1    0    0    0  501  0.00000000000E+00  0.00000000000E+00 -0.91850941465E+03  0.91850941465E+03  0.25500000920E-02 0. -1.
    10030    2    1    2    0    0  0.00000000000E+00  0.00000000000E+00  0.20873808698E+04  0.39243996991E+04  0.33232144232E+04 0.  0.
        2    1    3    3  502    0 -0.11748719220E+04  0.11742841376E+04  0.10919670109E+04  0.19878780702E+04  0.25500000920E-02 0. -1.
       -2    1    3    3    0  502  0.11748719220E+04 -0.11742841376E+04  0.99541385884E+03  0.19365216289E+04  0.25500000920E-02 0.  1.
</event>
<event>
 5   0  0.3159875E-07  0.3648040E+04  0.7818609E-02  0.8079575E-01
       -1   -1    0    0    0  501  0.00000000000E+00  0.00000000000E+00  0.17598532133E+04  0.17598532133E+04  0.50400001928E-02 0. -1.
        1   -1    0    0  501    0  0.00000000000E+00  0.00000000000E+00 -0.18905268562E+04  0.18905268562E+04  0.50400001928E-02 0.  1.
    10030    2    1    2    0    0  0.00000000000E+00  0.00000000000E+00 -0.13067364286E+03  0.36503800695E+04  0.36480404398E+04 0.  0.
        2    1    3    3  502    0 -0.12559530625E+04 -0.10090018089E+04  0.79051693757E+03  0.17945528062E+04  0.25500000920E-02 0. -1.
       -2    1    3    3    0  502  0.12559530625E+04  0.10090018089E+04 -0.92119058043E+03  0.18558272633E+04  0.25500000920E-02 0.  1.
</event>
<event>
 5   0  0.1006019E-06  0.3589021E+04  0.7818609E-02  0.8093011E-01
        2   -1    0    0  501    0  0.00000000000E+00  0.00000000000E+00  0.16938607331E+04  0.16938607331E+04  0.25500000920E-02 0.  1.
       -2   -1    0    0    0  501  0.00000000000E+00  0.00000000000E+00 -0.19011411710E+04  0.19011411710E+04  0.25500000920E-02 0. -1.
    10030    2    1    2    0    0  0.00000000000E+00  0.00000000000E+00 -0.20728043782E+03  0.35950019041E+04  0.35890212469E+04 0.  0.
        1    1    3    3  502    0 -0.99278304345E+03  0.10386761564E+04  0.97323361692E+03  0.17354106149E+04  0.50400001928E-02 0.  1.
       -1    1    3    3    0  502  0.99278304345E+03 -0.10386761564E+04 -0.11805140547E+04  0.18595912892E+04  0.50400001928E-02 0. -1.
</event>
<event>
 5   0  0.3365378E-07  0.3614133E+04  0.7818609E-02  0.8087262E-01
        1   -1    0    0  501    0  0.00000000000E+00  0.00000000000E+00  0.20767474423E+04  0.20767474423E+04  0.50400001928E-02 0.  1.
       -1   -1    0    0    0  501  0.00000000000E+00  0.00000000000E+00 -0.15724059051E+04  0.15724059051E+04  0.50400001928E-02 0. -1.
    10030    2    1    2    0    0  0.00000000000E+00  0.00000000000E+00  0.50434153712E+03  0.36491533474E+04  0.36141333355E+04 0.  0.
        3    1    3    3  502    0  0.10798176544E+04  0.14488498331E+04  0.27017401842E+03  0.18270648637E+04  0.10100000352E+00 0.  1.
       -3    1    3    3    0  502 -0.10798176544E+04 -0.14488498331E+04  0.23416751869E+03  0.18220884837E+04  0.10100000352E+00 0. -1.
</event>
<event>
 5   0  0.3365378E-07  0.3594997E+04  0.7818609E-02  0.8091639E-01
        1   -1    0    0  501    0  0.00000000000E+00  0.00000000000E+00  0.10018386566E+04  0.10018386566E+04  0.50400001928E-02 0. -1.
       -1   -1    0    0    0  501  0.00000000000E+00  0.00000000000E+00 -0.32250712881E+04  0.32250712881E+04  0.50400001928E-02 0.  1.
    10030    2    1    2    0    0  0.00000000000E+00  0.00000000000E+00 -0.22232326315E+04  0.42269099447E+04  0.35949971275E+04 0.  0.
        3    1    3    3  502    0  0.99755418793E+03 -0.68582323491E+03  0.45067634634E+03  0.12917341239E+04  0.10100000352E+00 0. -1.
       -3    1    3    3    0  502 -0.99755418793E+03  0.68582323491E+03 -0.26739089779E+04  0.29351758209E+04  0.10100000352E+00 0.  1.
</event>
<event>
 5   0  0.9538919E-07  0.3566914E+04  0.7818609E-02  0.8098113E-01
       -2   -1    0    0    0  501  0.00000000000E+00  0.00000000000E+00  0.16639963564E+04  0.16639963564E+04  0.25500000920E-02 0. -1.
        2   -1    0    0  501    0  0.00000000000E+00  0.00000000000E+00 -0.19114936787E+04  0.19114936787E+04  0.25500000920E-02 0.  1.
    10030    2    1    2    0    0  0.00000000000E+00  0.00000000000E+00 -0.24749732228E+03  0.35754900351E+04  0.35669138014E+04 0.  0.
        4    1    3    3  502    0  0.10171291582E+04 -0.14634533261E+04 -0.19076403577E+03  0.17923838574E+04  0.12699999809E+01 0.  1.
       -4    1    3    3    0  502 -0.10171291582E+04  0.14634533261E+04 -0.56733286516E+02  0.17831061777E+04  0.12699999809E+01 0. -1.
</event>
<event>
 5   0  0.1006019E-06  0.3601167E+04  0.7818609E-02  0.8090224E-01
       -2   -1    0    0    0  501  0.00000000000E+00  0.00000000000E+00  0.10870990296E+04  0.10870990297E+04  0.25500000920E-02 0. -1.
        2   -1    0    0  501    0  0.00000000000E+00  0.00000000000E+00 -0.29823415720E+04  0.29823415720E+04  0.25500000920E-02 0.  1.
    10030    2    1    2    0    0  0.00000000000E+00  0.00000000000E+00 -0.18952425424E+04  0.40694406017E+04  0.36011668270E+04 0.  0.
        1    1    3    3  502    0 -0.93511361726E+03  0.37949866901E+02  0.79065701398E+03  0.12251596563E+04  0.50400001928E-02 0. -1.
       -1    1    3    3    0  502  0.93511361726E+03 -0.37949866901E+02 -0.26858995564E+04  0.28442809454E+04  0.50400001928E-02 0.  1.
</event>
<event>
 5   0  0.3159875E-07  0.3626533E+04  0.7818609E-02  0.8084441E-01
       -1   -1    0    0    0  501  0.00000000000E+00  0.00000000000E+00  0.20254529142E+04  0.20254529142E+04  0.50400001928E-02 0. -1.
        1   -1    0    0  501    0  0.00000000000E+00  0.00000000000E+00 -0.16233083624E+04  0.16233083624E+04  0.50400001928E-02 0.  1.
    10030    2    1    2    0    0  0.00000000000E+00  0.00000000000E+00  0.40214455182E+03  0.36487612766E+04  0.36265325882E+04 0.  0.
        2    1    3    3  502    0  0.10418954850E+04  0.85493745193E+03 -0.10194048145E+04  0.16898669841E+04  0.25500000920E-02 0.  1.
       -2    1    3    3    0  502 -0.10418954850E+04 -0.85493745193E+03  0.14215493663E+04  0.19588942925E+04  0.25500000920E-02 0. -1.
</event>
<event>
 5   0  0.3278988E-07  0.3576348E+04  0.7818609E-02  0.8095931E-01
       -1   -1    0    0    0  501  0.00000000000E+00  0.00000000000E+00  0.15838976047E+04  0.15838976047E+04  0.50400001928E-02 0. -1.
        1   -1    0    0  501    0  0.00000000000E+00  0.00000000000E+00 -0.20187963860E+04  0.20187963860E+04  0.50400001928E-02 0.  1.
    10030    2    1    2    0    0  0.00000000000E+00  0.00000000000E+00 -0.43489878131E+03  0.36026939906E+04  0.35763482828E+04 0.  0.
        4    1    3    3  502    0 -0.84141781038E+03 -0.10297207083E+04  0.98687270348E+03  0.16559673954E+04  0.12699999809E+01 0. -1.
       -4    1    3    3    0  502  0.84141781038E+03  0.10297207083E+04 -0.14217714848E+04  0.19467265952E+04  0.12699999809E+01 0.  1.
</event>
<event>
 5   0  0.3159875E-07  0.3520062E+04  0.7818609E-02  0.8109052E-01
        1   -1    0    0  501    0  0.00000000000E+00  0.00000000000E+00  0.14474947189E+04  0.14474947190E+04  0.50400001928E-02 0. -1.
       -1   -1    0    0    0  501  0.00000000000E+00  0.00000000000E+00 -0.21400487370E+04  0.21400487370E+04  0.50400001928E-02 0.  1.
    10030    2    1    2    0    0  0.00000000000E+00  0.00000000000E+00 -0.69255401808E+03  0.35875434560E+04  0.35200620706E+04 0.  0.
        5    1    3    3  502    0 -0.97827312227E+03 -0.28627609927E+03 -0.18086055190E+04  0.20760655867E+04  0.46999998093E+01 0.  1.
       -5    1    3    3    0  502  0.97827312227E+03  0.28627609927E+03  0.11160515009E+04  0.15114778693E+04  0.46999998093E+01 0. -1.
</event>
<event>
 5   0  0.1031659E-06  0.3571079E+04  0.7818609E-02  0.8097149E-01
       -2   -1    0    0    0  501  0.00000000000E+00  0.00000000000E+00  0.15854268241E+04  0.15854268241E+04  0.25500000920E-02 0.  1.
        2   -1    0    0  501    0  0.00000000000E+00  0.00000000000E+00 -0.20109109201E+04  0.20109109201E+04  0.25500000920E-02 0. -1.
    10030    2    1    2    0    0  0.00000000000E+00  0.00000000000E+00 -0.42548409601E+03  0.35963377442E+04  0.35710794523E+04 0.  0.
        2    1    3    3  502    0 -0.31855851768E+03  0.69898455180E+02 -0.19806605986E+04  0.20073319930E+04  0.25500000920E-02 0. -1.
       -2    1    3    3    0  502  0.31855851768E+03 -0.69898455180E+02  0.15551765026E+04  0.15890057512E+04  0.25500000920E-02 0.  1.
</event>
<event>
 5   0  0.3278988E-07  0.3588409E+04  0.7818609E-02  0.8093152E-01
       -1   -1    0    0    0  501  0.00000000000E+00  0.00000000000E+00  0.18363543323E+04  0.18363543323E+04  0.50400001928E-02 0. -1.
        1   -1    0    0  501    0  0.00000000000E+00  0.00000000000E+00 -0.17530225914E+04  0.17530225914E+04  0.50400001928E-02 0.  1.
    10030    2    1    2    0    0  0.00000000000E+00  0.00000000000E+00  0.83331740868E+02  0.35893769237E+04  0.35884094696E+04 0.  0.
        4    1    3    3  502    0 -0.16074706684E+04 -0.25850044656E+03 -0.71245023929E+03  0.17771807413E+04  0.12699999809E+01 0.  1.
       -4    1    3    3    0  502  0.16074706684E+04  0.25850044656E+03  0.79578198016E+03  0.18121961824E+04  0.12699999809E+01 0. -1.
</event>
<event>
 5   0  0.9878977E-07  0.3670148E+04  0.7818609E-02  0.8074610E-01
        2   -1    0    0  501    0  0.00000000000E+00  0.00000000000E+00  0.26063285278E+04  0.26063285278E+04  0.25500000920E-02 0.  1.
       -2   -1    0    0    0  501  0.00000000000E+00  0.00000000000E+00 -0.12920458572E+04  0.12920458572E+04  0.25500000920E-02 0. -1.
    10030    2    1    2    0    0  0.00000000000E+00  0.00000000000E+00  0.13142826706E+04  0.38983743849E+04  0.36701476683E+04 0.  0.
        5    1    3    3  502    0  0.14089549977E+04 -0.19082167947E+03 -0.57513326834E+03  0.15337429593E+04  0.46999998093E+01 0. -1.
       -5    1    3    3    0  502 -0.14089549977E+04  0.19082167947E+03  0.18894159389E+04  0.23646314256E+04  0.46999998093E+01 0.  1.
</event>
<event>
 5   0  0.3159875E-07  0.3584193E+04  0.7818609E-02  0.8094122E-01
        1   -1    0    0  501    0  0.00000000000E+00  0.00000000000E+00  0.16542253771E+04  0.16542253771E+04  0.50400001928E-02 0. -1.
       -1   -1    0    0    0  501  0.00000000000E+00  0.00000000000E+00 -0.19414588017E+04  0.19414588017E+04  0.50400001928E-02 0.  1.
    10030    2    1    2    0    0  0.00000000000E+00  0.00000000000E+00 -0.28723342459E+03  0.35956841788E+04  0.35841933086E+04 0.  0.
        5    1    3    3  502    0  0.12481376534E+04 -0.11653529894E+04 -0.68913678660E+03  0.18414197762E+04  0.46999998093E+01 0.  1.
       -5    1    3    3    0  502 -0.12481376534E+04  0.11653529894E+04  0.40190336201E+03  0.17542644026E+04  0.46999998093E+01 0. -1.
</event>
<event>
 5   0  0.3242047E-07  0.3539106E+04  0.7818609E-02  0.8104584E-01
       -1   -1    0    0    0  501  0.00000000000E+00  0.00000000000E+00  0.12175647323E+04  0.12175647323E+04  0.50400001928E-02 0. -1.
        1   -1    0    0  501    0  0.00000000000E+00  0.00000000000E+00 -0.25717877266E+04  0.25717877266E+04  0.50400001928E-02 0.  1.
    10030    2    1    2    0    0  0.00000000000E+00  0.00000000000E+00 -0.13542229943E+04  0.37893524589E+04  0.35391061216E+04 0.  0.
        1    1    3    3  502    0 -0.44857876503E+03  0.16643264733E+04 -0.24867736874E+03  0.17415642256E+04  0.50400001928E-02 0.  1.
       -1    1    3    3    0  502  0.44857876503E+03 -0.16643264733E+04 -0.11055456255E+04  0.20477882333E+04  0.50400001928E-02 0. -1.
</event>
<event>
 5   0  0.1031659E-06  0.3586034E+04  0.7818609E-02  0.8093698E-01
        2   -1    0    0  501    0  0.00000000000E+00  0.00000000000E+00  0.21018585236E+04  0.21018585236E+04  0.25500000920E-02 0.  1.
       -2   -1    0    0    0  501  0.00000000000E+00  0.00000000000E+00 -0.15295560346E+04  0.15295560347E+04  0.25500000920E-02 0. -1.
    10030    2    1    2    0    0  0.00000000000E+00  0.00000000000E+00  0.57230248897E+03  0.36314145583E+04  0.35860342379E+04 0.  0.
        2    1    3    3  502    0 -0.27175164973E+03 -0.85066741237E+03 -0.12883319425E+04  0.15675723906E+04  0.25500000920E-02 0. -1.
       -2    1    3    3    0  502  0.27175164973E+03  0.85066741237E+03  0.18606344315E+04  0.20638421677E+04  0.25500000920E-02 0.  1.
</event>
<event>
 5   0  0.3159875E-07  0.3548525E+04  0.7818609E-02  0.8102385E-01
       -1   -1    0    0    0  501  0.00000000000E+00  0.00000000000E+00  0.13419093202E+04  0.13419093202E+04  0.50400001928E-02 0. -1.
        1   -1    0    0  501    0  0.00000000000E+00  0.00000000000E+00 -0.23459170234E+04  0.23459170234E+04  0.50400001928E-02 0.  1.
    10030    2    1    2    0    0  0.00000000000E+00  0.00000000000E+00 -0.10040077032E+04  0.36878263436E+04  0.35485252814E+04 0.  0.
        5    1    3    3  502    0 -0.14425414852E+04 -0.29226389331E+03 -0.15316762235E+04  0.21242406322E+04  0.46999998093E+01 0.  1.
       -5    1    3    3    0  502  0.14425414852E+04  0.29226389331E+03  0.52766852029E+03  0.15635857115E+04  0.46999998093E+01 0. -1.
</event>
<event>
 5   0  0.1006019E-06  0.3567054E+04  0.7818609E-02  0.8098080E-01
       -2   -1    0    0    0  501  0.00000000000E+00  0.00000000000E+00  0.26571274907E+04  0.26571274907E+04  0.25500000920E-02 0. -1.
        2   -1    0    0  501    0  0.00000000000E+00  0.00000000000E+00 -0.11971454420E+04  0.11971454420E+04  0.25500000920E-02 0.  1.
    10030    2    1    2    0    0  0.00000000000E+00  0.00000000000E+00  0.14599820487E+04  0.38542729327E+04  0.35670537223E+04 0.  0.
        1    1    3    3  502    0  0.17491767408E+04  0.15829095821E+03  0.39469404046E+03  0.18001274076E+04  0.50400001928E-02 0. -1.
       -1    1    3    3    0  502 -0.17491767408E+04 -0.15829095821E+03  0.10652880083E+04  0.20541455252E+04  0.50400001928E-02 0.  1.
</event>
<event>
 5   0  0.3242047E-07  0.3606674E+04  0.7818609E-02  0.8088965E-01
       -1   -1    0    0    0  501  0.00000000000E+00  0.00000000000E+00  0.25085074880E+04  0.25085074880E+04  0.50400001928E-02 0.  1.
        1   -1    0    0  501    0  0.00000000000E+00  0.00000000000E+00 -0.12963979359E+04  0.12963979359E+04  0.50400001928E-02 0. -1.
    10030    2    1    2    0    0  0.00000000000E+00  0.00000000000E+00  0.12121095520E+04  0.38049054239E+04  0.36066737749E+04 0.  0.
        1    1    3    3  502    0  0.17776870962E+03  0.48227455399E+02 -0.12864479955E+04  0.12995676384E+04  0.50400001928E-02 0. -1.
       -1    1    3    3    0  502 -0.17776870962E+03 -0.48227455399E+02  0.24985575475E+04  0.25053377856E+04  0.50400001928E-02 0.  1.
</event>
<event>
 5   0  0.3159875E-07  0.3571891E+04  0.7818609E-02  0.8096961E-01
        1   -1    0    0  501    0  0.00000000000E+00  0.00000000000E+00  0.20969566181E+04  0.20969566181E+04  0.50400001928E-02 0.  1.
       -1   -1    0    0    0  501  0.00000000000E+00  0.00000000000E+00 -0.15210623206E+04  0.15210623206E+04  0.50400001928E-02 0. -1.
    10030    2    1    2    0    0  0.00000000000E+00  0.00000000000E+00  0.57589429747E+03  0.36180189387E+04  0.35718912076E+04 0.  0.
        2    1    3    3  502    0  0.28360375407E+02 -0.95621607104E+03 -0.12396563335E+04  0.15658548178E+04  0.25500000920E-02 0. -1.
       -2    1    3    3    0  502 -0.28360375407E+02  0.95621607104E+03  0.18155506309E+04  0.20521641208E+04  0.25500000920E-02 0.  1.
</event>
<event>
 5   0  0.9538919E-07  0.3614297E+04  0.7818609E-02  0.8087225E-01
       -2   -1    0    0    0  501  0.00000000000E+00  0.00000000000E+00  0.17301021876E+04  0.17301021876E+04  0.25500000920E-02 0. -1.
        2   -1    0    0  501    0  0.00000000000E+00  0.00000000000E+00 -0.18876254640E+04  0.18876254640E+04  0.25500000920E-02 0.  1.
    10030    2    1    2    0    0  0.00000000000E+00  0.00000000000E+00 -0.15752327638E+03  0.36177276515E+04  0.36142965814E+04 0.  0.
        4    1    3    3  502    0 -0.14536651277E+04  0.96839290747E+03  0.38520422987E+03  0.17886618010E+04  0.12699999809E+01 0.  1.
       -4    1    3    3    0  502  0.14536651277E+04 -0.96839290747E+03 -0.54272750625E+03  0.18290658506E+04  0.12699999809E+01 0. -1.
</event>
<event>
 5   0  0.1031659E-06  0.3614774E+04  0.7818609E-02  0.8087116E-01
        2   -1    0    0  501    0  0.00000000000E+00  0.00000000000E+00  0.11239359122E+04  0.11239359122E+04  0.25500000920E-02 0.  1.
       -2   -1    0    0    0  501  0.00000000000E+00  0.00000000000E+00 -0.29064362756E+04  0.29064362756E+04  0.25500000920E-02 0. -1.
    10030    2    1    2    0    0  0.00000000000E+00  0.00000000000E+00 -0.17825003634E+04  0.40303721879E+04  0.36147741876E+04 0.  0.
        2    1    3    3  502    0  0.18421477165E+03 -0.17846432401E+04 -0.64757960187E+03  0.19074186529E+04  0.25500000920E-02 0.  1.
       -2    1    3    3    0  502 -0.18421477165E+03  0.17846432401E+04 -0.11349207616E+04  0.21229535350E+04  0.25500000920E-02 0. -1.
</event>
<event>
 5   0  0.9538919E-07  0.3428198E+04  0.7818609E-02  0.8131020E-01
       -2   -1    0    0    0  501  0.00000000000E+00  0.00000000000E+00  0.19891854935E+04  0.19891854935E+04  0.25500000920E-02 0.  1.
        2   -1    0    0  501    0  0.00000000000E+00  0.00000000000E+00 -0.14770547352E+04  0.14770547352E+04  0.25500000920E-02 0. -1.
    10030    2    1    2    0    0  0.00000000000E+00  0.00000000000E+00  0.51213075837E+03  0.34662402287E+04  0.34281982745E+04 0.  0.
        4    1    3    3  502    0 -0.92357696939E+03 -0.10764769524E+03  0.17120278153E+04  0.19482359452E+04  0.12699999809E+01 0.  1.
       -4    1    3    3    0  502  0.92357696939E+03  0.10764769524E+03 -0.11998970569E+04  0.15180042835E+04  0.12699999809E+01 0. -1.
</event>
<event>
 5   0  0.3159875E-07  0.3564017E+04  0.7818609E-02  0.8098784E-01
        1   -1    0    0  501    0  0.00000000000E+00  0.00000000000E+00  0.23126925614E+04  0.23126925614E+04  0.50400001928E-02 0. -1.
       -1   -1    0    0    0  501  0.00000000000E+00  0.00000000000E+00 -0.13730983044E+04  0.13730983044E+04  0.50400001928E-02 0.  1.
    10030    2    1    2    0    0  0.00000000000E+00  0.00000000000E+00  0.93959425699E+03  0.36857908657E+04  0.35640169666E+04 0.  0.
        2    1    3    3  502    0  0.17132198288E+04  0.16171845961E+03  0.94851641791E+03  0.19649321711E+04  0.25500000920E-02 0. -1.
       -2    1    3    3    0  502 -0.17132198288E+04 -0.16171845961E+03 -0.89221609244E+01  0.17208586946E+04  0.25500000920E-02 0.  1.
</event>
<event>
 5   0  0.1006019E-06  0.3443523E+04  0.7818609E-02  0.8127306E-01
       -2   -1    0    0    0  501  0.00000000000E+00  0.00000000000E+00  0.11187869764E+04  0.11187869764E+04  0.25500000920E-02 0. -1.
        2   -1    0    0  501    0  0.00000000000E+00  0.00000000000E+00 -0.26497118199E+04  0.26497118199E+04  0.25500000920E-02 0.  1.
    10030    2    1    2    0    0  0.00000000000E+00  0.00000000000E+00 -0.15309248436E+04  0.37684987963E+04  0.34435232395E+04 0.  0.
        1    1    3    3  502    0  0.10901495914E+03  0.52357358177E+03  0.10255850433E+04  0.11566495743E+04  0.50400001928E-02 0. -1.
       -1    1    3    3    0  502 -0.10901495914E+03 -0.52357358177E+03 -0.25565098868E+04  0.26118492220E+04  0.50400001928E-02 0.  1.
</event>
<event>
 5   0  0.3278988E-07  0.3709543E+04  0.7818609E-02  0.8065850E-01
        1   -1    0    0  501    0  0.00000000000E+00  0.00000000000E+00  0.21632224938E+04  0.21632224938E+04  0.50400001928E-02 0.  1.
       -1   -1    0    0    0  501  0.00000000000E+00  0.00000000000E+00 -0.15903022487E+04  0.15903022487E+04  0.50400001928E-02 0. -1.
    10030    2    1    2    0    0  0.00000000000E+00  0.00000000000E+00  0.57292024511E+03  0.37535247425E+04  0.37095431505E+04 0.  0.
        4    1    3    3  502    0  0.96496672659E+03  0.11904606450E+04 -0.77082984308E+03  0.17153826368E+04  0.12699999809E+01 0. -1.
       -4    1    3    3    0  502 -0.96496672659E+03 -0.11904606450E+04  0.13437500882E+04  0.20381421057E+04  0.12699999809E+01 0.  1.
</event>
<event>
 5   0  0.3159875E-07  0.3591088E+04  0.7818609E-02  0.8092536E-01
       -1   -1    0    0    0  501  0.00000000000E+00  0.00000000000E+00  0.15735193995E+04  0.15735193995E+04  0.50400001928E-02 0.  1.
        1   -1    0    0  501    0  0.00000000000E+00  0.00000000000E+00 -0.20488966914E+04  0.20488966914E+04  0.50400001928E-02 0. -1.
    10030    2    1    2    0    0  0.00000000000E+00  0.00000000000E+00 -0.47537729191E+03  0.36224160909E+04  0.35910882425E+04 0.  0.
        2    1    3    3  502    0  0.16969722080E+04 -0.54459843227E+03 -0.45794311662E+03  0.18401125034E+04  0.25500000920E-02 0. -1.
       -2    1    3    3    0  502 -0.16969722080E+04  0.54459843227E+03 -0.17434175289E+02  0.17823035874E+04  0.25500000920E-02 0.  1.
</event>
<event>
 5   0  0.3242047E-07  0.3285414E+04  0.7818609E-02  0.8166617E-01
       -1   -1    0    0    0  501  0.00000000000E+00  0.00000000000E+00  0.15361609543E+04  0.15361609544E+04  0.50400001928E-02 0. -1.
        1   -1    0    0  501    0  0.00000000000E+00  0.00000000000E+00 -0.17566428721E+04  0.17566428721E+04  0.50400001928E-02 0.  1.
    10030    2    1    2    0    0  0.00000000000E+00  0.00000000000E+00 -0.22048191771E+03  0.32928038264E+04  0.32854139409E+04 0.  0.
        1    1    3    3  502    0 -0.17203414175E+03 -0.24034822749E+03 -0.17297726164E+04  0.17548436742E+04  0.50400001928E-02 0.  1.
       -1    1    3    3    0  502  0.17203414175E+03  0.24034822749E+03  0.15092906987E+04  0.15379601522E+04  0.50400001928E-02 0. -1.
</event>
<event>
 5   0  0.1006019E-06  0.3592579E+04  0.7818609E-02  0.8092194E-01
       -2   -1    0    0    0  501  0.00000000000E+00  0.00000000000E+00  0.24796696598E+04  0.24796696598E+04  0.25500000920E-02 0.  1.
        2   -1    0    0  501    0  0.00000000000E+00  0.00000000000E+00 -0.13012444012E+04  0.13012444012E+04  0.25500000920E-02 0. -1.
    10030    2    1    2    0    0  0.00000000000E+00  0.00000000000E+00  0.11784252586E+04  0.37809140610E+04  0.35925791636E+04 0.  0.
        1    1    3    3  502    0 -0.12842570677E+04 -0.11796379115E+04  0.13557735230E+03  0.17490691915E+04  0.50400001928E-02 0.  1.
       -1    1    3    3    0  502  0.12842570677E+04  0.11796379115E+04  0.10428479063E+04  0.20318448695E+04  0.50400001928E-02 0. -1.
</event>
<event>
 5   0  0.3365378E-07  0.3331367E+04  0.7818609E-02  0.8154960E-01
       -1   -1    0    0    0  501  0.00000000000E+00  0.00000000000E+00  0.20224560990E+04  0.20224560990E+04  0.50400001928E-02 0.  1.
        1   -1    0    0  501    0  0.00000000000E+00  0.00000000000E+00 -0.13718476966E+04  0.13718476966E+04  0.50400001928E-02 0. -1.
    10030    2    1    2    0    0  0.00000000000E+00  0.00000000000E+00  0.65060840237E+03  0.33943037956E+04  0.33313671313E+04 0.  0.
        3    1    3    3  502    0  0.77778010788E+03 -0.92873497739E+02 -0.11724791527E+04  0.14100619690E+04  0.10100000352E+00 0. -1.
       -3    1    3    3    0  502 -0.77778010788E+03  0.92873497739E+02  0.18230875551E+04  0.19842418266E+04  0.10100000352E+00 0.  1.
</event>
<event>
 5   0  0.3159875E-07  0.3635661E+04  0.7818609E-02  0.8082372E-01
       -1   -1    0    0    0  501  0.00000000000E+00  0.00000000000E+00  0.17705669128E+04  0.17705669128E+04  0.50400001928E-02 0.  1.
        1   -1    0    0  501    0  0.00000000000E+00  0.00000000000E+00 -0.18663557246E+04  0.18663557246E+04  0.50400001928E-02 0. -1.
    10030    2    1    2    0    0  0.00000000000E+00  0.00000000000E+00 -0.95788811824E+02  0.36369226374E+04  0.36356609817E+04 0.  0.
        5    1    3    3  502    0  0.55061133586E+03 -0.31581570590E+03 -0.17518860054E+04  0.18633408355E+04  0.46999998093E+01 0. -1.
       -5    1    3    3    0  502 -0.55061133586E+03  0.31581570590E+03  0.16560971936E+04  0.17735818019E+04  0.46999998093E+01 0.  1.
</event>
<event>
 5   0  0.3365378E-07  0.3655344E+04  0.7818609E-02  0.8077931E-01
       -1   -1    0    0    0  501  0.00000000000E+00  0.00000000000E+00  0.21512182087E+04  0.21512182087E+04  0.50400001928E-02 0. -1.
        1   -1    0    0  501    0  0.00000000000E+00  0.00000000000E+00 -0.15527875880E+04  0.15527875880E+04  0.50400001928E-02 0.  1.
    10030    2    1    2    0    0  0.00000000000E+00  0.00000000000E+00  0.59843062071E+03  0.37040057968E+04  0.36553439968E+04 0.  0.
        3    1    3    3  502    0  0.42234178783E+03  0.54809566523E+03 -0.14149319603E+04  0.15750599692E+04  0.10100000352E+00 0.  1.
       -3    1    3    3    0  502 -0.42234178783E+03 -0.54809566523E+03  0.20133625810E+04  0.21289458276E+04  0.10100000352E+00 0. -1.
</event>
<event>
 5   0  0.1031659E-06  0.3315799E+04  0.7818609E-02  0.8158887E-01
       -2   -1    0    0    0  501  0.00000000000E+00  0.00000000000E+00  0.18746948772E+04  0.18746948772E+04  0.25500000920E-02 0. -1.
        2   -1    0    0  501    0  0.00000000000E+00  0.00000000000E+00 -0.14661747556E+04  0.14661747556E+04  0.25500000920E-02 0.  1.
    10030    2    1    2    0    0  0.00000000000E+00  0.00000000000E+00  0.40852012164E+03  0.33408696328E+04  0.33157987293E+04 0.  0.
        2    1    3    3  502    0 -0.66243671856E+02  0.16137491144E+04  0.58133010663E+03  0.17165427816E+04  0.25500000920E-02 0. -1.
       -2    1    3    3    0  502  0.66243671856E+02 -0.16137491144E+04 -0.17280998499E+03  0.16243268511E+04  0.25500000920E-02 0.  1.
</event>
<event>
 5   0  0.9538919E-07  0.3600159E+04  0.7818609E-02  0.8090455E-01
        2   -1    0    0  501    0  0.00000000000E+00  0.00000000000E+00  0.17111488033E+04  0.17111488033E+04  0.25500000920E-02 0. -1.
       -2   -1    0    0    0  501  0.00000000000E+00  0.00000000000E+00 -0.18936319209E+04  0.18936319209E+04  0.25500000920E-02 0.  1.
    10030    2    1    2    0    0  0.00000000000E+00  0.00000000000E+00 -0.18248311762E+03  0.36047807242E+04  0.36001588828E+04 0.  0.
        4    1    3    3  502    0  0.19770452329E+03 -0.52593237085E+01  0.17002366484E+04  0.17117012042E+04  0.12699999809E+01 0. -1.
       -4    1    3    3    0  502 -0.19770452329E+03  0.52593237085E+01 -0.18827197660E+04  0.18930795200E+04  0.12699999809E+01 0.  1.
</event>
<event>
 5   0  0.9538919E-07  0.3596658E+04  0.7818609E-02  0.8091258E-01
       -2   -1    0    0    0  501  0.00000000000E+00  0.00000000000E+00  0.15543784161E+04  0.15543784161E+04  0.25500000920E-02 0.  1.
        2   -1    0    0  501    0  0.00000000000E+00  0.00000000000E+00 -0.20805657166E+04  0.20805657166E+04  0.25500000920E-02 0. -1.
    10030    2    1    2    0    0  0.00000000000E+00  0.00000000000E+00 -0.52618730052E+03  0.36349441327E+04  0.35966575834E+04 0.  0.
        4    1    3    3  502    0 -0.88760077288E+03 -0.15572575801E+04 -0.11629410163E+03  0.17962216549E+04  0.12699999809E+01 0. -1.
       -4    1    3    3    0  502  0.88760077288E+03  0.15572575801E+04 -0.40989319889E+03  0.18387224777E+04  0.12699999809E+01 0.  1.
</event>
<event>
 5   0  0.3365378E-07  0.3586912E+04  0.7818609E-02  0.8093496E-01
        1   -1    0    0  501    0  0.00000000000E+00  0.00000000000E+00  0.28542570287E+04  0.28542570287E+04  0.50400001928E-02 0. -1.
       -1   -1    0    0    0  501  0.00000000000E+00  0.00000000000E+00 -0.11269076146E+04  0.11269076146E+04  0.50400001928E-02 0.  1.
    10030    2    1    2    0    0  0.00000000000E+00  0.00000000000E+00  0.17273494141E+04  0.39811646434E+04  0.35869117523E+04 0.  0.
        3    1    3    3  502    0  0.53621991143E+03  0.29876763423E+03 -0.10066840543E+04  0.11790702643E+04  0.10100000352E+00 0.  1.
       -3    1    3    3    0  502 -0.53621991143E+03 -0.29876763423E+03  0.27340334684E+04  0.28020943791E+04  0.10100000352E+00 0. -1.
</event>
<event>
 5   0  0.3278988E-07  0.3584462E+04  0.7818609E-02  0.8094060E-01
       -1   -1    0    0    0  501  0.00000000000E+00  0.00000000000E+00  0.28984890632E+04  0.28984890632E+04  0.50400001928E-02 0. -1.
        1   -1    0    0  501    0  0.00000000000E+00  0.00000000000E+00 -0.11081950242E+04  0.11081950242E+04  0.50400001928E-02 0.  1.
    10030    2    1    2    0    0  0.00000000000E+00  0.00000000000E+00  0.17902940390E+04  0.40066840875E+04  0.35844615538E+04 0.  0.
        4    1    3    3  502    0  0.54106047996E+03 -0.34920725780E+02 -0.10143237716E+04  0.11501392206E+04  0.12699999809E+01 0.  1.
       -4    1    3    3    0  502 -0.54106047996E+03  0.34920725780E+02  0.28046178106E+04  0.28565448669E+04  0.12699999809E+01 0. -1.
</event>
<event>
 5   0  0.9878977E-07  0.3455840E+04  0.7818609E-02  0.8124336E-01
        2   -1    0    0  501    0  0.00000000000E+00  0.00000000000E+00  0.19392699969E+04  0.19392699969E+04  0.25500000920E-02 0.  1.
       -2   -1    0    0    0  501  0.00000000000E+00  0.00000000000E+00 -0.15396034395E+04  0.15396034395E+04  0.25500000920E-02 0. -1.
    10030    2    1    2    0    0  0.00000000000E+00  0.00000000000E+00  0.39966655746E+03  0.34788734364E+04  0.34558395549E+04 0.  0.
        5    1    3    3  502    0 -0.59856886383E+03 -0.33875632311E+03  0.17955307251E+04  0.19227566684E+04  0.46999998093E+01 0.  1.
       -5    1    3    3    0  502  0.59856886383E+03  0.33875632311E+03 -0.13958641676E+04  0.15561167680E+04  0.46999998093E+01 0. -1.
</event>
<event>
 5   0  0.3159875E-07  0.3636827E+04  0.7818609E-02  0.8082108E-01
        1   -1    0    0  501    0  0.00000000000E+00  0.00000000000E+00  0.21907187118E+04  0.21907187118E+04  0.50400001928E-02 0.  1.
       -1   -1    0    0    0  501  0.00000000000E+00  0.00000000000E+00 -0.15093803888E+04  0.15093803888E+04  0.50400001928E-02 0. -1.
    10030    2    1    2    0    0  0.00000000000E+00  0.00000000000E+00  0.68133832303E+03  0.37000991006E+04  0.36368271122E+04 0.  0.
        5    1    3    3  502    0  0.64188532048E+03  0.14414260490E+04 -0.57886912966E+03  0.16807252538E+04  0.46999998093E+01 0. -1.
       -5    1    3    3    0  502 -0.64188532048E+03 -0.14414260490E+04  0.12602074527E+04  0.20193738468E+04  0.46999998093E+01 0.  1.
</event>
<event>
 5   0  0.3159875E-07  0.3549546E+04  0.7818609E-02  0.8102147E-01
       -1   -1    0    0    0  501  0.00000000000E+00  0.00000000000E+00  0.15763051947E+04  0.15763051947E+04  0.50400001928E-02 0.  1.
        1   -1    0    0  501    0  0.00000000000E+00  0.00000000000E+00 -0.19982294851E+04  0.19982294852E+04  0.50400001928E-02 0. -1.
    10030    2    1    2    0    0  0.00000000000E+00  0.00000000000E+00 -0.42192429042E+03  0.35745346799E+04  0.35495461781E+04 0.  0.
        2    1    3    3  502    0 -0.10961356868E+04  0.13810760477E+04 -0.41471054660E+03  0.18113170156E+04  0.25500000920E-02 0.  1.
       -2    1    3    3    0  502  0.10961356868E+04 -0.13810760477E+04 -0.72137438274E+01  0.17632176643E+04  0.25500000920E-02 0. -1.
</event>
<event>
 5   0  0.9878336E-07  0.3649861E+04  0.7818609E-02  0.8079165E-01
        2   -1    0    0  501    0  0.00000000000E+00  0.00000000000E+00  0.25803169573E+04  0.25803169573E+04  0.25500000920E-02 0.  1.
       -2   -1    0    0    0  501  0.00000000000E+00  0.00000000000E+00 -0.12906833127E+04  0.12906833127E+04  0.25500000920E-02 0. -1.
    10030    2    1    2    0    0  0.00000000000E+00  0.00000000000E+00  0.12896336446E+04  0.38710002700E+04  0.36498613882E+04 0.  0.
        3    1    3    3  502    0  0.82773094643E+03 -0.15793144063E+04  0.23268646506E+03  0.17981978520E+04  0.10100000352E+00 0. -1.
       -3    1    3    3    0  502 -0.82773094643E+03  0.15793144063E+04  0.10569471796E+04  0.20728024181E+04  0.10100000352E+00 0.  1.
</event>
<event>
 5   0  0.3365378E-07  0.3627861E+04  0.7818609E-02  0.8084139E-01
        1   -1    0    0  501    0  0.00000000000E+00  0.00000000000E+00  0.18120752128E+04  0.18120752128E+04  0.50400001928E-02 0.  1.
       -1   -1    0    0    0  501  0.00000000000E+00  0.00000000000E+00 -0.18157874911E+04  0.18157874911E+04  0.50400001928E-02 0. -1.
    10030    2    1    2    0    0  0.00000000000E+00  0.00000000000E+00 -0.37122782403E+01  0.36278627039E+04  0.36278608046E+04 0.  0.
        3    1    3    3  502    0  0.17323344166E+04  0.51869465757E+03  0.14068100275E+03  0.18137854982E+04  0.10100000352E+00 0.  1.
       -3    1    3    3    0  502 -0.17323344166E+04 -0.51869465757E+03 -0.14439328099E+03  0.18140772058E+04  0.10100000352E+00 0. -1.
</event>
<event>
 5   0  0.3365378E-07  0.3653766E+04  0.7818609E-02  0.8078286E-01
       -1   -1    0    0    0  501  0.00000000000E+00  0.00000000000E+00  0.23151128575E+04  0.23151128575E+04  0.50400001928E-02 0.  1.
        1   -1    0    0  501    0  0.00000000000E+00  0.00000000000E+00 -0.14416153072E+04  0.14416153073E+04  0.50400001928E-02 0. -1.
    10030    2    1    2    0    0  0.00000000000E+00  0.00000000000E+00  0.87349755029E+03  0.37567281648E+04  0.36537663491E+04 0.  0.
        3    1    3    3  502    0 -0.67744513573E+03  0.16844928274E+04  0.22842089095E+03  0.18299246190E+04  0.10100000352E+00 0.  1.
       -3    1    3    3    0  502  0.67744513573E+03 -0.16844928274E+04  0.64507665934E+03  0.19268035458E+04  0.10100000352E+00 0. -1.
</event>
<event>
 5   0  0.3365378E-07  0.3601326E+04  0.7818609E-02  0.8090188E-01
        1   -1    0    0  501    0  0.00000000000E+00  0.00000000000E+00  0.17260970163E+04  0.17260970163E+04  0.50400001928E-02 0.  1.
       -1   -1    0    0    0  501  0.00000000000E+00  0.00000000000E+00 -0.18784496992E+04  0.18784496992E+04  0.50400001928E-02 0. -1.
    10030    2    1    2    0    0  0.00000000000E+00  0.00000000000E+00 -0.15235268290E+03  0.36045467156E+04  0.36013255455E+04 0.  0.
        3    1    3    3  502    0 -0.67437606859E+03  0.16397168958E+04 -0.39099198135E+03  0.18155796099E+04  0.10100000352E+00 0.  1.
       -3    1    3    3    0  502  0.67437606859E+03 -0.16397168958E+04  0.23863929845E+03  0.17889671057E+04  0.10100000352E+00 0. -1.
</event>
<event>
 5   0  0.3159875E-07  0.3651802E+04  0.7818609E-02  0.8078728E-01
       -1   -1    0    0    0  501  0.00000000000E+00  0.00000000000E+00  0.12220856834E+04  0.12220856834E+04  0.50400001928E-02 0. -1.
        1   -1    0    0  501    0  0.00000000000E+00  0.00000000000E+00 -0.27280535883E+04  0.27280535883E+04  0.50400001928E-02 0.  1.
    10030    2    1    2    0    0  0.00000000000E+00  0.00000000000E+00 -0.15059679050E+04  0.39501392717E+04  0.36518024228E+04 0.  0.
        2    1    3    3  502    0  0.76693697566E+03  0.84147924935E+03 -0.22970589600E+04  0.25637393622E+04  0.25500000920E-02 0.  1.
       -2    1    3    3    0  502 -0.76693697566E+03 -0.84147924935E+03  0.79109105505E+03  0.13863999095E+04  0.25500000920E-02 0. -1.
</event>
<event>
 5   0  0.3278988E-07  0.3118793E+04  0.7818609E-02  0.8210599E-01
       -1   -1    0    0    0  501  0.00000000000E+00  0.00000000000E+00  0.89320068756E+03  0.89320068757E+03  0.50400001928E-02 0.  1.
        1   -1    0    0  501    0  0.00000000000E+00  0.00000000000E+00 -0.27224768224E+04  0.27224768224E+04  0.50400001928E-02 0. -1.
    10030    2    1    2    0    0  0.00000000000E+00  0.00000000000E+00 -0.18292761348E+04  0.36156775100E+04  0.31187934652E+04 0.  0.
        4    1    3    3  502    0 -0.10207655341E+04  0.11755565909E+04 -0.10171640032E+04  0.18597095999E+04  0.12699999809E+01 0.  1.
       -4    1    3    3    0  502  0.10207655341E+04 -0.11755565909E+04 -0.81211213169E+03  0.17559679101E+04  0.12699999809E+01 0. -1.
</event>
<event>
 5   0  0.3278988E-07  0.3769468E+04  0.7818609E-02  0.8052739E-01
        1   -1    0    0  501    0  0.00000000000E+00  0.00000000000E+00  0.18520720278E+04  0.18520720278E+04  0.50400001928E-02 0.  1.
       -1   -1    0    0    0  501  0.00000000000E+00  0.00000000000E+00 -0.19179722410E+04  0.19179722410E+04  0.50400001928E-02 0. -1.
    10030    2    1    2    0    0  0.00000000000E+00  0.00000000000E+00 -0.65900213270E+02  0.37700442688E+04  0.37694682583E+04 0.  0.
        4    1    3    3  502    0 -0.14037412954E+02  0.18802673534E+04  0.95983344822E+02  0.18827683832E+04  0.12699999809E+01 0.  1.
       -4    1    3    3    0  502  0.14037412954E+02 -0.18802673534E+04 -0.16188355809E+03  0.18872758856E+04  0.12699999809E+01 0. -1.
</event>
<event>
 5   0  0.9878336E-07  0.3251823E+04  0.7818609E-02  0.8175263E-01
        2   -1    0    0  501    0  0.00000000000E+00  0.00000000000E+00  0.14922923652E+04  0.14922923652E+04  0.25500000920E-02 0.  1.
       -2   -1    0    0    0  501  0.00000000000E+00  0.00000000000E+00 -0.17714953038E+04  0.17714953038E+04  0.25500000920E-02 0. -1.
    10030    2    1    2    0    0  0.00000000000E+00  0.00000000000E+00 -0.27920293863E+03  0.32637876690E+04  0.32518234373E+04 0.  0.
        3    1    3    3  502    0 -0.19841227050E+03  0.16136883573E+04 -0.12433488600E+03  0.16305878442E+04  0.10100000352E+00 0.  1.
       -3    1    3    3    0  502  0.19841227050E+03 -0.16136883573E+04 -0.15486805263E+03  0.16331998248E+04  0.10100000352E+00 0. -1.
</event>
<event>
 5   0  0.9538919E-07  0.3780275E+04  0.7818609E-02  0.8050401E-01
        2   -1    0    0  501    0  0.00000000000E+00  0.00000000000E+00  0.21676535267E+04  0.21676535267E+04  0.25500000920E-02 0. -1.
       -2   -1    0    0    0  501  0.00000000000E+00  0.00000000000E+00 -0.16481505663E+04  0.16481505663E+04  0.25500000920E-02 0.  1.
    10030    2    1    2    0    0  0.00000000000E+00  0.00000000000E+00  0.51950296032E+03  0.38158040930E+04  0.37802747983E+04 0.  0.
        4    1    3    3  502    0 -0.23769021880E+03  0.13463378899E+04  0.15771985739E+04  0.20872659888E+04  0.12699999809E+01 0. -1.
       -4    1    3    3    0  502  0.23769021880E+03 -0.13463378899E+04 -0.10576956135E+04  0.17285381042E+04  0.12699999809E+01 0.  1.
</event>
<event>
 5   0  0.9538919E-07  0.3022289E+04  0.7818609E-02  0.8237395E-01
       -2   -1    0    0    0  501  0.00000000000E+00  0.00000000000E+00  0.13011506883E+04  0.13011506883E+04  0.25500000920E-02 0.  1.
        2   -1    0    0  501    0  0.00000000000E+00  0.00000000000E+00 -0.17550288599E+04  0.17550288599E+04  0.25500000920E-02 0. -1.
    10030    2    1    2    0    0  0.00000000000E+00  0.00000000000E+00 -0.45387817155E+03  0.30561795482E+04  0.30222885429E+04 0.  0.
        4    1    3    3  502    0 -0.64475781917E+03 -0.12647027193E+02  0.11550178198E+04  0.13228531172E+04  0.12699999809E+01 0.  1.
       -4    1    3    3    0  502  0.64475781917E+03  0.12647027193E+02 -0.16088959914E+04  0.17333264310E+04  0.12699999809E+01 0. -1.
</event>
<event>
 5   0  0.3159875E-07  0.2855874E+04  0.7818609E-02  0.8286129E-01
       -1   -1    0    0    0  501  0.00000000000E+00  0.00000000000E+00  0.13661594681E+04  0.13661594681E+04  0.50400001928E-02 0. -1.
        1   -1    0    0  501    0  0.00000000000E+00  0.00000000000E+00 -0.14925084505E+04  0.14925084505E+04  0.50400001928E-02 0.  1.
    10030    2    1    2    0    0  0.00000000000E+00  0.00000000000E+00 -0.12634898246E+03  0.28586679186E+04  0.28558743326E+04 0.  0.
        5    1    3    3  502    0 -0.42968146447E+03 -0.87160808341E+03 -0.11104558562E+04  0.14756222791E+04  0.46999998093E+01 0.  1.
       -5    1    3    3    0  502  0.42968146447E+03  0.87160808341E+03  0.98410687377E+03  0.13830456395E+04  0.46999998093E+01 0. -1.
</event>
<event>
 5   0  0.3365378E-07  0.3629065E+04  0.7818609E-02  0.8083866E-01
        1   -1    0    0  501    0  0.00000000000E+00  0.00000000000E+00  0.19472219799E+04  0.19472219799E+04  0.50400001928E-02 0.  1.
       -1   -1    0    0    0  501  0.00000000000E+00  0.00000000000E+00 -0.16908852356E+04  0.16908852356E+04  0.50400001928E-02 0. -1.
    10030    2    1    2    0    0  0.00000000000E+00  0.00000000000E+00  0.25633674429E+03  0.36381072155E+04  0.36290653873E+04 0.  0.
        3    1    3    3  502    0  0.95747701576E+03  0.76076582946E+03 -0.12156945788E+04  0.17243666090E+04  0.10100000352E+00 0. -1.
       -3    1    3    3    0  502 -0.95747701576E+03 -0.76076582946E+03  0.14720313231E+04  0.19137406066E+04  0.10100000352E+00 0.  1.
</event>
<event>
 5   0  0.9538919E-07  0.3590029E+04  0.7818609E-02  0.8092779E-01
        2   -1    0    0  501    0  0.00000000000E+00  0.00000000000E+00  0.30258570962E+04  0.30258570962E+04  0.25500000920E-02 0. -1.
       -2   -1    0    0    0  501  0.00000000000E+00  0.00000000000E+00 -0.10648477544E+04  0.10648477544E+04  0.25500000920E-02 0.  1.
    10030    2    1    2    0    0  0.00000000000E+00  0.00000000000E+00  0.19610093418E+04  0.40907048506E+04  0.35900290439E+04 0.  0.
        4    1    3    3  502    0 -0.16127712202E+04 -0.42032991394E+03  0.17400806431E+04  0.24094793012E+04  0.12699999809E+01 0. -1.
       -4    1    3    3    0  502  0.16127712202E+04  0.42032991394E+03  0.22092869866E+03  0.16812255494E+04  0.12699999809E+01 0.  1.
</event>
<event>
 5   0  0.9878977E-07  0.3585767E+04  0.7818609E-02  0.8093760E-01
        2   -1    0    0  501    0  0.00000000000E+00  0.00000000000E+00  0.13611972817E+04  0.13611972817E+04  0.25500000920E-02 0.  1.
       -2   -1    0    0    0  501  0.00000000000E+00  0.00000000000E+00 -0.23614731729E+04  0.23614731729E+04  0.25500000920E-02 0. -1.
    10030    2    1    2    0    0  0.00000000000E+00  0.00000000000E+00 -0.10002758912E+04  0.37226704546E+04  0.35857667876E+04 0.  0.
        5    1    3    3  502    0  0.68110942584E+03 -0.16309429025E+04 -0.81249718325E+03  0.19452656796E+04  0.46999998093E+01 0. -1.
       -5    1    3    3    0  502 -0.68110942584E+03  0.16309429025E+04 -0.18777870800E+03  0.17774047751E+04  0.46999998093E+01 0.  1.
</event>
<event>
 5   0  0.3159875E-07  0.3643119E+04  0.7818609E-02  0.8080686E-01
       -1   -1    0    0    0  501  0.00000000000E+00  0.00000000000E+00  0.14438415816E+04  0.14438415816E+04  0.50400001928E-02 0.  1.
        1   -1    0    0  501    0  0.00000000000E+00  0.00000000000E+00 -0.22980902454E+04  0.22980902454E+04  0.50400001928E-02 0. -1.
    10030    2    1    2    0    0  0.00000000000E+00  0.00000000000E+00 -0.85424866376E+03  0.37419318270E+04  0.36431185842E+04 0.  0.
        5    1    3    3  502    0 -0.12724944239E+03 -0.16999527835E+04 -0.10864256842E+04  0.20214783561E+04  0.46999998093E+01 0. -1.
       -5    1    3    3    0  502  0.12724944239E+03  0.16999527835E+04  0.23217702044E+03  0.17204534709E+04  0.46999998093E+01 0.  1.
</event>
<event>
 5   0  0.3365378E-07  0.3440623E+04  0.7818609E-02  0.8128007E-01
       -1   -1    0    0    0  501  0.00000000000E+00  0.00000000000E+00  0.16492191407E+04  0.16492191407E+04  0.50400001928E-02 0. -1.
        1   -1    0    0  501    0  0.00000000000E+00  0.00000000000E+00 -0.17944685939E+04  0.17944685940E+04  0.50400001928E-02 0.  1.
    10030    2    1    2    0    0  0.00000000000E+00  0.00000000000E+00 -0.14524945326E+03  0.34436877347E+04  0.34406231718E+04 0.  0.
        3    1    3    3  502    0 -0.13600813223E+04  0.10157014402E+04 -0.35216065800E+03  0.17336342631E+04  0.10100000352E+00 0.  1.
       -3    1    3    3    0  502  0.13600813223E+04 -0.10157014402E+04  0.20691120474E+03  0.17100534716E+04  0.10100000352E+00 0. -1.
</event>
<event>
 5   0  0.1031659E-06  0.3648829E+04  0.7818609E-02  0.8079397E-01
        2   -1    0    0  501    0  0.00000000000E+00  0.00000000000E+00  0.14909790399E+04  0.14909790399E+04  0.25500000920E-02 0.  1.
       -2   -1    0    0    0  501  0.00000000000E+00  0.00000000000E+00 -0.22324180849E+04  0.22324180849E+04  0.25500000920E-02 0. -1.
    10030    2    1    2    0    0  0.00000000000E+00  0.00000000000E+00 -0.74143904497E+03  0.37233971248E+04  0.36488291672E+04 0.  0.
        2    1    3    3  502    0 -0.67828667289E+03 -0.16920738648E+04 -0.29641804882E+03  0.18469029304E+04  0.25500000920E-02 0.  1.
       -2    1    3    3    0  502  0.67828667289E+03  0.16920738648E+04 -0.44502099615E+03  0.18764941944E+04  0.25500000920E-02 0. -1.
</event>
<event>
 5   0  0.9878977E-07  0.3623532E+04  0.7818609E-02  0.8085122E-01
        2   -1    0    0  501    0  0.00000000000E+00  0.00000000000E+00  0.13902509462E+04  0.13902509462E+04  0.25500000920E-02 0. -1.
       -2   -1    0    0    0  501  0.00000000000E+00  0.00000000000E+00 -0.23610821639E+04  0.23610821639E+04  0.25500000920E-02 0.  1.
    10030    2    1    2    0    0  0.00000000000E+00  0.00000000000E+00 -0.97083121764E+03  0.37513331101E+04  0.36235323719E+04 0.  0.
        5    1    3    3  502    0 -0.99879968543E+02  0.13726512915E+04  0.73441457895E+03  0.15599789870E+04  0.46999998093E+01 0. -1.
       -5    1    3    3    0  502  0.99879968543E+02 -0.13726512915E+04 -0.17052457966E+04  0.21913541231E+04  0.46999998093E+01 0.  1.
</event>
<event>
 5   0  0.1006019E-06  0.3659370E+04  0.7818609E-02  0.8077026E-01
        2   -1    0    0  501    0  0.00000000000E+00  0.00000000000E+00  0.14871535936E+04  0.14871535936E+04  0.25500000920E-02 0.  1.
       -2   -1    0    0    0  501  0.00000000000E+00  0.00000000000E+00 -0.22511106332E+04  0.22511106332E+04  0.25500000920E-02 0. -1.
    10030    2    1    2    0    0  0.00000000000E+00  0.00000000000E+00 -0.76395703962E+03  0.37382642268E+04  0.36593700374E+04 0.  0.
        1    1    3    3  502    0 -0.10023013354E+04 -0.14858495340E+04 -0.60911752951E+01  0.17923152365E+04  0.50400001928E-02 0.  1.
       -1    1    3    3    0  502  0.10023013354E+04  0.14858495340E+04 -0.75786586432E+03  0.19459489903E+04  0.50400001928E-02 0. -1.
</event>
<event>
 5   0  0.9538919E-07  0.3401095E+04  0.7818609E-02  0.8137638E-01
       -2   -1    0    0    0  501  0.00000000000E+00  0.00000000000E+00  0.12588834146E+04  0.12588834146E+04  0.25500000920E-02 0.  1.
        2   -1    0    0  501    0  0.00000000000E+00  0.00000000000E+00 -0.22971646013E+04  0.22971646013E+04  0.25500000920E-02 0. -1.
    10030    2    1    2    0    0  0.00000000000E+00  0.00000000000E+00 -0.10382811867E+04  0.35560480159E+04  0.34010953631E+04 0.  0.
        4    1    3    3  502    0  0.14893687371E+04 -0.30995816577E+03  0.27546237419E+03  0.15460188977E+04  0.12699999809E+01 0.  1.
       -4    1    3    3    0  502 -0.14893687371E+04  0.30995816577E+03 -0.13137435609E+04  0.20100291182E+04  0.12699999809E+01 0. -1.
</event>
<event>
 5   0  0.9878977E-07  0.2997467E+04  0.7818609E-02  0.8244455E-01
        2   -1    0    0  501    0  0.00000000000E+00  0.00000000000E+00  0.14312011540E+04  0.14312011540E+04  0.25500000920E-02 0. -1.
       -2   -1    0    0    0  501  0.00000000000E+00  0.00000000000E+00 -0.15694520227E+04  0.15694520227E+04  0.25500000920E-02 0.  1.
    10030    2    1    2    0    0  0.00000000000E+00  0.00000000000E+00 -0.13825086862E+03  0.30006531767E+04  0.29974666277E+04 0.  0.
        5    1    3    3  502    0 -0.93072889625E+03  0.98851298327E+03  0.56618713349E+03  0.14710554566E+04  0.46999998093E+01 0. -1.
       -5    1    3    3    0  502  0.93072889625E+03 -0.98851298327E+03 -0.70443800211E+03  0.15295977201E+04  0.46999998093E+01 0.  1.
</event>
<event>
 5   0  0.9878336E-07  0.3544247E+04  0.7818609E-02  0.8103383E-01
       -2   -1    0    0    0  501  0.00000000000E+00  0.00000000000E+00  0.17861871976E+04  0.17861871976E+04  0.25500000920E-02 0.  1.
        2   -1    0    0  501    0  0.00000000000E+00  0.00000000000E+00 -0.17581700673E+04  0.17581700673E+04  0.25500000920E-02 0. -1.
    10030    2    1    2    0    0  0.00000000000E+00  0.00000000000E+00  0.28017130289E+02  0.35443572650E+04  0.35442465295E+04 0.  0.
        3    1    3    3  502    0  0.14305938258E+04 -0.60290414907E+03 -0.84061087351E+03  0.17654231103E+04  0.10100000352E+00 0. -1.
       -3    1    3    3    0  502 -0.14305938258E+04  0.60290414907E+03  0.86862800380E+03  0.17789341547E+04  0.10100000352E+00 0.  1.
</event>
<event>
 5   0  0.3278988E-07  0.3548008E+04  0.7818609E-02  0.8102506E-01
        1   -1    0    0  501    0  0.00000000000E+00  0.00000000000E+00  0.20262362376E+04  0.20262362376E+04  0.50400001928E-02 0. -1.
       -1   -1    0    0    0  501  0.00000000000E+00  0.00000000000E+00 -0.15531708024E+04  0.15531708024E+04  0.50400001928E-02 0.  1.
    10030    2    1    2    0    0  0.00000000000E+00  0.00000000000E+00  0.47306543524E+03  0.35794070400E+04  0.35480084346E+04 0.  0.
        4    1    3    3  502    0  0.11090783647E+04 -0.48337393867E+03  0.15454676656E+04  0.19626963856E+04  0.12699999809E+01 0. -1.
       -4    1    3    3    0  502 -0.11090783647E+04  0.48337393867E+03 -0.10724022304E+04  0.16167106545E+04  0.12699999809E+01 0.  1.
</event>
<event>
 5   0  0.9878977E-07  0.3594948E+04  0.7818609E-02  0.8091650E-01
        2   -1    0    0  501    0  0.00000000000E+00  0.00000000000E+00  0.15665291692E+04  0.15665291692E+04  0.25500000920E-02 0.  1.
       -2   -1    0    0    0  501  0.00000000000E+00  0.00000000000E+00 -0.20624658488E+04  0.20624658488E+04  0.25500000920E-02 0. -1.
    10030    2    1    2    0    0  0.00000000000E+00  0.00000000000E+00 -0.49593667956E+03  0.36289950180E+04  0.35949480734E+04 0.  0.
        5    1    3    3  502    0  0.71959270697E+03  0.14371556276E+04  0.56442728651E+03  0.17034759211E+04  0.46999998093E+01 0.  1.
       -5    1    3    3    0  502 -0.71959270697E+03 -0.14371556276E+04 -0.10603639661E+04  0.19255190969E+04  0.46999998093E+01 0. -1.
</event>
<event>
 5   0  0.3159875E-07  0.3673439E+04  0.7818609E-02  0.8073874E-01
        1   -1    0    0  501    0  0.00000000000E+00  0.00000000000E+00  0.16886953624E+04  0.16886953624E+04  0.50400001928E-02 0.  1.
       -1   -1    0    0    0  501  0.00000000000E+00  0.00000000000E+00 -0.19977184977E+04  0.19977184977E+04  0.50400001928E-02 0. -1.
    10030    2    1    2    0    0  0.00000000000E+00  0.00000000000E+00 -0.30902313533E+03  0.36864138601E+04  0.36734386955E+04 0.  0.
        5    1    3    3  502    0 -0.14510220862E+04  0.40602811594E+03  0.89952780831E+03  0.17548493649E+04  0.46999998093E+01 0. -1.
       -5    1    3    3    0  502  0.14510220862E+04 -0.40602811594E+03 -0.12085509436E+04  0.19315644952E+04  0.46999998093E+01 0.  1.
</event>
<event>
 5   0  0.3159875E-07  0.3503877E+04  0.7818609E-02  0.8112872E-01
       -1   -1    0    0    0  501  0.00000000000E+00  0.00000000000E+00  0.26497418265E+04  0.26497418265E+04  0.50400001928E-02 0. -1.
        1   -1    0    0  501    0  0.00000000000E+00  0.00000000000E+00 -0.11583349167E+04  0.11583349167E+04  0.50400001928E-02 0.  1.
    10030    2    1    2    0    0  0.00000000000E+00  0.00000000000E+00  0.14914069098E+04  0.38080767432E+04  0.35038769829E+04 0.  0.
        5    1    3    3  502    0 -0.63322221028E+02 -0.47294731583E+03 -0.10863434820E+04  0.11865298640E+04  0.46999998093E+01 0.  1.
       -5    1    3    3    0  502  0.63322221028E+02  0.47294731583E+03  0.25777503918E+04  0.26215468792E+04  0.46999998093E+01 0. -1.
</event>
<event>
 5   0  0.3159875E-07  0.3584331E+04  0.7818609E-02  0.8094090E-01
        1   -1    0    0  501    0  0.00000000000E+00  0.00000000000E+00  0.23730593337E+04  0.23730593337E+04  0.50400001928E-02 0.  1.
       -1   -1    0    0    0  501  0.00000000000E+00  0.00000000000E+00 -0.13534672345E+04  0.13534672345E+04  0.50400001928E-02 0. -1.
    10030    2    1    2    0    0  0.00000000000E+00  0.00000000000E+00  0.10195920992E+04  0.37265265682E+04  0.35843314879E+04 0.  0.
        5    1    3    3  502    0  0.15471063131E+03  0.80257477172E+03 -0.11483979672E+04  0.14095749801E+04  0.46999998093E+01 0. -1.
       -5    1    3    3    0  502 -0.15471063131E+03 -0.80257477172E+03  0.21679900664E+04  0.23169515881E+04  0.46999998093E+01 0.  1.
</event>
<event>
 5   0  0.3242047E-07  0.3501423E+04  0.7818609E-02  0.8113453E-01
        1   -1    0    0  501    0  0.00000000000E+00  0.00000000000E+00  0.31039830980E+04  0.31039830980E+04  0.50400001928E-02 0.  1.
       -1   -1    0    0    0  501  0.00000000000E+00  0.00000000000E+00 -0.98743823639E+03  0.98743823640E+03  0.50400001928E-02 0. -1.
    10030    2    1    2    0    0  0.00000000000E+00  0.00000000000E+00  0.21165448616E+04  0.40914213344E+04  0.35014234797E+04 0.  0.
        1    1    3    3  502    0 -0.15227090078E+04 -0.40201890270E+03  0.16474655604E+03  0.15834782437E+04  0.50400001928E-02 0. -1.
       -1    1    3    3    0  502  0.15227090078E+04  0.40201890270E+03  0.19517983055E+04  0.25079430907E+04  0.50400001928E-02 0.  1.
</event>
<event>
 5   0  0.9878336E-07  0.3685791E+04  0.7818609E-02  0.8071118E-01
       -2   -1    0    0    0  501  0.00000000000E+00  0.00000000000E+00  0.27649418993E+04  0.27649418993E+04  0.25500000920E-02 0. -1.
        2   -1    0    0  501    0  0.00000000000E+00  0.00000000000E+00 -0.12283307976E+04  0.12283307976E+04  0.25500000920E-02 0.  1.
    10030    2    1    2    0    0  0.00000000000E+00  0.00000000000E+00  0.15366111017E+04  0.39932726970E+04  0.36857907095E+04 0.  0.
        3    1    3    3  502    0  0.54794623752E+03 -0.12375033823E+04 -0.58688528851E+03  0.14751589923E+04  0.10100000352E+00 0.  1.
       -3    1    3    3    0  502 -0.54794623752E+03  0.12375033823E+04  0.21234963902E+04  0.25181137047E+04  0.10100000352E+00 0. -1.
</event>
<event>
 5   0  0.3159875E-07  0.3398344E+04  0.7818609E-02  0.8138313E-01
        1   -1    0    0  501    0  0.00000000000E+00  0.00000000000E+00  0.29158824330E+04  0.29158824330E+04  0.50400001928E-02 0.  1.
       -1   -1    0    0    0  501  0.00000000000E+00  0.00000000000E+00 -0.99015841621E+03  0.99015841622E+03  0.50400001928E-02 0. -1.
    10030    2    1    2    0    0  0.00000000000E+00  0.00000000000E+00  0.19257240168E+04  0.39060408492E+04  0.33983440271E+04 0.  0.
        2    1    3    3  502    0  0.15837235815E+04 -0.41474050068E+03  0.14857995915E+04  0.22108347952E+04  0.25500000920E-02 0.  1.
       -2    1    3    3    0  502 -0.15837235815E+04  0.41474050068E+03  0.43992442527E+03  0.16952060540E+04  0.25500000920E-02 0. -1.
</event>
<event>
 5   0  0.3278988E-07  0.3608715E+04  0.7818609E-02  0.8088498E-01
        1   -1    0    0  501    0  0.00000000000E+00  0.00000000000E+00  0.10676717963E+04  0.10676717963E+04  0.50400001928E-02 0. -1.
       -1   -1    0    0    0  501  0.00000000000E+00  0.00000000000E+00 -0.30493515538E+04  0.30493515538E+04  0.50400001928E-02 0.  1.
    10030    2    1    2    0    0  0.00000000000E+00  0.00000000000E+00 -0.19816797575E+04  0.41170233502E+04  0.36087153676E+04 0.  0.
        4    1    3    3  502    0  0.12506261747E+04  0.61725860996E+03 -0.22969233159E+04  0.26871792557E+04  0.12699999809E+01 0.  1.
       -4    1    3    3    0  502 -0.12506261747E+04 -0.61725860996E+03  0.31524355838E+03  0.14298440944E+04  0.12699999809E+01 0. -1.
</event>
<event>
 5   0  0.9538919E-07  0.3603579E+04  0.7818609E-02  0.8089672E-01
       -2   -1    0    0    0  501  0.00000000000E+00  0.00000000000E+00  0.30751844677E+04  0.30751844677E+04  0.25500000920E-02 0. -1.
        2   -1    0    0  501    0  0.00000000000E+00  0.00000000000E+00 -0.10556912455E+04  0.10556912455E+04  0.25500000920E-02 0.  1.
    10030    2    1    2    0    0  0.00000000000E+00  0.00000000000E+00  0.20194932222E+04  0.41308757132E+04  0.36035789548E+04 0.  0.
        4    1    3    3  502    0 -0.10742104959E+04  0.13727742042E+04  0.15325598094E+04  0.23210295964E+04  0.12699999809E+01 0.  1.
       -4    1    3    3    0  502  0.10742104959E+04 -0.13727742042E+04  0.48693341275E+03  0.18098461168E+04  0.12699999809E+01 0. -1.
</event>
<event>
 5   0  0.1031659E-06  0.3625829E+04  0.7818609E-02  0.8084601E-01
       -2   -1    0    0    0  501  0.00000000000E+00  0.00000000000E+00  0.25688943056E+04  0.25688943056E+04  0.25500000920E-02 0.  1.
        2   -1    0    0  501    0  0.00000000000E+00  0.00000000000E+00 -0.12794059396E+04  0.12794059396E+04  0.25500000920E-02 0. -1.
    10030    2    1    2    0    0  0.00000000000E+00  0.00000000000E+00  0.12894883660E+04  0.38483002453E+04  0.36258288062E+04 0.  0.
        2    1    3    3  502    0 -0.23510489908E+03 -0.78405229014E+03  0.23616013526E+04  0.24994345873E+04  0.25500000920E-02 0.  1.
       -2    1    3    3    0  502  0.23510489908E+03  0.78405229014E+03 -0.10721129866E+04  0.13488656580E+04  0.25500000920E-02 0. -1.
</event>
<event>
 5   0  0.3242047E-07  0.3628133E+04  0.7818609E-02  0.8084078E-01
       -1   -1    0    0    0  501  0.00000000000E+00  0.00000000000E+00  0.20358913267E+04  0.20358913267E+04  0.50400001928E-02 0.  1.
        1   -1    0    0  501    0  0.00000000000E+00  0.00000000000E+00 -0.16164114903E+04  0.16164114903E+04  0.50400001928E-02 0. -1.
    10030    2    1    2    0    0  0.00000000000E+00  0.00000000000E+00  0.41947983638E+03  0.36523028171E+04  0.36281334780E+04 0.  0.
        1    1    3    3  502    0  0.16944232558E+04 -0.29832283501E+03 -0.36921870975E+03  0.17596559719E+04  0.50400001928E-02 0.  1.
       -1    1    3    3    0  502 -0.16944232558E+04  0.29832283501E+03  0.78869854613E+03  0.18926468452E+04  0.50400001928E-02 0. -1.
</event>
<event>
 5   0  0.9878977E-07  0.3568765E+04  0.7818609E-02  0.8097684E-01
        2   -1    0    0  501    0  0.00000000000E+00  0.00000000000E+00  0.17458063698E+04  0.17458063698E+04  0.25500000920E-02 0. -1.
       -2   -1    0    0    0  501  0.00000000000E+00  0.00000000000E+00 -0.18238106445E+04  0.18238106446E+04  0.25500000920E-02 0.  1.
    10030    2    1    2    0    0  0.00000000000E+00  0.00000000000E+00 -0.78004274777E+02  0.35696170143E+04  0.35687646269E+04 0.  0.
        5    1    3    3  502    0  0.35421338240E+03 -0.81767796720E+03  0.15073081691E+04  0.17510180995E+04  0.46999998093E+01 0. -1.
       -5    1    3    3    0  502 -0.35421338240E+03  0.81767796720E+03 -0.15853124438E+04  0.18185989148E+04  0.46999998093E+01 0.  1.
</event>
<event>
 5   0  0.3365378E-07  0.3597215E+04  0.7818609E-02  0.8091130E-01
       -1   -1    0    0    0  501  0.00000000000E+00  0.00000000000E+00  0.16788016111E+04  0.16788016111E+04  0.50400001928E-02 0. -1.
        1   -1    0    0  501    0  0.00000000000E+00  0.00000000000E+00 -0.19269629215E+04  0.19269629215E+04  0.50400001928E-02 0.  1.
    10030    2    1    2    0    0  0.00000000000E+00  0.00000000000E+00 -0.24816131036E+03  0.36057645326E+04  0.35972147321E+04 0.  0.
        3    1    3    3  502    0 -0.45106031065E+03  0.11998716144E+04 -0.13887612742E+04  0.18899220041E+04  0.10100000352E+00 0.  1.
       -3    1    3    3    0  502  0.45106031065E+03 -0.11998716144E+04  0.11405999638E+04  0.17158425285E+04  0.10100000352E+00 0. -1.
</event>
<event>
 5   0  0.9538919E-07  0.3438697E+04  0.7818609E-02  0.8128474E-01
       -2   -1    0    0    0  501  0.00000000000E+00  0.00000000000E+00  0.88435287114E+03  0.88435287114E+03  0.25500000920E-02 0. -1.
        2   -1    0    0  501    0  0.00000000000E+00  0.00000000000E+00 -0.33427374640E+04  0.33427374640E+04  0.25500000920E-02 0.  1.
    10030    2    1    2    0    0  0.00000000000E+00  0.00000000000E+00 -0.24583845928E+04  0.42270903351E+04  0.34386971217E+04 0.  0.
        4    1    3    3  502    0  0.69024655101E+03  0.15019247377E+04 -0.18109110885E+04  0.24518602738E+04  0.12699999809E+01 0.  1.
       -4    1    3    3    0  502 -0.69024655101E+03 -0.15019247377E+04 -0.64747350438E+03  0.17752300613E+04  0.12699999809E+01 0. -1.
</event>
<event>
 5   0  0.3159875E-07  0.3509552E+04  0.7818609E-02  0.8111530E-01
        1   -1    0    0  501    0  0.00000000000E+00  0.00000000000E+00  0.23031035674E+04  0.23031035674E+04  0.50400001928E-02 0.  1.
       -1   -1    0    0    0  501  0.00000000000E+00  0.00000000000E+00 -0.13369952445E+04  0.13369952445E+04  0.50400001928E-02 0. -1.
    10030    2    1    2    0    0  0.00000000000E+00  0.00000000000E+00  0.96610832293E+03  0.36400988119E+04  0.35095518330E+04 0.  0.
        2    1    3    3  502    0  0.15008421992E+04 -0.25391417640E+03  0.13885929088E+04  0.20603858819E+04  0.25500000920E-02 0.  1.
       -2    1    3    3    0  502 -0.15008421992E+04  0.25391417640E+03 -0.42248458584E+03  0.15797129300E+04  0.25500000920E-02 0. -1.
</event>
<event>
 5   0  0.3365378E-07  0.3840988E+04  0.7818609E-02  0.8037416E-01
        1   -1    0    0  501    0  0.00000000000E+00  0.00000000000E+00  0.24195182493E+04  0.24195182493E+04  0.50400001928E-02 0.  1.
       -1   -1    0    0    0  501  0.00000000000E+00  0.00000000000E+00 -0.15243928691E+04  0.15243928691E+04  0.50400001928E-02 0. -1.
    10030    2    1    2    0    0  0.00000000000E+00  0.00000000000E+00  0.89512538021E+03  0.39439111184E+04  0.38409875636E+04 0.  0.
        3    1    3    3  502    0  0.56731269696E+03  0.66662492713E+03  0.22027726308E+04  0.23703248222E+04  0.10100000352E+00 0.  1.
       -3    1    3    3    0  502 -0.56731269696E+03 -0.66662492713E+03 -0.13076472506E+04  0.15735862962E+04  0.10100000352E+00 0. -1.
</event>
<event>
 5   0  0.3242047E-07  0.3030770E+04  0.7818609E-02  0.8234998E-01
       -1   -1    0    0    0  501  0.00000000000E+00  0.00000000000E+00  0.10857638351E+04  0.10857638352E+04  0.50400001928E-02 0.  1.
        1   -1    0    0  501    0  0.00000000000E+00  0.00000000000E+00 -0.21150014452E+04  0.21150014452E+04  0.50400001928E-02 0. -1.
    10030    2    1    2    0    0  0.00000000000E+00  0.00000000000E+00 -0.10292376101E+04  0.32007652804E+04  0.30307702523E+04 0.  0.
        1    1    3    3  502    0  0.65530215205E+03 -0.58094413592E+03 -0.18207055272E+04  0.20203676933E+04  0.50400001928E-02 0. -1.
       -1    1    3    3    0  502 -0.65530215205E+03  0.58094413592E+03  0.79146791713E+03  0.11803975870E+04  0.50400001928E-02 0.  1.
</event>
<event>
 5   0  0.3365378E-07  0.3402637E+04  0.7818609E-02  0.8137259E-01
       -1   -1    0    0    0  501  0.00000000000E+00  0.00000000000E+00  0.19215413413E+04  0.19215413413E+04  0.50400001928E-02 0.  1.
        1   -1    0    0  501    0  0.00000000000E+00  0.00000000000E+00 -0.15063349802E+04  0.15063349802E+04  0.50400001928E-02 0. -1.
    10030    2    1    2    0    0  0.00000000000E+00  0.00000000000E+00  0.41520636116E+03  0.34278763215E+04  0.34026371762E+04 0.  0.
        3    1    3    3  502    0  0.11645012549E+03 -0.95117806335E+03  0.16237988285E+04  0.18854768589E+04  0.10100000352E+00 0.  1.
       -3    1    3    3    0  502 -0.11645012549E+03  0.95117806335E+03 -0.12085924673E+04  0.15423994626E+04  0.10100000352E+00 0. -1.
</event>
<event>
 5   0  0.9538919E-07  0.3579841E+04  0.7818609E-02  0.8095125E-01
       -2   -1    0    0    0  501  0.00000000000E+00  0.00000000000E+00  0.17258179464E+04  0.17258179464E+04  0.25500000920E-02 0. -1.
        2   -1    0    0  501    0  0.00000000000E+00  0.00000000000E+00 -0.18564035328E+04  0.18564035328E+04  0.25500000920E-02 0.  1.
    10030    2    1    2    0    0  0.00000000000E+00  0.00000000000E+00 -0.13058558640E+03  0.35822214793E+04  0.35798405176E+04 0.  0.
        4    1    3    3  502    0  0.19713302696E+03  0.11759405714E+04  0.12705539906E+04  0.17424140478E+04  0.12699999809E+01 0. -1.
       -4    1    3    3    0  502 -0.19713302696E+03 -0.11759405714E+04 -0.14011395770E+04  0.18398074315E+04  0.12699999809E+01 0.  1.
</event>
<event>
 5   0  0.1006019E-06  0.3584137E+04  0.7818609E-02  0.8094135E-01
       -2   -1    0    0    0  501  0.00000000000E+00  0.00000000000E+00  0.15272920630E+04  0.15272920630E+04  0.25500000920E-02 0. -1.
        2   -1    0    0  501    0  0.00000000000E+00  0.00000000000E+00 -0.21027475502E+04  0.21027475502E+04  0.25500000920E-02 0.  1.
    10030    2    1    2    0    0  0.00000000000E+00  0.00000000000E+00 -0.57545548720E+03  0.36300396133E+04  0.35841370755E+04 0.  0.
        1    1    3    3  502    0 -0.16736406736E+04  0.63561414521E+03 -0.20650592603E+03  0.18021440407E+04  0.50400001928E-02 0. -1.
       -1    1    3    3    0  502  0.16736406736E+04 -0.63561414521E+03 -0.36894956117E+03  0.18278955726E+04  0.50400001928E-02 0.  1.
</event>
<event>
 5   0  0.3159875E-07  0.3362665E+04  0.7818609E-02  0.8147131E-01
       -1   -1    0    0    0  501  0.00000000000E+00  0.00000000000E+00  0.14117991174E+04  0.14117991174E+04  0.50400001928E-02 0.  1.
        1   -1    0    0  501    0  0.00000000000E+00  0.00000000000E+00 -0.20023240550E+04  0.20023240550E+04  0.50400001928E-02 0. -1.
    10030    2    1    2    0    0  0.00000000000E+00  0.00000000000E+00 -0.59052493762E+03  0.34141231724E+04  0.33626652130E+04 0.  0.
        2    1    3    3  502    0  0.98045783003E+03  0.13483911266E+04 -0.51636348530E+03  0.17453043963E+04  0.25500000920E-02 0. -1.
       -2    1    3    3    0  502 -0.98045783003E+03 -0.13483911266E+04 -0.74161452325E+02  0.16688187762E+04  0.25500000920E-02 0.  1.
</event>
<event>
 5   0  0.3159875E-07  0.3628983E+04  0.7818609E-02  0.8083885E-01
        1   -1    0    0  501    0  0.00000000000E+00  0.00000000000E+00  0.16935235232E+04  0.16935235232E+04  0.50400001928E-02 0. -1.
       -1   -1    0    0    0  501  0.00000000000E+00  0.00000000000E+00 -0.19441002073E+04  0.19441002074E+04  0.50400001928E-02 0.  1.
    10030    2    1    2    0    0  0.00000000000E+00  0.00000000000E+00 -0.25057668419E+03  0.36376237305E+04  0.36289830160E+04 0.  0.
        2    1    3    3  502    0  0.15887207790E+03 -0.15193126167E+04  0.85624092398E+03  0.17511994987E+04  0.25500000920E-02 0.  1.
       -2    1    3    3    0  502 -0.15887207790E+03  0.15193126167E+04 -0.11068176082E+04  0.18864242318E+04  0.25500000920E-02 0. -1.
</event>
<event>
 5   0  0.3159875E-07  0.3549062E+04  0.7818609E-02  0.8102260E-01
        3   -1    0    0  501    0  0.00000000000E+00  0.00000000000E+00  0.11668366832E+04  0.11668366875E+04  0.10100000352E+00 0. -1.
       -3   -1    0    0    0  501  0.00000000000E+00  0.00000000000E+00 -0.26987148872E+04  0.26987148891E+04  0.10100000352E+00 0.  1.
    10030    2    1    2    0    0  0.00000000000E+00  0.00000000000E+00 -0.15318782041E+04  0.38655515767E+04  0.35490615886E+04 0.  0.
        1    1    3    3  502    0  0.40002334109E+03  0.10619873310E+04 -0.22518253556E+04  0.25216171789E+04  0.50400001928E-02 0.  1.
       -1    1    3    3    0  502 -0.40002334109E+03 -0.10619873310E+04  0.71994715154E+03  0.13439343978E+04  0.50400001928E-02 0. -1.
</event>
<event>
 5   0  0.9538919E-07  0.3564005E+04  0.7818609E-02  0.8098787E-01
        2   -1    0    0  501    0  0.00000000000E+00  0.00000000000E+00  0.17086236460E+04  0.17086236460E+04  0.25500000920E-02 0.  1.
       -2   -1    0    0    0  501  0.00000000000E+00  0.00000000000E+00 -0.18585327274E+04  0.18585327274E+04  0.25500000920E-02 0. -1.
    10030    2    1    2    0    0  0.00000000000E+00  0.00000000000E+00 -0.14990908141E+03  0.35671563733E+04  0.35640050307E+04 0.  0.
        4    1    3    3  502    0 -0.47657189220E+02 -0.49724714149E+03 -0.17870240899E+04  0.18555275902E+04  0.12699999809E+01 0. -1.
       -4    1    3    3    0  502  0.47657189220E+02  0.49724714149E+03  0.16371150085E+04  0.17116287831E+04  0.12699999809E+01 0.  1.
</event>
<event>
 5   0  0.3365378E-07  0.3452981E+04  0.7818609E-02  0.8125024E-01
       -1   -1    0    0    0  501  0.00000000000E+00  0.00000000000E+00  0.10306651512E+04  0.10306651512E+04  0.50400001928E-02 0. -1.
        1   -1    0    0  501    0  0.00000000000E+00  0.00000000000E+00 -0.28920828703E+04  0.28920828704E+04  0.50400001928E-02 0.  1.
    10030    2    1    2    0    0  0.00000000000E+00  0.00000000000E+00 -0.18614177192E+04  0.39227480215E+04  0.34529807580E+04 0.  0.
        3    1    3    3  502    0  0.13756962681E+04 -0.79395894262E+03 -0.16994173084E+04  0.23261406284E+04  0.10100000352E+00 0.  1.
       -3    1    3    3    0  502 -0.13756962681E+04  0.79395894262E+03 -0.16200041078E+03  0.15966073932E+04  0.10100000352E+00 0. -1.
</event>
<event>
 5   0  0.9538919E-07  0.3611052E+04  0.7818609E-02  0.8087965E-01
       -2   -1    0    0    0  501  0.00000000000E+00  0.00000000000E+00  0.27022094551E+04  0.27022094551E+04  0.25500000920E-02 0.  1.
        2   -1    0    0  501    0  0.00000000000E+00  0.00000000000E+00 -0.12063919000E+04  0.12063919000E+04  0.25500000920E-02 0. -1.
    10030    2    1    2    0    0  0.00000000000E+00  0.00000000000E+00  0.14958175551E+04  0.39086013551E+04  0.36110517021E+04 0.  0.
        4    1    3    3  502    0 -0.68538027040E+03  0.12872344920E+04 -0.40432757847E+03  0.15133410574E+04  0.12699999809E+01 0. -1.
       -4    1    3    3    0  502  0.68538027040E+03 -0.12872344920E+04  0.19001451335E+04  0.23952602977E+04  0.12699999809E+01 0.  1.
</event>
<event>
 5   0  0.3365378E-07  0.3644086E+04  0.7818609E-02  0.8080467E-01
       -1   -1    0    0    0  501  0.00000000000E+00  0.00000000000E+00  0.15029240416E+04  0.15029240416E+04  0.50400001928E-02 0.  1.
        1   -1    0    0  501    0  0.00000000000E+00  0.00000000000E+00 -0.22089213487E+04  0.22089213487E+04  0.50400001928E-02 0. -1.
    10030    2    1    2    0    0  0.00000000000E+00  0.00000000000E+00 -0.70599730714E+03  0.37118453903E+04  0.36440861685E+04 0.  0.
        3    1    3    3  502    0  0.36569396657E+03 -0.12641410740E+04  0.93061456938E+03  0.16117779683E+04  0.10100000352E+00 0.  1.
       -3    1    3    3    0  502 -0.36569396657E+03  0.12641410740E+04 -0.16366118765E+04  0.21000674220E+04  0.10100000352E+00 0. -1.
</event>
<event>
 5   0  0.3365378E-07  0.3859248E+04  0.7818609E-02  0.8033559E-01
        1   -1    0    0  501    0  0.00000000000E+00  0.00000000000E+00  0.20125095275E+04  0.20125095275E+04  0.50400001928E-02 0.  1.
       -1   -1    0    0    0  501  0.00000000000E+00  0.00000000000E+00 -0.18501519369E+04  0.18501519369E+04  0.50400001928E-02 0. -1.
    10030    2    1    2    0    0  0.00000000000E+00  0.00000000000E+00  0.16235759063E+03  0.38626614644E+04  0.38592478025E+04 0.  0.
        3    1    3    3  502    0  0.59052604399E+03 -0.13440066750E+04 -0.11722761287E+04  0.18786447996E+04  0.10100000352E+00 0. -1.
       -3    1    3    3    0  502 -0.59052604399E+03  0.13440066750E+04  0.13346337193E+04  0.19840166647E+04  0.10100000352E+00 0.  1.
</event>
<event>
 5   0  0.9538919E-07  0.3599368E+04  0.7818609E-02  0.8090636E-01
        2   -1    0    0  501    0  0.00000000000E+00  0.00000000000E+00  0.10628256409E+04  0.10628256409E+04  0.25500000920E-02 0. -1.
       -2   -1    0    0    0  501  0.00000000000E+00  0.00000000000E+00 -0.30474072167E+04  0.30474072167E+04  0.25500000920E-02 0.  1.
    10030    2    1    2    0    0  0.00000000000E+00  0.00000000000E+00 -0.19845815758E+04  0.41102328576E+04  0.35993680158E+04 0.  0.
        4    1    3    3  502    0 -0.13559655380E+04  0.65591662044E+03 -0.21169584205E+04  0.25981500573E+04  0.12699999809E+01 0.  1.
       -4    1    3    3    0  502  0.13559655380E+04 -0.65591662044E+03  0.13237684474E+03  0.15120828003E+04  0.12699999809E+01 0. -1.
</event>
<event>
 5   0  0.1006019E-06  0.2806968E+04  0.7818609E-02  0.8301108E-01
       -2   -1    0    0    0  501  0.00000000000E+00  0.00000000000E+00  0.12547141187E+04  0.12547141187E+04  0.25500000920E-02 0.  1.
        2   -1    0    0  501    0  0.00000000000E+00  0.00000000000E+00 -0.15698928670E+04  0.15698928670E+04  0.25500000920E-02 0. -1.
    10030    2    1    2    0    0  0.00000000000E+00  0.00000000000E+00 -0.31517874829E+03  0.28246069856E+04  0.28069675773E+04 0.  0.
        1    1    3    3  502    0  0.11886340538E+03  0.14800838805E+03  0.12417361212E+04  0.12561622454E+04  0.50400001928E-02 0.  1.
       -1    1    3    3    0  502 -0.11886340538E+03 -0.14800838805E+03 -0.15569148695E+04  0.15684447402E+04  0.50400001928E-02 0. -1.
</event>
<event>
 5   0  0.9538919E-07  0.3110492E+04  0.7818609E-02  0.8212864E-01
        2   -1    0    0  501    0  0.00000000000E+00  0.00000000000E+00  0.18973298153E+04  0.18973298153E+04  0.25500000920E-02 0. -1.
       -2   -1    0    0    0  501  0.00000000000E+00  0.00000000000E+00 -0.12748391493E+04  0.12748391493E+04  0.25500000920E-02 0.  1.
    10030    2    1    2    0    0  0.00000000000E+00  0.00000000000E+00  0.62249066597E+03  0.31721689646E+04  0.31104921332E+04 0.  0.
        4    1    3    3  502    0 -0.13687726811E+04 -0.34064110166E+03  0.97937998025E+03  0.17171959036E+04  0.12699999809E+01 0. -1.
       -4    1    3    3    0  502  0.13687726811E+04  0.34064110166E+03 -0.35688931428E+03  0.14549730610E+04  0.12699999809E+01 0.  1.
</event>
<event>
 5   0  0.9538919E-07  0.3615333E+04  0.7818609E-02  0.8086988E-01
        2   -1    0    0  501    0  0.00000000000E+00  0.00000000000E+00  0.14547663406E+04  0.14547663406E+04  0.25500000920E-02 0. -1.
       -2   -1    0    0    0  501  0.00000000000E+00  0.00000000000E+00 -0.22461741850E+04  0.22461741850E+04  0.25500000920E-02 0.  1.
    10030    2    1    2    0    0  0.00000000000E+00  0.00000000000E+00 -0.79140784440E+03  0.37009405256E+04  0.36153332347E+04 0.  0.
        4    1    3    3  502    0  0.22677771526E+03 -0.85786488750E+03  0.12164837252E+04  0.15057206128E+04  0.12699999809E+01 0. -1.
       -4    1    3    3    0  502 -0.22677771526E+03  0.85786488750E+03 -0.20078915696E+04  0.21952199128E+04  0.12699999809E+01 0.  1.
</event>
<event>
 5   0  0.3242047E-07  0.3622555E+04  0.7818609E-02  0.8085345E-01
        1   -1    0    0  501    0  0.00000000000E+00  0.00000000000E+00  0.15435240281E+04  0.15435240281E+04  0.50400001928E-02 0. -1.
       -1   -1    0    0    0  501  0.00000000000E+00  0.00000000000E+00 -0.21254775264E+04  0.21254775264E+04  0.50400001928E-02 0.  1.
    10030    2    1    2    0    0  0.00000000000E+00  0.00000000000E+00 -0.58195349836E+03  0.36690015545E+04  0.36225546970E+04 0.  0.
        1    1    3    3  502    0  0.29976226216E+03  0.67917938515E+03  0.13823514997E+04  0.15690881810E+04  0.50400001928E-02 0. -1.
       -1    1    3    3    0  502 -0.29976226216E+03 -0.67917938515E+03 -0.19643049980E+04  0.20999133735E+04  0.50400001928E-02 0.  1.
</event>
<event>
 5   0  0.3365378E-07  0.3570868E+04  0.7818609E-02  0.8097197E-01
        1   -1    0    0  501    0  0.00000000000E+00  0.00000000000E+00  0.19389921221E+04  0.19389921222E+04  0.50400001928E-02 0. -1.
       -1   -1    0    0    0  501  0.00000000000E+00  0.00000000000E+00 -0.16440373039E+04  0.16440373039E+04  0.50400001928E-02 0.  1.
    10030    2    1    2    0    0  0.00000000000E+00  0.00000000000E+00  0.29495481827E+03  0.35830294260E+04  0.35708684550E+04 0.  0.
        3    1    3    3  502    0  0.66120645304E+03 -0.16144426530E+04 -0.23349485814E+03  0.17601530934E+04  0.10100000352E+00 0. -1.
       -3    1    3    3    0  502 -0.66120645304E+03  0.16144426530E+04  0.52844967642E+03  0.18228763326E+04  0.10100000352E+00 0.  1.
</event>
<event>
 5   0  0.1031659E-06  0.3554637E+04  0.7818609E-02  0.8100962E-01
       -2   -1    0    0    0  501  0.00000000000E+00  0.00000000000E+00  0.15800230582E+04  0.15800230582E+04  0.25500000920E-02 0. -1.
        2   -1    0    0  501    0  0.00000000000E+00  0.00000000000E+00 -0.19992502137E+04  0.19992502137E+04  0.25500000920E-02 0.  1.
    10030    2    1    2    0    0  0.00000000000E+00  0.00000000000E+00 -0.41922715551E+03  0.35792732719E+04  0.35546372174E+04 0.  0.
        2    1    3    3  502    0 -0.63365090047E+03  0.39160217728E+03 -0.18344876385E+04  0.19799521773E+04  0.25500000920E-02 0.  1.
       -2    1    3    3    0  502  0.63365090047E+03 -0.39160217728E+03  0.14152604829E+04  0.15993210946E+04  0.25500000920E-02 0. -1.
</event>
<event>
 5   0  0.3159875E-07  0.3591181E+04  0.7818609E-02  0.8092515E-01
        1   -1    0    0  501    0  0.00000000000E+00  0.00000000000E+00  0.17478550750E+04  0.17478550750E+04  0.50400001928E-02 0.  1.
       -1   -1    0    0    0  501  0.00000000000E+00  0.00000000000E+00 -0.18446297603E+04  0.18446297603E+04  0.50400001928E-02 0. -1.
    10030    2    1    2    0    0  0.00000000000E+00  0.00000000000E+00 -0.96774685273E+02  0.35924848353E+04  0.35911811361E+04 0.  0.
        2    1    3    3  502    0  0.13289139817E+04  0.18531536272E+03  0.11452731089E+04  0.17640874832E+04  0.25500000920E-02 0.  1.
       -2    1    3    3    0  502 -0.13289139817E+04 -0.18531536272E+03 -0.12420477941E+04  0.18283973522E+04  0.25500000920E-02 0. -1.
</event>
<event>
 5   0  0.3278988E-07  0.3612755E+04  0.7818609E-02  0.8087576E-01
       -1   -1    0    0    0  501  0.00000000000E+00  0.00000000000E+00  0.17977628018E+04  0.17977628018E+04  0.50400001928E-02 0. -1.
        1   -1    0    0  501    0  0.00000000000E+00  0.00000000000E+00 -0.18150331307E+04  0.18150331307E+04  0.50400001928E-02 0.  1.
    10030    2    1    2    0    0  0.00000000000E+00  0.00000000000E+00 -0.17270328922E+02  0.36127959325E+04  0.36127546534E+04 0.  0.
        4    1    3    3  502    0 -0.57630025540E+03  0.52171512974E+03  0.16219320770E+04  0.17986033293E+04  0.12699999809E+01 0. -1.
       -4    1    3    3    0  502  0.57630025540E+03 -0.52171512974E+03 -0.16392024059E+04  0.18141926032E+04  0.12699999809E+01 0.  1.
</event>
<event>
 5   0  0.3278988E-07  0.3606844E+04  0.7818609E-02  0.8088926E-01
       -1   -1    0    0    0  501  0.00000000000E+00  0.00000000000E+00  0.17247317313E+04  0.17247317313E+04  0.50400001928E-02 0. -1.
        1   -1    0    0  501    0  0.00000000000E+00  0.00000000000E+00 -0.18857027096E+04  0.18857027096E+04  0.50400001928E-02 0.  1.
    10030    2    1    2    0    0  0.00000000000E+00  0.00000000000E+00 -0.16097097827E+03  0.36104344410E+04  0.36068442157E+04 0.  0.
        4    1    3    3  502    0 -0.70748311512E+03 -0.16461909473E+04 -0.28526843343E+03  0.18143474544E+04  0.12699999809E+01 0. -1.
       -4    1    3    3    0  502  0.70748311512E+03  0.16461909473E+04  0.12429745517E+03  0.17960869866E+04  0.12699999809E+01 0.  1.
</event>
<event>
 5   0  0.1031659E-06  0.3678367E+04  0.7818609E-02  0.8072773E-01
       -2   -1    0    0    0  501  0.00000000000E+00  0.00000000000E+00  0.28622642456E+04  0.28622642456E+04  0.25500000920E-02 0. -1.
        2   -1    0    0  501    0  0.00000000000E+00  0.00000000000E+00 -0.11817900659E+04  0.11817900659E+04  0.25500000920E-02 0.  1.
    10030    2    1    2    0    0  0.00000000000E+00  0.00000000000E+00  0.16804741796E+04  0.40440543115E+04  0.36783667308E+04 0.  0.
        2    1    3    3  502    0  0.95533879748E+02 -0.16890671487E+04  0.47040135266E+02  0.16924205534E+04  0.25500000920E-02 0. -1.
       -2    1    3    3    0  502 -0.95533879748E+02  0.16890671487E+04  0.16334340444E+04  0.23516337581E+04  0.25500000920E-02 0.  1.
</event>
<event>
 5   0  0.3242047E-07  0.3621152E+04  0.7818609E-02  0.8085664E-01
        1   -1    0    0  501    0  0.00000000000E+00  0.00000000000E+00  0.25595270204E+04  0.25595270204E+04  0.50400001928E-02 0.  1.
       -1   -1    0    0    0  501  0.00000000000E+00  0.00000000000E+00 -0.12807780554E+04  0.12807780554E+04  0.50400001928E-02 0. -1.
    10030    2    1    2    0    0  0.00000000000E+00  0.00000000000E+00  0.12787489650E+04  0.38403050757E+04  0.36211523248E+04 0.  0.
        1    1    3    3  502    0 -0.11984664219E+04 -0.12562994016E+04  0.94907012843E+02  0.17388551671E+04  0.50400001928E-02 0. -1.
       -1    1    3    3    0  502  0.11984664219E+04  0.12562994016E+04  0.11838419521E+04  0.21014499087E+04  0.50400001928E-02 0.  1.
</event>
<event>
 5   0  0.1031659E-06  0.3603890E+04  0.7818609E-02  0.8089601E-01
        2   -1    0    0  501    0  0.00000000000E+00  0.00000000000E+00  0.19662182458E+04  0.19662182458E+04  0.25500000920E-02 0.  1.
       -2   -1    0    0    0  501  0.00000000000E+00  0.00000000000E+00 -0.16513965868E+04  0.16513965868E+04  0.25500000920E-02 0. -1.
    10030    2    1    2    0    0  0.00000000000E+00  0.00000000000E+00  0.31482165896E+03  0.36176148326E+04  0.36038901759E+04 0.  0.
        2    1    3    3  502    0  0.14243159235E+04  0.10690849905E+04  0.43302436604E+03  0.18327925874E+04  0.25500000920E-02 0.  1.
       -2    1    3    3    0  502 -0.14243159235E+04 -0.10690849905E+04 -0.11820270709E+03  0.17848222452E+04  0.25500000920E-02 0. -1.
</event>
<event>
 5   0  0.1031659E-06  0.3177460E+04  0.7818609E-02  0.8194795E-01
       -2   -1    0    0    0  501  0.00000000000E+00  0.00000000000E+00  0.10331934685E+04  0.10331934685E+04  0.25500000920E-02 0. -1.
        2   -1    0    0  501    0  0.00000000000E+00  0.00000000000E+00 -0.24429728075E+04  0.24429728075E+04  0.25500000920E-02 0.  1.
    10030    2    1    2    0    0  0.00000000000E+00  0.00000000000E+00 -0.14097793390E+04  0.34761662760E+04  0.31774603371E+04 0.  0.
        2    1    3    3  502    0 -0.83292356364E+03  0.88764784853E+03  0.41206128039E+03  0.12850972199E+04  0.25500000920E-02 0. -1.
       -2    1    3    3    0  502  0.83292356364E+03 -0.88764784853E+03 -0.18218406194E+04  0.21910690561E+04  0.25500000920E-02 0.  1.
</event>
<event>
 5   0  0.1031659E-06  0.3691523E+04  0.7818609E-02  0.8069843E-01
       -2   -1    0    0    0  501  0.00000000000E+00  0.00000000000E+00  0.15615333271E+04  0.15615333272E+04  0.25500000920E-02 0. -1.
        2   -1    0    0  501    0  0.00000000000E+00  0.00000000000E+00 -0.21817249116E+04  0.21817249116E+04  0.25500000920E-02 0.  1.
    10030    2    1    2    0    0  0.00000000000E+00  0.00000000000E+00 -0.62019158442E+03  0.37432582387E+04  0.36915233496E+04 0.  0.
        2    1    3    3  502    0 -0.89509038249E+03 -0.16055130021E+04 -0.14048730028E+03  0.18435279966E+04  0.25500000920E-02 0.  1.
       -2    1    3    3    0  502  0.89509038249E+03  0.16055130021E+04 -0.47970428414E+03  0.18997302421E+04  0.25500000920E-02 0. -1.
</event>
<event>
 5   0  0.1006019E-06  0.3495931E+04  0.7818609E-02  0.8114755E-01
        2   -1    0    0  501    0  0.00000000000E+00  0.00000000000E+00  0.19241510605E+04  0.19241510605E+04  0.25500000920E-02 0. -1.
       -2   -1    0    0    0  501  0.00000000000E+00  0.00000000000E+00 -0.15879128232E+04  0.15879128232E+04  0.25500000920E-02 0.  1.
    10030    2    1    2    0    0  0.00000000000E+00  0.00000000000E+00  0.33623823723E+03  0.35120638837E+04  0.34959314311E+04 0.  0.
        1    1    3    3  502    0 -0.20663630512E+03 -0.13271169292E+04  0.12919620011E+04  0.18636264966E+04  0.50400001928E-02 0. -1.
       -1    1    3    3    0  502  0.20663630512E+03  0.13271169292E+04 -0.95572376389E+03  0.16484373871E+04  0.50400001928E-02 0.  1.
</event>
<event>
 5   0  0.3159875E-07  0.3061961E+04  0.7818609E-02  0.8226256E-01
        1   -1    0    0  501    0  0.00000000000E+00  0.00000000000E+00  0.20481015381E+04  0.20481015381E+04  0.50400001928E-02 0. -1.
       -1   -1    0    0    0  501  0.00000000000E+00  0.00000000000E+00 -0.11444263473E+04  0.11444263473E+04  0.50400001928E-02 0.  1.
    10030    2    1    2    0    0  0.00000000000E+00  0.00000000000E+00  0.90367519077E+03  0.31925278854E+04  0.30619610462E+04 0.  0.
        2    1    3    3  502    0  0.41801987394E+03 -0.90160074121E+03 -0.76241548116E+03  0.12525581334E+04  0.25500000920E-02 0.  1.
       -2    1    3    3    0  502 -0.41801987394E+03  0.90160074121E+03  0.16660906719E+04  0.19399697520E+04  0.25500000920E-02 0. -1.
</event>
<event>
 5   0  0.9538919E-07  0.3545296E+04  0.7818609E-02  0.8103138E-01
       -2   -1    0    0    0  501  0.00000000000E+00  0.00000000000E+00  0.14158071815E+04  0.14158071815E+04  0.25500000920E-02 0. -1.
        2   -1    0    0  501    0  0.00000000000E+00  0.00000000000E+00 -0.22194275123E+04  0.22194275123E+04  0.25500000920E-02 0.  1.
    10030    2    1    2    0    0  0.00000000000E+00  0.00000000000E+00 -0.80362033081E+03  0.36352346938E+04  0.35452962701E+04 0.  0.
        4    1    3    3  502    0 -0.13646025442E+04 -0.11216704472E+04 -0.55387994294E+03  0.18512345340E+04  0.12699999809E+01 0.  1.
       -4    1    3    3    0  502  0.13646025442E+04  0.11216704472E+04 -0.24974038788E+03  0.17840001598E+04  0.12699999809E+01 0. -1.
</event>
<event>
 5   0  0.9878977E-07  0.3594441E+04  0.7818609E-02  0.8091766E-01
        2   -1    0    0  501    0  0.00000000000E+00  0.00000000000E+00  0.22830138684E+04  0.22830138685E+04  0.25500000920E-02 0.  1.
       -2   -1    0    0    0  501  0.00000000000E+00  0.00000000000E+00 -0.14147972377E+04  0.14147972377E+04  0.25500000920E-02 0. -1.
    10030    2    1    2    0    0  0.00000000000E+00  0.00000000000E+00  0.86821663073E+03  0.36978111062E+04  0.35944411052E+04 0.  0.
        5    1    3    3  502    0 -0.81611093572E+03  0.12170877181E+02  0.20813409986E+04  0.22356626830E+04  0.46999998093E+01 0.  1.
       -5    1    3    3    0  502  0.81611093572E+03 -0.12170877181E+02 -0.12131243678E+04  0.14621484232E+04  0.46999998093E+01 0. -1.
</event>
<event>
 5   0  0.3159875E-07  0.3274849E+04  0.7818609E-02  0.8169325E-01
        1   -1    0    0  501    0  0.00000000000E+00  0.00000000000E+00  0.20944997069E+04  0.20944997069E+04  0.50400001928E-02 0. -1.
       -1   -1    0    0    0  501  0.00000000000E+00  0.00000000000E+00 -0.12800949483E+04  0.12800949484E+04  0.50400001928E-02 0.  1.
    10030    2    1    2    0    0  0.00000000000E+00  0.00000000000E+00  0.81440475850E+03  0.33745946552E+04  0.32748486952E+04 0.  0.
        5    1    3    3  502    0 -0.15355883187E+03  0.89848365830E+03  0.18088843210E+04  0.20255709752E+04  0.46999998093E+01 0. -1.
       -5    1    3    3    0  502  0.15355883187E+03 -0.89848365830E+03 -0.99447956245E+03  0.13490236800E+04  0.46999998093E+01 0.  1.
</event>
<event>
 5   0  0.9878977E-07  0.3339658E+04  0.7818609E-02  0.8152877E-01
        2   -1    0    0  501    0  0.00000000000E+00  0.00000000000E+00  0.18539800250E+04  0.18539800250E+04  0.25500000920E-02 0.  1.
       -2   -1    0    0    0  501  0.00000000000E+00  0.00000000000E+00 -0.15039689405E+04  0.15039689405E+04  0.25500000920E-02 0. -1.
    10030    2    1    2    0    0  0.00000000000E+00  0.00000000000E+00  0.35001108451E+03  0.33579489655E+04  0.33396576914E+04 0.  0.
        5    1    3    3  502    0 -0.11848136102E+04  0.11448895988E+04 -0.98052833994E+02  0.16505126272E+04  0.46999998093E+01 0.  1.
       -5    1    3    3    0  502  0.11848136102E+04 -0.11448895988E+04  0.44806391850E+03  0.17074363383E+04  0.46999998093E+01 0. -1.
</event>
<event>
 5   0  0.3159875E-07  0.3434790E+04  0.7818609E-02  0.8129420E-01
        1   -1    0    0  501    0  0.00000000000E+00  0.00000000000E+00  0.22531675185E+04  0.22531675185E+04  0.50400001928E-02 0.  1.
       -1   -1    0    0    0  501  0.00000000000E+00  0.00000000000E+00 -0.13090221690E+04  0.13090221690E+04  0.50400001928E-02 0. -1.
    10030    2    1    2    0    0  0.00000000000E+00  0.00000000000E+00  0.94414534950E+03  0.35621896875E+04  0.34347903763E+04 0.  0.
        5    1    3    3  502    0 -0.67304888074E+03  0.97803505868E+03  0.17590170865E+04  0.21221947536E+04  0.46999998093E+01 0.  1.
       -5    1    3    3    0  502  0.67304888074E+03 -0.97803505868E+03 -0.81487173698E+03  0.14399949339E+04  0.46999998093E+01 0. -1.
</event>
<event>
 5   0  0.9878977E-07  0.3574944E+04  0.7818609E-02  0.8096255E-01
        2   -1    0    0  501    0  0.00000000000E+00  0.00000000000E+00  0.31197605152E+04  0.31197605152E+04  0.25500000920E-02 0. -1.
       -2   -1    0    0    0  501  0.00000000000E+00  0.00000000000E+00 -0.10241351108E+04  0.10241351108E+04  0.25500000920E-02 0.  1.
    10030    2    1    2    0    0  0.00000000000E+00  0.00000000000E+00  0.20956254043E+04  0.41438956260E+04  0.35749440728E+04 0.  0.
        5    1    3    3  502    0 -0.21154987888E+03  0.11502192668E+04  0.26147141721E+04  0.28643515854E+04  0.46999998093E+01 0. -1.
       -5    1    3    3    0  502  0.21154987888E+03 -0.11502192668E+04 -0.51908876775E+03  0.12795440406E+04  0.46999998093E+01 0.  1.
</event>
<event>
 5   0  0.1031659E-06  0.3631322E+04  0.7818609E-02  0.8083354E-01
       -2   -1    0    0    0  501  0.00000000000E+00  0.00000000000E+00  0.12811243959E+04  0.12811243959E+04  0.25500000920E-02 0. -1.
        2   -1    0    0  501    0  0.00000000000E+00  0.00000000000E+00 -0.25732275443E+04  0.25732275443E+04  0.25500000920E-02 0.  1.
    10030    2    1    2    0    0  0.00000000000E+00  0.00000000000E+00 -0.12921031483E+04  0.38543519402E+04  0.36313218438E+04 0.  0.
        2    1    3    3  502    0  0.24103975803E+02 -0.16467739760E+04  0.16520759012E+03  0.16552157193E+04  0.25500000920E-02 0.  1.
       -2    1    3    3    0  502 -0.24103975803E+02  0.16467739760E+04 -0.14573107384E+04  0.21991362209E+04  0.25500000920E-02 0. -1.
</event>
<event>
 5   0  0.3242047E-07  0.3555915E+04  0.7818609E-02  0.8100665E-01
        1   -1    0    0  501    0  0.00000000000E+00  0.00000000000E+00  0.22210761183E+04  0.22210761183E+04  0.50400001928E-02 0.  1.
       -1   -1    0    0    0  501  0.00000000000E+00  0.00000000000E+00 -0.14232440203E+04  0.14232440203E+04  0.50400001928E-02 0. -1.
    10030    2    1    2    0    0  0.00000000000E+00  0.00000000000E+00  0.79783209800E+03  0.36443201385E+04  0.35559152430E+04 0.  0.
        1    1    3    3  502    0  0.12846291900E+04 -0.26018281868E+02 -0.86053148632E+03  0.15464357555E+04  0.50400001928E-02 0. -1.
       -1    1    3    3    0  502 -0.12846291900E+04  0.26018281868E+02  0.16583635843E+04  0.20978843831E+04  0.50400001928E-02 0.  1.
</event>
<event>
 5   0  0.3365378E-07  0.3586111E+04  0.7818609E-02  0.8093680E-01
        1   -1    0    0  501    0  0.00000000000E+00  0.00000000000E+00  0.90279151306E+03  0.90279151307E+03  0.50400001928E-02 0.  1.
       -1   -1    0    0    0  501  0.00000000000E+00  0.00000000000E+00 -0.35612307026E+04  0.35612307026E+04  0.50400001928E-02 0. -1.
    10030    2    1    2    0    0  0.00000000000E+00  0.00000000000E+00 -0.26584391896E+04  0.44640222157E+04  0.35861114620E+04 0.  0.
        3    1    3    3  502    0 -0.17171284680E+04 -0.48685056803E+03 -0.11154341253E+04  0.21046964031E+04  0.10100000352E+00 0.  1.
       -3    1    3    3    0  502  0.17171284680E+04  0.48685056803E+03 -0.15430050643E+04  0.23593258126E+04  0.10100000352E+00 0. -1.
</event>
<event>
 5   0  0.9538919E-07  0.3510878E+04  0.7818609E-02  0.8111217E-01
       -2   -1    0    0    0  501  0.00000000000E+00  0.00000000000E+00  0.16216567045E+04  0.16216567045E+04  0.25500000920E-02 0. -1.
        2   -1    0    0  501    0  0.00000000000E+00  0.00000000000E+00 -0.19002581286E+04  0.19002581286E+04  0.25500000920E-02 0.  1.
    10030    2    1    2    0    0  0.00000000000E+00  0.00000000000E+00 -0.27860142411E+03  0.35219148331E+04  0.35108781434E+04 0.  0.
        4    1    3    3  502    0  0.13490292889E+04  0.49305315150E+03  0.87312080564E+03  0.16808697114E+04  0.12699999809E+01 0. -1.
       -4    1    3    3    0  502 -0.13490292889E+04 -0.49305315150E+03 -0.11517222298E+04  0.18410451217E+04  0.12699999809E+01 0.  1.
</event>
<event>
 5   0  0.9538919E-07  0.3601874E+04  0.7818609E-02  0.8090063E-01
        2   -1    0    0  501    0  0.00000000000E+00  0.00000000000E+00  0.14560456110E+04  0.14560456110E+04  0.25500000920E-02 0.  1.
       -2   -1    0    0    0  501  0.00000000000E+00  0.00000000000E+00 -0.22275218889E+04  0.22275218889E+04  0.25500000920E-02 0. -1.
    10030    2    1    2    0    0  0.00000000000E+00  0.00000000000E+00 -0.77147627782E+03  0.36835674999E+04  0.36018736623E+04 0.  0.
        4    1    3    3  502    0 -0.27506951299E+03  0.62644795341E+03 -0.20894372672E+04  0.21986018243E+04  0.12699999809E+01 0. -1.
       -4    1    3    3    0  502  0.27506951299E+03 -0.62644795341E+03  0.13179609894E+04  0.14849656756E+04  0.12699999809E+01 0.  1.
</event>
<event>
 5   0  0.1006019E-06  0.3562669E+04  0.7818609E-02  0.8099097E-01
        2   -1    0    0  501    0  0.00000000000E+00  0.00000000000E+00  0.25551615971E+04  0.25551615971E+04  0.25500000920E-02 0. -1.
       -2   -1    0    0    0  501  0.00000000000E+00  0.00000000000E+00 -0.12418599030E+04  0.12418599030E+04  0.25500000920E-02 0.  1.
    10030    2    1    2    0    0  0.00000000000E+00  0.00000000000E+00  0.13133016941E+04  0.37970215001E+04  0.35626690742E+04 0.  0.
        1    1    3    3  502    0  0.98217913131E+03  0.13008952655E+04  0.14223441754E+04  0.21633463179E+04  0.50400001928E-02 0. -1.
       -1    1    3    3    0  502 -0.98217913131E+03 -0.13008952655E+04 -0.10904248130E+03  0.16336751821E+04  0.50400001928E-02 0.  1.
</event>
<event>
 5   0  0.9878977E-07  0.3331556E+04  0.7818609E-02  0.8154912E-01
        2   -1    0    0  501    0  0.00000000000E+00  0.00000000000E+00  0.19544255611E+04  0.19544255611E+04  0.25500000920E-02 0. -1.
       -2   -1    0    0    0  501  0.00000000000E+00  0.00000000000E+00 -0.14197601817E+04  0.14197601817E+04  0.25500000920E-02 0.  1.
    10030    2    1    2    0    0  0.00000000000E+00  0.00000000000E+00  0.53466537942E+03  0.33741857428E+04  0.33315555465E+04 0.  0.
        5    1    3    3  502    0  0.99763507513E+03  0.33003486153E+03 -0.10417210725E+04  0.14796633522E+04  0.46999998093E+01 0.  1.
       -5    1    3    3    0  502 -0.99763507513E+03 -0.33003486153E+03  0.15763864519E+04  0.18945223907E+04  0.46999998093E+01 0. -1.
</event>
<event>
 5   0  0.3365378E-07  0.3579559E+04  0.7818609E-02  0.8095190E-01
        1   -1    0    0  501    0  0.00000000000E+00  0.00000000000E+00  0.19522764442E+04  0.19522764442E+04  0.50400001928E-02 0.  1.
       -1   -1    0    0    0  501  0.00000000000E+00  0.00000000000E+00 -0.16408080590E+04  0.16408080590E+04  0.50400001928E-02 0. -1.
    10030    2    1    2    0    0  0.00000000000E+00  0.00000000000E+00  0.31146838526E+03  0.35930845032E+04  0.35795591477E+04 0.  0.
        3    1    3    3  502    0  0.50783800153E+02 -0.16462695345E+04  0.85875799259E+03  0.18574842327E+04  0.10100000352E+00 0.  1.
       -3    1    3    3    0  502 -0.50783800153E+02  0.16462695345E+04 -0.54728960733E+03  0.17356002705E+04  0.10100000352E+00 0. -1.
</event>
<event>
 5   0  0.3242047E-07  0.2755095E+04  0.7818609E-02  0.8317347E-01
       -1   -1    0    0    0  501  0.00000000000E+00  0.00000000000E+00  0.11464532308E+04  0.11464532308E+04  0.50400001928E-02 0. -1.
        1   -1    0    0  501    0  0.00000000000E+00  0.00000000000E+00 -0.16552237443E+04  0.16552237444E+04  0.50400001928E-02 0.  1.
    10030    2    1    2    0    0  0.00000000000E+00  0.00000000000E+00 -0.50877051354E+03  0.28016769752E+04  0.27550946332E+04 0.  0.
        1    1    3    3  502    0  0.99625663288E+02 -0.25819777739E+03 -0.16266626481E+04  0.16500371923E+04  0.50400001928E-02 0.  1.
       -1    1    3    3    0  502 -0.99625663288E+02  0.25819777739E+03  0.11178921346E+04  0.11516397829E+04  0.50400001928E-02 0. -1.
</event>
<event>
 5   0  0.1031659E-06  0.3595522E+04  0.7818609E-02  0.8091518E-01
       -2   -1    0    0    0  501  0.00000000000E+00  0.00000000000E+00  0.13185173211E+04  0.13185173211E+04  0.25500000920E-02 0. -1.
        2   -1    0    0  501    0  0.00000000000E+00  0.00000000000E+00 -0.24511962998E+04  0.24511962998E+04  0.25500000920E-02 0.  1.
    10030    2    1    2    0    0  0.00000000000E+00  0.00000000000E+00 -0.11326789787E+04  0.37697136209E+04  0.35955220921E+04 0.  0.
        2    1    3    3  502    0  0.22214292843E+03 -0.16281927736E+04  0.19808219314E+03  0.16551724212E+04  0.25500000920E-02 0. -1.
       -2    1    3    3    0  502 -0.22214292843E+03  0.16281927736E+04 -0.13307611718E+04  0.21145411997E+04  0.25500000920E-02 0.  1.
</event>
<event>
 5   0  0.3159875E-07  0.3594706E+04  0.7818609E-02  0.8091705E-01
       -1   -1    0    0    0  501  0.00000000000E+00  0.00000000000E+00  0.14358650006E+04  0.14358650006E+04  0.50400001928E-02 0.  1.
        1   -1    0    0  501    0  0.00000000000E+00  0.00000000000E+00 -0.22498474825E+04  0.22498474825E+04  0.50400001928E-02 0. -1.
    10030    2    1    2    0    0  0.00000000000E+00  0.00000000000E+00 -0.81398248189E+03  0.36857124831E+04  0.35947056941E+04 0.  0.
        5    1    3    3  502    0  0.10981315959E+03  0.15191953242E+04  0.57133614150E+03  0.16267945290E+04  0.46999998093E+01 0. -1.
       -5    1    3    3    0  502 -0.10981315959E+03 -0.15191953242E+04 -0.13853186234E+04  0.20589179540E+04  0.46999998093E+01 0.  1.
</event>
<event>
 5   0  0.3365378E-07  0.3447110E+04  0.7818609E-02  0.8126440E-01
        1   -1    0    0  501    0  0.00000000000E+00  0.00000000000E+00  0.21989610896E+04  0.21989610896E+04  0.50400001928E-02 0. -1.
       -1   -1    0    0    0  501  0.00000000000E+00  0.00000000000E+00 -0.13509294733E+04  0.13509294733E+04  0.50400001928E-02 0.  1.
    10030    2    1    2    0    0  0.00000000000E+00  0.00000000000E+00  0.84803161636E+03  0.35498905629E+04  0.34471097149E+04 0.  0.
        3    1    3    3  502    0  0.24258433617E+02 -0.44042979800E+03 -0.12918187613E+04  0.13650504023E+04  0.10100000352E+00 0.  1.
       -3    1    3    3    0  502 -0.24258433617E+02  0.44042979800E+03  0.21398503776E+04  0.21848401606E+04  0.10100000352E+00 0. -1.
</event>
<event>
 5   0  0.3159875E-07  0.3614859E+04  0.7818609E-02  0.8087096E-01
        1   -1    0    0  501    0  0.00000000000E+00  0.00000000000E+00  0.24180522063E+04  0.24180522063E+04  0.50400001928E-02 0.  1.
       -1   -1    0    0    0  501  0.00000000000E+00  0.00000000000E+00 -0.13510055167E+04  0.13510055167E+04  0.50400001928E-02 0. -1.
    10030    2    1    2    0    0  0.00000000000E+00  0.00000000000E+00  0.10670466896E+04  0.37690577229E+04  0.36148592616E+04 0.  0.
        2    1    3    3  502    0 -0.15008579023E+04  0.88968190976E+03  0.10255574332E+04  0.20238271646E+04  0.25500000920E-02 0.  1.
       -2    1    3    3    0  502  0.15008579023E+04 -0.88968190976E+03  0.41489256417E+02  0.17452305583E+04  0.25500000920E-02 0. -1.
</event>
<event>
 5   0  0.1031659E-06  0.3615999E+04  0.7818609E-02  0.8086837E-01
        2   -1    0    0  501    0  0.00000000000E+00  0.00000000000E+00  0.14446057277E+04  0.14446057277E+04  0.25500000920E-02 0. -1.
       -2   -1    0    0    0  501  0.00000000000E+00  0.00000000000E+00 -0.22628059806E+04  0.22628059806E+04  0.25500000920E-02 0.  1.
    10030    2    1    2    0    0  0.00000000000E+00  0.00000000000E+00 -0.81820025294E+03  0.37074117083E+04  0.36159991594E+04 0.  0.
        2    1    3    3  502    0  0.14455154617E+04  0.65191983241E+03  0.48138851834E+03  0.16571811378E+04  0.25500000920E-02 0. -1.
       -2    1    3    3    0  502 -0.14455154617E+04 -0.65191983241E+03 -0.12995887713E+04  0.20502305705E+04  0.25500000920E-02 0.  1.
</event>
<event>
 5   0  0.9878336E-07  0.3591573E+04  0.7818609E-02  0.8092425E-01
       -2   -1    0    0    0  501  0.00000000000E+00  0.00000000000E+00  0.28375111190E+04  0.28375111190E+04  0.25500000920E-02 0.  1.
        2   -1    0    0  501    0  0.00000000000E+00  0.00000000000E+00 -0.11365063266E+04  0.11365063266E+04  0.25500000920E-02 0. -1.
    10030    2    1    2    0    0  0.00000000000E+00  0.00000000000E+00  0.17010047924E+04  0.39740174456E+04  0.35915731030E+04 0.  0.
        3    1    3    3  502    0 -0.13307006682E+04 -0.93734396048E+03  0.16898791086E+04  0.23462884265E+04  0.10100000352E+00 0.  1.
       -3    1    3    3    0  502  0.13307006682E+04  0.93734396048E+03  0.11125683744E+02  0.16277290191E+04  0.10100000352E+00 0. -1.
</event>
<event>
 5   0  0.3159875E-07  0.3600575E+04  0.7818609E-02  0.8090360E-01
        1   -1    0    0  501    0  0.00000000000E+00  0.00000000000E+00  0.16904382477E+04  0.16904382477E+04  0.50400001928E-02 0. -1.
       -1   -1    0    0    0  501  0.00000000000E+00  0.00000000000E+00 -0.19172749296E+04  0.19172749296E+04  0.50400001928E-02 0.  1.
    10030    2    1    2    0    0  0.00000000000E+00  0.00000000000E+00 -0.22683668185E+03  0.36077131773E+04  0.36005748832E+04 0.  0.
        5    1    3    3  502    0  0.94190278372E+03  0.74097817686E+03 -0.14595039563E+04  0.18884923619E+04  0.46999998093E+01 0.  1.
       -5    1    3    3    0  502 -0.94190278372E+03 -0.74097817686E+03  0.12326672745E+04  0.17192208154E+04  0.46999998093E+01 0. -1.
</event>
<event>
 5   0  0.3242047E-07  0.3306640E+04  0.7818609E-02  0.8161208E-01
        1   -1    0    0  501    0  0.00000000000E+00  0.00000000000E+00  0.14466445199E+04  0.14466445199E+04  0.50400001928E-02 0. -1.
       -1   -1    0    0    0  501  0.00000000000E+00  0.00000000000E+00 -0.18895223626E+04  0.18895223626E+04  0.50400001928E-02 0.  1.
    10030    2    1    2    0    0  0.00000000000E+00  0.00000000000E+00 -0.44287784266E+03  0.33361668825E+04  0.33066400899E+04 0.  0.
        1    1    3    3  502    0 -0.14015111155E+04  0.96844568546E+02 -0.11009193359E+04  0.17848349115E+04  0.50400001928E-02 0.  1.
       -1    1    3    3    0  502  0.14015111155E+04 -0.96844568546E+02  0.65804149322E+03  0.15513319709E+04  0.50400001928E-02 0. -1.
</event>
<event>
 5   0  0.3159875E-07  0.3676030E+04  0.7818609E-02  0.8073295E-01
       -1   -1    0    0    0  501  0.00000000000E+00  0.00000000000E+00  0.26776342857E+04  0.26776342857E+04  0.50400001928E-02 0.  1.
        1   -1    0    0  501    0  0.00000000000E+00  0.00000000000E+00 -0.12616728599E+04  0.12616728599E+04  0.50400001928E-02 0. -1.
    10030    2    1    2    0    0  0.00000000000E+00  0.00000000000E+00  0.14159614258E+04  0.39393071457E+04  0.36760296556E+04 0.  0.
        5    1    3    3  502    0 -0.80418052218E+03  0.12100075474E+03 -0.10583823564E+04  0.13347444689E+04  0.46999998093E+01 0. -1.
       -5    1    3    3    0  502  0.80418052218E+03 -0.12100075474E+03  0.24743437822E+04  0.26045626768E+04  0.46999998093E+01 0.  1.
</event>
<event>
 5   0  0.9878977E-07  0.3434630E+04  0.7818609E-02  0.8129459E-01
       -2   -1    0    0    0  501  0.00000000000E+00  0.00000000000E+00  0.15277209382E+04  0.15277209382E+04  0.25500000920E-02 0.  1.
        2   -1    0    0  501    0  0.00000000000E+00  0.00000000000E+00 -0.19304378390E+04  0.19304378390E+04  0.25500000920E-02 0. -1.
    10030    2    1    2    0    0  0.00000000000E+00  0.00000000000E+00 -0.40271690080E+03  0.34581587772E+04  0.34346297073E+04 0.  0.
        5    1    3    3  502    0 -0.17285501336E+01  0.13820170835E+04 -0.12277407306E+04  0.18486058527E+04  0.46999998093E+01 0. -1.
       -5    1    3    3    0  502  0.17285501336E+01 -0.13820170835E+04  0.82502382980E+03  0.16095529245E+04  0.46999998093E+01 0.  1.
</event>
<event>
 5   0  0.1031659E-06  0.3662590E+04  0.7818609E-02  0.8076303E-01
       -2   -1    0    0    0  501  0.00000000000E+00  0.00000000000E+00  0.22436710414E+04  0.22436710414E+04  0.25500000920E-02 0.  1.
        2   -1    0    0  501    0  0.00000000000E+00  0.00000000000E+00 -0.14947120863E+04  0.14947120863E+04  0.25500000920E-02 0. -1.
    10030    2    1    2    0    0  0.00000000000E+00  0.00000000000E+00  0.74895895508E+03  0.37383831277E+04  0.36625904621E+04 0.  0.
        2    1    3    3  502    0 -0.16042406538E+04 -0.87928791560E+03  0.28965184806E+03  0.18521969406E+04  0.25500000920E-02 0.  1.
       -2    1    3    3    0  502  0.16042406538E+04  0.87928791560E+03  0.45930710702E+03  0.18861861871E+04  0.25500000920E-02 0. -1.
</event>
<event>
 5   0  0.1031659E-06  0.3529315E+04  0.7818609E-02  0.8106878E-01
        2   -1    0    0  501    0  0.00000000000E+00  0.00000000000E+00  0.10467672546E+04  0.10467672546E+04  0.25500000920E-02 0.  1.
       -2   -1    0    0    0  501  0.00000000000E+00  0.00000000000E+00 -0.29748882381E+04  0.29748882382E+04  0.25500000920E-02 0. -1.
    10030    2    1    2    0    0  0.00000000000E+00  0.00000000000E+00 -0.19281209835E+04  0.40216554928E+04  0.35293147175E+04 0.  0.
        2    1    3    3  502    0 -0.11576456538E+04  0.87083393880E+02  0.55035593823E+03  0.12847640391E+04  0.25500000920E-02 0.  1.
       -2    1    3    3    0  502  0.11576456538E+04 -0.87083393880E+02 -0.24784769218E+04  0.27368914537E+04  0.25500000920E-02 0. -1.
</event>
<event>
 5   0  0.9878977E-07  0.3723056E+04  0.7818609E-02  0.8062871E-01
       -2   -1    0    0    0  501  0.00000000000E+00  0.00000000000E+00  0.20820010701E+04  0.20820010701E+04  0.25500000920E-02 0. -1.
        2   -1    0    0  501    0  0.00000000000E+00  0.00000000000E+00 -0.16644022955E+04  0.16644022955E+04  0.25500000920E-02 0.  1.
    10030    2    1    2    0    0  0.00000000000E+00  0.00000000000E+00  0.41759877456E+03  0.37464033656E+04  0.37230564649E+04 0.  0.
        5    1    3    3  502    0  0.54979893125E+03  0.17651573951E+04 -0.98319864021E+01  0.18488315911E+04  0.46999998093E+01 0.  1.
       -5    1    3    3    0  502 -0.54979893125E+03 -0.17651573951E+04  0.42743076096E+03  0.18975717745E+04  0.46999998093E+01 0. -1.
</event>
<event>
 5   0  0.1006019E-06  0.3598692E+04  0.7818609E-02  0.8090791E-01
       -2   -1    0    0    0  501  0.00000000000E+00  0.00000000000E+00  0.12773026169E+04  0.12773026169E+04  0.25500000920E-02 0.  1.
        2   -1    0    0  501    0  0.00000000000E+00  0.00000000000E+00 -0.25347530277E+04  0.25347530277E+04  0.25500000920E-02 0. -1.
    10030    2    1    2    0    0  0.00000000000E+00  0.00000000000E+00 -0.12574504108E+04  0.38120556446E+04  0.35986923600E+04 0.  0.
        1    1    3    3  502    0 -0.13865319226E+04 -0.16334512803E+03  0.57369358847E+03  0.15093961497E+04  0.50400001928E-02 0.  1.
       -1    1    3    3    0  502  0.13865319226E+04  0.16334512803E+03 -0.18311439993E+04  0.23026594949E+04  0.50400001928E-02 0. -1.
</event>
<event>
 5   0  0.1031659E-06  0.3406976E+04  0.7818609E-02  0.8136196E-01
        2   -1    0    0  501    0  0.00000000000E+00  0.00000000000E+00  0.10822789280E+04  0.10822789280E+04  0.25500000920E-02 0. -1.
       -2   -1    0    0    0  501  0.00000000000E+00  0.00000000000E+00 -0.26812607792E+04  0.26812607792E+04  0.25500000920E-02 0.  1.
    10030    2    1    2    0    0  0.00000000000E+00  0.00000000000E+00 -0.15989818511E+04  0.37635397072E+04  0.34069763967E+04 0.  0.
        2    1    3    3  502    0  0.12614608416E+04  0.10573608081E+04 -0.31472815671E+03  0.16758129806E+04  0.25500000920E-02 0. -1.
       -2    1    3    3    0  502 -0.12614608416E+04 -0.10573608081E+04 -0.12842536944E+04  0.20877267266E+04  0.25500000920E-02 0.  1.
</event>
<event>
 5   0  0.1006019E-06  0.3573838E+04  0.7818609E-02  0.8096511E-01
        2   -1    0    0  501    0  0.00000000000E+00  0.00000000000E+00  0.16233828546E+04  0.16233828546E+04  0.25500000920E-02 0. -1.
       -2   -1    0    0    0  501  0.00000000000E+00  0.00000000000E+00 -0.19669296662E+04  0.19669296662E+04  0.25500000920E-02 0.  1.
    10030    2    1    2    0    0  0.00000000000E+00  0.00000000000E+00 -0.34354681158E+03  0.35903125208E+04  0.35738382148E+04 0.  0.
        1    1    3    3  502    0 -0.98596941230E+03 -0.68991998517E+03  0.11552831591E+04  0.16681739855E+04  0.50400001928E-02 0. -1.
       -1    1    3    3    0  502  0.98596941230E+03  0.68991998517E+03 -0.14988299707E+04  0.19221385354E+04  0.50400001928E-02 0.  1.
</event>
<event>
 5   0  0.3278988E-07  0.3721632E+04  0.7818609E-02  0.8063185E-01
        1   -1    0    0  501    0  0.00000000000E+00  0.00000000000E+00  0.25059211881E+04  0.25059211882E+04  0.50400001928E-02 0.  1.
       -1   -1    0    0    0  501  0.00000000000E+00  0.00000000000E+00 -0.13817818957E+04  0.13817818957E+04  0.50400001928E-02 0. -1.
    10030    2    1    2    0    0  0.00000000000E+00  0.00000000000E+00  0.11241392925E+04  0.38877030838E+04  0.37216321848E+04 0.  0.
        4    1    3    3  502    0 -0.12542657906E+04 -0.54119893711E+03  0.18820021148E+04  0.23255133919E+04  0.12699999809E+01 0.  1.
       -4    1    3    3    0  502  0.12542657906E+04  0.54119893711E+03 -0.75786282234E+03  0.15621896919E+04  0.12699999809E+01 0. -1.
</event>
<event>
 5   0  0.3278988E-07  0.3602331E+04  0.7818609E-02  0.8089958E-01
        1   -1    0    0  501    0  0.00000000000E+00  0.00000000000E+00  0.19555211347E+04  0.19555211347E+04  0.50400001928E-02 0. -1.
       -1   -1    0    0    0  501  0.00000000000E+00  0.00000000000E+00 -0.16589936005E+04  0.16589936005E+04  0.50400001928E-02 0.  1.
    10030    2    1    2    0    0  0.00000000000E+00  0.00000000000E+00  0.29652753418E+03  0.36145147352E+04  0.36023309388E+04 0.  0.
        4    1    3    3  502    0 -0.55976059667E+03 -0.18293543817E+03  0.18561953897E+04  0.19473726499E+04  0.12699999809E+01 0. -1.
       -4    1    3    3    0  502  0.55976059667E+03  0.18293543817E+03 -0.15596678555E+04  0.16671420853E+04  0.12699999809E+01 0.  1.
</event>
<event>
 5   0  0.3278988E-07  0.3622028E+04  0.7818609E-02  0.8085465E-01
        1   -1    0    0  501    0  0.00000000000E+00  0.00000000000E+00  0.97466697074E+03  0.97466697075E+03  0.50400001928E-02 0. -1.
       -1   -1    0    0    0  501  0.00000000000E+00  0.00000000000E+00 -0.33650173802E+04  0.33650173802E+04  0.50400001928E-02 0.  1.
    10030    2    1    2    0    0  0.00000000000E+00  0.00000000000E+00 -0.23903504095E+04  0.43396843510E+04  0.36220277727E+04 0.  0.
        4    1    3    3  502    0 -0.10871927613E+04 -0.13834313987E+04 -0.68137269031E+03  0.18868335621E+04  0.12699999809E+01 0. -1.
       -4    1    3    3    0  502  0.10871927613E+04  0.13834313987E+04 -0.17089777192E+04  0.24528507889E+04  0.12699999809E+01 0.  1.
</event>
<event>
 5   0  0.9538919E-07  0.3113218E+04  0.7818609E-02  0.8212120E-01
       -2   -1    0    0    0  501  0.00000000000E+00  0.00000000000E+00  0.17835261438E+04  0.17835261438E+04  0.25500000920E-02 0.  1.
        2   -1    0    0  501    0  0.00000000000E+00  0.00000000000E+00 -0.13585626475E+04  0.13585626475E+04  0.25500000920E-02 0. -1.
    10030    2    1    2    0    0  0.00000000000E+00  0.00000000000E+00  0.42496349634E+03  0.31420887913E+04  0.31132182704E+04 0.  0.
        4    1    3    3  502    0 -0.20193937315E+03  0.16238519216E+03  0.17616038247E+04  0.17805611782E+04  0.12699999809E+01 0.  1.
       -4    1    3    3    0  502  0.20193937315E+03 -0.16238519216E+03 -0.13366403284E+04  0.13615276132E+04  0.12699999809E+01 0. -1.
</event>
<event>
 5   0  0.3159875E-07  0.3569239E+04  0.7818609E-02  0.8097574E-01
        1   -1    0    0  501    0  0.00000000000E+00  0.00000000000E+00  0.25686011021E+04  0.25686011021E+04  0.50400001928E-02 0. -1.
       -1   -1    0    0    0  501  0.00000000000E+00  0.00000000000E+00 -0.12399226077E+04  0.12399226077E+04  0.50400001928E-02 0.  1.
    10030    2    1    2    0    0  0.00000000000E+00  0.00000000000E+00  0.13286784944E+04  0.38085237098E+04  0.35692388974E+04 0.  0.
        5    1    3    3  502    0 -0.76725786213E+03 -0.14228257389E+04 -0.14247825856E+03  0.16227876800E+04  0.46999998093E+01 0.  1.
       -5    1    3    3    0  502  0.76725786213E+03  0.14228257389E+04  0.14711567530E+04  0.21857360298E+04  0.46999998093E+01 0. -1.
</event>
<event>
 5   0  0.3159875E-07  0.3680924E+04  0.7818609E-02  0.8072202E-01
        1   -1    0    0  501    0  0.00000000000E+00  0.00000000000E+00  0.21180222611E+04  0.21180222611E+04  0.50400001928E-02 0.  1.
       -1   -1    0    0    0  501  0.00000000000E+00  0.00000000000E+00 -0.15992754166E+04  0.15992754166E+04  0.50400001928E-02 0. -1.
    10030    2    1    2    0    0  0.00000000000E+00  0.00000000000E+00  0.51874684452E+03  0.37172976776E+04  0.36809243045E+04 0.  0.
        2    1    3    3  502    0  0.21784335488E+03 -0.17113237922E+04 -0.38822458063E+03  0.17682768940E+04  0.25500000920E-02 0. -1.
       -2    1    3    3    0  502 -0.21784335488E+03  0.17113237922E+04  0.90697142514E+03  0.19490207836E+04  0.25500000920E-02 0.  1.
</event>
<event>
 5   0  0.3278988E-07  0.3663791E+04  0.7818609E-02  0.8076034E-01
        1   -1    0    0  501    0  0.00000000000E+00  0.00000000000E+00  0.13114867965E+04  0.13114867965E+04  0.50400001928E-02 0.  1.
       -1   -1    0    0    0  501  0.00000000000E+00  0.00000000000E+00 -0.25588064060E+04  0.25588064060E+04  0.50400001928E-02 0. -1.
    10030    2    1    2    0    0  0.00000000000E+00  0.00000000000E+00 -0.12473196095E+04  0.38702932025E+04  0.36637908326E+04 0.  0.
        4    1    3    3  502    0  0.28694245018E+03  0.50514707941E+03 -0.24589152925E+04  0.25266134588E+04  0.12699999809E+01 0. -1.
       -4    1    3    3    0  502 -0.28694245018E+03 -0.50514707941E+03  0.12115956830E+04  0.13436797437E+04  0.12699999809E+01 0.  1.
</event>
<event>
 5   0  0.3278988E-07  0.3575756E+04  0.7818609E-02  0.8096068E-01
       -1   -1    0    0    0  501  0.00000000000E+00  0.00000000000E+00  0.11088398111E+04  0.11088398111E+04  0.50400001928E-02 0.  1.
        1   -1    0    0  501    0  0.00000000000E+00  0.00000000000E+00 -0.28827504118E+04  0.28827504119E+04  0.50400001928E-02 0. -1.
    10030    2    1    2    0    0  0.00000000000E+00  0.00000000000E+00 -0.17739106008E+04  0.39915902229E+04  0.35757563799E+04 0.  0.
        4    1    3    3  502    0 -0.16071435114E+04 -0.47857137578E+03 -0.19470451058E+03  0.16881505523E+04  0.12699999809E+01 0.  1.
       -4    1    3    3    0  502  0.16071435114E+04  0.47857137578E+03 -0.15792060902E+04  0.23034396706E+04  0.12699999809E+01 0. -1.
</event>
<event>
 5   0  0.9878336E-07  0.3620518E+04  0.7818609E-02  0.8085808E-01
        2   -1    0    0  501    0  0.00000000000E+00  0.00000000000E+00  0.19349789499E+04  0.19349789499E+04  0.25500000920E-02 0.  1.
       -2   -1    0    0    0  501  0.00000000000E+00  0.00000000000E+00 -0.16935783869E+04  0.16935783869E+04  0.25500000920E-02 0. -1.
    10030    2    1    2    0    0  0.00000000000E+00  0.00000000000E+00  0.24140056303E+03  0.36285573367E+04  0.36205184869E+04 0.  0.
        3    1    3    3  502    0 -0.17737958090E+04  0.32888883199E+03  0.27109707138E+03  0.18242842619E+04  0.10100000352E+00 0.  1.
       -3    1    3    3    0  502  0.17737958090E+04 -0.32888883199E+03 -0.29696508349E+02  0.18042730749E+04  0.10100000352E+00 0. -1.
</event>
<event>
 5   0  0.3159875E-07  0.3639164E+04  0.7818609E-02  0.8081579E-01
        1   -1    0    0  501    0  0.00000000000E+00  0.00000000000E+00  0.20900302941E+04  0.20900302941E+04  0.50400001928E-02 0.  1.
       -1   -1    0    0    0  501  0.00000000000E+00  0.00000000000E+00 -0.15841298520E+04  0.15841298520E+04  0.50400001928E-02 0. -1.
    10030    2    1    2    0    0  0.00000000000E+00  0.00000000000E+00  0.50590044210E+03  0.36741601462E+04  0.36391643989E+04 0.  0.
        2    1    3    3  502    0  0.32034493447E+03  0.12803664270E+04  0.15175609155E+04  0.20112061547E+04  0.25500000920E-02 0.  1.
       -2    1    3    3    0  502 -0.32034493447E+03 -0.12803664270E+04 -0.10116604734E+04  0.16629539915E+04  0.25500000920E-02 0. -1.
</event>
<event>
 5   0  0.9878336E-07  0.3564395E+04  0.7818609E-02  0.8098696E-01
        2   -1    0    0  501    0  0.00000000000E+00  0.00000000000E+00  0.21324921323E+04  0.21324921323E+04  0.25500000920E-02 0.  1.
       -2   -1    0    0    0  501  0.00000000000E+00  0.00000000000E+00 -0.14894441513E+04  0.14894441513E+04  0.25500000920E-02 0. -1.
    10030    2    1    2    0    0  0.00000000000E+00  0.00000000000E+00  0.64304798098E+03  0.36219362836E+04  0.35643950029E+04 0.  0.
        3    1    3    3  502    0 -0.65003458120E+02 -0.78290753781E+03 -0.13040063000E+04  0.15223672694E+04  0.10100000352E+00 0. -1.
       -3    1    3    3    0  502  0.65003458120E+02  0.78290753781E+03  0.19470542809E+04  0.20995690142E+04  0.10100000352E+00 0.  1.
</event>
<event>
 5   0  0.3159875E-07  0.3598669E+04  0.7818609E-02  0.8090797E-01
       -1   -1    0    0    0  501  0.00000000000E+00  0.00000000000E+00  0.13969484573E+04  0.13969484573E+04  0.50400001928E-02 0.  1.
        1   -1    0    0  501    0  0.00000000000E+00  0.00000000000E+00 -0.23176263469E+04  0.23176263469E+04  0.50400001928E-02 0. -1.
    10030    2    1    2    0    0  0.00000000000E+00  0.00000000000E+00 -0.92067788959E+03  0.37145748042E+04  0.35986689484E+04 0.  0.
        5    1    3    3  502    0  0.69604871771E+03  0.99254212480E+03 -0.18328102676E+04  0.21974620029E+04  0.46999998093E+01 0. -1.
       -5    1    3    3    0  502 -0.69604871771E+03 -0.99254212480E+03  0.91213237806E+03  0.15171128014E+04  0.46999998093E+01 0.  1.
</event>
<event>
 5   0  0.9878336E-07  0.3661161E+04  0.7818609E-02  0.8076624E-01
       -2   -1    0    0    0  501  0.00000000000E+00  0.00000000000E+00  0.11293650625E+04  0.11293650625E+04  0.25500000920E-02 0.  1.
        2   -1    0    0  501    0  0.00000000000E+00  0.00000000000E+00 -0.29671753166E+04  0.29671753166E+04  0.25500000920E-02 0. -1.
    10030    2    1    2    0    0  0.00000000000E+00  0.00000000000E+00 -0.18378102542E+04  0.40965403791E+04  0.36611605465E+04 0.  0.
        3    1    3    3  502    0 -0.92445000251E+03 -0.28035226546E+03 -0.26587492994E+04  0.28288077077E+04  0.10100000352E+00 0. -1.
       -3    1    3    3    0  502  0.92445000251E+03  0.28035226546E+03  0.82093904526E+03  0.12677326714E+04  0.10100000352E+00 0.  1.
</event>
<event>
 5   0  0.3365378E-07  0.3591248E+04  0.7818609E-02  0.8092499E-01
       -1   -1    0    0    0  501  0.00000000000E+00  0.00000000000E+00  0.18208346174E+04  0.18208346174E+04  0.50400001928E-02 0.  1.
        1   -1    0    0  501    0  0.00000000000E+00  0.00000000000E+00 -0.17707625037E+04  0.17707625037E+04  0.50400001928E-02 0. -1.
    10030    2    1    2    0    0  0.00000000000E+00  0.00000000000E+00  0.50072113705E+02  0.35915971210E+04  0.35912480648E+04 0.  0.
        3    1    3    3  502    0  0.12330825611E+04 -0.90078806118E+03 -0.91970062468E+03  0.17826275503E+04  0.10100000352E+00 0. -1.
       -3    1    3    3    0  502 -0.12330825611E+04  0.90078806118E+03  0.96977273839E+03  0.18089695708E+04  0.10100000352E+00 0.  1.
</event>
<event>
 5   0  0.3159875E-07  0.2665218E+04  0.7818609E-02  0.8346380E-01
       -1   -1    0    0    0  501  0.00000000000E+00  0.00000000000E+00  0.11936517950E+04  0.11936517950E+04  0.50400001928E-02 0. -1.
        1   -1    0    0  501    0  0.00000000000E+00  0.00000000000E+00 -0.14877421981E+04  0.14877421981E+04  0.50400001928E-02 0.  1.
    10030    2    1    2    0    0  0.00000000000E+00  0.00000000000E+00 -0.29409040309E+03  0.26813939931E+04  0.26652175485E+04 0.  0.
        5    1    3    3  502    0  0.55313184273E+03 -0.48414138828E+03 -0.12653113638E+04  0.14633463898E+04  0.46999998093E+01 0.  1.
       -5    1    3    3    0  502 -0.55313184273E+03  0.48414138828E+03  0.97122096069E+03  0.12180476032E+04  0.46999998093E+01 0. -1.
</event>
<event>
 5   0  0.9878977E-07  0.3472617E+04  0.7818609E-02  0.8120310E-01
        2   -1    0    0  501    0  0.00000000000E+00  0.00000000000E+00  0.22833335976E+04  0.22833335976E+04  0.25500000920E-02 0. -1.
       -2   -1    0    0    0  501  0.00000000000E+00  0.00000000000E+00 -0.13203355023E+04  0.13203355023E+04  0.25500000920E-02 0.  1.
    10030    2    1    2    0    0  0.00000000000E+00  0.00000000000E+00  0.96299809531E+03  0.36036691000E+04  0.34726165424E+04 0.  0.
        5    1    3    3  502    0  0.59247131619E+02  0.17345490016E+04  0.53414689462E+03  0.18159034822E+04  0.46999998093E+01 0.  1.
       -5    1    3    3    0  502 -0.59247131619E+02 -0.17345490016E+04  0.42885120070E+03  0.17877656178E+04  0.46999998093E+01 0. -1.
</event>
<event>
 5   0  0.3365378E-07  0.3398902E+04  0.7818609E-02  0.8138176E-01
       -1   -1    0    0    0  501  0.00000000000E+00  0.00000000000E+00  0.13721456139E+04  0.13721456139E+04  0.50400001928E-02 0. -1.
        1   -1    0    0  501    0  0.00000000000E+00  0.00000000000E+00 -0.21048303785E+04  0.21048303786E+04  0.50400001928E-02 0.  1.
    10030    2    1    2    0    0  0.00000000000E+00  0.00000000000E+00 -0.73268476467E+03  0.34769759924E+04  0.33989020415E+04 0.  0.
        3    1    3    3  502    0 -0.32222626264E+03  0.90942569373E+03  0.10648106440E+04  0.14369086869E+04  0.10100000352E+00 0. -1.
       -3    1    3    3    0  502  0.32222626264E+03 -0.90942569373E+03 -0.17974954087E+04  0.20400673055E+04  0.10100000352E+00 0.  1.
</event>
<event>
 5   0  0.3159875E-07  0.3626802E+04  0.7818609E-02  0.8084380E-01
        1   -1    0    0  501    0  0.00000000000E+00  0.00000000000E+00  0.21508445704E+04  0.21508445704E+04  0.50400001928E-02 0. -1.
       -1   -1    0    0    0  501  0.00000000000E+00  0.00000000000E+00 -0.15288985492E+04  0.15288985492E+04  0.50400001928E-02 0.  1.
    10030    2    1    2    0    0  0.00000000000E+00  0.00000000000E+00  0.62194602118E+03  0.36797431197E+04  0.36268019761E+04 0.  0.
        2    1    3    3  502    0 -0.12425649915E+04 -0.52435518679E+03  0.15409004519E+04  0.20477525052E+04  0.25500000920E-02 0. -1.
       -2    1    3    3    0  502  0.12425649915E+04  0.52435518679E+03 -0.91895443069E+03  0.16319906145E+04  0.25500000920E-02 0.  1.
</event>
<event>
 5   0  0.1031659E-06  0.3613076E+04  0.7818609E-02  0.8087503E-01
        2   -1    0    0  501    0  0.00000000000E+00  0.00000000000E+00  0.25412915431E+04  0.25412915431E+04  0.25500000920E-02 0. -1.
       -2   -1    0    0    0  501  0.00000000000E+00  0.00000000000E+00 -0.12842209077E+04  0.12842209077E+04  0.25500000920E-02 0.  1.
    10030    2    1    2    0    0  0.00000000000E+00  0.00000000000E+00  0.12570706354E+04  0.38255124508E+04  0.36130761034E+04 0.  0.
        2    1    3    3  502    0  0.95511601836E+03 -0.15320144798E+04  0.55939049450E+03  0.18900351056E+04  0.25500000920E-02 0. -1.
       -2    1    3    3    0  502 -0.95511601836E+03  0.15320144798E+04  0.69768014094E+03  0.19354773453E+04  0.25500000920E-02 0.  1.
</event>
<event>
 5   0  0.1031659E-06  0.3608119E+04  0.7818609E-02  0.8088634E-01
       -2   -1    0    0    0  501  0.00000000000E+00  0.00000000000E+00  0.10559744897E+04  0.10559744897E+04  0.25500000920E-02 0. -1.
        2   -1    0    0  501    0  0.00000000000E+00  0.00000000000E+00 -0.30821113730E+04  0.30821113730E+04  0.25500000920E-02 0.  1.
    10030    2    1    2    0    0  0.00000000000E+00  0.00000000000E+00 -0.20261368833E+04  0.41380858627E+04  0.36081191689E+04 0.  0.
        2    1    3    3  502    0  0.14334477874E+04  0.81946465934E+03 -0.18466992696E+04  0.24772147827E+04  0.25500000920E-02 0.  1.
       -2    1    3    3    0  502 -0.14334477874E+04 -0.81946465934E+03 -0.17943761365E+03  0.16608710800E+04  0.25500000920E-02 0. -1.
</event>
<event>
 5   0  0.9538919E-07  0.3612530E+04  0.7818609E-02  0.8087627E-01
        2   -1    0    0  501    0  0.00000000000E+00  0.00000000000E+00  0.27909554159E+04  0.27909554159E+04  0.25500000920E-02 0.  1.
       -2   -1    0    0    0  501  0.00000000000E+00  0.00000000000E+00 -0.11689881592E+04  0.11689881592E+04  0.25500000920E-02 0. -1.
    10030    2    1    2    0    0  0.00000000000E+00  0.00000000000E+00  0.16219672567E+04  0.39599435751E+04  0.36125303233E+04 0.  0.
        4    1    3    3  502    0  0.65136758678E+03  0.16361190443E+04  0.12514021063E+04  0.21603643454E+04  0.12699999809E+01 0. -1.
       -4    1    3    3    0  502 -0.65136758678E+03 -0.16361190443E+04  0.37056515031E+03  0.17995792297E+04  0.12699999809E+01 0.  1.
</event>
<event>
 5   0  0.1006019E-06  0.3601738E+04  0.7818609E-02  0.8090094E-01
        2   -1    0    0  501    0  0.00000000000E+00  0.00000000000E+00  0.22180287413E+04  0.22180287413E+04  0.25500000920E-02 0.  1.
       -2   -1    0    0    0  501  0.00000000000E+00  0.00000000000E+00 -0.14621674820E+04  0.14621674820E+04  0.25500000920E-02 0. -1.
    10030    2    1    2    0    0  0.00000000000E+00  0.00000000000E+00  0.75586125924E+03  0.36801962233E+04  0.36017381913E+04 0.  0.
        1    1    3    3  502    0  0.94044914455E+03  0.63524137940E+03 -0.10507963358E+04  0.15466574097E+04  0.50400001928E-02 0. -1.
       -1    1    3    3    0  502 -0.94044914455E+03 -0.63524137940E+03  0.18066575950E+04  0.21335388136E+04  0.50400001928E-02 0.  1.
</event>
<event>
 5   0  0.3159875E-07  0.3722898E+04  0.7818609E-02  0.8062906E-01
       -1   -1    0    0    0  501  0.00000000000E+00  0.00000000000E+00  0.15275662373E+04  0.15275662373E+04  0.50400001928E-02 0. -1.
        1   -1    0    0  501    0  0.00000000000E+00  0.00000000000E+00 -0.22683092408E+04  0.22683092408E+04  0.50400001928E-02 0.  1.
    10030    2    1    2    0    0  0.00000000000E+00  0.00000000000E+00 -0.74074300342E+03  0.37958754781E+04  0.37228981249E+04 0.  0.
        2    1    3    3  502    0 -0.90648610848E+03 -0.89618503132E+03 -0.17534754288E+04  0.21678424193E+04  0.25500000920E-02 0.  1.
       -2    1    3    3    0  502  0.90648610848E+03  0.89618503132E+03  0.10127324254E+04  0.16280330588E+04  0.25500000920E-02 0. -1.
</event>
<event>
 5   0  0.9538919E-07  0.3604295E+04  0.7818609E-02  0.8089509E-01
       -2   -1    0    0    0  501  0.00000000000E+00  0.00000000000E+00  0.11943791072E+04  0.11943791072E+04  0.25500000920E-02 0. -1.
        2   -1    0    0  501    0  0.00000000000E+00  0.00000000000E+00 -0.27191831570E+04  0.27191831570E+04  0.25500000920E-02 0.  1.
    10030    2    1    2    0    0  0.00000000000E+00  0.00000000000E+00 -0.15248040498E+04  0.39135622641E+04  0.36042949664E+04 0.  0.
        4    1    3    3  502    0  0.13843495869E+04 -0.10369968828E+04 -0.13117246339E+04  0.21708084765E+04  0.12699999809E+01 0.  1.
       -4    1    3    3    0  502 -0.13843495869E+04  0.10369968828E+04 -0.21307941588E+03  0.17427537876E+04  0.12699999809E+01 0. -1.
</event>
<event>
 5   0  0.9878336E-07  0.3746784E+04  0.7818609E-02  0.8057672E-01
        2   -1    0    0  501    0  0.00000000000E+00  0.00000000000E+00  0.19472602789E+04  0.19472602789E+04  0.25500000920E-02 0. -1.
       -2   -1    0    0    0  501  0.00000000000E+00  0.00000000000E+00 -0.18023257407E+04  0.18023257407E+04  0.25500000920E-02 0.  1.
    10030    2    1    2    0    0  0.00000000000E+00  0.00000000000E+00  0.14493453822E+03  0.37495860195E+04  0.37467838605E+04 0.  0.
        3    1    3    3  502    0 -0.59288239314E+03  0.17768637258E+04  0.10152485748E+03  0.18759161866E+04  0.10100000352E+00 0. -1.
       -3    1    3    3    0  502  0.59288239314E+03 -0.17768637258E+04  0.43409680747E+02  0.18736698329E+04  0.10100000352E+00 0.  1.
</event>
<event>
 5   0  0.3365378E-07  0.3628111E+04  0.7818609E-02  0.8084083E-01
       -1   -1    0    0    0  501  0.00000000000E+00  0.00000000000E+00  0.11728104875E+04  0.11728104875E+04  0.50400001928E-02 0. -1.
        1   -1    0    0  501    0  0.00000000000E+00  0.00000000000E+00 -0.28059069771E+04  0.28059069771E+04  0.50400001928E-02 0.  1.
    10030    2    1    2    0    0  0.00000000000E+00  0.00000000000E+00 -0.16330964896E+04  0.39787174646E+04  0.36281108747E+04 0.  0.
        3    1    3    3  502    0  0.26580433142E+03  0.15362145440E+04 -0.18336391186E+04  0.24068318378E+04  0.10100000352E+00 0.  1.
       -3    1    3    3    0  502 -0.26580433142E+03 -0.15362145440E+04  0.20054262901E+03  0.15718856269E+04  0.10100000352E+00 0. -1.
</event>
<event>
 5   0  0.9878977E-07  0.3799099E+04  0.7818609E-02  0.8046348E-01
        2   -1    0    0  501    0  0.00000000000E+00  0.00000000000E+00  0.14320531186E+04  0.14320531186E+04  0.25500000920E-02 0.  1.
       -2   -1    0    0    0  501  0.00000000000E+00  0.00000000000E+00 -0.25196612141E+04  0.25196612141E+04  0.25500000920E-02 0. -1.
    10030    2    1    2    0    0  0.00000000000E+00  0.00000000000E+00 -0.10876080955E+04  0.39517143327E+04  0.37990992088E+04 0.  0.
        5    1    3    3  502    0  0.56467947480E+03  0.15579911711E+04  0.42196986640E+03  0.17100526473E+04  0.46999998093E+01 0.  1.
       -5    1    3    3    0  502 -0.56467947480E+03 -0.15579911711E+04 -0.15095779619E+04  0.22416616854E+04  0.46999998093E+01 0. -1.
</event>
<event>
 5   0  0.3278988E-07  0.3529238E+04  0.7818609E-02  0.8106896E-01
        1   -1    0    0  501    0  0.00000000000E+00  0.00000000000E+00  0.13487661337E+04  0.13487661337E+04  0.50400001928E-02 0.  1.
       -1   -1    0    0    0  501  0.00000000000E+00  0.00000000000E+00 -0.23086876715E+04  0.23086876715E+04  0.50400001928E-02 0. -1.
    10030    2    1    2    0    0  0.00000000000E+00  0.00000000000E+00 -0.95992153783E+03  0.36574538052E+04  0.35292377334E+04 0.  0.
        4    1    3    3  502    0 -0.12830312200E+04  0.96689844438E+03  0.27650056665E+03  0.16301889122E+04  0.12699999809E+01 0.  1.
       -4    1    3    3    0  502  0.12830312200E+04 -0.96689844438E+03 -0.12364221045E+04  0.20272648930E+04  0.12699999809E+01 0. -1.
</event>
<event>
 5   0  0.1006019E-06  0.3612277E+04  0.7818609E-02  0.8087685E-01
       -2   -1    0    0    0  501  0.00000000000E+00  0.00000000000E+00  0.22701995535E+04  0.22701995535E+04  0.25500000920E-02 0. -1.
        2   -1    0    0  501    0  0.00000000000E+00  0.00000000000E+00 -0.14369382766E+04  0.14369382766E+04  0.25500000920E-02 0.  1.
    10030    2    1    2    0    0  0.00000000000E+00  0.00000000000E+00  0.83326127692E+03  0.37071378302E+04  0.36122771954E+04 0.  0.
        1    1    3    3  502    0 -0.98642835535E+03 -0.94069134087E+03 -0.79947543591E+03  0.15802221590E+04  0.50400001928E-02 0.  1.
       -1    1    3    3    0  502  0.98642835535E+03  0.94069134087E+03  0.16327367128E+04  0.21269156712E+04  0.50400001928E-02 0. -1.
</event>
<event>
 5   0  0.1031659E-06  0.3586628E+04  0.7818609E-02  0.8093561E-01
       -2   -1    0    0    0  501  0.00000000000E+00  0.00000000000E+00  0.12730687946E+04  0.12730687946E+04  0.25500000920E-02 0. -1.
        2   -1    0    0  501    0  0.00000000000E+00  0.00000000000E+00 -0.25261603703E+04  0.25261603703E+04  0.25500000920E-02 0.  1.
    10030    2    1    2    0    0  0.00000000000E+00  0.00000000000E+00 -0.12530915757E+04  0.37992291649E+04  0.35866284657E+04 0.  0.
        2    1    3    3  502    0  0.80376372774E+02 -0.17854276200E+04 -0.78281605897E+03  0.19511568695E+04  0.25500000920E-02 0.  1.
       -2    1    3    3    0  502 -0.80376372774E+02  0.17854276200E+04 -0.47027551670E+03  0.18480722954E+04  0.25500000920E-02 0. -1.
</event>
<event>
 5   0  0.3159875E-07  0.3565182E+04  0.7818609E-02  0.8098514E-01
        1   -1    0    0  501    0  0.00000000000E+00  0.00000000000E+00  0.17221866326E+04  0.17221866327E+04  0.50400001928E-02 0. -1.
       -1   -1    0    0    0  501  0.00000000000E+00  0.00000000000E+00 -0.18451138757E+04  0.18451138757E+04  0.50400001928E-02 0.  1.
    10030    2    1    2    0    0  0.00000000000E+00  0.00000000000E+00 -0.12292724309E+03  0.35673005084E+04  0.35651818762E+04 0.  0.
        5    1    3    3  502    0  0.84160159592E+03  0.49829555386E+03 -0.15526568178E+04  0.18350359640E+04  0.46999998093E+01 0.  1.
       -5    1    3    3    0  502 -0.84160159592E+03 -0.49829555386E+03  0.14297295747E+04  0.17322645444E+04  0.46999998093E+01 0. -1.
</event>
<event>
 5   0  0.9538919E-07  0.3365920E+04  0.7818609E-02  0.8146322E-01
        2   -1    0    0  501    0  0.00000000000E+00  0.00000000000E+00  0.21549325263E+04  0.21549325263E+04  0.25500000920E-02 0.  1.
       -2   -1    0    0    0  501  0.00000000000E+00  0.00000000000E+00 -0.13143587887E+04  0.13143587887E+04  0.25500000920E-02 0. -1.
    10030    2    1    2    0    0  0.00000000000E+00  0.00000000000E+00  0.84057373754E+03  0.34692913150E+04  0.33659200852E+04 0.  0.
        4    1    3    3  502    0 -0.93392196291E+03  0.18349501777E+03  0.18508872805E+04  0.20812654786E+04  0.12699999809E+01 0.  1.
       -4    1    3    3    0  502  0.93392196291E+03 -0.18349501777E+03 -0.10103135430E+04  0.13880258364E+04  0.12699999809E+01 0. -1.
</event>
<event>
 5   0  0.9878977E-07  0.3686682E+04  0.7818609E-02  0.8070920E-01
       -2   -1    0    0    0  501  0.00000000000E+00  0.00000000000E+00  0.19229435148E+04  0.19229435148E+04  0.25500000920E-02 0.  1.
        2   -1    0    0  501    0  0.00000000000E+00  0.00000000000E+00 -0.17670339933E+04  0.17670339933E+04  0.25500000920E-02 0. -1.
    10030    2    1    2    0    0  0.00000000000E+00  0.00000000000E+00  0.15590952141E+03  0.36899775081E+04  0.36866822797E+04 0.  0.
        5    1    3    3  502    0  0.16939595807E+04  0.63659048443E+03  0.42917860190E+03  0.18598287201E+04  0.46999998093E+01 0.  1.
       -5    1    3    3    0  502 -0.16939595807E+04 -0.63659048443E+03 -0.27326908049E+03  0.18301487880E+04  0.46999998093E+01 0. -1.
</event>
<event>
 5   0  0.3278988E-07  0.3611109E+04  0.7818609E-02  0.8087952E-01
       -1   -1    0    0    0  501  0.00000000000E+00  0.00000000000E+00  0.15716782710E+04  0.15716782710E+04  0.50400001928E-02 0.  1.
        1   -1    0    0  501    0  0.00000000000E+00  0.00000000000E+00 -0.20742327718E+04  0.20742327718E+04  0.50400001928E-02 0. -1.
    10030    2    1    2    0    0  0.00000000000E+00  0.00000000000E+00 -0.50255450083E+03  0.36459110428E+04  0.36111087363E+04 0.  0.
        4    1    3    3  502    0  0.13844725652E+04  0.60434051957E+03  0.74720949566E+03  0.16853235270E+04  0.12699999809E+01 0.  1.
       -4    1    3    3    0  502 -0.13844725652E+04 -0.60434051957E+03 -0.12497639965E+04  0.19605875158E+04  0.12699999809E+01 0. -1.
</event>
<event>
 5   0  0.9878336E-07  0.3155148E+04  0.7818609E-02  0.8200764E-01
       -2   -1    0    0    0  501  0.00000000000E+00  0.00000000000E+00  0.15636569923E+04  0.15636569923E+04  0.25500000920E-02 0.  1.
        2   -1    0    0  501    0  0.00000000000E+00  0.00000000000E+00 -0.15916148432E+04  0.15916148432E+04  0.25500000920E-02 0. -1.
    10030    2    1    2    0    0  0.00000000000E+00  0.00000000000E+00 -0.27957850897E+02  0.31552718356E+04  0.31551479704E+04 0.  0.
        3    1    3    3  502    0 -0.92735618339E+03  0.36521453034E+03 -0.12368795500E+04  0.15884716477E+04  0.10100000352E+00 0. -1.
       -3    1    3    3    0  502  0.92735618339E+03 -0.36521453034E+03  0.12089216991E+04  0.15668001879E+04  0.10100000352E+00 0.  1.
</event>
<event>
 5   0  0.3159875E-07  0.3578907E+04  0.7818609E-02  0.8095340E-01
        3   -1    0    0  501    0  0.00000000000E+00  0.00000000000E+00  0.19103291105E+04  0.19103291132E+04  0.10100000352E+00 0.  1.
       -3   -1    0    0    0  501  0.00000000000E+00  0.00000000000E+00 -0.16762264306E+04  0.16762264336E+04  0.10100000352E+00 0. -1.
    10030    2    1    2    0    0  0.00000000000E+00  0.00000000000E+00  0.23410267992E+03  0.35865555468E+04  0.35789071832E+04 0.  0.
        4    1    3    3  502    0 -0.11756986312E+03 -0.13170973085E+04  0.13252706748E+04  0.18721410116E+04  0.12699999809E+01 0.  1.
       -4    1    3    3    0  502  0.11756986312E+03  0.13170973085E+04 -0.10911679948E+04  0.17144145353E+04  0.12699999809E+01 0. -1.
</event>
<event>
 5   0  0.3365378E-07  0.3586099E+04  0.7818609E-02  0.8093683E-01
        1   -1    0    0  501    0  0.00000000000E+00  0.00000000000E+00  0.20029543097E+04  0.20029543097E+04  0.50400001928E-02 0.  1.
       -1   -1    0    0    0  501  0.00000000000E+00  0.00000000000E+00 -0.16051418258E+04  0.16051418258E+04  0.50400001928E-02 0. -1.
    10030    2    1    2    0    0  0.00000000000E+00  0.00000000000E+00  0.39781248390E+03  0.36080961355E+04  0.35860985695E+04 0.  0.
        3    1    3    3  502    0  0.16368689178E+03  0.13689755135E+04  0.13522968913E+04  0.19312157434E+04  0.10100000352E+00 0.  1.
       -3    1    3    3    0  502 -0.16368689178E+03 -0.13689755135E+04 -0.95448440740E+03  0.16768803921E+04  0.10100000352E+00 0. -1.
</event>
<event>
 5   0  0.3365378E-07  0.3549101E+04  0.7818609E-02  0.8102251E-01
       -1   -1    0    0    0  501  0.00000000000E+00  0.00000000000E+00  0.29810231117E+04  0.29810231117E+04  0.50400001928E-02 0.  1.
        1   -1    0    0  501    0  0.00000000000E+00  0.00000000000E+00 -0.10563584966E+04  0.10563584966E+04  0.50400001928E-02 0. -1.
    10030    2    1    2    0    0  0.00000000000E+00  0.00000000000E+00  0.19246646151E+04  0.40373816083E+04  0.35491007833E+04 0.  0.
        3    1    3    3  502    0 -0.15248720228E+03  0.17173285575E+04  0.14403311476E+04  0.22465581555E+04  0.10100000352E+00 0.  1.
       -3    1    3    3    0  502  0.15248720228E+03 -0.17173285575E+04  0.48433346753E+03  0.17908234528E+04  0.10100000352E+00 0. -1.
</event>
<event>
 5   0  0.3242047E-07  0.3620767E+04  0.7818609E-02  0.8085751E-01
        1   -1    0    0  501    0  0.00000000000E+00  0.00000000000E+00  0.21000691619E+04  0.21000691619E+04  0.50400001928E-02 0. -1.
       -1   -1    0    0    0  501  0.00000000000E+00  0.00000000000E+00 -0.15606574246E+04  0.15606574246E+04  0.50400001928E-02 0.  1.
    10030    2    1    2    0    0  0.00000000000E+00  0.00000000000E+00  0.53941173726E+03  0.36607265865E+04  0.36207670622E+04 0.  0.
        1    1    3    3  502    0 -0.90276736418E+03  0.10328603592E+04  0.14641411023E+04  0.20063645239E+04  0.50400001928E-02 0. -1.
       -1    1    3    3    0  502  0.90276736418E+03 -0.10328603592E+04 -0.92472936504E+03  0.16543620626E+04  0.50400001928E-02 0.  1.
</event>
<event>
 5   0  0.9878336E-07  0.3513798E+04  0.7818609E-02  0.8110528E-01
        2   -1    0    0  501    0  0.00000000000E+00  0.00000000000E+00  0.18308517644E+04  0.18308517644E+04  0.25500000920E-02 0.  1.
       -2   -1    0    0    0  501  0.00000000000E+00  0.00000000000E+00 -0.16859333968E+04  0.16859333968E+04  0.25500000920E-02 0. -1.
    10030    2    1    2    0    0  0.00000000000E+00  0.00000000000E+00  0.14491836758E+03  0.35167851613E+04  0.35137980217E+04 0.  0.
        3    1    3    3  502    0  0.92125237645E+03 -0.10271488212E+04  0.11610204520E+04  0.18032496062E+04  0.10100000352E+00 0.  1.
       -3    1    3    3    0  502 -0.92125237645E+03  0.10271488212E+04 -0.10161020845E+04  0.17135355550E+04  0.10100000352E+00 0. -1.
</event>
<event>
 5   0  0.9878336E-07  0.3530670E+04  0.7818609E-02  0.8106560E-01
       -2   -1    0    0    0  501  0.00000000000E+00  0.00000000000E+00  0.13386719998E+04  0.13386719998E+04  0.25500000920E-02 0.  1.
        2   -1    0    0  501    0  0.00000000000E+00  0.00000000000E+00 -0.23279838547E+04  0.23279838547E+04  0.25500000920E-02 0. -1.
    10030    2    1    2    0    0  0.00000000000E+00  0.00000000000E+00 -0.98931185495E+03  0.36666558545E+04  0.35306695129E+04 0.  0.
        3    1    3    3  502    0 -0.31334094400E+01  0.14994621386E+04  0.47289874336E+03  0.15722689831E+04  0.10100000352E+00 0.  1.
       -3    1    3    3    0  502  0.31334094400E+01 -0.14994621386E+04 -0.14622105983E+04  0.20943868715E+04  0.10100000352E+00 0. -1.
</event>
<event>
 5   0  0.9878977E-07  0.3572766E+04  0.7818609E-02  0.8096758E-01
        2   -1    0    0  501    0  0.00000000000E+00  0.00000000000E+00  0.15600781447E+04  0.15600781447E+04  0.25500000920E-02 0.  1.
       -2   -1    0    0    0  501  0.00000000000E+00  0.00000000000E+00 -0.20455161161E+04  0.20455161161E+04  0.25500000920E-02 0. -1.
    10030    2    1    2    0    0  0.00000000000E+00  0.00000000000E+00 -0.48543797146E+03  0.36055942608E+04  0.35727664281E+04 0.  0.
        5    1    3    3  502    0 -0.12696832413E+04 -0.12244965858E+04 -0.52754525810E+03  0.18411446199E+04  0.46999998093E+01 0.  1.
       -5    1    3    3    0  502  0.12696832413E+04  0.12244965858E+04  0.42107286637E+02  0.17644496410E+04  0.46999998093E+01 0. -1.
</event>
<event>
 5   0  0.3159875E-07  0.3604674E+04  0.7818609E-02  0.8089422E-01
        1   -1    0    0  501    0  0.00000000000E+00  0.00000000000E+00  0.18897744608E+04  0.18897744608E+04  0.50400001928E-02 0. -1.
       -1   -1    0    0    0  501  0.00000000000E+00  0.00000000000E+00 -0.17189453553E+04  0.17189453553E+04  0.50400001928E-02 0.  1.
    10030    2    1    2    0    0  0.00000000000E+00  0.00000000000E+00  0.17082910553E+03  0.36087198161E+04  0.36046742055E+04 0.  0.
        2    1    3    3  502    0 -0.69049191970E+03 -0.14039885088E+04  0.98110085822E+03  0.18467597889E+04  0.25500000920E-02 0. -1.
       -2    1    3    3    0  502  0.69049191970E+03  0.14039885088E+04 -0.81027175269E+03  0.17619600271E+04  0.25500000920E-02 0.  1.
</event>
<event>
 5   0  0.3278988E-07  0.3530648E+04  0.7818609E-02  0.8106565E-01
       -1   -1    0    0    0  501  0.00000000000E+00  0.00000000000E+00  0.26215822117E+04  0.26215822117E+04  0.50400001928E-02 0.  1.
        1   -1    0    0  501    0  0.00000000000E+00  0.00000000000E+00 -0.11887357178E+04  0.11887357178E+04  0.50400001928E-02 0. -1.
    10030    2    1    2    0    0  0.00000000000E+00  0.00000000000E+00  0.14328464939E+04  0.38103179295E+04  0.35306477661E+04 0.  0.
        4    1    3    3  502    0  0.14879808674E+04  0.61889395023E+03  0.14940927732E+04  0.21975967809E+04  0.12699999809E+01 0.  1.
       -4    1    3    3    0  502 -0.14879808674E+04 -0.61889395023E+03 -0.61246279279E+02  0.16127211486E+04  0.12699999809E+01 0. -1.
</event>
<event>
 5   0  0.1031659E-06  0.3611754E+04  0.7818609E-02  0.8087805E-01
        2   -1    0    0  501    0  0.00000000000E+00  0.00000000000E+00  0.24942906026E+04  0.24942906026E+04  0.25500000920E-02 0.  1.
       -2   -1    0    0    0  501  0.00000000000E+00  0.00000000000E+00 -0.13074624986E+04  0.13074624986E+04  0.25500000920E-02 0. -1.
    10030    2    1    2    0    0  0.00000000000E+00  0.00000000000E+00  0.11868281040E+04  0.38017531011E+04  0.36117538252E+04 0.  0.
        2    1    3    3  502    0  0.60668231027E+03 -0.50652946246E+02 -0.11961899108E+04  0.13421994820E+04  0.25500000920E-02 0. -1.
       -2    1    3    3    0  502 -0.60668231027E+03  0.50652946246E+02  0.23830180148E+04  0.24595536192E+04  0.25500000920E-02 0.  1.
</event>
<event>
 5   0  0.9878336E-07  0.3632257E+04  0.7818609E-02  0.8083143E-01
        2   -1    0    0  501    0  0.00000000000E+00  0.00000000000E+00  0.16580931633E+04  0.16580931633E+04  0.25500000920E-02 0. -1.
       -2   -1    0    0    0  501  0.00000000000E+00  0.00000000000E+00 -0.19892266596E+04  0.19892266596E+04  0.25500000920E-02 0.  1.
    10030    2    1    2    0    0  0.00000000000E+00  0.00000000000E+00 -0.33113349623E+03  0.36473198229E+04  0.36322572181E+04 0.  0.
        3    1    3    3  502    0  0.34190621364E+03  0.35067965915E+03 -0.19216606440E+04  0.19830924646E+04  0.10100000352E+00 0.  1.
       -3    1    3    3    0  502 -0.34190621364E+03 -0.35067965915E+03  0.15905271477E+04  0.16642273583E+04  0.10100000352E+00 0. -1.
</event>
<event>
 5   0  0.3242047E-07  0.3338808E+04  0.7818609E-02  0.8153090E-01
        1   -1    0    0  501    0  0.00000000000E+00  0.00000000000E+00  0.16559579627E+04  0.16559579627E+04  0.50400001928E-02 0. -1.
       -1   -1    0    0    0  501  0.00000000000E+00  0.00000000000E+00 -0.16829592037E+04  0.16829592037E+04  0.50400001928E-02 0.  1.
    10030    2    1    2    0    0  0.00000000000E+00  0.00000000000E+00 -0.27001240994E+02  0.33389171664E+04  0.33388079875E+04 0.  0.
        1    1    3    3  502    0  0.22729650909E+03 -0.16488874597E+04  0.11462904095E+03  0.16684224210E+04  0.50400001928E-02 0. -1.
       -1    1    3    3    0  502 -0.22729650909E+03  0.16488874597E+04 -0.14163028194E+03  0.16704947454E+04  0.50400001928E-02 0.  1.
</event>
<event>
 5   0  0.9878977E-07  0.3688486E+04  0.7818609E-02  0.8070518E-01
       -2   -1    0    0    0  501  0.00000000000E+00  0.00000000000E+00  0.20216626789E+04  0.20216626789E+04  0.25500000920E-02 0.  1.
        2   -1    0    0  501    0  0.00000000000E+00  0.00000000000E+00 -0.16823934884E+04  0.16823934884E+04  0.25500000920E-02 0. -1.
    10030    2    1    2    0    0  0.00000000000E+00  0.00000000000E+00  0.33926919055E+03  0.37040561673E+04  0.36884859370E+04 0.  0.
        5    1    3    3  502    0 -0.85657203740E+03  0.16178770191E+04  0.39411418528E+03  0.18725890594E+04  0.46999998093E+01 0. -1.
       -5    1    3    3    0  502  0.85657203740E+03 -0.16178770191E+04 -0.54844994734E+02  0.18314671080E+04  0.46999998093E+01 0.  1.
</event>
<event>
 5   0  0.3278988E-07  0.3615262E+04  0.7818609E-02  0.8087005E-01
       -1   -1    0    0    0  501  0.00000000000E+00  0.00000000000E+00  0.34157582360E+04  0.34157582360E+04  0.50400001928E-02 0.  1.
        1   -1    0    0  501    0  0.00000000000E+00  0.00000000000E+00 -0.95660443289E+03  0.95660443291E+03  0.50400001928E-02 0. -1.
    10030    2    1    2    0    0  0.00000000000E+00  0.00000000000E+00  0.24591538031E+04  0.43723626689E+04  0.36152617998E+04 0.  0.
        4    1    3    3  502    0 -0.51357308658E+03 -0.12964908235E+03  0.33197932936E+04  0.33617845447E+04  0.12699999809E+01 0.  1.
       -4    1    3    3    0  502  0.51357308658E+03  0.12964908235E+03 -0.86063949045E+03  0.10105781243E+04  0.12699999809E+01 0. -1.
</event>
<event>
 5   0  0.3159875E-07  0.3796342E+04  0.7818609E-02  0.8046940E-01
        1   -1    0    0  501    0  0.00000000000E+00  0.00000000000E+00  0.15461355900E+04  0.15461355900E+04  0.50400001928E-02 0. -1.
       -1   -1    0    0    0  501  0.00000000000E+00  0.00000000000E+00 -0.23303606289E+04  0.23303606289E+04  0.50400001928E-02 0.  1.
    10030    2    1    2    0    0  0.00000000000E+00  0.00000000000E+00 -0.78422503886E+03  0.38764962189E+04  0.37963421900E+04 0.  0.
        5    1    3    3  502    0 -0.18241117777E+04  0.42373310403E+03 -0.75570804944E+02  0.18742109160E+04  0.46999998093E+01 0.  1.
       -5    1    3    3    0  502  0.18241117777E+04 -0.42373310403E+03 -0.70865423392E+03  0.20022853029E+04  0.46999998093E+01 0. -1.
</event>
<event>
 5   0  0.1031659E-06  0.3644472E+04  0.7818609E-02  0.8080380E-01
        2   -1    0    0  501    0  0.00000000000E+00  0.00000000000E+00  0.14590651519E+04  0.14590651519E+04  0.25500000920E-02 0. -1.
       -2   -1    0    0    0  501  0.00000000000E+00  0.00000000000E+00 -0.22758018589E+04  0.22758018589E+04  0.25500000920E-02 0.  1.
    10030    2    1    2    0    0  0.00000000000E+00  0.00000000000E+00 -0.81673670693E+03  0.37348670108E+04  0.36444715310E+04 0.  0.
        2    1    3    3  502    0 -0.41908178349E+03  0.17613818108E+04 -0.19722959172E+03  0.18212619077E+04  0.25500000920E-02 0. -1.
       -2    1    3    3    0  502  0.41908178349E+03 -0.17613818108E+04 -0.61950711522E+03  0.19136051031E+04  0.25500000920E-02 0.  1.
</event>
<event>
 5   0  0.3242047E-07  0.3560677E+04  0.7818609E-02  0.8099559E-01
        1   -1    0    0  501    0  0.00000000000E+00  0.00000000000E+00  0.98658311707E+03  0.98658311709E+03  0.50400001928E-02 0.  1.
       -1   -1    0    0    0  501  0.00000000000E+00  0.00000000000E+00 -0.32127096633E+04  0.32127096633E+04  0.50400001928E-02 0. -1.
    10030    2    1    2    0    0  0.00000000000E+00  0.00000000000E+00 -0.22261265462E+04  0.41992927804E+04  0.35606769659E+04 0.  0.
        1    1    3    3  502    0  0.87843108835E+03 -0.14813593074E+04 -0.16451309876E+04  0.23817058049E+04  0.50400001928E-02 0. -1.
       -1    1    3    3    0  502 -0.87843108835E+03  0.14813593074E+04 -0.58099555863E+03  0.18175869755E+04  0.50400001928E-02 0.  1.
</event>
<event>
 5   0  0.3159875E-07  0.3624236E+04  0.7818609E-02  0.8084963E-01
       -1   -1    0    0    0  501  0.00000000000E+00  0.00000000000E+00  0.17370767420E+04  0.17370767420E+04  0.50400001928E-02 0.  1.
        1   -1    0    0  501    0  0.00000000000E+00  0.00000000000E+00 -0.18904007205E+04  0.18904007205E+04  0.50400001928E-02 0. -1.
    10030    2    1    2    0    0  0.00000000000E+00  0.00000000000E+00 -0.15332397852E+03  0.36274774625E+04  0.36242357123E+04 0.  0.
        2    1    3    3  502    0 -0.16829506644E+04 -0.39035841960E+03  0.47069871601E+03  0.17906032268E+04  0.25500000920E-02 0.  1.
       -2    1    3    3    0  502  0.16829506644E+04  0.39035841960E+03 -0.62402269453E+03  0.18368742357E+04  0.25500000920E-02 0. -1.
</event>
<event>
 5   0  0.9878977E-07  0.3600090E+04  0.7818609E-02  0.8090471E-01
       -2   -1    0    0    0  501  0.00000000000E+00  0.00000000000E+00  0.13286493006E+04  0.13286493006E+04  0.25500000920E-02 0.  1.
        2   -1    0    0  501    0  0.00000000000E+00  0.00000000000E+00 -0.24386888448E+04  0.24386888448E+04  0.25500000920E-02 0. -1.
    10030    2    1    2    0    0  0.00000000000E+00  0.00000000000E+00 -0.11100395441E+04  0.37673381454E+04  0.36000901256E+04 0.  0.
        5    1    3    3  502    0  0.39993998994E+03 -0.13450676958E+04  0.62473234450E+03  0.15360571910E+04  0.46999998093E+01 0.  1.
       -5    1    3    3    0  502 -0.39993998994E+03  0.13450676958E+04 -0.17347718886E+04  0.22312809544E+04  0.46999998093E+01 0. -1.
</event>
<event>
 5   0  0.9538919E-07  0.3633652E+04  0.7818609E-02  0.8082826E-01
       -2   -1    0    0    0  501  0.00000000000E+00  0.00000000000E+00  0.17957145777E+04  0.17957145777E+04  0.25500000920E-02 0. -1.
        2   -1    0    0  501    0  0.00000000000E+00  0.00000000000E+00 -0.18381859966E+04  0.18381859966E+04  0.25500000920E-02 0.  1.
    10030    2    1    2    0    0  0.00000000000E+00  0.00000000000E+00 -0.42471418930E+02  0.36339005743E+04  0.36336523722E+04 0.  0.
        4    1    3    3  502    0 -0.17474479629E+01  0.17415647019E+04  0.49629854054E+03  0.18109015762E+04  0.12699999809E+01 0.  1.
       -4    1    3    3    0  502  0.17474479629E+01 -0.17415647019E+04 -0.53876995947E+03  0.18229989980E+04  0.12699999809E+01 0. -1.
</event>
<event>
 5   0  0.3159875E-07  0.3545494E+04  0.7818609E-02  0.8103092E-01
       -1   -1    0    0    0  501  0.00000000000E+00  0.00000000000E+00  0.17405802325E+04  0.17405802325E+04  0.50400001928E-02 0.  1.
        1   -1    0    0  501    0  0.00000000000E+00  0.00000000000E+00 -0.18055082397E+04  0.18055082397E+04  0.50400001928E-02 0. -1.
    10030    2    1    2    0    0  0.00000000000E+00  0.00000000000E+00 -0.64928007190E+02  0.35460884723E+04  0.35454940145E+04 0.  0.
        2    1    3    3  502    0  0.49361405176E+03  0.59798969295E+03 -0.16269036307E+04  0.18022380333E+04  0.25500000920E-02 0. -1.
       -2    1    3    3    0  502 -0.49361405176E+03 -0.59798969295E+03  0.15619756235E+04  0.17438504390E+04  0.25500000920E-02 0.  1.
</event>
<event>
 5   0  0.3365378E-07  0.3509400E+04  0.7818609E-02  0.8111566E-01
       -1   -1    0    0    0  501  0.00000000000E+00  0.00000000000E+00  0.24348818010E+04  0.24348818010E+04  0.50400001928E-02 0.  1.
        1   -1    0    0  501    0  0.00000000000E+00  0.00000000000E+00 -0.12645264949E+04  0.12645264949E+04  0.50400001928E-02 0. -1.
    10030    2    1    2    0    0  0.00000000000E+00  0.00000000000E+00  0.11703553061E+04  0.36994082959E+04  0.35094002618E+04 0.  0.
        3    1    3    3  502    0 -0.10697893286E+04  0.13832312700E+04  0.43171177646E+03  0.18011532478E+04  0.10100000352E+00 0. -1.
       -3    1    3    3    0  502  0.10697893286E+04 -0.13832312700E+04  0.73864352964E+03  0.18982550482E+04  0.10100000352E+00 0.  1.
</event>
<event>
 5   0  0.3159875E-07  0.3629652E+04  0.7818609E-02  0.8083733E-01
       -1   -1    0    0    0  501  0.00000000000E+00  0.00000000000E+00  0.19760365879E+04  0.19760365879E+04  0.50400001928E-02 0. -1.
        1   -1    0    0  501    0  0.00000000000E+00  0.00000000000E+00 -0.16667670031E+04  0.16667670031E+04  0.50400001928E-02 0.  1.
    10030    2    1    2    0    0  0.00000000000E+00  0.00000000000E+00  0.30926958476E+03  0.36428035910E+04  0.36296515434E+04 0.  0.
        2    1    3    3  502    0  0.16331049291E+04  0.58273864006E+03 -0.38300824659E+03  0.17757565568E+04  0.25500000920E-02 0.  1.
       -2    1    3    3    0  502 -0.16331049291E+04 -0.58273864006E+03  0.69227783135E+03  0.18670470342E+04  0.25500000920E-02 0. -1.
</event>
<event>
 5   0  0.9878336E-07  0.3618401E+04  0.7818609E-02  0.8086290E-01
        2   -1    0    0  501    0  0.00000000000E+00  0.00000000000E+00  0.26620620529E+04  0.26620620529E+04  0.25500000920E-02 0. -1.
       -2   -1    0    0    0  501  0.00000000000E+00  0.00000000000E+00 -0.12295756424E+04  0.12295756424E+04  0.25500000920E-02 0.  1.
    10030    2    1    2    0    0  0.00000000000E+00  0.00000000000E+00  0.14324864105E+04  0.38916376952E+04  0.36184011158E+04 0.  0.
        3    1    3    3  502    0 -0.95144228521E+02 -0.11632922448E+04  0.22029840884E+04  0.24930784534E+04  0.10100000352E+00 0. -1.
       -3    1    3    3    0  502  0.95144228521E+02  0.11632922448E+04 -0.77049767793E+03  0.13985592418E+04  0.10100000352E+00 0.  1.
</event>
<event>
 5   0  0.3159875E-07  0.3664659E+04  0.7818609E-02  0.8075839E-01
       -3   -1    0    0    0  501  0.00000000000E+00  0.00000000000E+00  0.11607897100E+04  0.11607897144E+04  0.10100000352E+00 0. -1.
        3   -1    0    0  501    0  0.00000000000E+00  0.00000000000E+00 -0.28923675670E+04  0.28923675688E+04  0.10100000352E+00 0.  1.
    10030    2    1    2    0    0  0.00000000000E+00  0.00000000000E+00 -0.17315778570E+04  0.40531572832E+04  0.36646585226E+04 0.  0.
        1    1    3    3  502    0  0.34897876858E+03 -0.91371999506E+03 -0.25794870769E+04  0.27586996919E+04  0.50400001928E-02 0.  1.
       -1    1    3    3    0  502 -0.34897876858E+03  0.91371999506E+03  0.84790921990E+03  0.12944575912E+04  0.50400001928E-02 0. -1.
</event>
<event>
 5   0  0.3278988E-07  0.3497630E+04  0.7818609E-02  0.8114352E-01
       -1   -1    0    0    0  501  0.00000000000E+00  0.00000000000E+00  0.12820434073E+04  0.12820434073E+04  0.50400001928E-02 0.  1.
        1   -1    0    0  501    0  0.00000000000E+00  0.00000000000E+00 -0.23855305334E+04  0.23855305334E+04  0.50400001928E-02 0. -1.
    10030    2    1    2    0    0  0.00000000000E+00  0.00000000000E+00 -0.11034871260E+04  0.36675739407E+04  0.34976298794E+04 0.  0.
        4    1    3    3  502    0 -0.15680219970E+04  0.40426247742E+03  0.14082578067E+03  0.16254090707E+04  0.12699999809E+01 0.  1.
       -4    1    3    3    0  502  0.15680219970E+04 -0.40426247742E+03 -0.12443129067E+04  0.20421648700E+04  0.12699999809E+01 0. -1.
</event>
<event>
 5   0  0.3365378E-07  0.3586359E+04  0.7818609E-02  0.8093624E-01
        1   -1    0    0  501    0  0.00000000000E+00  0.00000000000E+00  0.15575115464E+04  0.15575115464E+04  0.50400001928E-02 0. -1.
       -1   -1    0    0    0  501  0.00000000000E+00  0.00000000000E+00 -0.20645060633E+04  0.20645060633E+04  0.50400001928E-02 0.  1.
    10030    2    1    2    0    0  0.00000000000E+00  0.00000000000E+00 -0.50699451690E+03  0.36220176097E+04  0.35863586163E+04 0.  0.
        3    1    3    3  502    0 -0.55220877803E+03  0.16809598660E+04  0.40830365294E+02  0.17698100843E+04  0.10100000352E+00 0.  1.
       -3    1    3    3    0  502  0.55220877803E+03 -0.16809598660E+04 -0.54782488219E+03  0.18522075254E+04  0.10100000352E+00 0. -1.
</event>
<event>
 5   0  0.1006019E-06  0.3017680E+04  0.7818609E-02  0.8238700E-01
        2   -1    0    0  501    0  0.00000000000E+00  0.00000000000E+00  0.25063388186E+04  0.25063388186E+04  0.25500000920E-02 0. -1.
       -2   -1    0    0    0  501  0.00000000000E+00  0.00000000000E+00 -0.90833644702E+03  0.90833644702E+03  0.25500000920E-02 0.  1.
    10030    2    1    2    0    0  0.00000000000E+00  0.00000000000E+00  0.15980023716E+04  0.34146752656E+04  0.30176804984E+04 0.  0.
        1    1    3    3  502    0  0.91081913385E+03  0.98852721757E+03  0.15746096207E+04  0.20703074680E+04  0.50400001928E-02 0. -1.
       -1    1    3    3    0  502 -0.91081913385E+03 -0.98852721757E+03  0.23392750895E+02  0.13443677976E+04  0.50400001928E-02 0.  1.
</event>
<event>
 5   0  0.3242047E-07  0.3521418E+04  0.7818609E-02  0.8108733E-01
        1   -1    0    0  501    0  0.00000000000E+00  0.00000000000E+00  0.22409780290E+04  0.22409780290E+04  0.50400001928E-02 0. -1.
       -1   -1    0    0    0  501  0.00000000000E+00  0.00000000000E+00 -0.13833672240E+04  0.13833672240E+04  0.50400001928E-02 0.  1.
    10030    2    1    2    0    0  0.00000000000E+00  0.00000000000E+00  0.85761080504E+03  0.36243452531E+04  0.35214176436E+04 0.  0.
        1    1    3    3  502    0  0.10513874324E+04  0.22387562552E+03 -0.10064284492E+04  0.14725603730E+04  0.50400001928E-02 0.  1.
       -1    1    3    3    0  502 -0.10513874324E+04 -0.22387562552E+03  0.18640392543E+04  0.21517848801E+04  0.50400001928E-02 0. -1.
</event>
<event>
 5   0  0.9878336E-07  0.3536664E+04  0.7818609E-02  0.8105156E-01
       -2   -1    0    0    0  501  0.00000000000E+00  0.00000000000E+00  0.13924098113E+04  0.13924098113E+04  0.25500000920E-02 0.  1.
        2   -1    0    0  501    0  0.00000000000E+00  0.00000000000E+00 -0.22457458126E+04  0.22457458126E+04  0.25500000920E-02 0. -1.
    10030    2    1    2    0    0  0.00000000000E+00  0.00000000000E+00 -0.85333600132E+03  0.36381556239E+04  0.35366642493E+04 0.  0.
        3    1    3    3  502    0 -0.89388049040E+03  0.10146047829E+04 -0.15989101407E+04  0.20940293324E+04  0.10100000352E+00 0. -1.
       -3    1    3    3    0  502  0.89388049040E+03 -0.10146047829E+04  0.74557413940E+03  0.15441262915E+04  0.10100000352E+00 0.  1.
</event>
<event>
 5   0  0.9878336E-07  0.3569208E+04  0.7818609E-02  0.8097582E-01
        2   -1    0    0  501    0  0.00000000000E+00  0.00000000000E+00  0.19750756927E+04  0.19750756927E+04  0.25500000920E-02 0. -1.
       -2   -1    0    0    0  501  0.00000000000E+00  0.00000000000E+00 -0.16125008113E+04  0.16125008113E+04  0.25500000920E-02 0.  1.
    10030    2    1    2    0    0  0.00000000000E+00  0.00000000000E+00  0.36257488133E+03  0.35875765040E+04  0.35692078431E+04 0.  0.
        3    1    3    3  502    0 -0.98241818562E+03 -0.52600496615E+02  0.16778754825E+04  0.19450394465E+04  0.10100000352E+00 0. -1.
       -3    1    3    3    0  502  0.98241818562E+03  0.52600496615E+02 -0.13153006011E+04  0.16425370575E+04  0.10100000352E+00 0.  1.
</event>
<event>
 5   0  0.9538919E-07  0.2697579E+04  0.7818609E-02  0.8335791E-01
       -2   -1    0    0    0  501  0.00000000000E+00  0.00000000000E+00  0.18310058536E+04  0.18310058536E+04  0.25500000920E-02 0.  1.
        2   -1    0    0  501    0  0.00000000000E+00  0.00000000000E+00 -0.99357010500E+03  0.99357010500E+03  0.25500000920E-02 0. -1.
    10030    2    1    2    0    0  0.00000000000E+00  0.00000000000E+00  0.83743574860E+03  0.28245759586E+04  0.26975786759E+04 0.  0.
        4    1    3    3  502    0  0.46942905076E+03 -0.40170718477E+03  0.16741200563E+04  0.17844920487E+04  0.12699999809E+01 0.  1.
       -4    1    3    3    0  502 -0.46942905076E+03  0.40170718477E+03 -0.83668430771E+03  0.10400839099E+04  0.12699999809E+01 0. -1.
</event>
<event>
 5   0  0.3159875E-07  0.3633702E+04  0.7818609E-02  0.8082815E-01
        1   -1    0    0  501    0  0.00000000000E+00  0.00000000000E+00  0.19077446908E+04  0.19077446908E+04  0.50400001928E-02 0.  1.
       -1   -1    0    0    0  501  0.00000000000E+00  0.00000000000E+00 -0.17302874794E+04  0.17302874794E+04  0.50400001928E-02 0. -1.
    10030    2    1    2    0    0  0.00000000000E+00  0.00000000000E+00  0.17745721146E+03  0.36380321702E+04  0.36337015576E+04 0.  0.
        5    1    3    3  502    0  0.60736894875E+03  0.12195004364E+04 -0.11147215469E+04  0.17603137707E+04  0.46999998093E+01 0. -1.
       -5    1    3    3    0  502 -0.60736894875E+03 -0.12195004364E+04  0.12921787584E+04  0.18777183995E+04  0.46999998093E+01 0.  1.
</event>
<event>
 5   0  0.9538919E-07  0.3344901E+04  0.7818609E-02  0.8151563E-01
       -2   -1    0    0    0  501  0.00000000000E+00  0.00000000000E+00  0.14280699247E+04  0.14280699247E+04  0.25500000920E-02 0.  1.
        2   -1    0    0  501    0  0.00000000000E+00  0.00000000000E+00 -0.19586514461E+04  0.19586514461E+04  0.25500000920E-02 0. -1.
    10030    2    1    2    0    0  0.00000000000E+00  0.00000000000E+00 -0.53058152143E+03  0.33867213708E+04  0.33449013278E+04 0.  0.
        4    1    3    3  502    0  0.16681689279E+04  0.11958866058E+03 -0.26451259807E+03  0.16932387744E+04  0.12699999809E+01 0.  1.
       -4    1    3    3    0  502 -0.16681689279E+04 -0.11958866058E+03 -0.26606892336E+03  0.16934825964E+04  0.12699999809E+01 0. -1.
</event>
<event>
 5   0  0.3159875E-07  0.3456315E+04  0.7818609E-02  0.8124221E-01
        1   -1    0    0  501    0  0.00000000000E+00  0.00000000000E+00  0.24873066616E+04  0.24873066616E+04  0.50400001928E-02 0. -1.
       -1   -1    0    0    0  501  0.00000000000E+00  0.00000000000E+00 -0.12007080228E+04  0.12007080228E+04  0.50400001928E-02 0.  1.
    10030    2    1    2    0    0  0.00000000000E+00  0.00000000000E+00  0.12865986389E+04  0.36880146844E+04  0.34563154160E+04 0.  0.
        5    1    3    3  502    0 -0.11055411094E+04 -0.98444621054E+03  0.15947892819E+04  0.21759435722E+04  0.46999998093E+01 0. -1.
       -5    1    3    3    0  502  0.11055411094E+04  0.98444621054E+03 -0.30819064303E+03  0.15120711122E+04  0.46999998093E+01 0.  1.
</event>
<event>
 5   0  0.1006019E-06  0.3631793E+04  0.7818609E-02  0.8083248E-01
        2   -1    0    0  501    0  0.00000000000E+00  0.00000000000E+00  0.16038753196E+04  0.16038753196E+04  0.25500000920E-02 0. -1.
       -2   -1    0    0    0  501  0.00000000000E+00  0.00000000000E+00 -0.20559450502E+04  0.20559450502E+04  0.25500000920E-02 0.  1.
    10030    2    1    2    0    0  0.00000000000E+00  0.00000000000E+00 -0.45206973064E+03  0.36598203698E+04  0.36317926838E+04 0.  0.
        1    1    3    3  502    0 -0.77614772394E+03  0.11658513243E+04  0.93868100735E+03  0.16860417057E+04  0.50400001928E-02 0. -1.
       -1    1    3    3    0  502  0.77614772394E+03 -0.11658513243E+04 -0.13907507380E+04  0.19737786641E+04  0.50400001928E-02 0.  1.
</event>
<event>
 5   0  0.3159875E-07  0.2667763E+04  0.7818609E-02  0.8345541E-01
       -1   -1    0    0    0  501  0.00000000000E+00  0.00000000000E+00  0.74229343762E+03  0.74229343764E+03  0.50400001928E-02 0. -1.
        1   -1    0    0  501    0  0.00000000000E+00  0.00000000000E+00 -0.23969503595E+04  0.23969503595E+04  0.50400001928E-02 0.  1.
    10030    2    1    2    0    0  0.00000000000E+00  0.00000000000E+00 -0.16546569219E+04  0.31392437972E+04  0.26677634994E+04 0.  0.
        2    1    3    3  502    0  0.82046414791E+03 -0.75582591781E+03 -0.16878781862E+04  0.20232071094E+04  0.25500000920E-02 0. -1.
       -2    1    3    3    0  502 -0.82046414791E+03  0.75582591781E+03  0.33221264310E+02  0.11160366878E+04  0.25500000920E-02 0.  1.
</event>
<event>
 5   0  0.9878977E-07  0.3613544E+04  0.7818609E-02  0.8087396E-01
        2   -1    0    0  501    0  0.00000000000E+00  0.00000000000E+00  0.18646950004E+04  0.18646950004E+04  0.25500000920E-02 0. -1.
       -2   -1    0    0    0  501  0.00000000000E+00  0.00000000000E+00 -0.17506484437E+04  0.17506484437E+04  0.25500000920E-02 0.  1.
    10030    2    1    2    0    0  0.00000000000E+00  0.00000000000E+00  0.11404655665E+03  0.36153434441E+04  0.36135441885E+04 0.  0.
        5    1    3    3  502    0 -0.13786912445E+04 -0.62105408433E+03  0.10464067565E+04  0.18388819738E+04  0.46999998093E+01 0. -1.
       -5    1    3    3    0  502  0.13786912445E+04  0.62105408433E+03 -0.93236019988E+03  0.17764614704E+04  0.46999998093E+01 0.  1.
</event>
<event>
 5   0  0.3365378E-07  0.3591336E+04  0.7818609E-02  0.8092479E-01
        1   -1    0    0  501    0  0.00000000000E+00  0.00000000000E+00  0.25874866633E+04  0.25874866633E+04  0.50400001928E-02 0.  1.
       -1   -1    0    0    0  501  0.00000000000E+00  0.00000000000E+00 -0.12461602357E+04  0.12461602357E+04  0.50400001928E-02 0. -1.
    10030    2    1    2    0    0  0.00000000000E+00  0.00000000000E+00  0.13413264276E+04  0.38336468990E+04  0.35913356792E+04 0.  0.
        3    1    3    3  502    0 -0.42412021455E+03  0.15070648811E+04  0.16093706227E+04  0.22452608587E+04  0.10100000352E+00 0.  1.
       -3    1    3    3    0  502  0.42412021455E+03 -0.15070648811E+04 -0.26804419511E+03  0.15883860403E+04  0.10100000352E+00 0. -1.
</event>
<event>
 5   0  0.3365378E-07  0.3574445E+04  0.7818609E-02  0.8096371E-01
        1   -1    0    0  501    0  0.00000000000E+00  0.00000000000E+00  0.19069876923E+04  0.19069876923E+04  0.50400001928E-02 0. -1.
       -1   -1    0    0    0  501  0.00000000000E+00  0.00000000000E+00 -0.16749785872E+04  0.16749785872E+04  0.50400001928E-02 0.  1.
    10030    2    1    2    0    0  0.00000000000E+00  0.00000000000E+00  0.23200910512E+03  0.35819662796E+04  0.35744446006E+04 0.  0.
        3    1    3    3  502    0 -0.55506281949E+03 -0.15802173030E+04  0.74100124809E+03  0.18314650742E+04  0.10100000352E+00 0. -1.
       -3    1    3    3    0  502  0.55506281949E+03  0.15802173030E+04 -0.50899214297E+03  0.17505012054E+04  0.10100000352E+00 0.  1.
</event>
<event>
 5   0  0.3365378E-07  0.3601163E+04  0.7818609E-02  0.8090225E-01
       -1   -1    0    0    0  501  0.00000000000E+00  0.00000000000E+00  0.10737961162E+04  0.10737961162E+04  0.50400001928E-02 0.  1.
        1   -1    0    0  501    0  0.00000000000E+00  0.00000000000E+00 -0.30192831326E+04  0.30192831326E+04  0.50400001928E-02 0. -1.
    10030    2    1    2    0    0  0.00000000000E+00  0.00000000000E+00 -0.19454870165E+04  0.40930792488E+04  0.36011634239E+04 0.  0.
        3    1    3    3  502    0  0.15828866708E+04 -0.38547422210E+03 -0.10120546713E+03  0.16322877030E+04  0.10100000352E+00 0.  1.
       -3    1    3    3    0  502 -0.15828866708E+04  0.38547422210E+03 -0.18442815493E+04  0.24607915458E+04  0.10100000352E+00 0. -1.
</event>
<event>
 5   0  0.3159875E-07  0.3598523E+04  0.7818609E-02  0.8090830E-01
        1   -1    0    0  501    0  0.00000000000E+00  0.00000000000E+00  0.14763771699E+04  0.14763771699E+04  0.50400001928E-02 0. -1.
       -1   -1    0    0    0  501  0.00000000000E+00  0.00000000000E+00 -0.21927610417E+04  0.21927610417E+04  0.50400001928E-02 0.  1.
    10030    2    1    2    0    0  0.00000000000E+00  0.00000000000E+00 -0.71638387180E+03  0.36691382116E+04  0.35985232199E+04 0.  0.
        2    1    3    3  502    0  0.14072324428E+04  0.10467320793E+04 -0.76781048617E+03  0.19145454125E+04  0.25500000920E-02 0.  1.
       -2    1    3    3    0  502 -0.14072324428E+04 -0.10467320793E+04  0.51426614367E+02  0.17545927991E+04  0.25500000920E-02 0. -1.
</event>
<event>
 5   0  0.3159875E-07  0.3551857E+04  0.7818609E-02  0.8101609E-01
        1   -1    0    0  501    0  0.00000000000E+00  0.00000000000E+00  0.19068805495E+04  0.19068805495E+04  0.50400001928E-02 0. -1.
       -1   -1    0    0    0  501  0.00000000000E+00  0.00000000000E+00 -0.16539689632E+04  0.16539689632E+04  0.50400001928E-02 0.  1.
    10030    2    1    2    0    0  0.00000000000E+00  0.00000000000E+00  0.25291158638E+03  0.35608495127E+04  0.35518565542E+04 0.  0.
        5    1    3    3  502    0  0.93755645801E+03  0.10908692260E+04  0.11706741664E+04  0.18545910260E+04  0.46999998093E+01 0. -1.
       -5    1    3    3    0  502 -0.93755645801E+03 -0.10908692260E+04 -0.91776257999E+03  0.17062584867E+04  0.46999998093E+01 0.  1.
</event>
<event>
 5   0  0.9878977E-07  0.3432466E+04  0.7818609E-02  0.8129984E-01
        2   -1    0    0  501    0  0.00000000000E+00  0.00000000000E+00  0.16562843189E+04  0.16562843189E+04  0.25500000920E-02 0. -1.
       -2   -1    0    0    0  501  0.00000000000E+00  0.00000000000E+00 -0.17783518160E+04  0.17783518160E+04  0.25500000920E-02 0.  1.
    10030    2    1    2    0    0  0.00000000000E+00  0.00000000000E+00 -0.12206749705E+03  0.34346361350E+04  0.34324663007E+04 0.  0.
        5    1    3    3  502    0 -0.12251306973E+04  0.20922995033E+01  0.11415931150E+04  0.16745765236E+04  0.46999998093E+01 0. -1.
       -5    1    3    3    0  502  0.12251306973E+04 -0.20922995033E+01 -0.12636606120E+04  0.17600596114E+04  0.46999998093E+01 0.  1.
</event>
<event>
 5   0  0.3159875E-07  0.3547636E+04  0.7818609E-02  0.8102593E-01
       -3   -1    0    0    0  501  0.00000000000E+00  0.00000000000E+00  0.27728306634E+04  0.27728306652E+04  0.10100000352E+00 0. -1.
        3   -1    0    0  501    0  0.00000000000E+00  0.00000000000E+00 -0.11347359377E+04  0.11347359422E+04  0.10100000352E+00 0.  1.
    10030    2    1    2    0    0  0.00000000000E+00  0.00000000000E+00  0.16380947257E+04  0.39075666074E+04  0.35476361794E+04 0.  0.
        1    1    3    3  502    0  0.13586150135E+04  0.89429155613E+03  0.15985474279E+04  0.22805582697E+04  0.50400001928E-02 0. -1.
       -1    1    3    3    0  502 -0.13586150135E+04 -0.89429155613E+03  0.39547297823E+02  0.16270083377E+04  0.50400001928E-02 0.  1.
</event>
<event>
 5   0  0.1006019E-06  0.3396377E+04  0.7818609E-02  0.8138796E-01
       -2   -1    0    0    0  501  0.00000000000E+00  0.00000000000E+00  0.18261211400E+04  0.18261211400E+04  0.25500000920E-02 0. -1.
        2   -1    0    0  501    0  0.00000000000E+00  0.00000000000E+00 -0.15792185841E+04  0.15792185841E+04  0.25500000920E-02 0.  1.
    10030    2    1    2    0    0  0.00000000000E+00  0.00000000000E+00  0.24690255597E+03  0.34053397241E+04  0.33963771528E+04 0.  0.
        1    1    3    3  502    0  0.15854176462E+03 -0.56979724388E+03 -0.14726162838E+04  0.15869477337E+04  0.50400001928E-02 0.  1.
       -1    1    3    3    0  502 -0.15854176462E+03  0.56979724388E+03  0.17195188398E+04  0.18183919904E+04  0.50400001928E-02 0. -1.
</event>
<event>
 5   0  0.3242047E-07  0.3611013E+04  0.7818609E-02  0.8087974E-01
       -1   -1    0    0    0  501  0.00000000000E+00  0.00000000000E+00  0.22561136586E+04  0.22561136586E+04  0.50400001928E-02 0.  1.
        1   -1    0    0  501    0  0.00000000000E+00  0.00000000000E+00 -0.14448980226E+04  0.14448980226E+04  0.50400001928E-02 0. -1.
    10030    2    1    2    0    0  0.00000000000E+00  0.00000000000E+00  0.81121563596E+03  0.37010116812E+04  0.36110132451E+04 0.  0.
        1    1    3    3  502    0  0.10907769896E+04  0.13776584468E+04 -0.19601884779E+02  0.17573051730E+04  0.50400001928E-02 0. -1.
       -1    1    3    3    0  502 -0.10907769896E+04 -0.13776584468E+04  0.83081752074E+03  0.19437065082E+04  0.50400001928E-02 0.  1.
</event>
<event>
 5   0  0.9538919E-07  0.3628205E+04  0.7818609E-02  0.8084061E-01
       -2   -1    0    0    0  501  0.00000000000E+00  0.00000000000E+00  0.14857794387E+04  0.14857794387E+04  0.25500000920E-02 0.  1.
        2   -1    0    0  501    0  0.00000000000E+00  0.00000000000E+00 -0.22149778145E+04  0.22149778145E+04  0.25500000920E-02 0. -1.
    10030    2    1    2    0    0  0.00000000000E+00  0.00000000000E+00 -0.72919837577E+03  0.37007572532E+04  0.36282053382E+04 0.  0.
        4    1    3    3  502    0 -0.77114410169E+03  0.15625820363E+04 -0.87930957984E+03  0.19517973245E+04  0.12699999809E+01 0.  1.
       -4    1    3    3    0  502  0.77114410169E+03 -0.15625820363E+04  0.15011120408E+03  0.17489599287E+04  0.12699999809E+01 0. -1.
</event>
<event>
 5   0  0.9878336E-07  0.3610830E+04  0.7818609E-02  0.8088016E-01
       -2   -1    0    0    0  501  0.00000000000E+00  0.00000000000E+00  0.16872502391E+04  0.16872502391E+04  0.25500000920E-02 0. -1.
        2   -1    0    0  501    0  0.00000000000E+00  0.00000000000E+00 -0.19318550223E+04  0.19318550223E+04  0.25500000920E-02 0.  1.
    10030    2    1    2    0    0  0.00000000000E+00  0.00000000000E+00 -0.24460478321E+03  0.36191052614E+04  0.36108297375E+04 0.  0.
        3    1    3    3  502    0  0.14208891442E+04  0.66196291230E+02 -0.12367026298E+04  0.18848716969E+04  0.10100000352E+00 0.  1.
       -3    1    3    3    0  502 -0.14208891442E+04 -0.66196291230E+02  0.99209784656E+03  0.17342335645E+04  0.10100000352E+00 0. -1.
</event>
<event>
 5   0  0.3365378E-07  0.2991095E+04  0.7818609E-02  0.8246278E-01
       -1   -1    0    0    0  501  0.00000000000E+00  0.00000000000E+00  0.15169935341E+04  0.15169935342E+04  0.50400001928E-02 0. -1.
        1   -1    0    0  501    0  0.00000000000E+00  0.00000000000E+00 -0.14744050081E+04  0.14744050081E+04  0.50400001928E-02 0.  1.
    10030    2    1    2    0    0  0.00000000000E+00  0.00000000000E+00  0.42588526022E+02  0.29913985423E+04  0.29910953606E+04 0.  0.
        3    1    3    3  502    0 -0.18498642794E+03 -0.17272943394E+03 -0.14528318773E+04  0.14747121447E+04  0.10100000352E+00 0.  1.
       -3    1    3    3    0  502  0.18498642794E+03  0.17272943394E+03  0.14954204033E+04  0.15166863976E+04  0.10100000352E+00 0. -1.
</event>
<event>
 5   0  0.3159875E-07  0.3594312E+04  0.7818609E-02  0.8091796E-01
       -1   -1    0    0    0  501  0.00000000000E+00  0.00000000000E+00  0.15594145985E+04  0.15594145985E+04  0.50400001928E-02 0.  1.
        1   -1    0    0  501    0  0.00000000000E+00  0.00000000000E+00 -0.20711425021E+04  0.20711425022E+04  0.50400001928E-02 0. -1.
    10030    2    1    2    0    0  0.00000000000E+00  0.00000000000E+00 -0.51172790368E+03  0.36305571006E+04  0.35943120918E+04 0.  0.
        5    1    3    3  502    0 -0.51685259046E+03 -0.15349197466E+04 -0.10425842164E+04  0.19261669624E+04  0.46999998093E+01 0. -1.
       -5    1    3    3    0  502  0.51685259046E+03  0.15349197466E+04  0.53085631271E+03  0.17043901383E+04  0.46999998093E+01 0.  1.
</event>
<event>
 5   0  0.3278988E-07  0.3631002E+04  0.7818609E-02  0.8083427E-01
       -1   -1    0    0    0  501  0.00000000000E+00  0.00000000000E+00  0.12674166023E+04  0.12674166023E+04  0.50400001928E-02 0.  1.
        1   -1    0    0  501    0  0.00000000000E+00  0.00000000000E+00 -0.26005997156E+04  0.26005997156E+04  0.50400001928E-02 0. -1.
    10030    2    1    2    0    0  0.00000000000E+00  0.00000000000E+00 -0.13331831133E+04  0.38680163179E+04  0.36310016554E+04 0.  0.
        4    1    3    3  502    0  0.14596008648E+04  0.88536871686E+03 -0.84193515689E+01  0.17071569780E+04  0.12699999809E+01 0.  1.
       -4    1    3    3    0  502 -0.14596008648E+04 -0.88536871686E+03 -0.13247637617E+04  0.21608593398E+04  0.12699999809E+01 0. -1.
</event>
<event>
 5   0  0.9878336E-07  0.2884101E+04  0.7818609E-02  0.8277624E-01
       -2   -1    0    0    0  501  0.00000000000E+00  0.00000000000E+00  0.12639094976E+04  0.12639094976E+04  0.25500000920E-02 0.  1.
        2   -1    0    0  501    0  0.00000000000E+00  0.00000000000E+00 -0.16452999821E+04  0.16452999821E+04  0.25500000920E-02 0. -1.
    10030    2    1    2    0    0  0.00000000000E+00  0.00000000000E+00 -0.38139048450E+03  0.29092094796E+04  0.28841014363E+04 0.  0.
        3    1    3    3  502    0 -0.28688653514E+03  0.74800609369E+03  0.10187816688E+04  0.12960451764E+04  0.10100000352E+00 0.  1.
       -3    1    3    3    0  502  0.28688653514E+03 -0.74800609369E+03 -0.14001721533E+04  0.16131643033E+04  0.10100000352E+00 0. -1.
</event>
<event>
 5   0  0.1031659E-06  0.3610815E+04  0.7818609E-02  0.8088019E-01
        2   -1    0    0  501    0  0.00000000000E+00  0.00000000000E+00  0.23152862558E+04  0.23152862558E+04  0.25500000920E-02 0. -1.
       -2   -1    0    0    0  501  0.00000000000E+00  0.00000000000E+00 -0.14078157010E+04  0.14078157010E+04  0.25500000920E-02 0.  1.
    10030    2    1    2    0    0  0.00000000000E+00  0.00000000000E+00  0.90747055482E+03  0.37231019569E+04  0.36108150567E+04 0.  0.
        2    1    3    3  502    0  0.13039431234E+04  0.23756038117E+03 -0.81027141498E+03  0.15534614156E+04  0.25500000920E-02 0.  1.
       -2    1    3    3    0  502 -0.13039431234E+04 -0.23756038117E+03  0.17177419698E+04  0.21696405413E+04  0.25500000920E-02 0. -1.
</event>
<event>
 5   0  0.9878336E-07  0.3598057E+04  0.7818609E-02  0.8090937E-01
        2   -1    0    0  501    0  0.00000000000E+00  0.00000000000E+00  0.29694471797E+04  0.29694471797E+04  0.25500000920E-02 0. -1.
       -2   -1    0    0    0  501  0.00000000000E+00  0.00000000000E+00 -0.10899347082E+04  0.10899347082E+04  0.25500000920E-02 0.  1.
    10030    2    1    2    0    0  0.00000000000E+00  0.00000000000E+00  0.18795124715E+04  0.40593818880E+04  0.35980570009E+04 0.  0.
        3    1    3    3  502    0  0.62176810817E+03  0.10663058800E+04  0.24163391549E+04  0.27133556221E+04  0.10100000352E+00 0. -1.
       -3    1    3    3    0  502 -0.62176810817E+03 -0.10663058800E+04 -0.53682668346E+03  0.13460262659E+04  0.10100000352E+00 0.  1.
</event>
<event>
 5   0  0.1031659E-06  0.3164605E+04  0.7818609E-02  0.8198228E-01
       -2   -1    0    0    0  501  0.00000000000E+00  0.00000000000E+00  0.13826595981E+04  0.13826595981E+04  0.25500000920E-02 0. -1.
        2   -1    0    0  501    0  0.00000000000E+00  0.00000000000E+00 -0.18107721635E+04  0.18107721635E+04  0.25500000920E-02 0.  1.
    10030    2    1    2    0    0  0.00000000000E+00  0.00000000000E+00 -0.42811256540E+03  0.31934317617E+04  0.31646051962E+04 0.  0.
        2    1    3    3  502    0 -0.51074432633E+03  0.14008481016E+04 -0.74845202951E+03  0.16683571593E+04  0.25500000920E-02 0.  1.
       -2    1    3    3    0  502  0.51074432633E+03 -0.14008481016E+04  0.32033946411E+03  0.15250746024E+04  0.25500000920E-02 0. -1.
</event>
<event>
 5   0  0.9878336E-07  0.3767938E+04  0.7818609E-02  0.8053071E-01
        2   -1    0    0  501    0  0.00000000000E+00  0.00000000000E+00  0.20362614967E+04  0.20362614967E+04  0.25500000920E-02 0. -1.
       -2   -1    0    0    0  501  0.00000000000E+00  0.00000000000E+00 -0.17430664794E+04  0.17430664794E+04  0.25500000920E-02 0.  1.
    10030    2    1    2    0    0  0.00000000000E+00  0.00000000000E+00  0.29319501731E+03  0.37793279761E+04  0.37679379816E+04 0.  0.
        3    1    3    3  502    0  0.46199176191E+03  0.59995115082E+03  0.18769097554E+04  0.20238992099E+04  0.10100000352E+00 0. -1.
       -3    1    3    3    0  502 -0.46199176191E+03 -0.59995115082E+03 -0.15837147381E+04  0.17554287663E+04  0.10100000352E+00 0.  1.
</event>
<event>
 5   0  0.9878977E-07  0.3575794E+04  0.7818609E-02  0.8096059E-01
       -2   -1    0    0    0  501  0.00000000000E+00  0.00000000000E+00  0.25597021978E+04  0.25597021978E+04  0.25500000920E-02 0.  1.
        2   -1    0    0  501    0  0.00000000000E+00  0.00000000000E+00 -0.12488074599E+04  0.12488074599E+04  0.25500000920E-02 0. -1.
    10030    2    1    2    0    0  0.00000000000E+00  0.00000000000E+00  0.13108947379E+04  0.38085096577E+04  0.35757937299E+04 0.  0.
        5    1    3    3  502    0 -0.18335608088E+03 -0.17270084082E+04  0.11077941616E+04  0.20599532735E+04  0.46999998093E+01 0.  1.
       -5    1    3    3    0  502  0.18335608088E+03  0.17270084082E+04  0.20310057630E+03  0.17485563842E+04  0.46999998093E+01 0. -1.
</event>
<event>
 5   0  0.9538919E-07  0.3553790E+04  0.7818609E-02  0.8101159E-01
       -2   -1    0    0    0  501  0.00000000000E+00  0.00000000000E+00  0.11793617819E+04  0.11793617819E+04  0.25500000920E-02 0. -1.
        2   -1    0    0  501    0  0.00000000000E+00  0.00000000000E+00 -0.26771735986E+04  0.26771735986E+04  0.25500000920E-02 0.  1.
    10030    2    1    2    0    0  0.00000000000E+00  0.00000000000E+00 -0.14978118168E+04  0.38565353805E+04  0.35537902165E+04 0.  0.
        4    1    3    3  502    0 -0.12767380833E+04 -0.55472707544E+03  0.44951483488E+03  0.14628217463E+04  0.12699999809E+01 0. -1.
       -4    1    3    3    0  502  0.12767380833E+04  0.55472707544E+03 -0.19473266516E+04  0.23937136342E+04  0.12699999809E+01 0.  1.
</event>
<event>
 5   0  0.9538919E-07  0.3549812E+04  0.7818609E-02  0.8102086E-01
       -2   -1    0    0    0  501  0.00000000000E+00  0.00000000000E+00  0.17744981689E+04  0.17744981689E+04  0.25500000920E-02 0.  1.
        2   -1    0    0  501    0  0.00000000000E+00  0.00000000000E+00 -0.17753137513E+04  0.17753137513E+04  0.25500000920E-02 0. -1.
    10030    2    1    2    0    0  0.00000000000E+00  0.00000000000E+00 -0.81558238323E+00  0.35498119202E+04  0.35498118265E+04 0.  0.
        4    1    3    3  502    0 -0.13272087412E+04 -0.75588375338E+03  0.90371948962E+03  0.17746982335E+04  0.12699999809E+01 0.  1.
       -4    1    3    3    0  502  0.13272087412E+04  0.75588375338E+03 -0.90453507200E+03  0.17751136867E+04  0.12699999809E+01 0. -1.
</event>
<event>
 5   0  0.3242047E-07  0.3644666E+04  0.7818609E-02  0.8080336E-01
        1   -1    0    0  501    0  0.00000000000E+00  0.00000000000E+00  0.23000356704E+04  0.23000356704E+04  0.50400001928E-02 0. -1.
       -1   -1    0    0    0  501  0.00000000000E+00  0.00000000000E+00 -0.14438459129E+04  0.14438459129E+04  0.50400001928E-02 0.  1.
    10030    2    1    2    0    0  0.00000000000E+00  0.00000000000E+00  0.85618975743E+03  0.37438815833E+04  0.36446657472E+04 0.  0.
        1    1    3    3  502    0 -0.14948889584E+03 -0.17077994676E+04  0.10629573862E+04  0.20171277491E+04  0.50400001928E-02 0.  1.
       -1    1    3    3    0  502  0.14948889584E+03  0.17077994676E+04 -0.20676762879E+03  0.17267538342E+04  0.50400001928E-02 0. -1.
</event>
<event>
 5   0  0.1031659E-06  0.3554362E+04  0.7818609E-02  0.8101026E-01
       -2   -1    0    0    0  501  0.00000000000E+00  0.00000000000E+00  0.20261429476E+04  0.20261429476E+04  0.25500000920E-02 0. -1.
        2   -1    0    0  501    0  0.00000000000E+00  0.00000000000E+00 -0.15588102219E+04  0.15588102219E+04  0.25500000920E-02 0.  1.
    10030    2    1    2    0    0  0.00000000000E+00  0.00000000000E+00  0.46733272572E+03  0.35849531696E+04  0.35543620175E+04 0.  0.
        2    1    3    3  502    0 -0.83643604294E+03 -0.10133724561E+04  0.14405531916E+04  0.19498057561E+04  0.25500000920E-02 0. -1.
       -2    1    3    3    0  502  0.83643604294E+03  0.10133724561E+04 -0.97322046586E+03  0.16351474135E+04  0.25500000920E-02 0.  1.
</event>
<event>
 5   0  0.3159875E-07  0.3693145E+04  0.7818609E-02  0.8069483E-01
        1   -1    0    0  501    0  0.00000000000E+00  0.00000000000E+00  0.10408507140E+04  0.10408507140E+04  0.50400001928E-02 0. -1.
       -1   -1    0    0    0  501  0.00000000000E+00  0.00000000000E+00 -0.32760022454E+04  0.32760022454E+04  0.50400001928E-02 0.  1.
    10030    2    1    2    0    0  0.00000000000E+00  0.00000000000E+00 -0.22351515314E+04  0.43168529595E+04  0.36931446093E+04 0.  0.
        5    1    3    3  502    0  0.14263650551E+04  0.10055772163E+04 -0.41225951041E+03  0.17932325009E+04  0.46999998093E+01 0. -1.
       -5    1    3    3    0  502 -0.14263650551E+04 -0.10055772163E+04 -0.18228920210E+04  0.25236204585E+04  0.46999998093E+01 0.  1.
</event>
<event>
 5   0  0.3242047E-07  0.2920924E+04  0.7818609E-02  0.8266679E-01
       -1   -1    0    0    0  501  0.00000000000E+00  0.00000000000E+00  0.18431605524E+04  0.18431605524E+04  0.50400001928E-02 0.  1.
        1   -1    0    0  501    0  0.00000000000E+00  0.00000000000E+00 -0.11572237381E+04  0.11572237382E+04  0.50400001928E-02 0. -1.
    10030    2    1    2    0    0  0.00000000000E+00  0.00000000000E+00  0.68593681421E+03  0.30003842905E+04  0.29209239254E+04 0.  0.
        1    1    3    3  502    0 -0.14402717650E+04  0.97570175645E+02  0.57045741590E+03  0.15521998452E+04  0.50400001928E-02 0.  1.
       -1    1    3    3    0  502  0.14402717650E+04 -0.97570175645E+02  0.11547939831E+03  0.14481844453E+04  0.50400001928E-02 0. -1.
</event>
<event>
 5   0  0.3159875E-07  0.2996337E+04  0.7818609E-02  0.8244778E-01
        1   -1    0    0  501    0  0.00000000000E+00  0.00000000000E+00  0.25444814643E+04  0.25444814643E+04  0.50400001928E-02 0. -1.
       -1   -1    0    0    0  501  0.00000000000E+00  0.00000000000E+00 -0.88210871696E+03  0.88210871698E+03  0.50400001928E-02 0.  1.
    10030    2    1    2    0    0  0.00000000000E+00  0.00000000000E+00  0.16623727473E+04  0.34265901813E+04  0.29963372840E+04 0.  0.
        5    1    3    3  502    0 -0.11396077164E+04 -0.38525961928E+03  0.18523556237E+04  0.22087041830E+04  0.46999998093E+01 0. -1.
       -5    1    3    3    0  502  0.11396077164E+04  0.38525961928E+03 -0.18998287638E+03  0.12178859983E+04  0.46999998093E+01 0.  1.
</event>
<event>
 5   0  0.1006019E-06  0.3296092E+04  0.7818609E-02  0.8163890E-01
        2   -1    0    0  501    0  0.00000000000E+00  0.00000000000E+00  0.23528476654E+04  0.23528476654E+04  0.25500000920E-02 0.  1.
       -2   -1    0    0    0  501  0.00000000000E+00  0.00000000000E+00 -0.11543697401E+04  0.11543697401E+04  0.25500000920E-02 0. -1.
    10030    2    1    2    0    0  0.00000000000E+00  0.00000000000E+00  0.11984779252E+04  0.35072174055E+04  0.32960923215E+04 0.  0.
        1    1    3    3  502    0 -0.40810626012E+03 -0.15964946290E+04  0.62759808693E+03  0.17632995147E+04  0.50400001928E-02 0. -1.
       -1    1    3    3    0  502  0.40810626012E+03  0.15964946290E+04  0.57087983829E+03  0.17439178908E+04  0.50400001928E-02 0.  1.
</event>
<event>
 5   0  0.9878336E-07  0.3559805E+04  0.7818609E-02  0.8099761E-01
       -2   -1    0    0    0  501  0.00000000000E+00  0.00000000000E+00  0.13675667701E+04  0.13675667701E+04  0.25500000920E-02 0.  1.
        2   -1    0    0  501    0  0.00000000000E+00  0.00000000000E+00 -0.23165621189E+04  0.23165621189E+04  0.25500000920E-02 0. -1.
    10030    2    1    2    0    0  0.00000000000E+00  0.00000000000E+00 -0.94899534882E+03  0.36841288890E+04  0.35598052614E+04 0.  0.
        3    1    3    3  502    0 -0.10297286666E+04  0.11350038721E+04  0.46236803422E+03  0.16007370570E+04  0.10100000352E+00 0.  1.
       -3    1    3    3    0  502  0.10297286666E+04 -0.11350038721E+04 -0.14113633830E+04  0.20833918320E+04  0.10100000352E+00 0. -1.
</event>
<event>
 5   0  0.9878977E-07  0.3663622E+04  0.7818609E-02  0.8076072E-01
       -2   -1    0    0    0  501  0.00000000000E+00  0.00000000000E+00  0.19481017114E+04  0.19481017114E+04  0.25500000920E-02 0.  1.
        2   -1    0    0  501    0  0.00000000000E+00  0.00000000000E+00 -0.17224619807E+04  0.17224619807E+04  0.25500000920E-02 0. -1.
    10030    2    1    2    0    0  0.00000000000E+00  0.00000000000E+00  0.22563973068E+03  0.36705636921E+04  0.36636217777E+04 0.  0.
        5    1    3    3  502    0  0.14583880173E+04 -0.27047968797E+03 -0.96413746089E+03  0.17690782922E+04  0.46999998093E+01 0. -1.
       -5    1    3    3    0  502 -0.14583880173E+04  0.27047968797E+03  0.11897771916E+04  0.19014853999E+04  0.46999998093E+01 0.  1.
</event>
<event>
 5   0  0.3159875E-07  0.3603771E+04  0.7818609E-02  0.8089629E-01
       -1   -1    0    0    0  501  0.00000000000E+00  0.00000000000E+00  0.14517532487E+04  0.14517532487E+04  0.50400001928E-02 0. -1.
        1   -1    0    0  501    0  0.00000000000E+00  0.00000000000E+00 -0.22364617665E+04  0.22364617665E+04  0.50400001928E-02 0.  1.
    10030    2    1    2    0    0  0.00000000000E+00  0.00000000000E+00 -0.78470851780E+03  0.36882150152E+04  0.36037706004E+04 0.  0.
        5    1    3    3  502    0  0.65248300109E+03 -0.12816614399E+04  0.71861357799E+03  0.16077368185E+04  0.46999998093E+01 0. -1.
       -5    1    3    3    0  502 -0.65248300109E+03  0.12816614399E+04 -0.15033220958E+04  0.20804781967E+04  0.46999998093E+01 0.  1.
</event>
<event>
 5   0  0.9878336E-07  0.3523322E+04  0.7818609E-02  0.8108285E-01
        2   -1    0    0  501    0  0.00000000000E+00  0.00000000000E+00  0.19353102583E+04  0.19353102583E+04  0.25500000920E-02 0.  1.
       -2   -1    0    0    0  501  0.00000000000E+00  0.00000000000E+00 -0.16035923269E+04  0.16035923270E+04  0.25500000920E-02 0. -1.
    10030    2    1    2    0    0  0.00000000000E+00  0.00000000000E+00  0.33171793132E+03  0.35389025852E+04  0.35233215467E+04 0.  0.
        3    1    3    3  502    0  0.10435414065E+04 -0.16014151897E+03 -0.12506345164E+04  0.16366767174E+04  0.10100000352E+00 0. -1.
       -3    1    3    3    0  502 -0.10435414065E+04  0.16014151897E+03  0.15823524478E+04  0.19022258679E+04  0.10100000352E+00 0.  1.
</event>
<event>
 5   0  0.9538919E-07  0.3617834E+04  0.7818609E-02  0.8086419E-01
        2   -1    0    0  501    0  0.00000000000E+00  0.00000000000E+00  0.12129540735E+04  0.12129540735E+04  0.25500000920E-02 0.  1.
       -2   -1    0    0    0  501  0.00000000000E+00  0.00000000000E+00 -0.26976961801E+04  0.26976961801E+04  0.25500000920E-02 0. -1.
    10030    2    1    2    0    0  0.00000000000E+00  0.00000000000E+00 -0.14847421066E+04  0.39106502536E+04  0.36178344742E+04 0.  0.
        4    1    3    3  502    0  0.91025794799E+03  0.22387169805E+03 -0.24146790406E+04  0.25902441103E+04  0.12699999809E+01 0. -1.
       -4    1    3    3    0  502 -0.91025794799E+03 -0.22387169805E+03  0.92993693400E+03  0.13204061433E+04  0.12699999809E+01 0.  1.
</event>
<event>
 5   0  0.9878977E-07  0.3611074E+04  0.7818609E-02  0.8087960E-01
       -2   -1    0    0    0  501  0.00000000000E+00  0.00000000000E+00  0.16560968132E+04  0.16560968132E+04  0.25500000920E-02 0. -1.
        2   -1    0    0  501    0  0.00000000000E+00  0.00000000000E+00 -0.19684625890E+04  0.19684625890E+04  0.25500000920E-02 0.  1.
    10030    2    1    2    0    0  0.00000000000E+00  0.00000000000E+00 -0.31236577582E+03  0.36245594022E+04  0.36110744221E+04 0.  0.
        5    1    3    3  502    0  0.41016287924E+03 -0.37554845960E+03 -0.18803496645E+04  0.19608689869E+04  0.46999998093E+01 0.  1.
       -5    1    3    3    0  502 -0.41016287924E+03  0.37554845960E+03  0.15679838886E+04  0.16636904153E+04  0.46999998093E+01 0. -1.
</event>
<event>
 5   0  0.3159875E-07  0.3670698E+04  0.7818609E-02  0.8074487E-01
       -1   -1    0    0    0  501  0.00000000000E+00  0.00000000000E+00  0.16670772293E+04  0.16670772293E+04  0.50400001928E-02 0. -1.
        1   -1    0    0  501    0  0.00000000000E+00  0.00000000000E+00 -0.20206054526E+04  0.20206054526E+04  0.50400001928E-02 0.  1.
    10030    2    1    2    0    0  0.00000000000E+00  0.00000000000E+00 -0.35352822327E+03  0.36876826820E+04  0.36706976664E+04 0.  0.
        5    1    3    3  502    0 -0.44795083082E+03 -0.16809128154E+04  0.41105476088E+03  0.17874887262E+04  0.46999998093E+01 0.  1.
       -5    1    3    3    0  502  0.44795083082E+03  0.16809128154E+04 -0.76458298415E+03  0.19001939558E+04  0.46999998093E+01 0. -1.
</event>
<event>
 5   0  0.9878336E-07  0.3413363E+04  0.7818609E-02  0.8134634E-01
        2   -1    0    0  501    0  0.00000000000E+00  0.00000000000E+00  0.21358860999E+04  0.21358860999E+04  0.25500000920E-02 0. -1.
       -2   -1    0    0    0  501  0.00000000000E+00  0.00000000000E+00 -0.13637250383E+04  0.13637250383E+04  0.25500000920E-02 0.  1.
    10030    2    1    2    0    0  0.00000000000E+00  0.00000000000E+00  0.77216106153E+03  0.34996111382E+04  0.34133627721E+04 0.  0.
        3    1    3    3  502    0 -0.14737271451E+04 -0.76322087739E+03 -0.21949719508E+02  0.16597769749E+04  0.10100000352E+00 0. -1.
       -3    1    3    3    0  502  0.14737271451E+04  0.76322087739E+03  0.79411078104E+03  0.18398341634E+04  0.10100000352E+00 0.  1.
</event>
<event>
 5   0  0.1006019E-06  0.2661163E+04  0.7818609E-02  0.8347717E-01
        2   -1    0    0  501    0  0.00000000000E+00  0.00000000000E+00  0.88475953941E+03  0.88475953941E+03  0.25500000920E-02 0. -1.
       -2   -1    0    0    0  501  0.00000000000E+00  0.00000000000E+00 -0.20010491245E+04  0.20010491245E+04  0.25500000920E-02 0.  1.
    10030    2    1    2    0    0  0.00000000000E+00  0.00000000000E+00 -0.11162895850E+04  0.28858086639E+04  0.26611631304E+04 0.  0.
        1    1    3    3  502    0  0.97564271306E+03 -0.55383075327E+03 -0.13339687504E+04  0.17430088451E+04  0.50400001928E-02 0.  1.
       -1    1    3    3    0  502 -0.97564271306E+03  0.55383075327E+03  0.21767916537E+03  0.11427998188E+04  0.50400001928E-02 0. -1.
</event>
<event>
 5   0  0.9538919E-07  0.3577053E+04  0.7818609E-02  0.8095768E-01
        2   -1    0    0  501    0  0.00000000000E+00  0.00000000000E+00  0.13389075787E+04  0.13389075787E+04  0.25500000920E-02 0.  1.
       -2   -1    0    0    0  501  0.00000000000E+00  0.00000000000E+00 -0.23891314122E+04  0.23891314122E+04  0.25500000920E-02 0. -1.
    10030    2    1    2    0    0  0.00000000000E+00  0.00000000000E+00 -0.10502238334E+04  0.37280389909E+04  0.35770525041E+04 0.  0.
        4    1    3    3  502    0  0.15086921700E+04 -0.81941340700E+03 -0.10475014466E+04  0.20111815654E+04  0.12699999809E+01 0. -1.
       -4    1    3    3    0  502 -0.15086921700E+04  0.81941340700E+03 -0.27223868279E+01  0.17168574255E+04  0.12699999809E+01 0.  1.
</event>
<event>
 5   0  0.1006019E-06  0.3632995E+04  0.7818609E-02  0.8082975E-01
       -2   -1    0    0    0  501  0.00000000000E+00  0.00000000000E+00  0.15868059553E+04  0.15868059553E+04  0.25500000920E-02 0. -1.
        2   -1    0    0  501    0  0.00000000000E+00  0.00000000000E+00 -0.20794367910E+04  0.20794367910E+04  0.25500000920E-02 0.  1.
    10030    2    1    2    0    0  0.00000000000E+00  0.00000000000E+00 -0.49263083568E+03  0.36662427463E+04  0.36329947336E+04 0.  0.
        1    1    3    3  502    0  0.86832564732E+03  0.35466189771E+03  0.13235199112E+04  0.16221835429E+04  0.50400001928E-02 0. -1.
       -1    1    3    3    0  502 -0.86832564732E+03 -0.35466189771E+03 -0.18161507469E+04  0.20440592034E+04  0.50400001928E-02 0.  1.
</event>
<event>
 5   0  0.9878336E-07  0.3605598E+04  0.7818609E-02  0.8089211E-01
       -2   -1    0    0    0  501  0.00000000000E+00  0.00000000000E+00  0.22610897967E+04  0.22610897967E+04  0.25500000920E-02 0. -1.
        2   -1    0    0  501    0  0.00000000000E+00  0.00000000000E+00 -0.14373970327E+04  0.14373970327E+04  0.25500000920E-02 0.  1.
    10030    2    1    2    0    0  0.00000000000E+00  0.00000000000E+00  0.82369276400E+03  0.36984868294E+04  0.36055977393E+04 0.  0.
        3    1    3    3  502    0  0.10539721537E+03  0.84527681361E+03  0.20416413323E+04  0.22122162653E+04  0.10100000352E+00 0. -1.
       -3    1    3    3    0  502 -0.10539721537E+03 -0.84527681361E+03 -0.12179485683E+04  0.14862705641E+04  0.10100000352E+00 0.  1.
</event>
<event>
 5   0  0.1031659E-06  0.3286373E+04  0.7818609E-02  0.8166372E-01
        2   -1    0    0  501    0  0.00000000000E+00  0.00000000000E+00  0.26440265528E+04  0.26440265528E+04  0.25500000920E-02 0. -1.
       -2   -1    0    0    0  501  0.00000000000E+00  0.00000000000E+00 -0.10211930411E+04  0.10211930411E+04  0.25500000920E-02 0.  1.
    10030    2    1    2    0    0  0.00000000000E+00  0.00000000000E+00  0.16228335117E+04  0.36652195939E+04  0.32863727823E+04 0.  0.
        2    1    3    3  502    0  0.35802477563E+03  0.11039213486E+04  0.21088056492E+04  0.24070490958E+04  0.25500000920E-02 0. -1.
       -2    1    3    3    0  502 -0.35802477563E+03 -0.11039213486E+04 -0.48597213745E+03  0.12581704980E+04  0.25500000920E-02 0.  1.
</event>
<event>
 5   0  0.1006019E-06  0.3708080E+04  0.7818609E-02  0.8066174E-01
       -2   -1    0    0    0  501  0.00000000000E+00  0.00000000000E+00  0.14846662451E+04  0.14846662451E+04  0.25500000920E-02 0.  1.
        2   -1    0    0  501    0  0.00000000000E+00  0.00000000000E+00 -0.23153112920E+04  0.23153112920E+04  0.25500000920E-02 0. -1.
    10030    2    1    2    0    0  0.00000000000E+00  0.00000000000E+00 -0.83064504691E+03  0.37999775371E+04  0.37080801082E+04 0.  0.
        1    1    3    3  502    0  0.56411312021E+03 -0.87025937994E+02 -0.22230314646E+04  0.22951396513E+04  0.50400001928E-02 0. -1.
       -1    1    3    3    0  502 -0.56411312021E+03  0.87025937994E+02  0.13923864177E+04  0.15048378858E+04  0.50400001928E-02 0.  1.
</event>
<event>
 5   0  0.1031659E-06  0.3597429E+04  0.7818609E-02  0.8091081E-01
       -2   -1    0    0    0  501  0.00000000000E+00  0.00000000000E+00  0.16946342923E+04  0.16946342923E+04  0.25500000920E-02 0. -1.
        2   -1    0    0  501    0  0.00000000000E+00  0.00000000000E+00 -0.19091868744E+04  0.19091868744E+04  0.25500000920E-02 0.  1.
    10030    2    1    2    0    0  0.00000000000E+00  0.00000000000E+00 -0.21455258209E+03  0.36038211667E+04  0.35974288306E+04 0.  0.
        2    1    3    3  502    0 -0.12420468887E+04 -0.12238505780E+04  0.33496350101E+03  0.17755819491E+04  0.25500000920E-02 0. -1.
       -2    1    3    3    0  502  0.12420468887E+04  0.12238505780E+04 -0.54951608310E+03  0.18282392176E+04  0.25500000920E-02 0.  1.
</event>
<event>
 5   0  0.3242047E-07  0.3588203E+04  0.7818609E-02  0.8093199E-01
       -1   -1    0    0    0  501  0.00000000000E+00  0.00000000000E+00  0.15931346972E+04  0.15931346972E+04  0.50400001928E-02 0. -1.
        1   -1    0    0  501    0  0.00000000000E+00  0.00000000000E+00 -0.20204197116E+04  0.20204197116E+04  0.50400001928E-02 0.  1.
    10030    2    1    2    0    0  0.00000000000E+00  0.00000000000E+00 -0.42728501439E+03  0.36135544089E+04  0.35882033084E+04 0.  0.
        1    1    3    3  502    0 -0.82900309802E+03  0.14355213225E+04 -0.90466322508E+03  0.18884870015E+04  0.50400001928E-02 0.  1.
       -1    1    3    3    0  502  0.82900309802E+03 -0.14355213225E+04  0.47737821069E+03  0.17250674074E+04  0.50400001928E-02 0. -1.
</event>
<event>
 5   0  0.3159875E-07  0.2819135E+04  0.7818609E-02  0.8297352E-01
       -1   -1    0    0    0  501  0.00000000000E+00  0.00000000000E+00  0.17238227927E+04  0.17238227928E+04  0.50400001928E-02 0. -1.
        1   -1    0    0  501    0  0.00000000000E+00  0.00000000000E+00 -0.11526011781E+04  0.11526011781E+04  0.50400001928E-02 0.  1.
    10030    2    1    2    0    0  0.00000000000E+00  0.00000000000E+00  0.57122161462E+03  0.28764239709E+04  0.28191347480E+04 0.  0.
        2    1    3    3  502    0  0.11289900921E+04 -0.65565979812E+03  0.82779607494E+03  0.15458831588E+04  0.25500000920E-02 0.  1.
       -2    1    3    3    0  502 -0.11289900921E+04  0.65565979812E+03 -0.25657446032E+03  0.13305408121E+04  0.25500000920E-02 0. -1.
</event>
<event>
 5   0  0.3278988E-07  0.3668446E+04  0.7818609E-02  0.8074991E-01
        1   -1    0    0  501    0  0.00000000000E+00  0.00000000000E+00  0.12417220877E+04  0.12417220877E+04  0.50400001928E-02 0.  1.
       -1   -1    0    0    0  501  0.00000000000E+00  0.00000000000E+00 -0.27094419605E+04  0.27094419605E+04  0.50400001928E-02 0. -1.
    10030    2    1    2    0    0  0.00000000000E+00  0.00000000000E+00 -0.14677198728E+04  0.39511640482E+04  0.36684459531E+04 0.  0.
        4    1    3    3  502    0 -0.79313274999E+02  0.50863150811E+03  0.11623221915E+04  0.12712163846E+04  0.12699999809E+01 0.  1.
       -4    1    3    3    0  502  0.79313274999E+02 -0.50863150811E+03 -0.26300420643E+04  0.26799476636E+04  0.12699999809E+01 0. -1.
</event>
<event>
 5   0  0.3159875E-07  0.3691799E+04  0.7818609E-02  0.8069782E-01
       -3   -1    0    0    0  501  0.00000000000E+00  0.00000000000E+00  0.13723715126E+04  0.13723715163E+04  0.10100000352E+00 0.  1.
        3   -1    0    0  501    0  0.00000000000E+00  0.00000000000E+00 -0.24828149526E+04  0.24828149547E+04  0.10100000352E+00 0. -1.
    10030    2    1    2    0    0  0.00000000000E+00  0.00000000000E+00 -0.11104434400E+04  0.38551864710E+04  0.36917987611E+04 0.  0.
        2    1    3    3  502    0  0.13105413007E+04 -0.97444593027E+03  0.34325269649E+03  0.16687977066E+04  0.25500000920E-02 0.  1.
       -2    1    3    3    0  502 -0.13105413007E+04  0.97444593027E+03 -0.14536961365E+04  0.21863887644E+04  0.25500000920E-02 0. -1.
</event>
<event>
 5   0  0.9878336E-07  0.3605119E+04  0.7818609E-02  0.8089320E-01
       -2   -1    0    0    0  501  0.00000000000E+00  0.00000000000E+00  0.15207056692E+04  0.15207056693E+04  0.25500000920E-02 0.  1.
        2   -1    0    0  501    0  0.00000000000E+00  0.00000000000E+00 -0.21366527824E+04  0.21366527824E+04  0.25500000920E-02 0. -1.
    10030    2    1    2    0    0  0.00000000000E+00  0.00000000000E+00 -0.61594711317E+03  0.36573584517E+04  0.36051185830E+04 0.  0.
        3    1    3    3  502    0  0.17087804211E+04  0.57240992761E+03 -0.26693573657E+03  0.18217679189E+04  0.10100000352E+00 0. -1.
       -3    1    3    3    0  502 -0.17087804211E+04 -0.57240992761E+03 -0.34901137660E+03  0.18355905328E+04  0.10100000352E+00 0.  1.
</event>
<event>
 5   0  0.9878336E-07  0.3367821E+04  0.7818609E-02  0.8145850E-01
        2   -1    0    0  501    0  0.00000000000E+00  0.00000000000E+00  0.27341322193E+04  0.27341322193E+04  0.25500000920E-02 0. -1.
       -2   -1    0    0    0  501  0.00000000000E+00  0.00000000000E+00 -0.10370947300E+04  0.10370947300E+04  0.25500000920E-02 0.  1.
    10030    2    1    2    0    0  0.00000000000E+00  0.00000000000E+00  0.16970374893E+04  0.37712269493E+04  0.33678207291E+04 0.  0.
        3    1    3    3  502    0  0.82841621069E+03 -0.10787718829E+04  0.19601712440E+04  0.23858527845E+04  0.10100000352E+00 0. -1.
       -3    1    3    3    0  502 -0.82841621069E+03  0.10787718829E+04 -0.26313375471E+03  0.13853741648E+04  0.10100000352E+00 0.  1.
</event>
<event>
 5   0  0.3365378E-07  0.3596591E+04  0.7818609E-02  0.8091273E-01
       -1   -1    0    0    0  501  0.00000000000E+00  0.00000000000E+00  0.21913009388E+04  0.21913009388E+04  0.50400001928E-02 0. -1.
        1   -1    0    0  501    0  0.00000000000E+00  0.00000000000E+00 -0.14757744175E+04  0.14757744175E+04  0.50400001928E-02 0.  1.
    10030    2    1    2    0    0  0.00000000000E+00  0.00000000000E+00  0.71552652126E+03  0.36670753563E+04  0.35965905336E+04 0.  0.
        3    1    3    3  502    0  0.68201019347E+03 -0.47338295589E+03  0.19842170040E+04  0.21508943387E+04  0.10100000352E+00 0. -1.
       -3    1    3    3    0  502 -0.68201019347E+03  0.47338295589E+03 -0.12686904828E+04  0.15161810176E+04  0.10100000352E+00 0.  1.
</event>
<event>
 5   0  0.3278988E-07  0.3650890E+04  0.7818609E-02  0.8078933E-01
        1   -1    0    0  501    0  0.00000000000E+00  0.00000000000E+00  0.23717138852E+04  0.23717138852E+04  0.50400001928E-02 0.  1.
       -1   -1    0    0    0  501  0.00000000000E+00  0.00000000000E+00 -0.14049964873E+04  0.14049964873E+04  0.50400001928E-02 0. -1.
    10030    2    1    2    0    0  0.00000000000E+00  0.00000000000E+00  0.96671739791E+03  0.37767103725E+04  0.36508901257E+04 0.  0.
        4    1    3    3  502    0  0.75060092720E+03  0.22369602415E+03 -0.12223468408E+04  0.14517489712E+04  0.12699999809E+01 0. -1.
       -4    1    3    3    0  502 -0.75060092720E+03 -0.22369602415E+03  0.21890642387E+04  0.23249614013E+04  0.12699999809E+01 0.  1.
</event>
<event>
 5   0  0.3159875E-07  0.3600978E+04  0.7818609E-02  0.8090268E-01
        1   -1    0    0  501    0  0.00000000000E+00  0.00000000000E+00  0.20871500918E+04  0.20871500918E+04  0.50400001928E-02 0. -1.
       -1   -1    0    0    0  501  0.00000000000E+00  0.00000000000E+00 -0.15531997321E+04  0.15531997321E+04  0.50400001928E-02 0.  1.
    10030    2    1    2    0    0  0.00000000000E+00  0.00000000000E+00  0.53395035973E+03  0.36403498239E+04  0.36009781801E+04 0.  0.
        5    1    3    3  502    0  0.14751103979E+03  0.91807370464E+03  0.18256236820E+04  0.20487905584E+04  0.46999998093E+01 0. -1.
       -5    1    3    3    0  502 -0.14751103979E+03 -0.91807370464E+03 -0.12916733223E+04  0.15915592655E+04  0.46999998093E+01 0.  1.
</event>
<event>
 5   0  0.9538919E-07  0.3594492E+04  0.7818609E-02  0.8091755E-01
        2   -1    0    0  501    0  0.00000000000E+00  0.00000000000E+00  0.14854874350E+04  0.14854874350E+04  0.25500000920E-02 0. -1.
       -2   -1    0    0    0  501  0.00000000000E+00  0.00000000000E+00 -0.21744332199E+04  0.21744332199E+04  0.25500000920E-02 0.  1.
    10030    2    1    2    0    0  0.00000000000E+00  0.00000000000E+00 -0.68894578490E+03  0.36599206549E+04  0.35944920233E+04 0.  0.
        4    1    3    3  502    0 -0.79324431869E+03 -0.42475106672E+03 -0.19285687195E+04  0.21281515304E+04  0.12699999809E+01 0.  1.
       -4    1    3    3    0  502  0.79324431869E+03  0.42475106672E+03  0.12396229346E+04  0.15317691245E+04  0.12699999809E+01 0. -1.
</event>
<event>
 5   0  0.9538919E-07  0.3581928E+04  0.7818609E-02  0.8094644E-01
        2   -1    0    0  501    0  0.00000000000E+00  0.00000000000E+00  0.93645862062E+03  0.93645862062E+03  0.25500000920E-02 0. -1.
       -2   -1    0    0    0  501  0.00000000000E+00  0.00000000000E+00 -0.34251941622E+04  0.34251941622E+04  0.25500000920E-02 0.  1.
    10030    2    1    2    0    0  0.00000000000E+00  0.00000000000E+00 -0.24887355415E+04  0.43616527828E+04  0.35819283077E+04 0.  0.
        4    1    3    3  502    0 -0.13684857254E+03 -0.53374623358E+03 -0.33194145964E+04  0.33648369127E+04  0.12699999809E+01 0.  1.
       -4    1    3    3    0  502  0.13684857254E+03  0.53374623358E+03  0.83067905486E+03  0.99681587004E+03  0.12699999809E+01 0. -1.
</event>
<event>
 5   0  0.9878336E-07  0.2821103E+04  0.7818609E-02  0.8296746E-01
        2   -1    0    0  501    0  0.00000000000E+00  0.00000000000E+00  0.23001115814E+04  0.23001115814E+04  0.25500000920E-02 0. -1.
       -2   -1    0    0    0  501  0.00000000000E+00  0.00000000000E+00 -0.86502581688E+03  0.86502581688E+03  0.25500000920E-02 0.  1.
    10030    2    1    2    0    0  0.00000000000E+00  0.00000000000E+00  0.14350857645E+04  0.31651373983E+04  0.28211032591E+04 0.  0.
        3    1    3    3  502    0  0.68378693638E+03  0.32522817104E+03 -0.61768060966E+03  0.97717310818E+03  0.10100000352E+00 0.  1.
       -3    1    3    3    0  502 -0.68378693638E+03 -0.32522817104E+03  0.20527663742E+04  0.21879642901E+04  0.10100000352E+00 0. -1.
</event>
<event>
 5   0  0.3242047E-07  0.3578006E+04  0.7818609E-02  0.8095548E-01
       -1   -1    0    0    0  501  0.00000000000E+00  0.00000000000E+00  0.20573905796E+04  0.20573905796E+04  0.50400001928E-02 0. -1.
        1   -1    0    0  501    0  0.00000000000E+00  0.00000000000E+00 -0.15556267097E+04  0.15556267097E+04  0.50400001928E-02 0.  1.
    10030    2    1    2    0    0  0.00000000000E+00  0.00000000000E+00  0.50176386995E+03  0.36130172893E+04  0.35780060021E+04 0.  0.
        1    1    3    3  502    0 -0.77418049910E+03 -0.14547977504E+04  0.95392724235E+03  0.19041452475E+04  0.50400001928E-02 0.  1.
       -1    1    3    3    0  502  0.77418049910E+03  0.14547977504E+04 -0.45216337240E+03  0.17088720418E+04  0.50400001928E-02 0. -1.
</event>
<event>
 5   0  0.9538919E-07  0.3557330E+04  0.7818609E-02  0.8100336E-01
       -2   -1    0    0    0  501  0.00000000000E+00  0.00000000000E+00  0.22513143512E+04  0.22513143512E+04  0.25500000920E-02 0. -1.
        2   -1    0    0  501    0  0.00000000000E+00  0.00000000000E+00 -0.14052455887E+04  0.14052455887E+04  0.25500000920E-02 0.  1.
    10030    2    1    2    0    0  0.00000000000E+00  0.00000000000E+00  0.84606876253E+03  0.36565599399E+04  0.35573302128E+04 0.  0.
        4    1    3    3  502    0 -0.91104646823E+02  0.13847937485E+04  0.15665844594E+04  0.20928789415E+04  0.12699999809E+01 0.  1.
       -4    1    3    3    0  502  0.91104646823E+02 -0.13847937485E+04 -0.72051569683E+03  0.15636809984E+04  0.12699999809E+01 0. -1.
</event>
<event>
 5   0  0.3278988E-07  0.3657975E+04  0.7818609E-02  0.8077340E-01
       -1   -1    0    0    0  501  0.00000000000E+00  0.00000000000E+00  0.16120582058E+04  0.16120582058E+04  0.50400001928E-02 0. -1.
        1   -1    0    0  501    0  0.00000000000E+00  0.00000000000E+00 -0.20751077282E+04  0.20751077282E+04  0.50400001928E-02 0.  1.
    10030    2    1    2    0    0  0.00000000000E+00  0.00000000000E+00 -0.46304952245E+03  0.36871659340E+04  0.36579745440E+04 0.  0.
        4    1    3    3  502    0 -0.88733045052E+02 -0.12373521787E+04  0.11231792086E+04  0.16734536489E+04  0.12699999809E+01 0. -1.
       -4    1    3    3    0  502  0.88733045052E+02  0.12373521787E+04 -0.15862287311E+04  0.20137122852E+04  0.12699999809E+01 0.  1.
</event>
<event>
 5   0  0.1006019E-06  0.3579423E+04  0.7818609E-02  0.8095221E-01
        2   -1    0    0  501    0  0.00000000000E+00  0.00000000000E+00  0.23468731300E+04  0.23468731300E+04  0.25500000920E-02 0.  1.
       -2   -1    0    0    0  501  0.00000000000E+00  0.00000000000E+00 -0.13648232917E+04  0.13648232917E+04  0.25500000920E-02 0. -1.
    10030    2    1    2    0    0  0.00000000000E+00  0.00000000000E+00  0.98204983827E+03  0.37116964217E+04  0.35794229202E+04 0.  0.
        1    1    3    3  502    0  0.91056875866E+03  0.14598944967E+04  0.10018125454E+04  0.19909936669E+04  0.50400001928E-02 0.  1.
       -1    1    3    3    0  502 -0.91056875866E+03 -0.14598944967E+04 -0.19762707102E+02  0.17207027548E+04  0.50400001928E-02 0. -1.
</event>
<event>
 5   0  0.9878977E-07  0.3535040E+04  0.7818609E-02  0.8105536E-01
       -2   -1    0    0    0  501  0.00000000000E+00  0.00000000000E+00  0.14856215744E+04  0.14856215744E+04  0.25500000920E-02 0.  1.
        2   -1    0    0  501    0  0.00000000000E+00  0.00000000000E+00 -0.21029094200E+04  0.21029094200E+04  0.25500000920E-02 0. -1.
    10030    2    1    2    0    0  0.00000000000E+00  0.00000000000E+00 -0.61728784566E+03  0.35885309944E+04  0.35350403694E+04 0.  0.
        5    1    3    3  502    0 -0.12590765947E+04 -0.11523810915E+03  0.94517784692E+03  0.15785870092E+04  0.46999998093E+01 0.  1.
       -5    1    3    3    0  502  0.12590765947E+04  0.11523810915E+03 -0.15624656926E+04  0.20099439852E+04  0.46999998093E+01 0. -1.
</event>
<event>
 5   0  0.3242047E-07  0.3626677E+04  0.7818609E-02  0.8084408E-01
        1   -1    0    0  501    0  0.00000000000E+00  0.00000000000E+00  0.19584057456E+04  0.19584057456E+04  0.50400001928E-02 0. -1.
       -1   -1    0    0    0  501  0.00000000000E+00  0.00000000000E+00 -0.16790168187E+04  0.16790168187E+04  0.50400001928E-02 0.  1.
    10030    2    1    2    0    0  0.00000000000E+00  0.00000000000E+00  0.27938892698E+03  0.36374225643E+04  0.36266768175E+04 0.  0.
        1    1    3    3  502    0  0.12362210824E+04  0.10794955780E+04 -0.63372131083E+03  0.17593055355E+04  0.50400001928E-02 0.  1.
       -1    1    3    3    0  502 -0.12362210824E+04 -0.10794955780E+04  0.91311023782E+03  0.18781170288E+04  0.50400001928E-02 0. -1.
</event>
<event>
 5   0  0.3242047E-07  0.3618252E+04  0.7818609E-02  0.8086324E-01
        1   -1    0    0  501    0  0.00000000000E+00  0.00000000000E+00  0.18926879592E+04  0.18926879592E+04  0.50400001928E-02 0. -1.
       -1   -1    0    0    0  501  0.00000000000E+00  0.00000000000E+00 -0.17292533044E+04  0.17292533044E+04  0.50400001928E-02 0.  1.
    10030    2    1    2    0    0  0.00000000000E+00  0.00000000000E+00  0.16343465483E+03  0.36219412636E+04  0.36182520131E+04 0.  0.
        1    1    3    3  502    0 -0.45612102986E+03 -0.17481500455E+04 -0.12516493673E+02  0.18067184723E+04  0.50400001928E-02 0.  1.
       -1    1    3    3    0  502  0.45612102986E+03  0.17481500455E+04  0.17595114850E+03  0.18152227913E+04  0.50400001928E-02 0. -1.
</event>
<event>
 5   0  0.3278988E-07  0.3573262E+04  0.7818609E-02  0.8096644E-01
       -1   -1    0    0    0  501  0.00000000000E+00  0.00000000000E+00  0.33978886803E+04  0.33978886803E+04  0.50400001928E-02 0.  1.
        1   -1    0    0  501    0  0.00000000000E+00  0.00000000000E+00 -0.93942177015E+03  0.93942177016E+03  0.50400001928E-02 0. -1.
    10030    2    1    2    0    0  0.00000000000E+00  0.00000000000E+00  0.24584669102E+04  0.43373104505E+04  0.35732621504E+04 0.  0.
        4    1    3    3  502    0  0.42595546452E+03 -0.79284746636E+03 -0.64415076004E+03  0.11067867804E+04  0.12699999809E+01 0. -1.
       -4    1    3    3    0  502 -0.42595546452E+03  0.79284746636E+03  0.31026176702E+04  0.32305236701E+04  0.12699999809E+01 0.  1.
</event>
<event>
 5   0  0.9538919E-07  0.3550945E+04  0.7818609E-02  0.8101822E-01
       -2   -1    0    0    0  501  0.00000000000E+00  0.00000000000E+00  0.15661346665E+04  0.15661346665E+04  0.25500000920E-02 0. -1.
        2   -1    0    0  501    0  0.00000000000E+00  0.00000000000E+00 -0.20127910676E+04  0.20127910676E+04  0.25500000920E-02 0.  1.
    10030    2    1    2    0    0  0.00000000000E+00  0.00000000000E+00 -0.44665640107E+03  0.35789257341E+04  0.35509445884E+04 0.  0.
        4    1    3    3  502    0  0.40972725882E+03 -0.11383271183E+04  0.10863865241E+04  0.16260081019E+04  0.12699999809E+01 0. -1.
       -4    1    3    3    0  502 -0.40972725882E+03  0.11383271183E+04 -0.15330429252E+04  0.19529176322E+04  0.12699999809E+01 0.  1.
</event>
<event>
 5   0  0.3242047E-07  0.3642318E+04  0.7818609E-02  0.8080866E-01
       -1   -1    0    0    0  501  0.00000000000E+00  0.00000000000E+00  0.18382289703E+04  0.18382289703E+04  0.50400001928E-02 0. -1.
        1   -1    0    0  501    0  0.00000000000E+00  0.00000000000E+00 -0.18042478904E+04  0.18042478904E+04  0.50400001928E-02 0.  1.
    10030    2    1    2    0    0  0.00000000000E+00  0.00000000000E+00  0.33981079917E+02  0.36424768607E+04  0.36423183506E+04 0.  0.
        1    1    3    3  502    0  0.11399493998E+03 -0.60178627545E+03  0.17321392799E+04  0.18372392476E+04  0.50400001928E-02 0. -1.
       -1    1    3    3    0  502 -0.11399493998E+03  0.60178627545E+03 -0.16981582000E+04  0.18052376132E+04  0.50400001928E-02 0.  1.
</event>
<event>
 5   0  0.1006019E-06  0.3692388E+04  0.7818609E-02  0.8069651E-01
       -2   -1    0    0    0  501  0.00000000000E+00  0.00000000000E+00  0.14452367309E+04  0.14452367309E+04  0.25500000920E-02 0.  1.
        2   -1    0    0  501    0  0.00000000000E+00  0.00000000000E+00 -0.23583907847E+04  0.23583907847E+04  0.25500000920E-02 0. -1.
    10030    2    1    2    0    0  0.00000000000E+00  0.00000000000E+00 -0.91315405383E+03  0.38036275157E+04  0.36923883804E+04 0.  0.
        1    1    3    3  502    0 -0.11739511556E+04  0.11172073167E+04 -0.13675954452E+04  0.21205260682E+04  0.50400001928E-02 0.  1.
       -1    1    3    3    0  502  0.11739511556E+04 -0.11172073167E+04  0.45444139137E+03  0.16831014475E+04  0.50400001928E-02 0. -1.
</event>
<event>
 5   0  0.3159875E-07  0.3591647E+04  0.7818609E-02  0.8092408E-01
       -3   -1    0    0    0  501  0.00000000000E+00  0.00000000000E+00  0.13782869402E+04  0.13782869439E+04  0.10100000352E+00 0. -1.
        3   -1    0    0  501    0  0.00000000000E+00  0.00000000000E+00 -0.23398482044E+04  0.23398482065E+04  0.10100000352E+00 0.  1.
    10030    2    1    2    0    0  0.00000000000E+00  0.00000000000E+00 -0.96156126415E+03  0.37181351504E+04  0.35916471057E+04 0.  0.
        4    1    3    3  502    0 -0.13944614852E+04 -0.10845130953E+04 -0.81509192006E+03  0.19455251061E+04  0.12699999809E+01 0.  1.
       -4    1    3    3    0  502  0.13944614852E+04  0.10845130953E+04 -0.14646934409E+03  0.17726100443E+04  0.12699999809E+01 0. -1.
</event>
<event>
 5   0  0.9878336E-07  0.3657979E+04  0.7818609E-02  0.8077339E-01
        2   -1    0    0  501    0  0.00000000000E+00  0.00000000000E+00  0.17960182549E+04  0.17960182549E+04  0.25500000920E-02 0. -1.
       -2   -1    0    0    0  501  0.00000000000E+00  0.00000000000E+00 -0.18625658559E+04  0.18625658559E+04  0.25500000920E-02 0.  1.
    10030    2    1    2    0    0  0.00000000000E+00  0.00000000000E+00 -0.66547600979E+02  0.36585841109E+04  0.36579788289E+04 0.  0.
        3    1    3    3  502    0 -0.25474349203E+03 -0.80824516964E+03  0.15878114004E+04  0.17998054213E+04  0.10100000352E+00 0. -1.
       -3    1    3    3    0  502  0.25474349203E+03  0.80824516964E+03 -0.16543590014E+04  0.18587786896E+04  0.10100000352E+00 0.  1.
</event>
<event>
 5   0  0.3242047E-07  0.3612028E+04  0.7818609E-02  0.8087742E-01
        1   -1    0    0  501    0  0.00000000000E+00  0.00000000000E+00  0.12459452557E+04  0.12459452557E+04  0.50400001928E-02 0.  1.
       -1   -1    0    0    0  501  0.00000000000E+00  0.00000000000E+00 -0.26178405678E+04  0.26178405678E+04  0.50400001928E-02 0. -1.
    10030    2    1    2    0    0  0.00000000000E+00  0.00000000000E+00 -0.13718953121E+04  0.38637858236E+04  0.36120277052E+04 0.  0.
        1    1    3    3  502    0  0.31280113730E+03 -0.15132857092E+04  0.31398313527E+03  0.15768524339E+04  0.50400001928E-02 0.  1.
       -1    1    3    3    0  502 -0.31280113730E+03  0.15132857092E+04 -0.16858784474E+04  0.22869333896E+04  0.50400001928E-02 0. -1.
</event>
<event>
 5   0  0.3159875E-07  0.3829493E+04  0.7818609E-02  0.8039855E-01
       -3   -1    0    0    0  501  0.00000000000E+00  0.00000000000E+00  0.21291153870E+04  0.21291153894E+04  0.10100000352E+00 0. -1.
        3   -1    0    0  501    0  0.00000000000E+00  0.00000000000E+00 -0.17219614171E+04  0.17219614201E+04  0.10100000352E+00 0.  1.
    10030    2    1    2    0    0  0.00000000000E+00  0.00000000000E+00  0.40715396992E+03  0.38510768095E+04  0.38294932089E+04 0.  0.
        4    1    3    3  502    0 -0.38381797516E+03  0.77227651614E+02  0.20884333395E+04  0.21248142918E+04  0.12699999809E+01 0. -1.
       -4    1    3    3    0  502  0.38381797516E+03 -0.77227651614E+02 -0.16812793696E+04  0.17262625176E+04  0.12699999809E+01 0.  1.
</event>
<event>
 5   0  0.9878977E-07  0.3582124E+04  0.7818609E-02  0.8094599E-01
        2   -1    0    0  501    0  0.00000000000E+00  0.00000000000E+00  0.23349859161E+04  0.23349859161E+04  0.25500000920E-02 0.  1.
       -2   -1    0    0    0  501  0.00000000000E+00  0.00000000000E+00 -0.13738422729E+04  0.13738422729E+04  0.25500000920E-02 0. -1.
    10030    2    1    2    0    0  0.00000000000E+00  0.00000000000E+00  0.96114364327E+03  0.37088281890E+04  0.35821235926E+04 0.  0.
        5    1    3    3  502    0 -0.18208827233E+03 -0.87532541470E+03  0.20874099866E+04  0.22708265594E+04  0.46999998093E+01 0.  1.
       -5    1    3    3    0  502  0.18208827233E+03  0.87532541470E+03 -0.11262663434E+04  0.14380016296E+04  0.46999998093E+01 0. -1.
</event>
<event>
 5   0  0.3242047E-07  0.3630259E+04  0.7818609E-02  0.8083596E-01
        1   -1    0    0  501    0  0.00000000000E+00  0.00000000000E+00  0.22729260796E+04  0.22729260796E+04  0.50400001928E-02 0. -1.
       -1   -1    0    0    0  501  0.00000000000E+00  0.00000000000E+00 -0.14495386760E+04  0.14495386760E+04  0.50400001928E-02 0.  1.
    10030    2    1    2    0    0  0.00000000000E+00  0.00000000000E+00  0.82338740363E+03  0.37224647557E+04  0.36302585363E+04 0.  0.
        1    1    3    3  502    0  0.28950684670E+03  0.16968393144E+04  0.10021816400E+04  0.19918448516E+04  0.50400001928E-02 0. -1.
       -1    1    3    3    0  502 -0.28950684670E+03 -0.16968393144E+04 -0.17879423639E+03  0.17306199040E+04  0.50400001928E-02 0.  1.
</event>
<event>
 5   0  0.3159875E-07  0.3549500E+04  0.7818609E-02  0.8102158E-01
        1   -1    0    0  501    0  0.00000000000E+00  0.00000000000E+00  0.24826273807E+04  0.24826273807E+04  0.50400001928E-02 0.  1.
       -1   -1    0    0    0  501  0.00000000000E+00  0.00000000000E+00 -0.12687110660E+04  0.12687110661E+04  0.50400001928E-02 0. -1.
    10030    2    1    2    0    0  0.00000000000E+00  0.00000000000E+00  0.12139163146E+04  0.37513384467E+04  0.35494995877E+04 0.  0.
        5    1    3    3  502    0  0.31588044769E+03 -0.12859731629E+04  0.18557615542E+04  0.22797764077E+04  0.46999998093E+01 0.  1.
       -5    1    3    3    0  502 -0.31588044769E+03  0.12859731629E+04 -0.64184523962E+03  0.14715620390E+04  0.46999998093E+01 0. -1.
</event>
<event>
 5   0  0.3365378E-07  0.3608638E+04  0.7818609E-02  0.8088516E-01
        1   -1    0    0  501    0  0.00000000000E+00  0.00000000000E+00  0.24309091755E+04  0.24309091755E+04  0.50400001928E-02 0. -1.
       -1   -1    0    0    0  501  0.00000000000E+00  0.00000000000E+00 -0.13392387998E+04  0.13392387998E+04  0.50400001928E-02 0.  1.
    10030    2    1    2    0    0  0.00000000000E+00  0.00000000000E+00  0.10916703757E+04  0.37701479754E+04  0.36086384617E+04 0.  0.
        3    1    3    3  502    0 -0.32395927016E+03 -0.11899541691E+04  0.19218341826E+04  0.22835032667E+04  0.10100000352E+00 0. -1.
       -3    1    3    3    0  502  0.32395927016E+03  0.11899541691E+04 -0.83016380691E+03  0.14866447087E+04  0.10100000352E+00 0.  1.
</event>
<event>
 5   0  0.9538919E-07  0.3616664E+04  0.7818609E-02  0.8086685E-01
        2   -1    0    0  501    0  0.00000000000E+00  0.00000000000E+00  0.20617823420E+04  0.20617823420E+04  0.25500000920E-02 0.  1.
       -2   -1    0    0    0  501  0.00000000000E+00  0.00000000000E+00 -0.15860381704E+04  0.15860381704E+04  0.25500000920E-02 0. -1.
    10030    2    1    2    0    0  0.00000000000E+00  0.00000000000E+00  0.47574417160E+03  0.36478205124E+04  0.36166644818E+04 0.  0.
        4    1    3    3  502    0  0.14768603592E+04  0.76735426606E+03  0.95115215551E+03  0.19169353474E+04  0.12699999809E+01 0.  1.
       -4    1    3    3    0  502 -0.14768603592E+04 -0.76735426606E+03 -0.47540798391E+03  0.17308851650E+04  0.12699999809E+01 0. -1.
</event>
<event>
 5   0  0.3159875E-07  0.3604931E+04  0.7818609E-02  0.8089363E-01
       -1   -1    0    0    0  501  0.00000000000E+00  0.00000000000E+00  0.22184599626E+04  0.22184599626E+04  0.50400001928E-02 0.  1.
        1   -1    0    0  501    0  0.00000000000E+00  0.00000000000E+00 -0.14644758671E+04  0.14644758671E+04  0.50400001928E-02 0. -1.
    10030    2    1    2    0    0  0.00000000000E+00  0.00000000000E+00  0.75398409546E+03  0.36829358297E+04  0.36049305554E+04 0.  0.
        2    1    3    3  502    0  0.76171786525E+03 -0.15670025010E+04 -0.94702033503E+02  0.17449009770E+04  0.25500000920E-02 0. -1.
       -2    1    3    3    0  502 -0.76171786525E+03  0.15670025010E+04  0.84868612897E+03  0.19380348526E+04  0.25500000920E-02 0.  1.
</event>
<event>
 5   0  0.1006019E-06  0.3634858E+04  0.7818609E-02  0.8082553E-01
        2   -1    0    0  501    0  0.00000000000E+00  0.00000000000E+00  0.11774731062E+04  0.11774731062E+04  0.25500000920E-02 0. -1.
       -2   -1    0    0    0  501  0.00000000000E+00  0.00000000000E+00 -0.28051999989E+04  0.28051999989E+04  0.25500000920E-02 0.  1.
    10030    2    1    2    0    0  0.00000000000E+00  0.00000000000E+00 -0.16277268927E+04  0.39826731051E+04  0.36348576623E+04 0.  0.
        1    1    3    3  502    0  0.15714972211E+04  0.75239529311E+03 -0.24733257494E+03  0.17597941913E+04  0.50400001928E-02 0.  1.
       -1    1    3    3    0  502 -0.15714972211E+04 -0.75239529311E+03 -0.13803943178E+04  0.22228789138E+04  0.50400001928E-02 0. -1.
</event>
<event>
 5   0  0.9538919E-07  0.3628222E+04  0.7818609E-02  0.8084057E-01
       -2   -1    0    0    0  501  0.00000000000E+00  0.00000000000E+00  0.13943332643E+04  0.13943332643E+04  0.25500000920E-02 0. -1.
        2   -1    0    0  501    0  0.00000000000E+00  0.00000000000E+00 -0.23602672693E+04  0.23602672693E+04  0.25500000920E-02 0.  1.
    10030    2    1    2    0    0  0.00000000000E+00  0.00000000000E+00 -0.96593400496E+03  0.37546005336E+04  0.36282222458E+04 0.  0.
        4    1    3    3  502    0 -0.19681084118E+03  0.80077826829E+03  0.11891810333E+04  0.14471121190E+04  0.12699999809E+01 0. -1.
       -4    1    3    3    0  502  0.19681084118E+03 -0.80077826829E+03 -0.21551150383E+04  0.23074884145E+04  0.12699999809E+01 0.  1.
</event>
<event>
 5   0  0.9538919E-07  0.3527745E+04  0.7818609E-02  0.8107246E-01
        2   -1    0    0  501    0  0.00000000000E+00  0.00000000000E+00  0.22618000593E+04  0.22618000593E+04  0.25500000920E-02 0. -1.
       -2   -1    0    0    0  501  0.00000000000E+00  0.00000000000E+00 -0.13755621954E+04  0.13755621954E+04  0.25500000920E-02 0.  1.
    10030    2    1    2    0    0  0.00000000000E+00  0.00000000000E+00  0.88623786391E+03  0.36373622547E+04  0.35277452601E+04 0.  0.
        4    1    3    3  502    0 -0.12302901277E+04 -0.42261367397E+03 -0.78512594962E+03  0.15194211021E+04  0.12699999809E+01 0.  1.
       -4    1    3    3    0  502  0.12302901277E+04  0.42261367397E+03  0.16713638135E+04  0.21179411526E+04  0.12699999809E+01 0. -1.
</event>
<event>
 5   0  0.9538919E-07  0.3626009E+04  0.7818609E-02  0.8084560E-01
       -2   -1    0    0    0  501  0.00000000000E+00  0.00000000000E+00  0.25764948833E+04  0.25764948833E+04  0.25500000920E-02 0. -1.
        2   -1    0    0  501    0  0.00000000000E+00  0.00000000000E+00 -0.12757586312E+04  0.12757586312E+04  0.25500000920E-02 0.  1.
    10030    2    1    2    0    0  0.00000000000E+00  0.00000000000E+00  0.13007362522E+04  0.38522535145E+04  0.36260091481E+04 0.  0.
        4    1    3    3  502    0  0.50475474485E+03  0.83517943898E+03 -0.97293574801E+03  0.13780085741E+04  0.12699999809E+01 0.  1.
       -4    1    3    3    0  502 -0.50475474485E+03 -0.83517943898E+03  0.22736720002E+04  0.24742449404E+04  0.12699999809E+01 0. -1.
</event>
<event>
 5   0  0.9878336E-07  0.2995862E+04  0.7818609E-02  0.8244913E-01
        2   -1    0    0  501    0  0.00000000000E+00  0.00000000000E+00  0.15426034087E+04  0.15426034087E+04  0.25500000920E-02 0.  1.
       -2   -1    0    0    0  501  0.00000000000E+00  0.00000000000E+00 -0.14545527330E+04  0.14545527330E+04  0.25500000920E-02 0. -1.
    10030    2    1    2    0    0  0.00000000000E+00  0.00000000000E+00  0.88050675776E+02  0.29971561417E+04  0.29958624829E+04 0.  0.
        3    1    3    3  502    0  0.67733549175E+02  0.14106918089E+04 -0.45534827784E+03  0.14839074357E+04  0.10100000352E+00 0. -1.
       -3    1    3    3    0  502 -0.67733549175E+02 -0.14106918089E+04  0.54339895361E+03  0.15132487060E+04  0.10100000352E+00 0.  1.
</event>
<event>
 5   0  0.3365378E-07  0.3627538E+04  0.7818609E-02  0.8084213E-01
       -1   -1    0    0    0  501  0.00000000000E+00  0.00000000000E+00  0.17046663534E+04  0.17046663534E+04  0.50400001928E-02 0.  1.
        1   -1    0    0  501    0  0.00000000000E+00  0.00000000000E+00 -0.19298546330E+04  0.19298546330E+04  0.50400001928E-02 0. -1.
    10030    2    1    2    0    0  0.00000000000E+00  0.00000000000E+00 -0.22518827963E+03  0.36345209865E+04  0.36275381514E+04 0.  0.
        3    1    3    3  502    0  0.52727187835E+03 -0.72718099125E+03  0.14661771358E+04  0.17194427096E+04  0.10100000352E+00 0.  1.
       -3    1    3    3    0  502 -0.52727187835E+03  0.72718099125E+03 -0.16913654155E+04  0.19150782769E+04  0.10100000352E+00 0. -1.
</event>
<event>
 5   0  0.3278988E-07  0.3519503E+04  0.7818609E-02  0.8109183E-01
       -1   -1    0    0    0  501  0.00000000000E+00  0.00000000000E+00  0.31056308982E+04  0.31056308982E+04  0.50400001928E-02 0.  1.
        1   -1    0    0  501    0  0.00000000000E+00  0.00000000000E+00 -0.99713269101E+03  0.99713269103E+03  0.50400001928E-02 0. -1.
    10030    2    1    2    0    0  0.00000000000E+00  0.00000000000E+00  0.21084982072E+04  0.41027635892E+04  0.35195034279E+04 0.  0.
        4    1    3    3  502    0 -0.16767962144E+03 -0.84845345662E+03  0.28407864016E+04  0.29695216309E+04  0.12699999809E+01 0.  1.
       -4    1    3    3    0  502  0.16767962144E+03  0.84845345662E+03 -0.73228819448E+03  0.11332419583E+04  0.12699999809E+01 0. -1.
</event>
<event>
 5   0  0.9878336E-07  0.3554059E+04  0.7818609E-02  0.8101097E-01
        2   -1    0    0  501    0  0.00000000000E+00  0.00000000000E+00  0.26271373704E+04  0.26271373704E+04  0.25500000920E-02 0. -1.
       -2   -1    0    0    0  501  0.00000000000E+00  0.00000000000E+00 -0.12020054333E+04  0.12020054333E+04  0.25500000920E-02 0.  1.
    10030    2    1    2    0    0  0.00000000000E+00  0.00000000000E+00  0.14251319371E+04  0.38291428038E+04  0.35540587465E+04 0.  0.
        3    1    3    3  502    0  0.50523144853E+03 -0.15839810560E+04  0.36650028013E+02  0.16630087303E+04  0.10100000352E+00 0.  1.
       -3    1    3    3    0  502 -0.50523144853E+03  0.15839810560E+04  0.13884819091E+04  0.21661340735E+04  0.10100000352E+00 0. -1.
</event>
<event>
 5   0  0.1031659E-06  0.3533403E+04  0.7818609E-02  0.8105919E-01
        2   -1    0    0  501    0  0.00000000000E+00  0.00000000000E+00  0.26901071745E+04  0.26901071745E+04  0.25500000920E-02 0. -1.
       -2   -1    0    0    0  501  0.00000000000E+00  0.00000000000E+00 -0.11602638146E+04  0.11602638146E+04  0.25500000920E-02 0.  1.
    10030    2    1    2    0    0  0.00000000000E+00  0.00000000000E+00  0.15298433600E+04  0.38503709891E+04  0.35334028991E+04 0.  0.
        2    1    3    3  502    0  0.38108089307E+03  0.16186515343E+04  0.11476003464E+03  0.16668609126E+04  0.25500000920E-02 0.  1.
       -2    1    3    3    0  502 -0.38108089307E+03 -0.16186515343E+04  0.14150833253E+04  0.21835100765E+04  0.25500000920E-02 0. -1.
</event>
<event>
 5   0  0.3242047E-07  0.3083787E+04  0.7818609E-02  0.8220202E-01
       -1   -1    0    0    0  501  0.00000000000E+00  0.00000000000E+00  0.14088251835E+04  0.14088251835E+04  0.50400001928E-02 0. -1.
        1   -1    0    0  501    0  0.00000000000E+00  0.00000000000E+00 -0.16875300910E+04  0.16875300910E+04  0.50400001928E-02 0.  1.
    10030    2    1    2    0    0  0.00000000000E+00  0.00000000000E+00 -0.27870490750E+03  0.30963552744E+04  0.30837865620E+04 0.  0.
        1    1    3    3  502    0  0.13141914935E+04  0.21723158319E+03 -0.91914255367E+03  0.16183670400E+04  0.50400001928E-02 0.  1.
       -1    1    3    3    0  502 -0.13141914935E+04 -0.21723158319E+03  0.64043764617E+03  0.14779882344E+04  0.50400001928E-02 0. -1.
</event>
<event>
 5   0  0.1006019E-06  0.3613791E+04  0.7818609E-02  0.8087340E-01
        2   -1    0    0  501    0  0.00000000000E+00  0.00000000000E+00  0.17396271200E+04  0.17396271200E+04  0.25500000920E-02 0. -1.
       -2   -1    0    0    0  501  0.00000000000E+00  0.00000000000E+00 -0.18767655031E+04  0.18767655031E+04  0.25500000920E-02 0.  1.
    10030    2    1    2    0    0  0.00000000000E+00  0.00000000000E+00 -0.13713838315E+03  0.36163926231E+04  0.36137914533E+04 0.  0.
        1    1    3    3  502    0  0.95549454350E+03 -0.13893975704E+04  0.58111050137E+03  0.17835595998E+04  0.50400001928E-02 0. -1.
       -1    1    3    3    0  502 -0.95549454350E+03  0.13893975704E+04 -0.71824888452E+03  0.18328330233E+04  0.50400001928E-02 0.  1.
</event>
<event>
 5   0  0.3159875E-07  0.3581465E+04  0.7818609E-02  0.8094751E-01
        1   -1    0    0  501    0  0.00000000000E+00  0.00000000000E+00  0.23156267153E+04  0.23156267153E+04  0.50400001928E-02 0.  1.
       -1   -1    0    0    0  501  0.00000000000E+00  0.00000000000E+00 -0.13848184312E+04  0.13848184312E+04  0.50400001928E-02 0. -1.
    10030    2    1    2    0    0  0.00000000000E+00  0.00000000000E+00  0.93080828403E+03  0.37004451465E+04  0.35814648150E+04 0.  0.
        2    1    3    3  502    0 -0.16889299212E+01  0.25171167817E+03 -0.13664479618E+04  0.13894393307E+04  0.25500000920E-02 0. -1.
       -2    1    3    3    0  502  0.16889299212E+01 -0.25171167817E+03  0.22972562459E+04  0.23110058158E+04  0.25500000920E-02 0.  1.
</event>
<event>
 5   0  0.9878977E-07  0.3638507E+04  0.7818609E-02  0.8081728E-01
       -2   -1    0    0    0  501  0.00000000000E+00  0.00000000000E+00  0.29411815180E+04  0.29411815180E+04  0.25500000920E-02 0. -1.
        2   -1    0    0  501    0  0.00000000000E+00  0.00000000000E+00 -0.11252904397E+04  0.11252904397E+04  0.25500000920E-02 0.  1.
    10030    2    1    2    0    0  0.00000000000E+00  0.00000000000E+00  0.18158910783E+04  0.40664719577E+04  0.36385070805E+04 0.  0.
        5    1    3    3  502    0 -0.60792791606E+03 -0.16207766734E+04  0.15333820513E+04  0.23125258877E+04  0.46999998093E+01 0. -1.
       -5    1    3    3    0  502  0.60792791606E+03  0.16207766734E+04  0.28250902702E+03  0.17539460700E+04  0.46999998093E+01 0.  1.
</event>
<event>
 5   0  0.3159875E-07  0.3695837E+04  0.7818609E-02  0.8068885E-01
       -1   -1    0    0    0  501  0.00000000000E+00  0.00000000000E+00  0.20967721766E+04  0.20967721766E+04  0.50400001928E-02 0. -1.
        1   -1    0    0  501    0  0.00000000000E+00  0.00000000000E+00 -0.16285997040E+04  0.16285997040E+04  0.50400001928E-02 0.  1.
    10030    2    1    2    0    0  0.00000000000E+00  0.00000000000E+00  0.46817247255E+03  0.37253718806E+04  0.36958368720E+04 0.  0.
        2    1    3    3  502    0  0.13274273721E+04  0.67267540438E+03 -0.87022664485E+03  0.17239054618E+04  0.25500000920E-02 0.  1.
       -2    1    3    3    0  502 -0.13274273721E+04 -0.67267540438E+03  0.13383991174E+04  0.20014664188E+04  0.25500000920E-02 0. -1.
</event>
<event>
 5   0  0.3365378E-07  0.3576494E+04  0.7818609E-02  0.8095897E-01
       -1   -1    0    0    0  501  0.00000000000E+00  0.00000000000E+00  0.24383292378E+04  0.24383292379E+04  0.50400001928E-02 0.  1.
        1   -1    0    0  501    0  0.00000000000E+00  0.00000000000E+00 -0.13114830281E+04  0.13114830281E+04  0.50400001928E-02 0. -1.
    10030    2    1    2    0    0  0.00000000000E+00  0.00000000000E+00  0.11268462097E+04  0.37498122660E+04  0.35764940444E+04 0.  0.
        3    1    3    3  502    0 -0.11954334668E+04 -0.56362101134E+03  0.18264143169E+04  0.22544442963E+04  0.10100000352E+00 0.  1.
       -3    1    3    3    0  502  0.11954334668E+04  0.56362101134E+03 -0.69956810715E+03  0.14953679697E+04  0.10100000352E+00 0. -1.
</event>
<event>
 5   0  0.3159875E-07  0.3667771E+04  0.7818609E-02  0.8075142E-01
       -1   -1    0    0    0  501  0.00000000000E+00  0.00000000000E+00  0.20684235055E+04  0.20684235055E+04  0.50400001928E-02 0.  1.
        1   -1    0    0  501    0  0.00000000000E+00  0.00000000000E+00 -0.16259415241E+04  0.16259415241E+04  0.50400001928E-02 0. -1.
    10030    2    1    2    0    0  0.00000000000E+00  0.00000000000E+00  0.44248198139E+03  0.36943650296E+04  0.36677708037E+04 0.  0.
        5    1    3    3  502    0  0.13343284221E+04  0.11270206079E+04 -0.34183453187E+03  0.17797417582E+04  0.46999998093E+01 0.  1.
       -5    1    3    3    0  502 -0.13343284221E+04 -0.11270206079E+04  0.78431651326E+03  0.19146232714E+04  0.46999998093E+01 0. -1.
</event>
<event>
 5   0  0.1006019E-06  0.3634598E+04  0.7818609E-02  0.8082612E-01
       -2   -1    0    0    0  501  0.00000000000E+00  0.00000000000E+00  0.16891211509E+04  0.16891211509E+04  0.25500000920E-02 0.  1.
        2   -1    0    0  501    0  0.00000000000E+00  0.00000000000E+00 -0.19552039582E+04  0.19552039582E+04  0.25500000920E-02 0. -1.
    10030    2    1    2    0    0  0.00000000000E+00  0.00000000000E+00 -0.26608280722E+03  0.36443251091E+04  0.36345983878E+04 0.  0.
        1    1    3    3  502    0 -0.10992622846E+03  0.96226681164E+03  0.14087782329E+04  0.17095898052E+04  0.50400001928E-02 0.  1.
       -1    1    3    3    0  502  0.10992622846E+03 -0.96226681164E+03 -0.16748610401E+04  0.19347353039E+04  0.50400001928E-02 0. -1.
</event>
<event>
 5   0  0.3365378E-07  0.3560013E+04  0.7818609E-02  0.8099713E-01
        1   -1    0    0  501    0  0.00000000000E+00  0.00000000000E+00  0.19682163742E+04  0.19682163742E+04  0.50400001928E-02 0.  1.
       -1   -1    0    0    0  501  0.00000000000E+00  0.00000000000E+00 -0.16097937230E+04  0.16097937230E+04  0.50400001928E-02 0. -1.
    10030    2    1    2    0    0  0.00000000000E+00  0.00000000000E+00  0.35842265121E+03  0.35780100973E+04  0.35600125645E+04 0.  0.
        3    1    3    3  502    0 -0.91923051225E+03 -0.40492545622E+03 -0.12977323034E+04  0.16410540824E+04  0.10100000352E+00 0. -1.
       -3    1    3    3    0  502  0.91923051225E+03  0.40492545622E+03  0.16561549546E+04  0.19369560149E+04  0.10100000352E+00 0.  1.
</event>
<event>
 5   0  0.1031659E-06  0.3571405E+04  0.7818609E-02  0.8097073E-01
       -2   -1    0    0    0  501  0.00000000000E+00  0.00000000000E+00  0.14305661506E+04  0.14305661506E+04  0.25500000920E-02 0.  1.
        2   -1    0    0  501    0  0.00000000000E+00  0.00000000000E+00 -0.22290011428E+04  0.22290011428E+04  0.25500000920E-02 0. -1.
    10030    2    1    2    0    0  0.00000000000E+00  0.00000000000E+00 -0.79843499219E+03  0.36595672935E+04  0.35714050930E+04 0.  0.
        2    1    3    3  502    0 -0.56484968381E+03 -0.16608921739E+04 -0.57648728146E+02  0.17552610503E+04  0.25500000920E-02 0.  1.
       -2    1    3    3    0  502  0.56484968381E+03  0.16608921739E+04 -0.74078626405E+03  0.19043062432E+04  0.25500000920E-02 0. -1.
</event>
<event>
 5   0  0.3278988E-07  0.3592449E+04  0.7818609E-02  0.8092224E-01
       -1   -1    0    0    0  501  0.00000000000E+00  0.00000000000E+00  0.15619073575E+04  0.15619073575E+04  0.50400001928E-02 0. -1.
        1   -1    0    0  501    0  0.00000000000E+00  0.00000000000E+00 -0.20656934669E+04  0.20656934669E+04  0.50400001928E-02 0.  1.
    10030    2    1    2    0    0  0.00000000000E+00  0.00000000000E+00 -0.50378610947E+03  0.36276008244E+04  0.35924486492E+04 0.  0.
        4    1    3    3  502    0 -0.50527654212E+03  0.62851228546E+03 -0.18726178692E+04  0.20388799312E+04  0.12699999809E+01 0.  1.
       -4    1    3    3    0  502  0.50527654212E+03 -0.62851228546E+03  0.13688317597E+04  0.15887208932E+04  0.12699999809E+01 0. -1.
</event>
<event>
 5   0  0.3159875E-07  0.3520854E+04  0.7818609E-02  0.8108866E-01
       -1   -1    0    0    0  501  0.00000000000E+00  0.00000000000E+00  0.12638442443E+04  0.12638442443E+04  0.50400001928E-02 0. -1.
        1   -1    0    0  501    0  0.00000000000E+00  0.00000000000E+00 -0.24521240549E+04  0.24521240549E+04  0.50400001928E-02 0.  1.
    10030    2    1    2    0    0  0.00000000000E+00  0.00000000000E+00 -0.11882798106E+04  0.37159682993E+04  0.35208538017E+04 0.  0.
        5    1    3    3  502    0 -0.30861934584E+03  0.17093647465E+03  0.12261452791E+04  0.12758994923E+04  0.46999998093E+01 0. -1.
       -5    1    3    3    0  502  0.30861934584E+03 -0.17093647465E+03 -0.24144250897E+04  0.24400688069E+04  0.46999998093E+01 0.  1.
</event>
<event>
 5   0  0.9878977E-07  0.3695728E+04  0.7818609E-02  0.8068909E-01
        2   -1    0    0  501    0  0.00000000000E+00  0.00000000000E+00  0.20638045280E+04  0.20638045280E+04  0.25500000920E-02 0.  1.
       -2   -1    0    0    0  501  0.00000000000E+00  0.00000000000E+00 -0.16545180896E+04  0.16545180896E+04  0.25500000920E-02 0. -1.
    10030    2    1    2    0    0  0.00000000000E+00  0.00000000000E+00  0.40928643843E+03  0.37183226176E+04  0.36957283044E+04 0.  0.
        5    1    3    3  502    0  0.96936772288E+03  0.12471835222E+04  0.11693794022E+04  0.19653525883E+04  0.46999998093E+01 0.  1.
       -5    1    3    3    0  502 -0.96936772288E+03 -0.12471835222E+04 -0.76009296374E+03  0.17529700293E+04  0.46999998093E+01 0. -1.
</event>
<event>
 5   0  0.3159875E-07  0.3614898E+04  0.7818609E-02  0.8087088E-01
        1   -1    0    0  501    0  0.00000000000E+00  0.00000000000E+00  0.21976029389E+04  0.21976029389E+04  0.50400001928E-02 0. -1.
       -1   -1    0    0    0  501  0.00000000000E+00  0.00000000000E+00 -0.14865612620E+04  0.14865612620E+04  0.50400001928E-02 0.  1.
    10030    2    1    2    0    0  0.00000000000E+00  0.00000000000E+00  0.71104167692E+03  0.36841642010E+04  0.36148977293E+04 0.  0.
        5    1    3    3  502    0  0.86439059840E+03  0.14961490156E+04  0.89598042847E+03  0.19463905059E+04  0.46999998093E+01 0. -1.
       -5    1    3    3    0  502 -0.86439059840E+03 -0.14961490156E+04 -0.18493875155E+03  0.17377736951E+04  0.46999998093E+01 0.  1.
</event>
<event>
 5   0  0.3159875E-07  0.3567519E+04  0.7818609E-02  0.8097973E-01
        1   -1    0    0  501    0  0.00000000000E+00  0.00000000000E+00  0.16123974678E+04  0.16123974679E+04  0.50400001928E-02 0.  1.
       -1   -1    0    0    0  501  0.00000000000E+00  0.00000000000E+00 -0.19733333376E+04  0.19733333376E+04  0.50400001928E-02 0. -1.
    10030    2    1    2    0    0  0.00000000000E+00  0.00000000000E+00 -0.36093586977E+03  0.35857308055E+04  0.35675188447E+04 0.  0.
        2    1    3    3  502    0  0.16936101504E+04  0.46048002340E+03  0.13965520009E+03  0.17606421466E+04  0.25500000920E-02 0.  1.
       -2    1    3    3    0  502 -0.16936101504E+04 -0.46048002340E+03 -0.50059106986E+03  0.18250886589E+04  0.25500000920E-02 0. -1.
</event>
<event>
 5   0  0.1006019E-06  0.3550365E+04  0.7818609E-02  0.8101957E-01
        2   -1    0    0  501    0  0.00000000000E+00  0.00000000000E+00  0.25319188536E+04  0.25319188536E+04  0.25500000920E-02 0.  1.
       -2   -1    0    0    0  501  0.00000000000E+00  0.00000000000E+00 -0.12446184425E+04  0.12446184425E+04  0.25500000920E-02 0. -1.
    10030    2    1    2    0    0  0.00000000000E+00  0.00000000000E+00  0.12873004111E+04  0.37765372961E+04  0.35503649954E+04 0.  0.
        1    1    3    3  502    0  0.37871448061E+03  0.70790214972E+03 -0.10404732699E+04  0.13142049828E+04  0.50400001928E-02 0. -1.
       -1    1    3    3    0  502 -0.37871448061E+03 -0.70790214972E+03  0.23277736810E+04  0.24623323133E+04  0.50400001928E-02 0.  1.
</event>
<event>
 5   0  0.3278988E-07  0.3645385E+04  0.7818609E-02  0.8080174E-01
       -1   -1    0    0    0  501  0.00000000000E+00  0.00000000000E+00  0.19405399494E+04  0.19405399495E+04  0.50400001928E-02 0. -1.
        1   -1    0    0  501    0  0.00000000000E+00  0.00000000000E+00 -0.17120015321E+04  0.17120015321E+04  0.50400001928E-02 0.  1.
    10030    2    1    2    0    0  0.00000000000E+00  0.00000000000E+00  0.22853841735E+03  0.36525414816E+04  0.36453846802E+04 0.  0.
        4    1    3    3  502    0 -0.17108535077E+04 -0.55661750412E+03 -0.17847383522E+03  0.18079538969E+04  0.12699999809E+01 0.  1.
       -4    1    3    3    0  502  0.17108535077E+04  0.55661750412E+03  0.40701225257E+03  0.18445875846E+04  0.12699999809E+01 0. -1.
</event>
<event>
 5   0  0.1006019E-06  0.3608436E+04  0.7818609E-02  0.8088562E-01
        2   -1    0    0  501    0  0.00000000000E+00  0.00000000000E+00  0.18055581959E+04  0.18055581959E+04  0.25500000920E-02 0. -1.
       -2   -1    0    0    0  501  0.00000000000E+00  0.00000000000E+00 -0.18028786689E+04  0.18028786689E+04  0.25500000920E-02 0.  1.
    10030    2    1    2    0    0  0.00000000000E+00  0.00000000000E+00  0.26795270090E+01  0.36084368647E+04  0.36084358698E+04 0.  0.
        1    1    3    3  502    0  0.14310910110E+04 -0.16701796050E+03 -0.10846098329E+04  0.18034120357E+04  0.50400001928E-02 0.  1.
       -1    1    3    3    0  502 -0.14310910110E+04  0.16701796050E+03  0.10872893599E+04  0.18050248290E+04  0.50400001928E-02 0. -1.
</event>
<event>
 5   0  0.1006019E-06  0.3616844E+04  0.7818609E-02  0.8086644E-01
        2   -1    0    0  501    0  0.00000000000E+00  0.00000000000E+00  0.25537853726E+04  0.25537853726E+04  0.25500000920E-02 0.  1.
       -2   -1    0    0    0  501  0.00000000000E+00  0.00000000000E+00 -0.12806050064E+04  0.12806050064E+04  0.25500000920E-02 0. -1.
    10030    2    1    2    0    0  0.00000000000E+00  0.00000000000E+00  0.12731803662E+04  0.38343903790E+04  0.36168441125E+04 0.  0.
        1    1    3    3  502    0  0.14157570231E+04 -0.10349585705E+04  0.16858175722E+03  0.17617965263E+04  0.50400001928E-02 0. -1.
       -1    1    3    3    0  502 -0.14157570231E+04  0.10349585705E+04  0.11045986090E+04  0.20725938527E+04  0.50400001928E-02 0.  1.
</event>
<event>
 5   0  0.3278988E-07  0.3619828E+04  0.7818609E-02  0.8085965E-01
       -1   -1    0    0    0  501  0.00000000000E+00  0.00000000000E+00  0.12775441679E+04  0.12775441679E+04  0.50400001928E-02 0.  1.
        1   -1    0    0  501    0  0.00000000000E+00  0.00000000000E+00 -0.25641293728E+04  0.25641293728E+04  0.50400001928E-02 0. -1.
    10030    2    1    2    0    0  0.00000000000E+00  0.00000000000E+00 -0.12865852048E+04  0.38416735407E+04  0.36198279108E+04 0.  0.
        4    1    3    3  502    0  0.53748767036E+03 -0.12864971632E+04 -0.18680642655E+04  0.23310155855E+04  0.12699999809E+01 0. -1.
       -4    1    3    3    0  502 -0.53748767036E+03  0.12864971632E+04  0.58147906065E+03  0.15106579552E+04  0.12699999809E+01 0.  1.
</event>
<event>
 5   0  0.3159875E-07  0.3292004E+04  0.7818609E-02  0.8164933E-01
       -1   -1    0    0    0  501  0.00000000000E+00  0.00000000000E+00  0.92321757666E+03  0.92321757667E+03  0.50400001928E-02 0.  1.
        1   -1    0    0  501    0  0.00000000000E+00  0.00000000000E+00 -0.29346522894E+04  0.29346522894E+04  0.50400001928E-02 0. -1.
    10030    2    1    2    0    0  0.00000000000E+00  0.00000000000E+00 -0.20114347128E+04  0.38578698661E+04  0.32920039945E+04 0.  0.
        5    1    3    3  502    0 -0.35943339021E+03 -0.15966798460E+04 -0.80031326907E+03  0.18218403638E+04  0.46999998093E+01 0.  1.
       -5    1    3    3    0  502  0.35943339021E+03  0.15966798460E+04 -0.12111214437E+04  0.20360295023E+04  0.46999998093E+01 0. -1.
</event>
<event>
 5   0  0.9538919E-07  0.3524854E+04  0.7818609E-02  0.8107925E-01
       -2   -1    0    0    0  501  0.00000000000E+00  0.00000000000E+00  0.17408271517E+04  0.17408271517E+04  0.25500000920E-02 0.  1.
        2   -1    0    0  501    0  0.00000000000E+00  0.00000000000E+00 -0.17842952779E+04  0.17842952779E+04  0.25500000920E-02 0. -1.
    10030    2    1    2    0    0  0.00000000000E+00  0.00000000000E+00 -0.43468126200E+02  0.35251224296E+04  0.35248544177E+04 0.  0.
        4    1    3    3  502    0  0.64310568582E+03 -0.45051496728E+03  0.15562323503E+04  0.17431033819E+04  0.12699999809E+01 0.  1.
       -4    1    3    3    0  502 -0.64310568582E+03  0.45051496728E+03 -0.15997004765E+04  0.17820190477E+04  0.12699999809E+01 0. -1.
</event>
<event>
 5   0  0.3278988E-07  0.3552892E+04  0.7818609E-02  0.8101368E-01
        1   -1    0    0  501    0  0.00000000000E+00  0.00000000000E+00  0.18126059286E+04  0.18126059286E+04  0.50400001928E-02 0.  1.
       -1   -1    0    0    0  501  0.00000000000E+00  0.00000000000E+00 -0.17410072052E+04  0.17410072052E+04  0.50400001928E-02 0. -1.
    10030    2    1    2    0    0  0.00000000000E+00  0.00000000000E+00  0.71598723392E+02  0.35536131337E+04  0.35528917697E+04 0.  0.
        4    1    3    3  502    0  0.69575635627E+03 -0.13811388960E+04 -0.83852731483E+03  0.17591905036E+04  0.12699999809E+01 0. -1.
       -4    1    3    3    0  502 -0.69575635627E+03  0.13811388960E+04  0.91012603822E+03  0.17944226302E+04  0.12699999809E+01 0.  1.
</event>
<event>
 5   0  0.3242047E-07  0.3644094E+04  0.7818609E-02  0.8080465E-01
        1   -1    0    0  501    0  0.00000000000E+00  0.00000000000E+00  0.16339871161E+04  0.16339871161E+04  0.50400001928E-02 0. -1.
       -1   -1    0    0    0  501  0.00000000000E+00  0.00000000000E+00 -0.20317515588E+04  0.20317515588E+04  0.50400001928E-02 0.  1.
    10030    2    1    2    0    0  0.00000000000E+00  0.00000000000E+00 -0.39776444265E+03  0.36657386749E+04  0.36440943293E+04 0.  0.
        1    1    3    3  502    0  0.85005452967E+03 -0.17013769255E+02 -0.18199667715E+04  0.20087710723E+04  0.50400001928E-02 0.  1.
       -1    1    3    3    0  502 -0.85005452967E+03  0.17013769255E+02  0.14222023288E+04  0.16569676026E+04  0.50400001928E-02 0. -1.
</event>
<event>
 5   0  0.3159875E-07  0.3586946E+04  0.7818609E-02  0.8093488E-01
        1   -1    0    0  501    0  0.00000000000E+00  0.00000000000E+00  0.20564066738E+04  0.20564066738E+04  0.50400001928E-02 0. -1.
       -1   -1    0    0    0  501  0.00000000000E+00  0.00000000000E+00 -0.15641580015E+04  0.15641580015E+04  0.50400001928E-02 0.  1.
    10030    2    1    2    0    0  0.00000000000E+00  0.00000000000E+00  0.49224867234E+03  0.36205646753E+04  0.35869457499E+04 0.  0.
        5    1    3    3  502    0 -0.13788318180E+04 -0.50981983144E+03  0.12830941147E+04  0.19512678033E+04  0.46999998093E+01 0. -1.
       -5    1    3    3    0  502  0.13788318180E+04  0.50981983144E+03 -0.79084544241E+03  0.16692968720E+04  0.46999998093E+01 0.  1.
</event>
<event>
 5   0  0.9538919E-07  0.3682062E+04  0.7818609E-02  0.8071949E-01
       -2   -1    0    0    0  501  0.00000000000E+00  0.00000000000E+00  0.16872181401E+04  0.16872181401E+04  0.25500000920E-02 0. -1.
        2   -1    0    0  501    0  0.00000000000E+00  0.00000000000E+00 -0.20088661979E+04  0.20088661979E+04  0.25500000920E-02 0.  1.
    10030    2    1    2    0    0  0.00000000000E+00  0.00000000000E+00 -0.32164805784E+03  0.36960843380E+04  0.36820621886E+04 0.  0.
        4    1    3    3  502    0  0.94037470961E+03 -0.37347323910E+03 -0.17047342898E+04  0.19823994216E+04  0.12699999809E+01 0.  1.
       -4    1    3    3    0  502 -0.94037470961E+03  0.37347323910E+03  0.13830862320E+04  0.17136849164E+04  0.12699999809E+01 0. -1.
</event>
<event>
 5   0  0.1031659E-06  0.3737762E+04  0.7818609E-02  0.8059644E-01
       -2   -1    0    0    0  501  0.00000000000E+00  0.00000000000E+00  0.19743820480E+04  0.19743820480E+04  0.25500000920E-02 0.  1.
        2   -1    0    0  501    0  0.00000000000E+00  0.00000000000E+00 -0.17690176629E+04  0.17690176629E+04  0.25500000920E-02 0. -1.
    10030    2    1    2    0    0  0.00000000000E+00  0.00000000000E+00  0.20536438505E+03  0.37433997109E+04  0.37377622805E+04 0.  0.
        2    1    3    3  502    0  0.88343262004E+03 -0.29306508356E+03  0.17257363346E+04  0.19607412461E+04  0.25500000920E-02 0.  1.
       -2    1    3    3    0  502 -0.88343262004E+03  0.29306508356E+03 -0.15203719496E+04  0.17826584649E+04  0.25500000920E-02 0. -1.
</event>
<event>
 5   0  0.3159875E-07  0.3601031E+04  0.7818609E-02  0.8090256E-01
        1   -1    0    0  501    0  0.00000000000E+00  0.00000000000E+00  0.20019934275E+04  0.20019934275E+04  0.50400001928E-02 0. -1.
       -1   -1    0    0    0  501  0.00000000000E+00  0.00000000000E+00 -0.16193140665E+04  0.16193140665E+04  0.50400001928E-02 0.  1.
    10030    2    1    2    0    0  0.00000000000E+00  0.00000000000E+00  0.38267936098E+03  0.36213074941E+04  0.36010310292E+04 0.  0.
        5    1    3    3  502    0  0.14855796292E+04 -0.22343924216E+03  0.11893804890E+04  0.19161210733E+04  0.46999998093E+01 0. -1.
       -5    1    3    3    0  502 -0.14855796292E+04  0.22343924216E+03 -0.80670112802E+03  0.17051864208E+04  0.46999998093E+01 0.  1.
</event>
<event>
 5   0  0.3242047E-07  0.3612592E+04  0.7818609E-02  0.8087613E-01
        1   -1    0    0  501    0  0.00000000000E+00  0.00000000000E+00  0.22519446197E+04  0.22519446197E+04  0.50400001928E-02 0. -1.
       -1   -1    0    0    0  501  0.00000000000E+00  0.00000000000E+00 -0.14488389732E+04  0.14488389732E+04  0.50400001928E-02 0.  1.
    10030    2    1    2    0    0  0.00000000000E+00  0.00000000000E+00  0.80310564647E+03  0.37007835929E+04  0.36125919396E+04 0.  0.
        1    1    3    3  502    0  0.90698327487E+03  0.34239388031E+03  0.19628502195E+04  0.21892083533E+04  0.50400001928E-02 0. -1.
       -1    1    3    3    0  502 -0.90698327487E+03 -0.34239388031E+03 -0.11597445730E+04  0.15115752396E+04  0.50400001928E-02 0.  1.
</event>
<event>
 5   0  0.9878336E-07  0.3642386E+04  0.7818609E-02  0.8080851E-01
       -2   -1    0    0    0  501  0.00000000000E+00  0.00000000000E+00  0.15299348274E+04  0.15299348274E+04  0.25500000920E-02 0. -1.
        2   -1    0    0  501    0  0.00000000000E+00  0.00000000000E+00 -0.21678993794E+04  0.21678993794E+04  0.25500000920E-02 0.  1.
    10030    2    1    2    0    0  0.00000000000E+00  0.00000000000E+00 -0.63796455207E+03  0.36978342068E+04  0.36423864500E+04 0.  0.
        3    1    3    3  502    0  0.24191246352E+03  0.12882786873E+04  0.96460687883E+03  0.16274673751E+04  0.10100000352E+00 0. -1.
       -3    1    3    3    0  502 -0.24191246352E+03 -0.12882786873E+04 -0.16025714309E+04  0.20703668316E+04  0.10100000352E+00 0.  1.
</event>
<event>
 5   0  0.9538919E-07  0.3588992E+04  0.7818609E-02  0.8093018E-01
       -2   -1    0    0    0  501  0.00000000000E+00  0.00000000000E+00  0.10989999403E+04  0.10989999403E+04  0.25500000920E-02 0. -1.
        2   -1    0    0  501    0  0.00000000000E+00  0.00000000000E+00 -0.29301325479E+04  0.29301325479E+04  0.25500000920E-02 0.  1.
    10030    2    1    2    0    0  0.00000000000E+00  0.00000000000E+00 -0.18311326076E+04  0.40291324882E+04  0.35889917778E+04 0.  0.
        4    1    3    3  502    0 -0.61142109209E+03 -0.14680666504E+04  0.17747938069E+02  0.15903999636E+04  0.12699999809E+01 0. -1.
       -4    1    3    3    0  502  0.61142109209E+03  0.14680666504E+04 -0.18488805457E+04  0.24387325247E+04  0.12699999809E+01 0.  1.
</event>
<event>
 5   0  0.9538919E-07  0.3366164E+04  0.7818609E-02  0.8146261E-01
        2   -1    0    0  501    0  0.00000000000E+00  0.00000000000E+00  0.14325633958E+04  0.14325633958E+04  0.25500000920E-02 0.  1.
       -2   -1    0    0    0  501  0.00000000000E+00  0.00000000000E+00 -0.19774103506E+04  0.19774103506E+04  0.25500000920E-02 0. -1.
    10030    2    1    2    0    0  0.00000000000E+00  0.00000000000E+00 -0.54484695484E+03  0.34099737464E+04  0.33661643969E+04 0.  0.
        4    1    3    3  502    0  0.10295499303E+04  0.98279227151E+02 -0.16175345652E+04  0.19199092552E+04  0.12699999809E+01 0. -1.
       -4    1    3    3    0  502 -0.10295499303E+04 -0.98279227151E+02  0.10726876104E+04  0.14900644912E+04  0.12699999809E+01 0.  1.
</event>
<event>
 5   0  0.3365378E-07  0.3515385E+04  0.7818609E-02  0.8110154E-01
       -1   -1    0    0    0  501  0.00000000000E+00  0.00000000000E+00  0.14406587138E+04  0.14406587138E+04  0.50400001928E-02 0. -1.
        1   -1    0    0  501    0  0.00000000000E+00  0.00000000000E+00 -0.21444931630E+04  0.21444931630E+04  0.50400001928E-02 0.  1.
    10030    2    1    2    0    0  0.00000000000E+00  0.00000000000E+00 -0.70383444922E+03  0.35851518768E+04  0.35153849075E+04 0.  0.
        3    1    3    3  502    0 -0.39433537798E+03  0.17026758261E+04 -0.54237849663E+03  0.18299671590E+04  0.10100000352E+00 0. -1.
       -3    1    3    3    0  502  0.39433537798E+03 -0.17026758261E+04 -0.16145595259E+03  0.17551847179E+04  0.10100000352E+00 0.  1.
</event>
<event>
 5   0  0.3159875E-07  0.3542961E+04  0.7818609E-02  0.8103684E-01
        1   -1    0    0  501    0  0.00000000000E+00  0.00000000000E+00  0.22481534484E+04  0.22481534484E+04  0.50400001928E-02 0. -1.
       -1   -1    0    0    0  501  0.00000000000E+00  0.00000000000E+00 -0.13958755082E+04  0.13958755082E+04  0.50400001928E-02 0.  1.
    10030    2    1    2    0    0  0.00000000000E+00  0.00000000000E+00  0.85227794020E+03  0.36440289567E+04  0.35429605346E+04 0.  0.
        5    1    3    3  502    0 -0.67102576271E+03  0.56611322378E+03  0.20086534860E+04  0.21921383791E+04  0.46999998093E+01 0. -1.
       -5    1    3    3    0  502  0.67102576271E+03 -0.56611322378E+03 -0.11563755458E+04  0.14518905776E+04  0.46999998093E+01 0.  1.
</event>
<event>
 5   0  0.3365378E-07  0.3588398E+04  0.7818609E-02  0.8093154E-01
        1   -1    0    0  501    0  0.00000000000E+00  0.00000000000E+00  0.18324883555E+04  0.18324883555E+04  0.50400001928E-02 0.  1.
       -1   -1    0    0    0  501  0.00000000000E+00  0.00000000000E+00 -0.17567101585E+04  0.17567101585E+04  0.50400001928E-02 0. -1.
    10030    2    1    2    0    0  0.00000000000E+00  0.00000000000E+00  0.75778197049E+02  0.35891985140E+04  0.35883984782E+04 0.  0.
        3    1    3    3  502    0 -0.36487134766E+03 -0.60376189847E+03 -0.16121730279E+04  0.17597617487E+04  0.10100000352E+00 0. -1.
       -3    1    3    3    0  502  0.36487134766E+03  0.60376189847E+03  0.16879512249E+04  0.18294367653E+04  0.10100000352E+00 0.  1.
</event>
<event>
 5   0  0.3159875E-07  0.3401917E+04  0.7818609E-02  0.8137436E-01
        1   -1    0    0  501    0  0.00000000000E+00  0.00000000000E+00  0.22180532389E+04  0.22180532389E+04  0.50400001928E-02 0. -1.
       -1   -1    0    0    0  501  0.00000000000E+00  0.00000000000E+00 -0.13044136996E+04  0.13044136996E+04  0.50400001928E-02 0.  1.
    10030    2    1    2    0    0  0.00000000000E+00  0.00000000000E+00  0.91363953931E+03  0.35224669386E+04  0.34019165371E+04 0.  0.
        2    1    3    3  502    0  0.10162304293E+04 -0.71122180311E+03 -0.74833982568E+03  0.14486453097E+04  0.25500000920E-02 0.  1.
       -2    1    3    3    0  502 -0.10162304293E+04  0.71122180311E+03  0.16619793650E+04  0.20738216289E+04  0.25500000920E-02 0. -1.
</event>
<event>
 5   0  0.9878336E-07  0.3169396E+04  0.7818609E-02  0.8196947E-01
       -2   -1    0    0    0  501  0.00000000000E+00  0.00000000000E+00  0.11937743815E+04  0.11937743815E+04  0.25500000920E-02 0. -1.
        2   -1    0    0  501    0  0.00000000000E+00  0.00000000000E+00 -0.21036369096E+04  0.21036369096E+04  0.25500000920E-02 0.  1.
    10030    2    1    2    0    0  0.00000000000E+00  0.00000000000E+00 -0.90986252816E+03  0.32974112911E+04  0.31693960627E+04 0.  0.
        3    1    3    3  502    0  0.75489139853E+03  0.51947320390E+02  0.99368327815E+03  0.12489859948E+04  0.10100000352E+00 0. -1.
       -3    1    3    3    0  502 -0.75489139853E+03 -0.51947320390E+02 -0.19035458063E+04  0.20484252963E+04  0.10100000352E+00 0.  1.
</event>
<event>
 5   0  0.9878336E-07  0.3608577E+04  0.7818609E-02  0.8088530E-01
        2   -1    0    0  501    0  0.00000000000E+00  0.00000000000E+00  0.23825627036E+04  0.23825627036E+04  0.25500000920E-02 0. -1.
       -2   -1    0    0    0  501  0.00000000000E+00  0.00000000000E+00 -0.13663675407E+04  0.13663675407E+04  0.25500000920E-02 0.  1.
    10030    2    1    2    0    0  0.00000000000E+00  0.00000000000E+00  0.10161951629E+04  0.37489302442E+04  0.36085766400E+04 0.  0.
        3    1    3    3  502    0 -0.16925737498E+04  0.55464352372E+03  0.20875714199E+03  0.17933250937E+04  0.10100000352E+00 0.  1.
       -3    1    3    3    0  502  0.16925737498E+04 -0.55464352372E+03  0.80743802095E+03  0.19556051506E+04  0.10100000352E+00 0. -1.
</event>
<event>
 5   0  0.3365378E-07  0.2780089E+04  0.7818609E-02  0.8309477E-01
        1   -1    0    0  501    0  0.00000000000E+00  0.00000000000E+00  0.20079526123E+04  0.20079526123E+04  0.50400001928E-02 0.  1.
       -1   -1    0    0    0  501  0.00000000000E+00  0.00000000000E+00 -0.96228574674E+03  0.96228574675E+03  0.50400001928E-02 0. -1.
    10030    2    1    2    0    0  0.00000000000E+00  0.00000000000E+00  0.10456668655E+04  0.29702383590E+04  0.27800893359E+04 0.  0.
        3    1    3    3  502    0  0.98349224751E+03 -0.28749529270E+03  0.15263950516E+04  0.18384211727E+04  0.10100000352E+00 0.  1.
       -3    1    3    3    0  502 -0.98349224751E+03  0.28749529270E+03 -0.48072818611E+03  0.11318171864E+04  0.10100000352E+00 0. -1.
</event>
<event>
 5   0  0.9538919E-07  0.3003384E+04  0.7818609E-02  0.8242765E-01
        2   -1    0    0  501    0  0.00000000000E+00  0.00000000000E+00  0.23157973298E+04  0.23157973298E+04  0.25500000920E-02 0. -1.
       -2   -1    0    0    0  501  0.00000000000E+00  0.00000000000E+00 -0.97378101015E+03  0.97378101015E+03  0.25500000920E-02 0.  1.
    10030    2    1    2    0    0  0.00000000000E+00  0.00000000000E+00  0.13420163197E+04  0.32895783400E+04  0.30033843997E+04 0.  0.
        4    1    3    3  502    0  0.48980080403E+03 -0.13878171782E+04  0.34400111618E+03  0.15113833824E+04  0.12699999809E+01 0. -1.
       -4    1    3    3    0  502 -0.48980080403E+03  0.13878171782E+04  0.99801520348E+03  0.17781949575E+04  0.12699999809E+01 0.  1.
</event>
<event>
 5   0  0.1006019E-06  0.3664311E+04  0.7818609E-02  0.8075917E-01
        2   -1    0    0  501    0  0.00000000000E+00  0.00000000000E+00  0.15066622788E+04  0.15066622788E+04  0.25500000920E-02 0.  1.
       -2   -1    0    0    0  501  0.00000000000E+00  0.00000000000E+00 -0.22279672001E+04  0.22279672001E+04  0.25500000920E-02 0. -1.
    10030    2    1    2    0    0  0.00000000000E+00  0.00000000000E+00 -0.72130492133E+03  0.37346294789E+04  0.36643111979E+04 0.  0.
        1    1    3    3  502    0 -0.17520912874E+04  0.49817036229E+03 -0.56140068976E+03  0.19060871763E+04  0.50400001928E-02 0. -1.
       -1    1    3    3    0  502  0.17520912874E+04 -0.49817036229E+03 -0.15990423157E+03  0.18285423026E+04  0.50400001928E-02 0.  1.
</event>
<event>
 5   0  0.9538919E-07  0.3596792E+04  0.7818609E-02  0.8091227E-01
       -2   -1    0    0    0  501  0.00000000000E+00  0.00000000000E+00  0.14560671170E+04  0.14560671170E+04  0.25500000920E-02 0. -1.
        2   -1    0    0  501    0  0.00000000000E+00  0.00000000000E+00 -0.22212082996E+04  0.22212082996E+04  0.25500000920E-02 0.  1.
    10030    2    1    2    0    0  0.00000000000E+00  0.00000000000E+00 -0.76514118254E+03  0.36772754166E+04  0.35967921069E+04 0.  0.
        4    1    3    3  502    0 -0.46840420517E+03  0.10975526105E+04 -0.17581143303E+04  0.21248510168E+04  0.12699999809E+01 0.  1.
       -4    1    3    3    0  502  0.46840420517E+03 -0.10975526105E+04  0.99297314773E+03  0.15524243998E+04  0.12699999809E+01 0. -1.
</event>
<event>
 5   0  0.3159875E-07  0.3269458E+04  0.7818609E-02  0.8170710E-01
        1   -1    0    0  501    0  0.00000000000E+00  0.00000000000E+00  0.19371857640E+04  0.19371857641E+04  0.50400001928E-02 0. -1.
       -1   -1    0    0    0  501  0.00000000000E+00  0.00000000000E+00 -0.13794956340E+04  0.13794956340E+04  0.50400001928E-02 0.  1.
    10030    2    1    2    0    0  0.00000000000E+00  0.00000000000E+00  0.55769013008E+03  0.33166813980E+04  0.32694582448E+04 0.  0.
        5    1    3    3  502    0 -0.52843682221E+03 -0.10034359628E+04 -0.91552532550E+03  0.14575108638E+04  0.46999998093E+01 0.  1.
       -5    1    3    3    0  502  0.52843682221E+03  0.10034359628E+04  0.14732154556E+04  0.18591705342E+04  0.46999998093E+01 0. -1.
</event>
<event>
 5   0  0.1006019E-06  0.2772381E+04  0.7818609E-02  0.8311895E-01
        2   -1    0    0  501    0  0.00000000000E+00  0.00000000000E+00  0.29442793353E+04  0.29442793353E+04  0.25500000920E-02 0.  1.
       -2   -1    0    0    0  501  0.00000000000E+00  0.00000000000E+00 -0.65262950157E+03  0.65262950157E+03  0.25500000920E-02 0. -1.
    10030    2    1    2    0    0  0.00000000000E+00  0.00000000000E+00  0.22916498338E+04  0.35969088369E+04  0.27723806053E+04 0.  0.
        1    1    3    3  502    0 -0.19657639424E+03  0.58678309634E+03 -0.46346676939E+03  0.77314819232E+03  0.50400001928E-02 0. -1.
       -1    1    3    3    0  502  0.19657639424E+03 -0.58678309634E+03  0.27551166032E+04  0.28237606446E+04  0.50400001928E-02 0.  1.
</event>
<event>
 5   0  0.9878336E-07  0.3623068E+04  0.7818609E-02  0.8085228E-01
       -2   -1    0    0    0  501  0.00000000000E+00  0.00000000000E+00  0.11406791003E+04  0.11406791003E+04  0.25500000920E-02 0. -1.
        2   -1    0    0  501    0  0.00000000000E+00  0.00000000000E+00 -0.28769320384E+04  0.28769320384E+04  0.25500000920E-02 0.  1.
    10030    2    1    2    0    0  0.00000000000E+00  0.00000000000E+00 -0.17362529381E+04  0.40176111387E+04  0.36230684505E+04 0.  0.
        3    1    3    3  502    0 -0.96902037378E+03  0.81191460888E+03 -0.23068969725E+04  0.26305853852E+04  0.10100000352E+00 0.  1.
       -3    1    3    3    0  502  0.96902037378E+03 -0.81191460888E+03  0.57064403435E+03  0.13870257536E+04  0.10100000352E+00 0. -1.
</event>
<event>
 5   0  0.3278988E-07  0.3651248E+04  0.7818609E-02  0.8078852E-01
       -1   -1    0    0    0  501  0.00000000000E+00  0.00000000000E+00  0.22003464253E+04  0.22003464253E+04  0.50400001928E-02 0.  1.
        1   -1    0    0  501    0  0.00000000000E+00  0.00000000000E+00 -0.15147177102E+04  0.15147177102E+04  0.50400001928E-02 0. -1.
    10030    2    1    2    0    0  0.00000000000E+00  0.00000000000E+00  0.68562871511E+03  0.37150641355E+04  0.36512483886E+04 0.  0.
        4    1    3    3  502    0 -0.13448933543E+04  0.19733127610E+03  0.15828122963E+04  0.20863782363E+04  0.12699999809E+01 0.  1.
       -4    1    3    3    0  502  0.13448933543E+04 -0.19733127610E+03 -0.89718358115E+03  0.16286858991E+04  0.12699999809E+01 0. -1.
</event>
<event>
 5   0  0.9878977E-07  0.4032324E+04  0.7818609E-02  0.7998057E-01
        2   -1    0    0  501    0  0.00000000000E+00  0.00000000000E+00  0.22837603247E+04  0.22837603247E+04  0.25500000920E-02 0.  1.
       -2   -1    0    0    0  501  0.00000000000E+00  0.00000000000E+00 -0.17799190013E+04  0.17799190013E+04  0.25500000920E-02 0. -1.
    10030    2    1    2    0    0  0.00000000000E+00  0.00000000000E+00  0.50384132338E+03  0.40636793259E+04  0.40323235963E+04 0.  0.
        5    1    3    3  502    0 -0.15948229286E+04 -0.73277712352E+03 -0.74799629275E+03  0.19078634726E+04  0.46999998093E+01 0. -1.
       -5    1    3    3    0  502  0.15948229286E+04  0.73277712352E+03  0.12518376161E+04  0.21558158533E+04  0.46999998093E+01 0.  1.
</event>
<event>
 5   0  0.1031659E-06  0.3595453E+04  0.7818609E-02  0.8091534E-01
       -2   -1    0    0    0  501  0.00000000000E+00  0.00000000000E+00  0.14164871476E+04  0.14164871476E+04  0.25500000920E-02 0. -1.
        2   -1    0    0  501    0  0.00000000000E+00  0.00000000000E+00 -0.22815747380E+04  0.22815747380E+04  0.25500000920E-02 0.  1.
    10030    2    1    2    0    0  0.00000000000E+00  0.00000000000E+00 -0.86508759034E+03  0.36980618856E+04  0.35954534026E+04 0.  0.
        2    1    3    3  502    0  0.87335523677E+02 -0.79231708075E+03  0.12247847301E+04  0.14613320928E+04  0.25500000920E-02 0. -1.
       -2    1    3    3    0  502 -0.87335523677E+02  0.79231708075E+03 -0.20898723205E+04  0.22367297928E+04  0.25500000920E-02 0.  1.
</event>
<event>
 5   0  0.1031659E-06  0.3619824E+04  0.7818609E-02  0.8085966E-01
       -2   -1    0    0    0  501  0.00000000000E+00  0.00000000000E+00  0.13541534175E+04  0.13541534175E+04  0.25500000920E-02 0.  1.
        2   -1    0    0  501    0  0.00000000000E+00  0.00000000000E+00 -0.24190620074E+04  0.24190620074E+04  0.25500000920E-02 0. -1.
    10030    2    1    2    0    0  0.00000000000E+00  0.00000000000E+00 -0.10649085899E+04  0.37732154248E+04  0.36198237992E+04 0.  0.
        2    1    3    3  502    0 -0.14177376711E+04  0.11169763350E+04 -0.67294255872E+03  0.19262574917E+04  0.25500000920E-02 0. -1.
       -2    1    3    3    0  502  0.14177376711E+04 -0.11169763350E+04 -0.39196603118E+03  0.18469579331E+04  0.25500000920E-02 0.  1.
</event>
<event>
 5   0  0.3365378E-07  0.3593337E+04  0.7818609E-02  0.8092020E-01
       -1   -1    0    0    0  501  0.00000000000E+00  0.00000000000E+00  0.22360164339E+04  0.22360164339E+04  0.50400001928E-02 0.  1.
        1   -1    0    0  501    0  0.00000000000E+00  0.00000000000E+00 -0.14436465239E+04  0.14436465239E+04  0.50400001928E-02 0. -1.
    10030    2    1    2    0    0  0.00000000000E+00  0.00000000000E+00  0.79236991003E+03  0.36796629578E+04  0.35933368070E+04 0.  0.
        3    1    3    3  502    0 -0.12989633996E+04 -0.13441688610E+03  0.16597838444E+04  0.21119318723E+04  0.10100000352E+00 0.  1.
       -3    1    3    3    0  502  0.12989633996E+04  0.13441688610E+03 -0.86741393438E+03  0.15677310855E+04  0.10100000352E+00 0. -1.
</event>
<event>
 5   0  0.3159875E-07  0.3583319E+04  0.7818609E-02  0.8094323E-01
        1   -1    0    0  501    0  0.00000000000E+00  0.00000000000E+00  0.27411262570E+04  0.27411262570E+04  0.50400001928E-02 0.  1.
       -1   -1    0    0    0  501  0.00000000000E+00  0.00000000000E+00 -0.11710677070E+04  0.11710677070E+04  0.50400001928E-02 0. -1.
    10030    2    1    2    0    0  0.00000000000E+00  0.00000000000E+00  0.15700585500E+04  0.39121939641E+04  0.35833193776E+04 0.  0.
        2    1    3    3  502    0 -0.12453326880E+04  0.23075910698E+03 -0.59853607390E+03  0.14008385706E+04  0.25500000920E-02 0. -1.
       -2    1    3    3    0  502  0.12453326880E+04 -0.23075910698E+03  0.21685946239E+04  0.25113553934E+04  0.25500000920E-02 0.  1.
</event>
<event>
 5   0  0.1006019E-06  0.3137489E+04  0.7818609E-02  0.8205524E-01
        2   -1    0    0  501    0  0.00000000000E+00  0.00000000000E+00  0.28621644260E+04  0.28621644260E+04  0.25500000920E-02 0.  1.
       -2   -1    0    0    0  501  0.00000000000E+00  0.00000000000E+00 -0.85982463075E+03  0.85982463075E+03  0.25500000920E-02 0. -1.
    10030    2    1    2    0    0  0.00000000000E+00  0.00000000000E+00  0.20023397952E+04  0.37219890567E+04  0.31374891048E+04 0.  0.
        1    1    3    3  502    0  0.22740610568E+03  0.10187483130E+04  0.23904012984E+04  0.26083673111E+04  0.50400001928E-02 0.  1.
       -1    1    3    3    0  502 -0.22740610568E+03 -0.10187483130E+04 -0.38806150316E+03  0.11136217457E+04  0.50400001928E-02 0. -1.
</event>
<event>
 5   0  0.3159875E-07  0.3585405E+04  0.7818609E-02  0.8093843E-01
        1   -1    0    0  501    0  0.00000000000E+00  0.00000000000E+00  0.22880872305E+04  0.22880872305E+04  0.50400001928E-02 0. -1.
       -1   -1    0    0    0  501  0.00000000000E+00  0.00000000000E+00 -0.14045719516E+04  0.14045719516E+04  0.50400001928E-02 0.  1.
    10030    2    1    2    0    0  0.00000000000E+00  0.00000000000E+00  0.88351527896E+03  0.36926591821E+04  0.35854054983E+04 0.  0.
        2    1    3    3  502    0  0.65436725753E+03  0.16532441260E+04  0.20606593296E+03  0.17899373779E+04  0.25500000920E-02 0.  1.
       -2    1    3    3    0  502 -0.65436725753E+03 -0.16532441260E+04  0.67744934600E+03  0.19027218042E+04  0.25500000920E-02 0. -1.
</event>
<event>
 5   0  0.3159875E-07  0.3560581E+04  0.7818609E-02  0.8099581E-01
        1   -1    0    0  501    0  0.00000000000E+00  0.00000000000E+00  0.14358748939E+04  0.14358748939E+04  0.50400001928E-02 0.  1.
       -1   -1    0    0    0  501  0.00000000000E+00  0.00000000000E+00 -0.22073188761E+04  0.22073188761E+04  0.50400001928E-02 0. -1.
    10030    2    1    2    0    0  0.00000000000E+00  0.00000000000E+00 -0.77144398224E+03  0.36431937700E+04  0.35605807150E+04 0.  0.
        5    1    3    3  502    0 -0.16746592511E+04 -0.21595494969E+03  0.19154133737E+03  0.16993617394E+04  0.46999998093E+01 0.  1.
       -5    1    3    3    0  502  0.16746592511E+04  0.21595494969E+03 -0.96298531961E+03  0.19438320306E+04  0.46999998093E+01 0. -1.
</event>
<event>
 5   0  0.9878977E-07  0.3524087E+04  0.7818609E-02  0.8108105E-01
       -2   -1    0    0    0  501  0.00000000000E+00  0.00000000000E+00  0.17199465403E+04  0.17199465403E+04  0.25500000920E-02 0.  1.
        2   -1    0    0  501    0  0.00000000000E+00  0.00000000000E+00 -0.18051709806E+04  0.18051709806E+04  0.25500000920E-02 0. -1.
    10030    2    1    2    0    0  0.00000000000E+00  0.00000000000E+00 -0.85224440228E+02  0.35251175209E+04  0.35240871628E+04 0.  0.
        5    1    3    3  502    0  0.15502396100E+04 -0.80845048159E+03 -0.26162934386E+03  0.17678537929E+04  0.46999998093E+01 0. -1.
       -5    1    3    3    0  502 -0.15502396100E+04  0.80845048159E+03  0.17640490364E+03  0.17572637280E+04  0.46999998093E+01 0.  1.
</event>
<event>
 5   0  0.3159875E-07  0.3597602E+04  0.7818609E-02  0.8091041E-01
        1   -1    0    0  501    0  0.00000000000E+00  0.00000000000E+00  0.18723011778E+04  0.18723011778E+04  0.50400001928E-02 0. -1.
       -1   -1    0    0    0  501  0.00000000000E+00  0.00000000000E+00 -0.17281859977E+04  0.17281859977E+04  0.50400001928E-02 0.  1.
    10030    2    1    2    0    0  0.00000000000E+00  0.00000000000E+00  0.14411518012E+03  0.36004871756E+04  0.35976018007E+04 0.  0.
        2    1    3    3  502    0 -0.12388895675E+04 -0.24516229981E+03  0.13539958279E+04  0.18515551884E+04  0.25500000920E-02 0. -1.
       -2    1    3    3    0  502  0.12388895675E+04  0.24516229981E+03 -0.12098806478E+04  0.17489319871E+04  0.25500000920E-02 0.  1.
</event>
<event>
 5   0  0.3365378E-07  0.3658426E+04  0.7818609E-02  0.8077238E-01
        1   -1    0    0  501    0  0.00000000000E+00  0.00000000000E+00  0.28313803770E+04  0.28313803770E+04  0.50400001928E-02 0.  1.
       -1   -1    0    0    0  501  0.00000000000E+00  0.00000000000E+00 -0.11817627774E+04  0.11817627774E+04  0.50400001928E-02 0. -1.
    10030    2    1    2    0    0  0.00000000000E+00  0.00000000000E+00  0.16496175996E+04  0.40131431544E+04  0.36584258572E+04 0.  0.
        3    1    3    3  502    0 -0.32303302056E+03  0.17514366944E+04  0.12825695406E+04  0.21947358528E+04  0.10100000352E+00 0.  1.
       -3    1    3    3    0  502  0.32303302056E+03 -0.17514366944E+04  0.36704805904E+03  0.18184073016E+04  0.10100000352E+00 0. -1.
</event>
<event>
 5   0  0.3159875E-07  0.3495979E+04  0.7818609E-02  0.8114744E-01
       -1   -1    0    0    0  501  0.00000000000E+00  0.00000000000E+00  0.13250598998E+04  0.13250598998E+04  0.50400001928E-02 0. -1.
        1   -1    0    0  501    0  0.00000000000E+00  0.00000000000E+00 -0.23059086726E+04  0.23059086726E+04  0.50400001928E-02 0.  1.
    10030    2    1    2    0    0  0.00000000000E+00  0.00000000000E+00 -0.98084877282E+03  0.36309685724E+04  0.34959788985E+04 0.  0.
        5    1    3    3  502    0 -0.80961354061E+03  0.14103570978E+04 -0.11561612791E+04  0.19953225859E+04  0.46999998093E+01 0.  1.
       -5    1    3    3    0  502  0.80961354061E+03 -0.14103570978E+04  0.17531250628E+03  0.16356459865E+04  0.46999998093E+01 0. -1.
</event>
<event>
 5   0  0.1031659E-06  0.3572439E+04  0.7818609E-02  0.8096834E-01
        2   -1    0    0  501    0  0.00000000000E+00  0.00000000000E+00  0.17666616636E+04  0.17666616636E+04  0.25500000920E-02 0.  1.
       -2   -1    0    0    0  501  0.00000000000E+00  0.00000000000E+00 -0.18059939470E+04  0.18059939470E+04  0.25500000920E-02 0. -1.
    10030    2    1    2    0    0  0.00000000000E+00  0.00000000000E+00 -0.39332283368E+02  0.35726556106E+04  0.35724390945E+04 0.  0.
        2    1    3    3  502    0 -0.44160577070E+03 -0.25800979204E+03  0.16918684357E+04  0.17674850815E+04  0.25500000920E-02 0.  1.
       -2    1    3    3    0  502  0.44160577070E+03  0.25800979204E+03 -0.17312007191E+04  0.18051705291E+04  0.25500000920E-02 0. -1.
</event>
<event>
 5   0  0.1006019E-06  0.3577883E+04  0.7818609E-02  0.8095577E-01
       -2   -1    0    0    0  501  0.00000000000E+00  0.00000000000E+00  0.23943297903E+04  0.23943297903E+04  0.25500000920E-02 0. -1.
        2   -1    0    0  501    0  0.00000000000E+00  0.00000000000E+00 -0.13366214567E+04  0.13366214567E+04  0.25500000920E-02 0.  1.
    10030    2    1    2    0    0  0.00000000000E+00  0.00000000000E+00  0.10577083335E+04  0.37309512470E+04  0.35778834929E+04 0.  0.
        1    1    3    3  502    0  0.10760531769E+04  0.10573822772E+04  0.15314250589E+04  0.21497000792E+04  0.50400001928E-02 0. -1.
       -1    1    3    3    0  502 -0.10760531769E+04 -0.10573822772E+04 -0.47371672535E+03  0.15812511678E+04  0.50400001928E-02 0.  1.
</event>
<event>
 5   0  0.3365378E-07  0.3595077E+04  0.7818609E-02  0.8091620E-01
        1   -1    0    0  501    0  0.00000000000E+00  0.00000000000E+00  0.12600333837E+04  0.12600333837E+04  0.50400001928E-02 0.  1.
       -1   -1    0    0    0  501  0.00000000000E+00  0.00000000000E+00 -0.25643331821E+04  0.25643331821E+04  0.50400001928E-02 0. -1.
    10030    2    1    2    0    0  0.00000000000E+00  0.00000000000E+00 -0.13042997984E+04  0.38243665658E+04  0.35950774213E+04 0.  0.
        3    1    3    3  502    0  0.15476262927E+04  0.34870466342E+02 -0.16240863841E+04  0.22436621146E+04  0.10100000352E+00 0. -1.
       -3    1    3    3    0  502 -0.15476262927E+04 -0.34870466342E+02  0.31978658569E+03  0.15807044512E+04  0.10100000352E+00 0.  1.
</event>
<event>
 5   0  0.1006019E-06  0.3494536E+04  0.7818609E-02  0.8115086E-01
        2   -1    0    0  501    0  0.00000000000E+00  0.00000000000E+00  0.20116818451E+04  0.20116818451E+04  0.25500000920E-02 0.  1.
       -2   -1    0    0    0  501  0.00000000000E+00  0.00000000000E+00 -0.15176081352E+04  0.15176081352E+04  0.25500000920E-02 0. -1.
    10030    2    1    2    0    0  0.00000000000E+00  0.00000000000E+00  0.49407370995E+03  0.35292899803E+04  0.34945355820E+04 0.  0.
        1    1    3    3  502    0  0.20176153611E+02  0.85125133439E+03  0.17879595775E+04  0.19803624320E+04  0.50400001928E-02 0.  1.
       -1    1    3    3    0  502 -0.20176153611E+02 -0.85125133439E+03 -0.12938858675E+04  0.15489275482E+04  0.50400001928E-02 0. -1.
</event>
<event>
 5   0  0.1006019E-06  0.3349996E+04  0.7818609E-02  0.8150289E-01
        2   -1    0    0  501    0  0.00000000000E+00  0.00000000000E+00  0.14471069503E+04  0.14471069504E+04  0.25500000920E-02 0.  1.
       -2   -1    0    0    0  501  0.00000000000E+00  0.00000000000E+00 -0.19387772831E+04  0.19387772831E+04  0.25500000920E-02 0. -1.
    10030    2    1    2    0    0  0.00000000000E+00  0.00000000000E+00 -0.49167033279E+03  0.33858842335E+04  0.33499958696E+04 0.  0.
        1    1    3    3  502    0 -0.62675368029E+03 -0.10470453637E+03 -0.18122233778E+04  0.19204001632E+04  0.50400001928E-02 0. -1.
       -1    1    3    3    0  502  0.62675368029E+03  0.10470453637E+03  0.13205530450E+04  0.14654840703E+04  0.50400001928E-02 0.  1.
</event>
<event>
 5   0  0.9878977E-07  0.3024292E+04  0.7818609E-02  0.8236828E-01
       -2   -1    0    0    0  501  0.00000000000E+00  0.00000000000E+00  0.11411403185E+04  0.11411403185E+04  0.25500000920E-02 0. -1.
        2   -1    0    0  501    0  0.00000000000E+00  0.00000000000E+00 -0.20037721392E+04  0.20037721392E+04  0.25500000920E-02 0.  1.
    10030    2    1    2    0    0  0.00000000000E+00  0.00000000000E+00 -0.86263182068E+03  0.31449124577E+04  0.30242917698E+04 0.  0.
        5    1    3    3  502    0  0.42721101538E+03 -0.14499450485E+04 -0.38827436501E+03  0.15606501748E+04  0.46999998093E+01 0.  1.
       -5    1    3    3    0  502 -0.42721101538E+03  0.14499450485E+04 -0.47435745567E+03  0.15842622830E+04  0.46999998093E+01 0. -1.
</event>
<event>
 5   0  0.9878336E-07  0.3580308E+04  0.7818609E-02  0.8095017E-01
        2   -1    0    0  501    0  0.00000000000E+00  0.00000000000E+00  0.24327319147E+04  0.24327319147E+04  0.25500000920E-02 0.  1.
       -2   -1    0    0    0  501  0.00000000000E+00  0.00000000000E+00 -0.13173052490E+04  0.13173052490E+04  0.25500000920E-02 0. -1.
    10030    2    1    2    0    0  0.00000000000E+00  0.00000000000E+00  0.11154266657E+04  0.37500371637E+04  0.35803075402E+04 0.  0.
        3    1    3    3  502    0 -0.23882223982E+03 -0.17595013610E+04  0.79602858628E+03  0.19459040629E+04  0.10100000352E+00 0. -1.
       -3    1    3    3    0  502  0.23882223982E+03  0.17595013610E+04  0.31939807946E+03  0.18041331007E+04  0.10100000352E+00 0.  1.
</event>
<event>
 5   0  0.3242047E-07  0.3302748E+04  0.7818609E-02  0.8162197E-01
       -1   -1    0    0    0  501  0.00000000000E+00  0.00000000000E+00  0.22432594146E+04  0.22432594146E+04  0.50400001928E-02 0.  1.
        1   -1    0    0  501    0  0.00000000000E+00  0.00000000000E+00 -0.12156576984E+04  0.12156576984E+04  0.50400001928E-02 0. -1.
    10030    2    1    2    0    0  0.00000000000E+00  0.00000000000E+00  0.10276017161E+04  0.34589171130E+04  0.33027476906E+04 0.  0.
        1    1    3    3  502    0 -0.15572843563E+04  0.42022536000E+03  0.14306849913E+03  0.16193185341E+04  0.50400001928E-02 0.  1.
       -1    1    3    3    0  502  0.15572843563E+04 -0.42022536000E+03  0.88453321701E+03  0.18395985789E+04  0.50400001928E-02 0. -1.
</event>
<event>
 5   0  0.3242047E-07  0.3698544E+04  0.7818609E-02  0.8068285E-01
       -1   -1    0    0    0  501  0.00000000000E+00  0.00000000000E+00  0.18775336443E+04  0.18775336443E+04  0.50400001928E-02 0.  1.
        1   -1    0    0  501    0  0.00000000000E+00  0.00000000000E+00 -0.18214355044E+04  0.18214355044E+04  0.50400001928E-02 0. -1.
    10030    2    1    2    0    0  0.00000000000E+00  0.00000000000E+00  0.56098139966E+02  0.36989691487E+04  0.36985437353E+04 0.  0.
        1    1    3    3  502    0 -0.70812133779E+03  0.14654200406E+04  0.90616755298E+03  0.18628020181E+04  0.50400001928E-02 0.  1.
       -1    1    3    3    0  502  0.70812133779E+03 -0.14654200406E+04 -0.85006941302E+03  0.18361671306E+04  0.50400001928E-02 0. -1.
</event>
<event>
 5   0  0.3365378E-07  0.3602734E+04  0.7818609E-02  0.8089866E-01
       -1   -1    0    0    0  501  0.00000000000E+00  0.00000000000E+00  0.13507705476E+04  0.13507705476E+04  0.50400001928E-02 0.  1.
        1   -1    0    0  501    0  0.00000000000E+00  0.00000000000E+00 -0.24022761752E+04  0.24022761752E+04  0.50400001928E-02 0. -1.
    10030    2    1    2    0    0  0.00000000000E+00  0.00000000000E+00 -0.10515056277E+04  0.37530467228E+04  0.36027344641E+04 0.  0.
        3    1    3    3  502    0  0.49499615709E+03 -0.15516664385E+04  0.27592224367E+03  0.16519149574E+04  0.10100000352E+00 0.  1.
       -3    1    3    3    0  502 -0.49499615709E+03  0.15516664385E+04 -0.13274278713E+04  0.21011317654E+04  0.10100000352E+00 0. -1.
</event>
<event>
 5   0  0.9878977E-07  0.3602084E+04  0.7818609E-02  0.8090014E-01
        2   -1    0    0  501    0  0.00000000000E+00  0.00000000000E+00  0.24742454731E+04  0.24742454731E+04  0.25500000920E-02 0. -1.
       -2   -1    0    0    0  501  0.00000000000E+00  0.00000000000E+00 -0.13110067512E+04  0.13110067512E+04  0.25500000920E-02 0.  1.
    10030    2    1    2    0    0  0.00000000000E+00  0.00000000000E+00  0.11632387220E+04  0.37852522243E+04  0.36020841297E+04 0.  0.
        5    1    3    3  502    0  0.11813220101E+04 -0.64743033640E+03 -0.67459447921E+03  0.15065814062E+04  0.46999998093E+01 0.  1.
       -5    1    3    3    0  502 -0.11813220101E+04  0.64743033640E+03  0.18378332012E+04  0.22786708181E+04  0.46999998093E+01 0. -1.
</event>
<event>
 5   0  0.1006019E-06  0.3530038E+04  0.7818609E-02  0.8106708E-01
        2   -1    0    0  501    0  0.00000000000E+00  0.00000000000E+00  0.21536194547E+04  0.21536194548E+04  0.25500000920E-02 0. -1.
       -2   -1    0    0    0  501  0.00000000000E+00  0.00000000000E+00 -0.14465374875E+04  0.14465374875E+04  0.25500000920E-02 0.  1.
    10030    2    1    2    0    0  0.00000000000E+00  0.00000000000E+00  0.70708196721E+03  0.36001569423E+04  0.35300375495E+04 0.  0.
        1    1    3    3  502    0 -0.17901072865E+03  0.20253258312E+03 -0.14253032311E+04  0.14507079612E+04  0.50400001928E-02 0.  1.
       -1    1    3    3    0  502  0.17901072865E+03 -0.20253258312E+03  0.21323851983E+04  0.21494489811E+04  0.50400001928E-02 0. -1.
</event>
<event>
 5   0  0.3159875E-07  0.3595150E+04  0.7818609E-02  0.8091604E-01
        1   -1    0    0  501    0  0.00000000000E+00  0.00000000000E+00  0.23131461192E+04  0.23131461192E+04  0.50400001928E-02 0.  1.
       -1   -1    0    0    0  501  0.00000000000E+00  0.00000000000E+00 -0.13969178579E+04  0.13969178580E+04  0.50400001928E-02 0. -1.
    10030    2    1    2    0    0  0.00000000000E+00  0.00000000000E+00  0.91622826128E+03  0.37100639772E+04  0.35951495780E+04 0.  0.
        5    1    3    3  502    0 -0.93071933135E+03  0.31094833471E+02 -0.11285775674E+04  0.14631865151E+04  0.46999998093E+01 0. -1.
       -5    1    3    3    0  502  0.93071933135E+03 -0.31094833471E+02  0.20448058287E+04  0.22468774620E+04  0.46999998093E+01 0.  1.
</event>
<event>
 5   0  0.3159875E-07  0.3064913E+04  0.7818609E-02  0.8225434E-01
        1   -1    0    0  501    0  0.00000000000E+00  0.00000000000E+00  0.69489678096E+03  0.69489678098E+03  0.50400001928E-02 0. -1.
       -1   -1    0    0    0  501  0.00000000000E+00  0.00000000000E+00 -0.33795283637E+04  0.33795283637E+04  0.50400001928E-02 0.  1.
    10030    2    1    2    0    0  0.00000000000E+00  0.00000000000E+00 -0.26846315827E+04  0.40744251447E+04  0.30649132980E+04 0.  0.
        5    1    3    3  502    0 -0.14554407096E+04  0.46415330153E+03 -0.11813823991E+04  0.19311738424E+04  0.46999998093E+01 0. -1.
       -5    1    3    3    0  502  0.14554407096E+04 -0.46415330153E+03 -0.15032491836E+04  0.21432513022E+04  0.46999998093E+01 0.  1.
</event>
<event>
 5   0  0.1006019E-06  0.3645194E+04  0.7818609E-02  0.8080217E-01
       -2   -1    0    0    0  501  0.00000000000E+00  0.00000000000E+00  0.15845405014E+04  0.15845405014E+04  0.25500000920E-02 0. -1.
        2   -1    0    0  501    0  0.00000000000E+00  0.00000000000E+00 -0.20964184122E+04  0.20964184122E+04  0.25500000920E-02 0.  1.
    10030    2    1    2    0    0  0.00000000000E+00  0.00000000000E+00 -0.51187791082E+03  0.36809589135E+04  0.36451940315E+04 0.  0.
        1    1    3    3  502    0 -0.49468217387E+03  0.55997872716E+03  0.14227715562E+04  0.16070362563E+04  0.50400001928E-02 0. -1.
       -1    1    3    3    0  502  0.49468217387E+03 -0.55997872716E+03 -0.19346494670E+04  0.20739226572E+04  0.50400001928E-02 0.  1.
</event>
<event>
 5   0  0.3365378E-07  0.3624145E+04  0.7818609E-02  0.8084983E-01
       -1   -1    0    0    0  501  0.00000000000E+00  0.00000000000E+00  0.23290613789E+04  0.23290613789E+04  0.50400001928E-02 0. -1.
        1   -1    0    0  501    0  0.00000000000E+00  0.00000000000E+00 -0.14098411412E+04  0.14098411413E+04  0.50400001928E-02 0.  1.
    10030    2    1    2    0    0  0.00000000000E+00  0.00000000000E+00  0.91922023761E+03  0.37389025201E+04  0.36241448936E+04 0.  0.
        3    1    3    3  502    0 -0.17976884297E+04 -0.92227040459E+02  0.67457554747E+03  0.19223011462E+04  0.10100000352E+00 0. -1.
       -3    1    3    3    0  502  0.17976884297E+04  0.92227040459E+02  0.24464469014E+03  0.18166013739E+04  0.10100000352E+00 0.  1.
</event>
<event>
 5   0  0.3159875E-07  0.3588237E+04  0.7818609E-02  0.8093192E-01
        1   -1    0    0  501    0  0.00000000000E+00  0.00000000000E+00  0.15399408573E+04  0.15399408573E+04  0.50400001928E-02 0. -1.
       -1   -1    0    0    0  501  0.00000000000E+00  0.00000000000E+00 -0.20902494441E+04  0.20902494441E+04  0.50400001928E-02 0.  1.
    10030    2    1    2    0    0  0.00000000000E+00  0.00000000000E+00 -0.55030858676E+03  0.36301903014E+04  0.35882366259E+04 0.  0.
        2    1    3    3  502    0 -0.18531225193E+03  0.15373620526E+04  0.64155133102E+03  0.16761297151E+04  0.25500000920E-02 0. -1.
       -2    1    3    3    0  502  0.18531225193E+03 -0.15373620526E+04 -0.11918599178E+04  0.19540605863E+04  0.25500000920E-02 0.  1.
</event>
<event>
 5   0  0.3278988E-07  0.3575050E+04  0.7818609E-02  0.8096231E-01
       -1   -1    0    0    0  501  0.00000000000E+00  0.00000000000E+00  0.23034706736E+04  0.23034706736E+04  0.50400001928E-02 0.  1.
        1   -1    0    0  501    0  0.00000000000E+00  0.00000000000E+00 -0.13871440837E+04  0.13871440837E+04  0.50400001928E-02 0. -1.
    10030    2    1    2    0    0  0.00000000000E+00  0.00000000000E+00  0.91632658992E+03  0.36906147573E+04  0.35750500510E+04 0.  0.
        4    1    3    3  502    0  0.42703887357E+03  0.16861354377E+04  0.32738540570E+02  0.17396805278E+04  0.12699999809E+01 0. -1.
       -4    1    3    3    0  502 -0.42703887357E+03 -0.16861354377E+04  0.88358804935E+03  0.19509342295E+04  0.12699999809E+01 0.  1.
</event>
<event>
 5   0  0.3278988E-07  0.3570681E+04  0.7818609E-02  0.8097241E-01
        1   -1    0    0  501    0  0.00000000000E+00  0.00000000000E+00  0.11946272553E+04  0.11946272553E+04  0.50400001928E-02 0.  1.
       -1   -1    0    0    0  501  0.00000000000E+00  0.00000000000E+00 -0.26681465953E+04  0.26681465953E+04  0.50400001928E-02 0. -1.
    10030    2    1    2    0    0  0.00000000000E+00  0.00000000000E+00 -0.14735193400E+04  0.38627738506E+04  0.35706809680E+04 0.  0.
        4    1    3    3  502    0  0.16698056175E+03  0.92652648135E+03  0.90427014334E+03  0.13053888056E+04  0.12699999809E+01 0.  1.
       -4    1    3    3    0  502 -0.16698056175E+03 -0.92652648135E+03 -0.23777894833E+04  0.25573850450E+04  0.12699999809E+01 0. -1.
</event>
<event>
 5   0  0.3242047E-07  0.3518835E+04  0.7818609E-02  0.8109341E-01
       -1   -1    0    0    0  501  0.00000000000E+00  0.00000000000E+00  0.12304588293E+04  0.12304588293E+04  0.50400001928E-02 0. -1.
        1   -1    0    0  501    0  0.00000000000E+00  0.00000000000E+00 -0.25157686850E+04  0.25157686850E+04  0.50400001928E-02 0.  1.
    10030    2    1    2    0    0  0.00000000000E+00  0.00000000000E+00 -0.12853098557E+04  0.37462275143E+04  0.35188349156E+04 0.  0.
        1    1    3    3  502    0  0.23208265752E+03 -0.17015443402E+04 -0.23525903313E+03  0.17333384881E+04  0.50400001928E-02 0. -1.
       -1    1    3    3    0  502 -0.23208265752E+03  0.17015443402E+04 -0.10500508226E+04  0.20128890262E+04  0.50400001928E-02 0.  1.
</event>
<event>
 5   0  0.3365378E-07  0.3571952E+04  0.7818609E-02  0.8096947E-01
       -1   -1    0    0    0  501  0.00000000000E+00  0.00000000000E+00  0.11725235784E+04  0.11725235784E+04  0.50400001928E-02 0.  1.
        1   -1    0    0  501    0  0.00000000000E+00  0.00000000000E+00 -0.27203810844E+04  0.27203810844E+04  0.50400001928E-02 0. -1.
    10030    2    1    2    0    0  0.00000000000E+00  0.00000000000E+00 -0.15478575060E+04  0.38929046628E+04  0.35719523869E+04 0.  0.
        3    1    3    3  502    0 -0.12391478583E+04  0.32401316280E+03 -0.21304522432E+04  0.24858195259E+04  0.10100000352E+00 0. -1.
       -3    1    3    3    0  502  0.12391478583E+04 -0.32401316280E+03  0.58259473723E+03  0.14070851369E+04  0.10100000352E+00 0.  1.
</event>
<event>
 5   0  0.3278988E-07  0.3663888E+04  0.7818609E-02  0.8076012E-01
       -1   -1    0    0    0  501  0.00000000000E+00  0.00000000000E+00  0.15798122969E+04  0.15798122969E+04  0.50400001928E-02 0.  1.
        1   -1    0    0  501    0  0.00000000000E+00  0.00000000000E+00 -0.21243153700E+04  0.21243153700E+04  0.50400001928E-02 0. -1.
    10030    2    1    2    0    0  0.00000000000E+00  0.00000000000E+00 -0.54450307307E+03  0.37041276669E+04  0.36638883957E+04 0.  0.
        4    1    3    3  502    0  0.13828560357E+04 -0.36709445098E+03  0.88441548830E+03  0.16820349343E+04  0.12699999809E+01 0.  1.
       -4    1    3    3    0  502 -0.13828560357E+04  0.36709445098E+03 -0.14289185614E+04  0.20220927326E+04  0.12699999809E+01 0. -1.
</event>
<event>
 5   0  0.9878336E-07  0.3616678E+04  0.7818609E-02  0.8086682E-01
        2   -1    0    0  501    0  0.00000000000E+00  0.00000000000E+00  0.13808569165E+04  0.13808569165E+04  0.25500000920E-02 0.  1.
       -2   -1    0    0    0  501  0.00000000000E+00  0.00000000000E+00 -0.23681601137E+04  0.23681601137E+04  0.25500000920E-02 0. -1.
    10030    2    1    2    0    0  0.00000000000E+00  0.00000000000E+00 -0.98730319719E+03  0.37490170303E+04  0.36166781845E+04 0.  0.
        3    1    3    3  502    0 -0.79325001718E+03 -0.15710251111E+04 -0.62842504924E+02  0.17610549906E+04  0.10100000352E+00 0.  1.
       -3    1    3    3    0  502  0.79325001718E+03  0.15710251111E+04 -0.92446069227E+03  0.19879620396E+04  0.10100000352E+00 0. -1.
</event>
<event>
 5   0  0.3159875E-07  0.3614713E+04  0.7818609E-02  0.8087130E-01
        1   -1    0    0  501    0  0.00000000000E+00  0.00000000000E+00  0.96484412120E+03  0.96484412121E+03  0.50400001928E-02 0.  1.
       -1   -1    0    0    0  501  0.00000000000E+00  0.00000000000E+00 -0.33855596523E+04  0.33855596523E+04  0.50400001928E-02 0. -1.
    10030    2    1    2    0    0  0.00000000000E+00  0.00000000000E+00 -0.24207155311E+04  0.43504037735E+04  0.36147128946E+04 0.  0.
        2    1    3    3  502    0  0.24184716391E+03  0.12731217624E+04 -0.27266144043E+04  0.30188996642E+04  0.25500000920E-02 0. -1.
       -2    1    3    3    0  502 -0.24184716391E+03 -0.12731217624E+04  0.30589887322E+03  0.13315041093E+04  0.25500000920E-02 0.  1.
</event>
<event>
 5   0  0.3365378E-07  0.3595274E+04  0.7818609E-02  0.8091575E-01
        1   -1    0    0  501    0  0.00000000000E+00  0.00000000000E+00  0.21816585586E+04  0.21816585586E+04  0.50400001928E-02 0. -1.
       -1   -1    0    0    0  501  0.00000000000E+00  0.00000000000E+00 -0.14812118309E+04  0.14812118309E+04  0.50400001928E-02 0.  1.
    10030    2    1    2    0    0  0.00000000000E+00  0.00000000000E+00  0.70044672773E+03  0.36628703895E+04  0.35952738243E+04 0.  0.
        3    1    3    3  502    0 -0.14003579627E+04  0.83559435451E+03 -0.42049045380E+03  0.16840524282E+04  0.10100000352E+00 0.  1.
       -3    1    3    3    0  502  0.14003579627E+04 -0.83559435451E+03  0.11209371815E+04  0.19788179613E+04  0.10100000352E+00 0. -1.
</event>
<event>
 5   0  0.3159875E-07  0.3591158E+04  0.7818609E-02  0.8092520E-01
       -1   -1    0    0    0  501  0.00000000000E+00  0.00000000000E+00  0.17303119714E+04  0.17303119714E+04  0.50400001928E-02 0.  1.
        1   -1    0    0  501    0  0.00000000000E+00  0.00000000000E+00 -0.18633083198E+04  0.18633083198E+04  0.50400001928E-02 0. -1.
    10030    2    1    2    0    0  0.00000000000E+00  0.00000000000E+00 -0.13299634841E+03  0.35936202912E+04  0.35911584160E+04 0.  0.
        2    1    3    3  502    0 -0.52973051624E+03 -0.30742336566E+03  0.16225514564E+04  0.17343000820E+04  0.25500000920E-02 0.  1.
       -2    1    3    3    0  502  0.52973051624E+03  0.30742336566E+03 -0.17555478048E+04  0.18593202093E+04  0.25500000920E-02 0. -1.
</event>
<event>
 5   0  0.1006019E-06  0.3604246E+04  0.7818609E-02  0.8089520E-01
        2   -1    0    0  501    0  0.00000000000E+00  0.00000000000E+00  0.17681061695E+04  0.17681061695E+04  0.25500000920E-02 0. -1.
       -2   -1    0    0    0  501  0.00000000000E+00  0.00000000000E+00 -0.18367945833E+04  0.18367945833E+04  0.25500000920E-02 0.  1.
    10030    2    1    2    0    0  0.00000000000E+00  0.00000000000E+00 -0.68688413882E+02  0.36049007528E+04  0.36042462928E+04 0.  0.
        1    1    3    3  502    0  0.17206885582E+02 -0.13524840239E+04  0.11567283273E+04  0.17797554705E+04  0.50400001928E-02 0. -1.
       -1    1    3    3    0  502 -0.17206885582E+02  0.13524840239E+04 -0.12254167412E+04  0.18251452822E+04  0.50400001928E-02 0.  1.
</event>
<event>
 5   0  0.3242047E-07  0.3674270E+04  0.7818609E-02  0.8073688E-01
       -1   -1    0    0    0  501  0.00000000000E+00  0.00000000000E+00  0.12162515021E+04  0.12162515021E+04  0.50400001928E-02 0. -1.
        1   -1    0    0  501    0  0.00000000000E+00  0.00000000000E+00 -0.27749733127E+04  0.27749733127E+04  0.50400001928E-02 0.  1.
    10030    2    1    2    0    0  0.00000000000E+00  0.00000000000E+00 -0.15587218107E+04  0.39912248148E+04  0.36742702458E+04 0.  0.
        1    1    3    3  502    0 -0.18226606366E+04  0.42586323831E+02 -0.53366345282E+03  0.18996584094E+04  0.50400001928E-02 0.  1.
       -1    1    3    3    0  502  0.18226606366E+04 -0.42586323831E+02 -0.10250583578E+04  0.20915664054E+04  0.50400001928E-02 0. -1.
</event>
<event>
 5   0  0.1031659E-06  0.3675165E+04  0.7818609E-02  0.8073488E-01
       -2   -1    0    0    0  501  0.00000000000E+00  0.00000000000E+00  0.13100399766E+04  0.13100399766E+04  0.25500000920E-02 0. -1.
        2   -1    0    0  501    0  0.00000000000E+00  0.00000000000E+00 -0.25775622119E+04  0.25775622119E+04  0.25500000920E-02 0.  1.
    10030    2    1    2    0    0  0.00000000000E+00  0.00000000000E+00 -0.12675222353E+04  0.38876021886E+04  0.36751650520E+04 0.  0.
        2    1    3    3  502    0  0.13572052374E+04 -0.92391505556E+03  0.23922121279E+03  0.16591720450E+04  0.25500000920E-02 0. -1.
       -2    1    3    3    0  502 -0.13572052374E+04  0.92391505556E+03 -0.15067434481E+04  0.22284301435E+04  0.25500000920E-02 0.  1.
</event>
<event>
 5   0  0.3159875E-07  0.3552862E+04  0.7818609E-02  0.8101375E-01
       -3   -1    0    0    0  501  0.00000000000E+00  0.00000000000E+00  0.21742873444E+04  0.21742873468E+04  0.10100000352E+00 0.  1.
        3   -1    0    0  501    0  0.00000000000E+00  0.00000000000E+00 -0.14513751207E+04  0.14513751242E+04  0.10100000352E+00 0. -1.
    10030    2    1    2    0    0  0.00000000000E+00  0.00000000000E+00  0.72291222378E+03  0.36256624710E+04  0.35528617015E+04 0.  0.
        3    1    3    3  502    0  0.15096534666E+04 -0.50936051270E+03  0.11631779784E+04  0.19726846532E+04  0.10100000352E+00 0. -1.
       -3    1    3    3    0  502 -0.15096534666E+04  0.50936051270E+03 -0.44026575465E+03  0.16529778178E+04  0.10100000352E+00 0.  1.
</event>
<event>
 5   0  0.3242047E-07  0.3683619E+04  0.7818609E-02  0.8071602E-01
        1   -1    0    0  501    0  0.00000000000E+00  0.00000000000E+00  0.22484042436E+04  0.22484042436E+04  0.50400001928E-02 0. -1.
       -1   -1    0    0    0  501  0.00000000000E+00  0.00000000000E+00 -0.15087420962E+04  0.15087420962E+04  0.50400001928E-02 0.  1.
    10030    2    1    2    0    0  0.00000000000E+00  0.00000000000E+00  0.73966214742E+03  0.37571463399E+04  0.36836189443E+04 0.  0.
        1    1    3    3  502    0 -0.15072018124E+04 -0.20230740236E+03 -0.68998437615E+03  0.16699293481E+04  0.50400001928E-02 0.  1.
       -1    1    3    3    0  502  0.15072018124E+04  0.20230740236E+03  0.14296465236E+04  0.20872169918E+04  0.50400001928E-02 0. -1.
</event>
<event>
 5   0  0.3365378E-07  0.3512963E+04  0.7818609E-02  0.8110725E-01
       -1   -1    0    0    0  501  0.00000000000E+00  0.00000000000E+00  0.10361111827E+04  0.10361111827E+04  0.50400001928E-02 0. -1.
        1   -1    0    0  501    0  0.00000000000E+00  0.00000000000E+00 -0.29776990879E+04  0.29776990879E+04  0.50400001928E-02 0.  1.
    10030    2    1    2    0    0  0.00000000000E+00  0.00000000000E+00 -0.19415879051E+04  0.40138102706E+04  0.35129630363E+04 0.  0.
        3    1    3    3  502    0  0.53998565467E+03 -0.72185451819E+03 -0.26932247635E+04  0.28400912115E+04  0.10100000352E+00 0.  1.
       -3    1    3    3    0  502 -0.53998565467E+03  0.72185451819E+03  0.75163685833E+03  0.11737190591E+04  0.10100000352E+00 0. -1.
</event>
<event>
 5   0  0.9878336E-07  0.3589649E+04  0.7818609E-02  0.8092867E-01
       -2   -1    0    0    0  501  0.00000000000E+00  0.00000000000E+00  0.13214483792E+04  0.13214483792E+04  0.25500000920E-02 0. -1.
        2   -1    0    0  501    0  0.00000000000E+00  0.00000000000E+00 -0.24377762797E+04  0.24377762797E+04  0.25500000920E-02 0.  1.
    10030    2    1    2    0    0  0.00000000000E+00  0.00000000000E+00 -0.11163279005E+04  0.37592246590E+04  0.35896492942E+04 0.  0.
        3    1    3    3  502    0 -0.65051914974E+03 -0.12747292214E+04 -0.16925167797E+04  0.22164662894E+04  0.10100000352E+00 0.  1.
       -3    1    3    3    0  502  0.65051914974E+03  0.12747292214E+04  0.57618887922E+03  0.15427583696E+04  0.10100000352E+00 0. -1.
</event>
<event>
 5   0  0.9538919E-07  0.3640403E+04  0.7818609E-02  0.8081299E-01
       -2   -1    0    0    0  501  0.00000000000E+00  0.00000000000E+00  0.17997542123E+04  0.17997542123E+04  0.25500000920E-02 0. -1.
        2   -1    0    0  501    0  0.00000000000E+00  0.00000000000E+00 -0.18408814570E+04  0.18408814570E+04  0.25500000920E-02 0.  1.
    10030    2    1    2    0    0  0.00000000000E+00  0.00000000000E+00 -0.41127244627E+02  0.36406356693E+04  0.36404033604E+04 0.  0.
        4    1    3    3  502    0 -0.63588913366E+03 -0.60901772289E+03 -0.16137362059E+04  0.18383154605E+04  0.12699999809E+01 0.  1.
       -4    1    3    3    0  502  0.63588913366E+03  0.60901772289E+03  0.15726089613E+04  0.18023202088E+04  0.12699999809E+01 0. -1.
</event>
<event>
 5   0  0.3242047E-07  0.3460799E+04  0.7818609E-02  0.8123143E-01
        1   -1    0    0  501    0  0.00000000000E+00  0.00000000000E+00  0.24671850786E+04  0.24671850786E+04  0.50400001928E-02 0. -1.
       -1   -1    0    0    0  501  0.00000000000E+00  0.00000000000E+00 -0.12136434721E+04  0.12136434721E+04  0.50400001928E-02 0.  1.
    10030    2    1    2    0    0  0.00000000000E+00  0.00000000000E+00  0.12535416065E+04  0.36808285507E+04  0.34607993672E+04 0.  0.
        1    1    3    3  502    0  0.91091167569E+03  0.56144311969E+02  0.21904001261E+04  0.23729232978E+04  0.50400001928E-02 0. -1.
       -1    1    3    3    0  502 -0.91091167569E+03 -0.56144311969E+02 -0.93685851964E+03  0.13079052529E+04  0.50400001928E-02 0.  1.
</event>
<event>
 5   0  0.3159875E-07  0.3506889E+04  0.7818609E-02  0.8112159E-01
        1   -1    0    0  501    0  0.00000000000E+00  0.00000000000E+00  0.22421126867E+04  0.22421126868E+04  0.50400001928E-02 0. -1.
       -1   -1    0    0    0  501  0.00000000000E+00  0.00000000000E+00 -0.13712812365E+04  0.13712812365E+04  0.50400001928E-02 0.  1.
    10030    2    1    2    0    0  0.00000000000E+00  0.00000000000E+00  0.87083145029E+03  0.36133939232E+04  0.35068886822E+04 0.  0.
        5    1    3    3  502    0 -0.36873925816E+03  0.16793382883E+04  0.80873646055E+02  0.17212519757E+04  0.46999998093E+01 0. -1.
       -5    1    3    3    0  502  0.36873925816E+03 -0.16793382883E+04  0.78995780423E+03  0.18921419475E+04  0.46999998093E+01 0.  1.
</event>
<event>
 5   0  0.9878336E-07  0.2990404E+04  0.7818609E-02  0.8246476E-01
        2   -1    0    0  501    0  0.00000000000E+00  0.00000000000E+00  0.16421633870E+04  0.16421633870E+04  0.25500000920E-02 0.  1.
       -2   -1    0    0    0  501  0.00000000000E+00  0.00000000000E+00 -0.13613925400E+04  0.13613925400E+04  0.25500000920E-02 0. -1.
    10030    2    1    2    0    0  0.00000000000E+00  0.00000000000E+00  0.28077084702E+03  0.30035559270E+04  0.29904039757E+04 0.  0.
        3    1    3    3  502    0  0.13380800411E+04  0.48597881153E+03  0.59955615448E+03  0.15447010048E+04  0.10100000352E+00 0.  1.
       -3    1    3    3    0  502 -0.13380800411E+04 -0.48597881153E+03 -0.31878530746E+03  0.14588549222E+04  0.10100000352E+00 0. -1.
</event>
<event>
 5   0  0.3278988E-07  0.3614821E+04  0.7818609E-02  0.8087105E-01
       -1   -1    0    0    0  501  0.00000000000E+00  0.00000000000E+00  0.11147359301E+04  0.11147359302E+04  0.50400001928E-02 0.  1.
        1   -1    0    0  501    0  0.00000000000E+00  0.00000000000E+00 -0.29304998421E+04  0.29304998421E+04  0.50400001928E-02 0. -1.
    10030    2    1    2    0    0  0.00000000000E+00  0.00000000000E+00 -0.18157639120E+04  0.40452357723E+04  0.36148214160E+04 0.  0.
        4    1    3    3  502    0  0.11197317286E+04 -0.35759207932E+03  0.62857236220E+03  0.13329576388E+04  0.12699999809E+01 0. -1.
       -4    1    3    3    0  502 -0.11197317286E+04  0.35759207932E+03 -0.24443362742E+04  0.27122781335E+04  0.12699999809E+01 0.  1.
</event>
<event>
 5   0  0.9878336E-07  0.3572292E+04  0.7818609E-02  0.8096868E-01
        2   -1    0    0  501    0  0.00000000000E+00  0.00000000000E+00  0.14783303528E+04  0.14783303528E+04  0.25500000920E-02 0. -1.
       -2   -1    0    0    0  501  0.00000000000E+00  0.00000000000E+00 -0.21580547077E+04  0.21580547077E+04  0.25500000920E-02 0.  1.
    10030    2    1    2    0    0  0.00000000000E+00  0.00000000000E+00 -0.67972435488E+03  0.36363850605E+04  0.35722921367E+04 0.  0.
        3    1    3    3  502    0  0.15291430394E+04  0.91750509692E+03 -0.44278876395E+03  0.18374318865E+04  0.10100000352E+00 0.  1.
       -3    1    3    3    0  502 -0.15291430394E+04 -0.91750509692E+03 -0.23693559093E+03  0.17989531740E+04  0.10100000352E+00 0. -1.
</event>
<event>
 5   0  0.3159875E-07  0.3869000E+04  0.7818609E-02  0.8031508E-01
       -3   -1    0    0    0  501  0.00000000000E+00  0.00000000000E+00  0.16284613773E+04  0.16284613805E+04  0.10100000352E+00 0.  1.
        3   -1    0    0  501    0  0.00000000000E+00  0.00000000000E+00 -0.22980524906E+04  0.22980524928E+04  0.10100000352E+00 0. -1.
    10030    2    1    2    0    0  0.00000000000E+00  0.00000000000E+00 -0.66959111324E+03  0.39265138732E+04  0.38689997335E+04 0.  0.
        4    1    3    3  502    0 -0.47662349152E+03 -0.12692538740E+04 -0.17352041579E+04  0.22020695792E+04  0.12699999809E+01 0. -1.
       -4    1    3    3    0  502  0.47662349152E+03  0.12692538740E+04  0.10656130446E+04  0.17244442940E+04  0.12699999809E+01 0.  1.
</event>
<event>
 5   0  0.3159875E-07  0.3460984E+04  0.7818609E-02  0.8123099E-01
        1   -1    0    0  501    0  0.00000000000E+00  0.00000000000E+00  0.25029443913E+04  0.25029443913E+04  0.50400001928E-02 0.  1.
       -1   -1    0    0    0  501  0.00000000000E+00  0.00000000000E+00 -0.11964318498E+04  0.11964318498E+04  0.50400001928E-02 0. -1.
    10030    2    1    2    0    0  0.00000000000E+00  0.00000000000E+00  0.13065125415E+04  0.36993762411E+04  0.34609838994E+04 0.  0.
        2    1    3    3  502    0  0.15520308631E+04  0.74121361843E+03  0.85719945771E+03  0.19217149473E+04  0.25500000920E-02 0. -1.
       -2    1    3    3    0  502 -0.15520308631E+04 -0.74121361843E+03  0.44931308380E+03  0.17776612938E+04  0.25500000920E-02 0.  1.
</event>
<event>
 5   0  0.9878977E-07  0.3615164E+04  0.7818609E-02  0.8087027E-01
        2   -1    0    0  501    0  0.00000000000E+00  0.00000000000E+00  0.13701724497E+04  0.13701724498E+04  0.25500000920E-02 0.  1.
       -2   -1    0    0    0  501  0.00000000000E+00  0.00000000000E+00 -0.23846286791E+04  0.23846286791E+04  0.25500000920E-02 0. -1.
    10030    2    1    2    0    0  0.00000000000E+00  0.00000000000E+00 -0.10144562294E+04  0.37548011289E+04  0.36151639072E+04 0.  0.
        5    1    3    3  502    0 -0.99531477048E+03 -0.40305328237E+03  0.10029728851E+04  0.14693808693E+04  0.46999998093E+01 0.  1.
       -5    1    3    3    0  502  0.99531477048E+03  0.40305328237E+03 -0.20174291145E+04  0.22854202596E+04  0.46999998093E+01 0. -1.
</event>
<event>
 5   0  0.3242047E-07  0.3497325E+04  0.7818609E-02  0.8114424E-01
        1   -1    0    0  501    0  0.00000000000E+00  0.00000000000E+00  0.27181667766E+04  0.27181667766E+04  0.50400001928E-02 0.  1.
       -1   -1    0    0    0  501  0.00000000000E+00  0.00000000000E+00 -0.11249570391E+04  0.11249570391E+04  0.50400001928E-02 0. -1.
    10030    2    1    2    0    0  0.00000000000E+00  0.00000000000E+00  0.15932097375E+04  0.38431238158E+04  0.34973251773E+04 0.  0.
        1    1    3    3  502    0 -0.45550968541E+03 -0.47093698724E+03  0.25781896498E+04  0.26601377013E+04  0.50400001928E-02 0.  1.
       -1    1    3    3    0  502  0.45550968541E+03  0.47093698724E+03 -0.98497991230E+03  0.11829861145E+04  0.50400001928E-02 0. -1.
</event>
<event>
 5   0  0.3242047E-07  0.3631435E+04  0.7818609E-02  0.8083329E-01
       -1   -1    0    0    0  501  0.00000000000E+00  0.00000000000E+00  0.22948152982E+04  0.22948152982E+04  0.50400001928E-02 0. -1.
        1   -1    0    0  501    0  0.00000000000E+00  0.00000000000E+00 -0.14366429493E+04  0.14366429493E+04  0.50400001928E-02 0.  1.
    10030    2    1    2    0    0  0.00000000000E+00  0.00000000000E+00  0.85817234890E+03  0.37314582475E+04  0.36314350982E+04 0.  0.
        1    1    3    3  502    0 -0.65331084209E+03 -0.13060714717E+04  0.15377827170E+04  0.21207105956E+04  0.50400001928E-02 0. -1.
       -1    1    3    3    0  502  0.65331084209E+03  0.13060714717E+04 -0.67961036810E+03  0.16107476519E+04  0.50400001928E-02 0.  1.
</event>
<event>
 5   0  0.9878336E-07  0.3676117E+04  0.7818609E-02  0.8073275E-01
       -2   -1    0    0    0  501  0.00000000000E+00  0.00000000000E+00  0.12512012948E+04  0.12512012948E+04  0.25500000920E-02 0. -1.
        2   -1    0    0  501    0  0.00000000000E+00  0.00000000000E+00 -0.27001723777E+04  0.27001723777E+04  0.25500000920E-02 0.  1.
    10030    2    1    2    0    0  0.00000000000E+00  0.00000000000E+00 -0.14489710829E+04  0.39513736725E+04  0.36761170684E+04 0.  0.
        3    1    3    3  502    0 -0.15136540010E+03 -0.13008121984E+04 -0.21107999145E+04  0.24840491438E+04  0.10100000352E+00 0.  1.
       -3    1    3    3    0  502  0.15136540010E+03  0.13008121984E+04  0.66182883162E+03  0.14673245287E+04  0.10100000352E+00 0. -1.
</event>
<event>
 5   0  0.3278988E-07  0.2595094E+04  0.7818609E-02  0.8369870E-01
        1   -1    0    0  501    0  0.00000000000E+00  0.00000000000E+00  0.14895548761E+04  0.14895548761E+04  0.50400001928E-02 0. -1.
       -1   -1    0    0    0  501  0.00000000000E+00  0.00000000000E+00 -0.11302891455E+04  0.11302891455E+04  0.50400001928E-02 0.  1.
    10030    2    1    2    0    0  0.00000000000E+00  0.00000000000E+00  0.35926573068E+03  0.26198440216E+04  0.25950936076E+04 0.  0.
        4    1    3    3  502    0  0.62210358022E+03 -0.11197161993E+04  0.38860677234E+03  0.13385791227E+04  0.12699999809E+01 0. -1.
       -4    1    3    3    0  502 -0.62210358022E+03  0.11197161993E+04 -0.29341041662E+02  0.12812648989E+04  0.12699999809E+01 0.  1.
</event>
<event>
 5   0  0.3242047E-07  0.3532957E+04  0.7818609E-02  0.8106024E-01
       -1   -1    0    0    0  501  0.00000000000E+00  0.00000000000E+00  0.14223289897E+04  0.14223289897E+04  0.50400001928E-02 0.  1.
        1   -1    0    0  501    0  0.00000000000E+00  0.00000000000E+00 -0.21938986443E+04  0.21938986443E+04  0.50400001928E-02 0. -1.
    10030    2    1    2    0    0  0.00000000000E+00  0.00000000000E+00 -0.77156965458E+03  0.36162276340E+04  0.35329566328E+04 0.  0.
        1    1    3    3  502    0  0.79118895386E+03  0.18102059213E+03  0.12201753513E+04  0.14654611232E+04  0.50400001928E-02 0.  1.
       -1    1    3    3    0  502 -0.79118895386E+03 -0.18102059213E+03 -0.19917450059E+04  0.21507665108E+04  0.50400001928E-02 0. -1.
</event>
<event>
 5   0  0.9878977E-07  0.3497329E+04  0.7818609E-02  0.8114423E-01
        2   -1    0    0  501    0  0.00000000000E+00  0.00000000000E+00  0.25194258555E+04  0.25194258555E+04  0.25500000920E-02 0.  1.
       -2   -1    0    0    0  501  0.00000000000E+00  0.00000000000E+00 -0.12136999663E+04  0.12136999663E+04  0.25500000920E-02 0. -1.
    10030    2    1    2    0    0  0.00000000000E+00  0.00000000000E+00  0.13057258892E+04  0.37331258217E+04  0.34973287382E+04 0.  0.
        5    1    3    3  502    0  0.31667483467E+03  0.16757604545E+04  0.24035032899E+03  0.17222794263E+04  0.46999998093E+01 0. -1.
       -5    1    3    3    0  502 -0.31667483467E+03 -0.16757604545E+04  0.10653755602E+04  0.20108463954E+04  0.46999998093E+01 0.  1.
</event>
<event>
 5   0  0.3159875E-07  0.3588894E+04  0.7818609E-02  0.8093040E-01
       -1   -1    0    0    0  501  0.00000000000E+00  0.00000000000E+00  0.16669835278E+04  0.16669835278E+04  0.50400001928E-02 0.  1.
        1   -1    0    0  501    0  0.00000000000E+00  0.00000000000E+00 -0.19316568098E+04  0.19316568098E+04  0.50400001928E-02 0. -1.
    10030    2    1    2    0    0  0.00000000000E+00  0.00000000000E+00 -0.26467328201E+03  0.35986403375E+04  0.35888940264E+04 0.  0.
        5    1    3    3  502    0 -0.13328002418E+04 -0.78021779333E+03 -0.10485585751E+04  0.18667065824E+04  0.46999998093E+01 0. -1.
       -5    1    3    3    0  502  0.13328002418E+04  0.78021779333E+03  0.78388529306E+03  0.17319337551E+04  0.46999998093E+01 0.  1.
</event>
<event>
 5   0  0.9878336E-07  0.3584074E+04  0.7818609E-02  0.8094150E-01
       -2   -1    0    0    0  501  0.00000000000E+00  0.00000000000E+00  0.13359530294E+04  0.13359530294E+04  0.25500000920E-02 0.  1.
        2   -1    0    0  501    0  0.00000000000E+00  0.00000000000E+00 -0.24038240082E+04  0.24038240082E+04  0.25500000920E-02 0. -1.
    10030    2    1    2    0    0  0.00000000000E+00  0.00000000000E+00 -0.10678709788E+04  0.37397770376E+04  0.35840736409E+04 0.  0.
        3    1    3    3  502    0 -0.12579499400E+04 -0.11709679269E+04 -0.10637252003E+04  0.20211668040E+04  0.10100000352E+00 0. -1.
       -3    1    3    3    0  502  0.12579499400E+04  0.11709679269E+04 -0.41457785060E+01  0.17186102336E+04  0.10100000352E+00 0.  1.
</event>
<event>
 5   0  0.3159875E-07  0.3615329E+04  0.7818609E-02  0.8086989E-01
       -1   -1    0    0    0  501  0.00000000000E+00  0.00000000000E+00  0.16697885215E+04  0.16697885215E+04  0.50400001928E-02 0.  1.
        1   -1    0    0  501    0  0.00000000000E+00  0.00000000000E+00 -0.19569252971E+04  0.19569252971E+04  0.50400001928E-02 0. -1.
    10030    2    1    2    0    0  0.00000000000E+00  0.00000000000E+00 -0.28713677557E+03  0.36267138187E+04  0.36153292512E+04 0.  0.
        2    1    3    3  502    0 -0.63428808873E+03  0.40627352812E+03 -0.17919933244E+04  0.19438671852E+04  0.25500000920E-02 0. -1.
       -2    1    3    3    0  502  0.63428808873E+03 -0.40627352812E+03  0.15048565488E+04  0.16828466334E+04  0.25500000920E-02 0.  1.
</event>
<event>
 5   0  0.3278988E-07  0.3604068E+04  0.7818609E-02  0.8089561E-01
       -1   -1    0    0    0  501  0.00000000000E+00  0.00000000000E+00  0.29763073431E+04  0.29763073431E+04  0.50400001928E-02 0. -1.
        1   -1    0    0  501    0  0.00000000000E+00  0.00000000000E+00 -0.10910586163E+04  0.10910586163E+04  0.50400001928E-02 0.  1.
    10030    2    1    2    0    0  0.00000000000E+00  0.00000000000E+00  0.18852487268E+04  0.40673659594E+04  0.36040675751E+04 0.  0.
        4    1    3    3  502    0  0.60388629288E+03 -0.40650928247E+03  0.28029833943E+04  0.28959706444E+04  0.12699999809E+01 0. -1.
       -4    1    3    3    0  502 -0.60388629288E+03  0.40650928247E+03 -0.91773466746E+03  0.11713953151E+04  0.12699999809E+01 0.  1.
</event>
<event>
 5   0  0.3242047E-07  0.3621727E+04  0.7818609E-02  0.8085533E-01
        1   -1    0    0  501    0  0.00000000000E+00  0.00000000000E+00  0.15329317644E+04  0.15329317644E+04  0.50400001928E-02 0. -1.
       -1   -1    0    0    0  501  0.00000000000E+00  0.00000000000E+00 -0.21391858039E+04  0.21391858039E+04  0.50400001928E-02 0.  1.
    10030    2    1    2    0    0  0.00000000000E+00  0.00000000000E+00 -0.60625403946E+03  0.36721175683E+04  0.36217265876E+04 0.  0.
        1    1    3    3  502    0  0.10700133903E+04 -0.41493245081E+03  0.11171223789E+04  0.16015804705E+04  0.50400001928E-02 0. -1.
       -1    1    3    3    0  502 -0.10700133903E+04  0.41493245081E+03 -0.17233764183E+04  0.20705370978E+04  0.50400001928E-02 0.  1.
</event>
<event>
 5   0  0.3278988E-07  0.3726854E+04  0.7818609E-02  0.8062037E-01
        1   -1    0    0  501    0  0.00000000000E+00  0.00000000000E+00  0.24685748513E+04  0.24685748514E+04  0.50400001928E-02 0.  1.
       -1   -1    0    0    0  501  0.00000000000E+00  0.00000000000E+00 -0.14066252469E+04  0.14066252469E+04  0.50400001928E-02 0. -1.
    10030    2    1    2    0    0  0.00000000000E+00  0.00000000000E+00  0.10619496044E+04  0.38752000983E+04  0.37268537453E+04 0.  0.
        4    1    3    3  502    0  0.10614933028E+04  0.18114242263E+03  0.21122909589E+04  0.23709397541E+04  0.12699999809E+01 0.  1.
       -4    1    3    3    0  502 -0.10614933028E+04 -0.18114242263E+03 -0.10503413545E+04  0.15042603442E+04  0.12699999809E+01 0. -1.
</event>
<event>
 5   0  0.1031659E-06  0.4043250E+04  0.7818609E-02  0.7995878E-01
        2   -1    0    0  501    0  0.00000000000E+00  0.00000000000E+00  0.15225221891E+04  0.15225221891E+04  0.25500000920E-02 0.  1.
       -2   -1    0    0    0  501  0.00000000000E+00  0.00000000000E+00 -0.26843403898E+04  0.26843403898E+04  0.25500000920E-02 0. -1.
    10030    2    1    2    0    0  0.00000000000E+00  0.00000000000E+00 -0.11618182007E+04  0.42068625788E+04  0.40432500820E+04 0.  0.
        2    1    3    3  502    0 -0.68630206550E+02  0.13935077589E+04  0.94130088495E+03  0.16830393149E+04  0.25500000920E-02 0.  1.
       -2    1    3    3    0  502  0.68630206550E+02 -0.13935077589E+04 -0.21031190856E+04  0.25238232640E+04  0.25500000920E-02 0. -1.
</event>
<event>
 5   0  0.1006019E-06  0.3153554E+04  0.7818609E-02  0.8201192E-01
       -2   -1    0    0    0  501  0.00000000000E+00  0.00000000000E+00  0.15022138484E+04  0.15022138484E+04  0.25500000920E-02 0.  1.
        2   -1    0    0  501    0  0.00000000000E+00  0.00000000000E+00 -0.16550412399E+04  0.16550412399E+04  0.25500000920E-02 0. -1.
    10030    2    1    2    0    0  0.00000000000E+00  0.00000000000E+00 -0.15282739149E+03  0.31572550883E+04  0.31535541031E+04 0.  0.
        1    1    3    3  502    0 -0.35633881013E+03  0.61011606208E+03 -0.14876803326E+04  0.16469401109E+04  0.50400001928E-02 0. -1.
       -1    1    3    3    0  502  0.35633881013E+03 -0.61011606208E+03  0.13348529411E+04  0.15103149775E+04  0.50400001928E-02 0.  1.
</event>
<event>
 5   0  0.9878336E-07  0.3597638E+04  0.7818609E-02  0.8091033E-01
       -2   -1    0    0    0  501  0.00000000000E+00  0.00000000000E+00  0.11551424871E+04  0.11551424871E+04  0.25500000920E-02 0.  1.
        2   -1    0    0  501    0  0.00000000000E+00  0.00000000000E+00 -0.28011700891E+04  0.28011700891E+04  0.25500000920E-02 0. -1.
    10030    2    1    2    0    0  0.00000000000E+00  0.00000000000E+00 -0.16460276020E+04  0.39563125761E+04  0.35976384384E+04 0.  0.
        3    1    3    3  502    0  0.33152728870E+03  0.99592135807E+03 -0.24294679837E+04  0.26465230754E+04  0.10100000352E+00 0. -1.
       -3    1    3    3    0  502 -0.33152728870E+03 -0.99592135807E+03  0.78344038163E+03  0.13097895008E+04  0.10100000352E+00 0.  1.
</event>
<event>
 5   0  0.1006019E-06  0.3467171E+04  0.7818609E-02  0.8121614E-01
       -2   -1    0    0    0  501  0.00000000000E+00  0.00000000000E+00  0.32001616045E+04  0.32001616045E+04  0.25500000920E-02 0.  1.
        2   -1    0    0  501    0  0.00000000000E+00  0.00000000000E+00 -0.93911473912E+03  0.93911473913E+03  0.25500000920E-02 0. -1.
    10030    2    1    2    0    0  0.00000000000E+00  0.00000000000E+00  0.22610468654E+04  0.41392763437E+04  0.34671711411E+04 0.  0.
        1    1    3    3  502    0 -0.12191307468E+04 -0.92375012266E+03  0.15643916111E+03  0.15375523660E+04  0.50400001928E-02 0. -1.
       -1    1    3    3    0  502  0.12191307468E+04  0.92375012266E+03  0.21046077043E+04  0.26017239777E+04  0.50400001928E-02 0.  1.
</event>
<event>
 5   0  0.9538919E-07  0.3652444E+04  0.7818609E-02  0.8078583E-01
        2   -1    0    0  501    0  0.00000000000E+00  0.00000000000E+00  0.18891574666E+04  0.18891574666E+04  0.25500000920E-02 0.  1.
       -2   -1    0    0    0  501  0.00000000000E+00  0.00000000000E+00 -0.17653831399E+04  0.17653831399E+04  0.25500000920E-02 0. -1.
    10030    2    1    2    0    0  0.00000000000E+00  0.00000000000E+00  0.12377432675E+03  0.36545406065E+04  0.36524439709E+04 0.  0.
        4    1    3    3  502    0 -0.11304575541E+04  0.10048379576E+04  0.10859254538E+04  0.18619530893E+04  0.12699999809E+01 0. -1.
       -4    1    3    3    0  502  0.11304575541E+04 -0.10048379576E+04 -0.96215112700E+03  0.17925875172E+04  0.12699999809E+01 0.  1.
</event>
<event>
 5   0  0.3365378E-07  0.3606457E+04  0.7818609E-02  0.8089014E-01
       -1   -1    0    0    0  501  0.00000000000E+00  0.00000000000E+00  0.15302556994E+04  0.15302556994E+04  0.50400001928E-02 0.  1.
        1   -1    0    0  501    0  0.00000000000E+00  0.00000000000E+00 -0.21248948569E+04  0.21248948570E+04  0.50400001928E-02 0. -1.
    10030    2    1    2    0    0  0.00000000000E+00  0.00000000000E+00 -0.59463915756E+03  0.36551505563E+04  0.36064566907E+04 0.  0.
        3    1    3    3  502    0 -0.53098888448E+03 -0.90567591297E+03  0.11885703762E+04  0.15858428687E+04  0.10100000352E+00 0.  1.
       -3    1    3    3    0  502  0.53098888448E+03  0.90567591297E+03 -0.17832095337E+04  0.20693076877E+04  0.10100000352E+00 0. -1.
</event>
<event>
 5   0  0.3242047E-07  0.3617712E+04  0.7818609E-02  0.8086446E-01
        1   -1    0    0  501    0  0.00000000000E+00  0.00000000000E+00  0.15222548833E+04  0.15222548833E+04  0.50400001928E-02 0. -1.
       -1   -1    0    0    0  501  0.00000000000E+00  0.00000000000E+00 -0.21494170325E+04  0.21494170325E+04  0.50400001928E-02 0.  1.
    10030    2    1    2    0    0  0.00000000000E+00  0.00000000000E+00 -0.62716214921E+03  0.36716719158E+04  0.36177123014E+04 0.  0.
        1    1    3    3  502    0  0.16367048569E+04  0.57837897264E+03  0.20256657029E+03  0.17476722348E+04  0.50400001928E-02 0. -1.
       -1    1    3    3    0  502 -0.16367048569E+04 -0.57837897264E+03 -0.82972871950E+03  0.19239996811E+04  0.50400001928E-02 0.  1.
</event>
<event>
 5   0  0.3159875E-07  0.3599440E+04  0.7818609E-02  0.8090620E-01
       -3   -1    0    0    0  501  0.00000000000E+00  0.00000000000E+00  0.18264125247E+04  0.18264125275E+04  0.10100000352E+00 0. -1.
        3   -1    0    0  501    0  0.00000000000E+00  0.00000000000E+00 -0.17734175759E+04  0.17734175788E+04  0.10100000352E+00 0.  1.
    10030    2    1    2    0    0  0.00000000000E+00  0.00000000000E+00  0.52994948797E+02  0.35998301063E+04  0.35994400022E+04 0.  0.
        3    1    3    3  502    0  0.98334204640E+03  0.59106717322E+03 -0.13602566010E+04  0.17794999338E+04  0.10100000352E+00 0.  1.
       -3    1    3    3    0  502 -0.98334204640E+03 -0.59106717322E+03  0.14132515498E+04  0.18203301725E+04  0.10100000352E+00 0. -1.
</event>
<event>
 5   0  0.3242047E-07  0.3583989E+04  0.7818609E-02  0.8094169E-01
        1   -1    0    0  501    0  0.00000000000E+00  0.00000000000E+00  0.22288480732E+04  0.22288480732E+04  0.50400001928E-02 0. -1.
       -1   -1    0    0    0  501  0.00000000000E+00  0.00000000000E+00 -0.14407643227E+04  0.14407643227E+04  0.50400001928E-02 0.  1.
    10030    2    1    2    0    0  0.00000000000E+00  0.00000000000E+00  0.78808375057E+03  0.36696123959E+04  0.35839892771E+04 0.  0.
        1    1    3    3  502    0  0.95473664124E+02 -0.12764832992E+04  0.16780837606E+04  0.21105662608E+04  0.50400001928E-02 0. -1.
       -1    1    3    3    0  502 -0.95473664124E+02  0.12764832992E+04 -0.89000001002E+03  0.15590461351E+04  0.50400001928E-02 0.  1.
</event>
<event>
 5   0  0.3278988E-07  0.2892926E+04  0.7818609E-02  0.8274985E-01
       -1   -1    0    0    0  501  0.00000000000E+00  0.00000000000E+00  0.14374312732E+04  0.14374312732E+04  0.50400001928E-02 0.  1.
        1   -1    0    0  501    0  0.00000000000E+00  0.00000000000E+00 -0.14555513702E+04  0.14555513702E+04  0.50400001928E-02 0. -1.
    10030    2    1    2    0    0  0.00000000000E+00  0.00000000000E+00 -0.18120097029E+02  0.28929826434E+04  0.28929258955E+04 0.  0.
        4    1    3    3  502    0 -0.12436213698E+04 -0.44181033474E+03 -0.60107078549E+03  0.14501993605E+04  0.12699999809E+01 0.  1.
       -4    1    3    3    0  502  0.12436213698E+04  0.44181033474E+03  0.58295068846E+03  0.14427832829E+04  0.12699999809E+01 0. -1.
</event>
<event>
 5   0  0.3365378E-07  0.3619622E+04  0.7818609E-02  0.8086012E-01
        1   -1    0    0  501    0  0.00000000000E+00  0.00000000000E+00  0.13461756763E+04  0.13461756763E+04  0.50400001928E-02 0. -1.
       -1   -1    0    0    0  501  0.00000000000E+00  0.00000000000E+00 -0.24331265804E+04  0.24331265804E+04  0.50400001928E-02 0.  1.
    10030    2    1    2    0    0  0.00000000000E+00  0.00000000000E+00 -0.10869509041E+04  0.37793022568E+04  0.36196219803E+04 0.  0.
        3    1    3    3  502    0  0.11615829491E+04 -0.12555630381E+04 -0.11609195827E+04  0.20672319119E+04  0.10100000352E+00 0.  1.
       -3    1    3    3    0  502 -0.11615829491E+04  0.12555630381E+04  0.73968678592E+02  0.17120703448E+04  0.10100000352E+00 0. -1.
</event>
<event>
 5   0  0.9538919E-07  0.3593166E+04  0.7818609E-02  0.8092059E-01
       -2   -1    0    0    0  501  0.00000000000E+00  0.00000000000E+00  0.21833785373E+04  0.21833785373E+04  0.25500000920E-02 0. -1.
        2   -1    0    0  501    0  0.00000000000E+00  0.00000000000E+00 -0.14783102422E+04  0.14783102422E+04  0.25500000920E-02 0.  1.
    10030    2    1    2    0    0  0.00000000000E+00  0.00000000000E+00  0.70506829506E+03  0.36616887795E+04  0.35931662107E+04 0.  0.
        4    1    3    3  502    0 -0.11859722925E+04  0.71034250421E+03  0.15218445382E+04  0.20559983374E+04  0.12699999809E+01 0. -1.
       -4    1    3    3    0  502  0.11859722925E+04 -0.71034250421E+03 -0.81677624311E+03  0.16056904422E+04  0.12699999809E+01 0.  1.
</event>
<event>
 5   0  0.3159875E-07  0.3437261E+04  0.7818609E-02  0.8128821E-01
       -1   -1    0    0    0  501  0.00000000000E+00  0.00000000000E+00  0.12503577644E+04  0.12503577645E+04  0.50400001928E-02 0. -1.
        1   -1    0    0  501    0  0.00000000000E+00  0.00000000000E+00 -0.23622767974E+04  0.23622767974E+04  0.50400001928E-02 0.  1.
    10030    2    1    2    0    0  0.00000000000E+00  0.00000000000E+00 -0.11119190329E+04  0.36126345618E+04  0.34372611978E+04 0.  0.
        2    1    3    3  502    0  0.45520580597E+03 -0.16273980851E+04 -0.22684671175E+03  0.17050209042E+04  0.25500000920E-02 0.  1.
       -2    1    3    3    0  502 -0.45520580597E+03  0.16273980851E+04 -0.88507232117E+03  0.19076136576E+04  0.25500000920E-02 0. -1.
</event>
<event>
 5   0  0.3365378E-07  0.3607531E+04  0.7818609E-02  0.8088769E-01
       -1   -1    0    0    0  501  0.00000000000E+00  0.00000000000E+00  0.14067372519E+04  0.14067372519E+04  0.50400001928E-02 0.  1.
        1   -1    0    0  501    0  0.00000000000E+00  0.00000000000E+00 -0.23128486858E+04  0.23128486858E+04  0.50400001928E-02 0. -1.
    10030    2    1    2    0    0  0.00000000000E+00  0.00000000000E+00 -0.90611143390E+03  0.37195859377E+04  0.36075312358E+04 0.  0.
        3    1    3    3  502    0 -0.56340853438E+03  0.21426588723E+03 -0.22059301256E+04  0.22868027410E+04  0.10100000352E+00 0. -1.
       -3    1    3    3    0  502  0.56340853438E+03 -0.21426588723E+03  0.12998186917E+04  0.14327831967E+04  0.10100000352E+00 0.  1.
</event>
<event>
 5   0  0.9878977E-07  0.3595829E+04  0.7818609E-02  0.8091448E-01
        2   -1    0    0  501    0  0.00000000000E+00  0.00000000000E+00  0.21710980108E+04  0.21710980108E+04  0.25500000920E-02 0.  1.
       -2   -1    0    0    0  501  0.00000000000E+00  0.00000000000E+00 -0.14888761720E+04  0.14888761720E+04  0.25500000920E-02 0. -1.
    10030    2    1    2    0    0  0.00000000000E+00  0.00000000000E+00  0.68222183877E+03  0.36599741828E+04  0.35958287475E+04 0.  0.
        5    1    3    3  502    0 -0.10822265987E+04  0.73328013601E+02 -0.11183019677E+04  0.15579514721E+04  0.46999998093E+01 0. -1.
       -5    1    3    3    0  502  0.10822265987E+04 -0.73328013601E+02  0.18005238065E+04  0.21020227107E+04  0.46999998093E+01 0.  1.
</event>
<event>
 5   0  0.3159875E-07  0.3630510E+04  0.7818609E-02  0.8083538E-01
       -1   -1    0    0    0  501  0.00000000000E+00  0.00000000000E+00  0.17234157003E+04  0.17234157003E+04  0.50400001928E-02 0. -1.
        1   -1    0    0  501    0  0.00000000000E+00  0.00000000000E+00 -0.19119886388E+04  0.19119886388E+04  0.50400001928E-02 0.  1.
    10030    2    1    2    0    0  0.00000000000E+00  0.00000000000E+00 -0.18857293845E+03  0.36354043391E+04  0.36305102886E+04 0.  0.
        2    1    3    3  502    0 -0.81225353130E+03 -0.13277457465E+04 -0.10296155775E+04  0.18662188521E+04  0.25500000920E-02 0.  1.
       -2    1    3    3    0  502  0.81225353130E+03  0.13277457465E+04  0.84104263907E+03  0.17691854870E+04  0.25500000920E-02 0. -1.
</event>
<event>
 5   0  0.3159875E-07  0.3555202E+04  0.7818609E-02  0.8100831E-01
        1   -1    0    0  501    0  0.00000000000E+00  0.00000000000E+00  0.22351803983E+04  0.22351803983E+04  0.50400001928E-02 0.  1.
       -1   -1    0    0    0  501  0.00000000000E+00  0.00000000000E+00 -0.14136961443E+04  0.14136961443E+04  0.50400001928E-02 0. -1.
    10030    2    1    2    0    0  0.00000000000E+00  0.00000000000E+00  0.82148425402E+03  0.36488765426E+04  0.35552023351E+04 0.  0.
        5    1    3    3  502    0  0.60182179835E+03  0.15491917720E+04 -0.23647553880E+03  0.16787279094E+04  0.46999998093E+01 0. -1.
       -5    1    3    3    0  502 -0.60182179835E+03 -0.15491917720E+04  0.10579597928E+04  0.19701486331E+04  0.46999998093E+01 0.  1.
</event>
<event>
 5   0  0.3159875E-07  0.3579824E+04  0.7818609E-02  0.8095129E-01
        1   -1    0    0  501    0  0.00000000000E+00  0.00000000000E+00  0.11961311662E+04  0.11961311662E+04  0.50400001928E-02 0.  1.
       -1   -1    0    0    0  501  0.00000000000E+00  0.00000000000E+00 -0.26784555253E+04  0.26784555254E+04  0.50400001928E-02 0. -1.
    10030    2    1    2    0    0  0.00000000000E+00  0.00000000000E+00 -0.14823243592E+04  0.38745866915E+04  0.35798235326E+04 0.  0.
        5    1    3    3  502    0  0.46914279359E+03  0.94238593699E+02  0.11256113777E+04  0.12231103535E+04  0.46999998093E+01 0.  1.
       -5    1    3    3    0  502 -0.46914279359E+03 -0.94238593699E+02 -0.26079357369E+04  0.26514763380E+04  0.46999998093E+01 0. -1.
</event>
<event>
 5   0  0.1031659E-06  0.3607267E+04  0.7818609E-02  0.8088829E-01
        2   -1    0    0  501    0  0.00000000000E+00  0.00000000000E+00  0.24759796150E+04  0.24759796150E+04  0.25500000920E-02 0. -1.
       -2   -1    0    0    0  501  0.00000000000E+00  0.00000000000E+00 -0.13138613787E+04  0.13138613787E+04  0.25500000920E-02 0.  1.
    10030    2    1    2    0    0  0.00000000000E+00  0.00000000000E+00  0.11621182362E+04  0.37898409937E+04  0.36072671044E+04 0.  0.
        2    1    3    3  502    0  0.78924912111E+03  0.81308790427E+03  0.20553155500E+04  0.23469870314E+04  0.25500000920E-02 0. -1.
       -2    1    3    3    0  502 -0.78924912111E+03 -0.81308790427E+03 -0.89319731380E+03  0.14428539623E+04  0.25500000920E-02 0.  1.
</event>
<event>
 5   0  0.1031659E-06  0.3604028E+04  0.7818609E-02  0.8089570E-01
        2   -1    0    0  501    0  0.00000000000E+00  0.00000000000E+00  0.99434831245E+03  0.99434831245E+03  0.25500000920E-02 0.  1.
       -2   -1    0    0    0  501  0.00000000000E+00  0.00000000000E+00 -0.32657107945E+04  0.32657107945E+04  0.25500000920E-02 0. -1.
    10030    2    1    2    0    0  0.00000000000E+00  0.00000000000E+00 -0.22713624821E+04  0.42600591070E+04  0.36040277566E+04 0.  0.
        2    1    3    3  502    0  0.84540123017E+03 -0.33398888909E+03 -0.29748648585E+04  0.31106386393E+04  0.25500000920E-02 0. -1.
       -2    1    3    3    0  502 -0.84540123017E+03  0.33398888909E+03  0.70350237638E+03  0.11494204677E+04  0.25500000920E-02 0.  1.
</event>
<event>
 5   0  0.9878977E-07  0.3595386E+04  0.7818609E-02  0.8091549E-01
       -2   -1    0    0    0  501  0.00000000000E+00  0.00000000000E+00  0.31200137607E+04  0.31200137607E+04  0.25500000920E-02 0. -1.
        2   -1    0    0  501    0  0.00000000000E+00  0.00000000000E+00 -0.10357967195E+04  0.10357967195E+04  0.25500000920E-02 0.  1.
    10030    2    1    2    0    0  0.00000000000E+00  0.00000000000E+00  0.20842170412E+04  0.41558104802E+04  0.35953859420E+04 0.  0.
        5    1    3    3  502    0  0.10551769880E+04 -0.14266084069E+04  0.70896846975E+03  0.19108292451E+04  0.46999998093E+01 0. -1.
       -5    1    3    3    0  502 -0.10551769880E+04  0.14266084069E+04  0.13752485715E+04  0.22449812351E+04  0.46999998093E+01 0.  1.
</event>
<event>
 5   0  0.9538919E-07  0.3607207E+04  0.7818609E-02  0.8088843E-01
        2   -1    0    0  501    0  0.00000000000E+00  0.00000000000E+00  0.21303775281E+04  0.21303775281E+04  0.25500000920E-02 0. -1.
       -2   -1    0    0    0  501  0.00000000000E+00  0.00000000000E+00 -0.15269526832E+04  0.15269526832E+04  0.25500000920E-02 0.  1.
    10030    2    1    2    0    0  0.00000000000E+00  0.00000000000E+00  0.60342484490E+03  0.36573302113E+04  0.36072070541E+04 0.  0.
        4    1    3    3  502    0  0.13362660828E+03  0.15904165211E+04 -0.55002194743E+03  0.16881370017E+04  0.12699999809E+01 0.  1.
       -4    1    3    3    0  502 -0.13362660828E+03 -0.15904165211E+04  0.11534467923E+04  0.19691932096E+04  0.12699999809E+01 0. -1.
</event>
<event>
 5   0  0.3242047E-07  0.3231286E+04  0.7818609E-02  0.8180603E-01
        1   -1    0    0  501    0  0.00000000000E+00  0.00000000000E+00  0.17573658399E+04  0.17573658399E+04  0.50400001928E-02 0. -1.
       -1   -1    0    0    0  501  0.00000000000E+00  0.00000000000E+00 -0.14853498239E+04  0.14853498239E+04  0.50400001928E-02 0.  1.
    10030    2    1    2    0    0  0.00000000000E+00  0.00000000000E+00  0.27201601607E+03  0.32427156638E+04  0.32312864564E+04 0.  0.
        1    1    3    3  502    0  0.10926592462E+04  0.47608622992E+02  0.13293870859E+04  0.17214647349E+04  0.50400001928E-02 0. -1.
       -1    1    3    3    0  502 -0.10926592462E+04 -0.47608622992E+02 -0.10573710698E+04  0.15212509289E+04  0.50400001928E-02 0.  1.
</event>
<event>
 5   0  0.9538919E-07  0.2782345E+04  0.7818609E-02  0.8308771E-01
        2   -1    0    0  501    0  0.00000000000E+00  0.00000000000E+00  0.17818253554E+04  0.17818253554E+04  0.25500000920E-02 0. -1.
       -2   -1    0    0    0  501  0.00000000000E+00  0.00000000000E+00 -0.10861674444E+04  0.10861674444E+04  0.25500000920E-02 0.  1.
    10030    2    1    2    0    0  0.00000000000E+00  0.00000000000E+00  0.69565791095E+03  0.28679927998E+04  0.27823448332E+04 0.  0.
        4    1    3    3  502    0  0.96490695578E+03 -0.90540210276E+03  0.79065860611E+03  0.15414087859E+04  0.12699999809E+01 0. -1.
       -4    1    3    3    0  502 -0.96490695578E+03  0.90540210276E+03 -0.95000695153E+02  0.13265840139E+04  0.12699999809E+01 0.  1.
</event>
<event>
 5   0  0.3278988E-07  0.3604878E+04  0.7818609E-02  0.8089375E-01
        1   -1    0    0  501    0  0.00000000000E+00  0.00000000000E+00  0.20627644460E+04  0.20627644460E+04  0.50400001928E-02 0. -1.
       -1   -1    0    0    0  501  0.00000000000E+00  0.00000000000E+00 -0.15749676223E+04  0.15749676223E+04  0.50400001928E-02 0.  1.
    10030    2    1    2    0    0  0.00000000000E+00  0.00000000000E+00  0.48779682372E+03  0.36377320683E+04  0.36048784806E+04 0.  0.
        4    1    3    3  502    0  0.31507089141E+03  0.13333731524E+04  0.14257389406E+04  0.19773433616E+04  0.12699999809E+01 0. -1.
       -4    1    3    3    0  502 -0.31507089141E+03 -0.13333731524E+04 -0.93794211684E+03  0.16603887067E+04  0.12699999809E+01 0.  1.
</event>
<event>
 5   0  0.1006019E-06  0.3541198E+04  0.7818609E-02  0.8104095E-01
        2   -1    0    0  501    0  0.00000000000E+00  0.00000000000E+00  0.21042874256E+04  0.21042874256E+04  0.25500000920E-02 0. -1.
       -2   -1    0    0    0  501  0.00000000000E+00  0.00000000000E+00 -0.14898255162E+04  0.14898255162E+04  0.25500000920E-02 0.  1.
    10030    2    1    2    0    0  0.00000000000E+00  0.00000000000E+00  0.61446190942E+03  0.35941129419E+04  0.35411981589E+04 0.  0.
        1    1    3    3  502    0  0.12403444423E+03 -0.95857736096E+03  0.18128961953E+04  0.20544701788E+04  0.50400001928E-02 0. -1.
       -1    1    3    3    0  502 -0.12403444423E+03  0.95857736096E+03 -0.11984342859E+04  0.15396427631E+04  0.50400001928E-02 0.  1.
</event>
<event>
 5   0  0.3365378E-07  0.3537163E+04  0.7818609E-02  0.8105039E-01
        1   -1    0    0  501    0  0.00000000000E+00  0.00000000000E+00  0.18703200309E+04  0.18703200309E+04  0.50400001928E-02 0. -1.
       -1   -1    0    0    0  501  0.00000000000E+00  0.00000000000E+00 -0.16723768699E+04  0.16723768699E+04  0.50400001928E-02 0.  1.
    10030    2    1    2    0    0  0.00000000000E+00  0.00000000000E+00  0.19794316095E+03  0.35426969008E+04  0.35371626816E+04 0.  0.
        3    1    3    3  502    0 -0.61708718758E+03 -0.10117781963E+04  0.14138043659E+04  0.18448128660E+04  0.10100000352E+00 0. -1.
       -3    1    3    3    0  502  0.61708718758E+03  0.10117781963E+04 -0.12158612049E+04  0.16978840347E+04  0.10100000352E+00 0.  1.
</event>
<event>
 5   0  0.9878336E-07  0.2769495E+04  0.7818609E-02  0.8312802E-01
        2   -1    0    0  501    0  0.00000000000E+00  0.00000000000E+00  0.18027748543E+04  0.18027748543E+04  0.25500000920E-02 0.  1.
       -2   -1    0    0    0  501  0.00000000000E+00  0.00000000000E+00 -0.10636526930E+04  0.10636526930E+04  0.25500000920E-02 0. -1.
    10030    2    1    2    0    0  0.00000000000E+00  0.00000000000E+00  0.73912216132E+03  0.28664275474E+04  0.27694954983E+04 0.  0.
        3    1    3    3  502    0 -0.46239705531E+03  0.10244812802E+04  0.12066664025E+04  0.16490654164E+04  0.10100000352E+00 0.  1.
       -3    1    3    3    0  502  0.46239705531E+03 -0.10244812802E+04 -0.46754424119E+03  0.12173621310E+04  0.10100000352E+00 0. -1.
</event>
<event>
 5   0  0.3159875E-07  0.3395191E+04  0.7818609E-02  0.8139088E-01
        1   -1    0    0  501    0  0.00000000000E+00  0.00000000000E+00  0.25963957652E+04  0.25963957652E+04  0.50400001928E-02 0.  1.
       -1   -1    0    0    0  501  0.00000000000E+00  0.00000000000E+00 -0.11099352279E+04  0.11099352280E+04  0.50400001928E-02 0. -1.
    10030    2    1    2    0    0  0.00000000000E+00  0.00000000000E+00  0.14864605372E+04  0.37063309931E+04  0.33951913793E+04 0.  0.
        5    1    3    3  502    0 -0.12833502339E+04  0.11077449511E+04  0.64730030403E+03  0.18146918397E+04  0.46999998093E+01 0. -1.
       -5    1    3    3    0  502  0.12833502339E+04 -0.11077449511E+04  0.83916023318E+03  0.18916391534E+04  0.46999998093E+01 0.  1.
</event>
<event>
 5   0  0.1006019E-06  0.3684851E+04  0.7818609E-02  0.8071327E-01
        2   -1    0    0  501    0  0.00000000000E+00  0.00000000000E+00  0.27208313899E+04  0.27208313899E+04  0.25500000920E-02 0.  1.
       -2   -1    0    0    0  501  0.00000000000E+00  0.00000000000E+00 -0.12476080277E+04  0.12476080277E+04  0.25500000920E-02 0. -1.
    10030    2    1    2    0    0  0.00000000000E+00  0.00000000000E+00  0.14732233622E+04  0.39684394176E+04  0.36848506531E+04 0.  0.
        1    1    3    3  502    0  0.11733665394E+04  0.75359887754E+03  0.20333684449E+04  0.24656211259E+04  0.50400001928E-02 0.  1.
       -1    1    3    3    0  502 -0.11733665394E+04 -0.75359887754E+03 -0.56014508270E+03  0.15028182916E+04  0.50400001928E-02 0. -1.
</event>
<event>
 5   0  0.9878336E-07  0.3614037E+04  0.7818609E-02  0.8087284E-01
        2   -1    0    0  501    0  0.00000000000E+00  0.00000000000E+00  0.17305017464E+04  0.17305017464E+04  0.25500000920E-02 0.  1.
       -2   -1    0    0    0  501  0.00000000000E+00  0.00000000000E+00 -0.18869181018E+04  0.18869181018E+04  0.25500000920E-02 0. -1.
    10030    2    1    2    0    0  0.00000000000E+00  0.00000000000E+00 -0.15641635550E+03  0.36174198482E+04  0.36140365634E+04 0.  0.
        3    1    3    3  502    0  0.28198431157E+03  0.50452908578E+03  0.16354840542E+04  0.17346102883E+04  0.10100000352E+00 0.  1.
       -3    1    3    3    0  502 -0.28198431157E+03 -0.50452908578E+03 -0.17919004097E+04  0.18828095599E+04  0.10100000352E+00 0. -1.
</event>
<event>
 5   0  0.3159875E-07  0.3598213E+04  0.7818609E-02  0.8090901E-01
        3   -1    0    0  501    0  0.00000000000E+00  0.00000000000E+00  0.16534827546E+04  0.16534827577E+04  0.10100000352E+00 0. -1.
       -3   -1    0    0    0  501  0.00000000000E+00  0.00000000000E+00 -0.19575549845E+04  0.19575549872E+04  0.10100000352E+00 0.  1.
    10030    2    1    2    0    0  0.00000000000E+00  0.00000000000E+00 -0.30407222997E+03  0.36110377448E+04  0.35982125665E+04 0.  0.
        3    1    3    3  502    0 -0.15766529608E+04  0.81542351268E+02  0.71376697669E+03  0.17326127730E+04  0.10100000352E+00 0. -1.
       -3    1    3    3    0  502  0.15766529608E+04 -0.81542351268E+02 -0.10178392067E+04  0.18784249718E+04  0.10100000352E+00 0.  1.
</event>
<event>
 5   0  0.3278988E-07  0.3573126E+04  0.7818609E-02  0.8096675E-01
        1   -1    0    0  501    0  0.00000000000E+00  0.00000000000E+00  0.20941575216E+04  0.20941575216E+04  0.50400001928E-02 0. -1.
       -1   -1    0    0    0  501  0.00000000000E+00  0.00000000000E+00 -0.15241489144E+04  0.15241489144E+04  0.50400001928E-02 0.  1.
    10030    2    1    2    0    0  0.00000000000E+00  0.00000000000E+00  0.57000860721E+03  0.36183064359E+04  0.35731263135E+04 0.  0.
        4    1    3    3  502    0  0.87947041731E+03 -0.14543851814E+04  0.84251249685E+03  0.18969800713E+04  0.12699999809E+01 0. -1.
       -4    1    3    3    0  502 -0.87947041731E+03  0.14543851814E+04 -0.27250388964E+03  0.17213263646E+04  0.12699999809E+01 0.  1.
</event>
<event>
 5   0  0.3159875E-07  0.3584754E+04  0.7818609E-02  0.8093993E-01
        1   -1    0    0  501    0  0.00000000000E+00  0.00000000000E+00  0.26055002339E+04  0.26055002339E+04  0.50400001928E-02 0.  1.
       -1   -1    0    0    0  501  0.00000000000E+00  0.00000000000E+00 -0.12330128264E+04  0.12330128264E+04  0.50400001928E-02 0. -1.
    10030    2    1    2    0    0  0.00000000000E+00  0.00000000000E+00  0.13724874075E+04  0.38385130603E+04  0.35847539428E+04 0.  0.
        2    1    3    3  502    0 -0.62641634942E+03  0.14828414664E+04 -0.15784663432E+03  0.16174460786E+04  0.25500000920E-02 0. -1.
       -2    1    3    3    0  502  0.62641634942E+03 -0.14828414664E+04  0.15303340418E+04  0.22210669816E+04  0.25500000920E-02 0.  1.
</event>
<event>
 5   0  0.9538919E-07  0.3560610E+04  0.7818609E-02  0.8099574E-01
       -2   -1    0    0    0  501  0.00000000000E+00  0.00000000000E+00  0.12884527653E+04  0.12884527653E+04  0.25500000920E-02 0.  1.
        2   -1    0    0  501    0  0.00000000000E+00  0.00000000000E+00 -0.24599165019E+04  0.24599165019E+04  0.25500000920E-02 0. -1.
    10030    2    1    2    0    0  0.00000000000E+00  0.00000000000E+00 -0.11714637366E+04  0.37483692671E+04  0.35606101832E+04 0.  0.
        4    1    3    3  502    0  0.17777759774E+04  0.51065738518E+02 -0.50158259181E+03  0.18478857769E+04  0.12699999809E+01 0. -1.
       -4    1    3    3    0  502 -0.17777759774E+04 -0.51065738518E+02 -0.66988114479E+03  0.19004834902E+04  0.12699999809E+01 0.  1.
</event>
<event>
 5   0  0.1006019E-06  0.3569126E+04  0.7818609E-02  0.8097601E-01
        2   -1    0    0  501    0  0.00000000000E+00  0.00000000000E+00  0.19835243231E+04  0.19835243231E+04  0.25500000920E-02 0. -1.
       -2   -1    0    0    0  501  0.00000000000E+00  0.00000000000E+00 -0.16055587267E+04  0.16055587267E+04  0.25500000920E-02 0.  1.
    10030    2    1    2    0    0  0.00000000000E+00  0.00000000000E+00  0.37796559642E+03  0.35890830498E+04  0.35691258239E+04 0.  0.
        1    1    3    3  502    0  0.23702672871E+03  0.21189157835E+03 -0.15768501533E+04  0.16085820207E+04  0.50400001928E-02 0.  1.
       -1    1    3    3    0  502 -0.23702672871E+03 -0.21189157835E+03  0.19548157497E+04  0.19805010292E+04  0.50400001928E-02 0. -1.
</event>
<event>
 5   0  0.3242047E-07  0.3526107E+04  0.7818609E-02  0.8107631E-01
       -1   -1    0    0    0  501  0.00000000000E+00  0.00000000000E+00  0.17096213817E+04  0.17096213817E+04  0.50400001928E-02 0.  1.
        1   -1    0    0  501    0  0.00000000000E+00  0.00000000000E+00 -0.18181552875E+04  0.18181552875E+04  0.50400001928E-02 0. -1.
    10030    2    1    2    0    0  0.00000000000E+00  0.00000000000E+00 -0.10853390581E+03  0.35277766692E+04  0.35261067226E+04 0.  0.
        1    1    3    3  502    0 -0.17024624738E+04  0.20849289559E+03 -0.46251583033E+03  0.17764483262E+04  0.50400001928E-02 0. -1.
       -1    1    3    3    0  502  0.17024624738E+04 -0.20849289559E+03  0.35398192452E+03  0.17513283431E+04  0.50400001928E-02 0.  1.
</event>
<event>
 5   0  0.9878977E-07  0.3613461E+04  0.7818609E-02  0.8087415E-01
        2   -1    0    0  501    0  0.00000000000E+00  0.00000000000E+00  0.25208012150E+04  0.25208012150E+04  0.25500000920E-02 0.  1.
       -2   -1    0    0    0  501  0.00000000000E+00  0.00000000000E+00 -0.12949357912E+04  0.12949357912E+04  0.25500000920E-02 0. -1.
    10030    2    1    2    0    0  0.00000000000E+00  0.00000000000E+00  0.12258654238E+04  0.38157370062E+04  0.36134613411E+04 0.  0.
        5    1    3    3  502    0  0.23563874498E+03  0.80824398241E+03  0.23010024597E+04  0.24501874138E+04  0.46999998093E+01 0.  1.
       -5    1    3    3    0  502 -0.23563874498E+03 -0.80824398241E+03 -0.10751370360E+04  0.13655495924E+04  0.46999998093E+01 0. -1.
</event>
<event>
 5   0  0.3278988E-07  0.2737153E+04  0.7818609E-02  0.8323050E-01
        1   -1    0    0  501    0  0.00000000000E+00  0.00000000000E+00  0.10748918543E+04  0.10748918543E+04  0.50400001928E-02 0. -1.
       -1   -1    0    0    0  501  0.00000000000E+00  0.00000000000E+00 -0.17425027668E+04  0.17425027668E+04  0.50400001928E-02 0.  1.
    10030    2    1    2    0    0  0.00000000000E+00  0.00000000000E+00 -0.66761091243E+03  0.28173946211E+04  0.27371532878E+04 0.  0.
        4    1    3    3  502    0 -0.82574617329E+03 -0.74702696693E+03  0.48519245163E+03  0.12146272515E+04  0.12699999809E+01 0. -1.
       -4    1    3    3    0  502  0.82574617329E+03  0.74702696693E+03 -0.11528033641E+04  0.16027673696E+04  0.12699999809E+01 0.  1.
</event>
<event>
 5   0  0.3159875E-07  0.3616131E+04  0.7818609E-02  0.8086807E-01
       -1   -1    0    0    0  501  0.00000000000E+00  0.00000000000E+00  0.11675187491E+04  0.11675187491E+04  0.50400001928E-02 0. -1.
        1   -1    0    0  501    0  0.00000000000E+00  0.00000000000E+00 -0.28000420790E+04  0.28000420790E+04  0.50400001928E-02 0.  1.
    10030    2    1    2    0    0  0.00000000000E+00  0.00000000000E+00 -0.16325233299E+04  0.39675608281E+04  0.36161314277E+04 0.  0.
        5    1    3    3  502    0 -0.53558323004E+03  0.37742520292E+03  0.10326738417E+04  0.12230030799E+04  0.46999998093E+01 0. -1.
       -5    1    3    3    0  502  0.53558323004E+03 -0.37742520292E+03 -0.26651971716E+04  0.27445577483E+04  0.46999998093E+01 0.  1.
</event>
<event>
 5   0  0.3159875E-07  0.3583626E+04  0.7818609E-02  0.8094253E-01
       -1   -1    0    0    0  501  0.00000000000E+00  0.00000000000E+00  0.15317986931E+04  0.15317986931E+04  0.50400001928E-02 0.  1.
        1   -1    0    0  501    0  0.00000000000E+00  0.00000000000E+00 -0.20959628437E+04  0.20959628437E+04  0.50400001928E-02 0. -1.
    10030    2    1    2    0    0  0.00000000000E+00  0.00000000000E+00 -0.56416415056E+03  0.36277615368E+04  0.35836256192E+04 0.  0.
        2    1    3    3  502    0 -0.45122285111E+03  0.32708771049E+03  0.14418313470E+04  0.15457897868E+04  0.25500000920E-02 0.  1.
       -2    1    3    3    0  502  0.45122285111E+03 -0.32708771049E+03 -0.20059954975E+04  0.20819717500E+04  0.25500000920E-02 0. -1.
</event>
<event>
 5   0  0.9538919E-07  0.3391935E+04  0.7818609E-02  0.8139889E-01
       -2   -1    0    0    0  501  0.00000000000E+00  0.00000000000E+00  0.30542813246E+04  0.30542813247E+04  0.25500000920E-02 0.  1.
        2   -1    0    0  501    0  0.00000000000E+00  0.00000000000E+00 -0.94172906051E+03  0.94172906052E+03  0.25500000920E-02 0. -1.
    10030    2    1    2    0    0  0.00000000000E+00  0.00000000000E+00  0.21125522641E+04  0.39960103852E+04  0.33919348357E+04 0.  0.
        4    1    3    3  502    0 -0.33282759183E+03 -0.15095757991E+04  0.18781676476E+04  0.24325107656E+04  0.12699999809E+01 0.  1.
       -4    1    3    3    0  502  0.33282759183E+03  0.15095757991E+04  0.23438461650E+03  0.15634996196E+04  0.12699999809E+01 0. -1.
</event>
<event>
 5   0  0.3242047E-07  0.3564405E+04  0.7818609E-02  0.8098694E-01
       -1   -1    0    0    0  501  0.00000000000E+00  0.00000000000E+00  0.28786179533E+04  0.28786179533E+04  0.50400001928E-02 0.  1.
        1   -1    0    0  501    0  0.00000000000E+00  0.00000000000E+00 -0.11033927278E+04  0.11033927278E+04  0.50400001928E-02 0. -1.
    10030    2    1    2    0    0  0.00000000000E+00  0.00000000000E+00  0.17752252255E+04  0.39820106811E+04  0.35644052046E+04 0.  0.
        1    1    3    3  502    0  0.64364757700E+03  0.79109340620E+03 -0.74517506097E+03  0.12630901996E+04  0.50400001928E-02 0. -1.
       -1    1    3    3    0  502 -0.64364757700E+03 -0.79109340620E+03  0.25204002864E+04  0.27189204815E+04  0.50400001928E-02 0.  1.
</event>
<event>
 5   0  0.3365378E-07  0.3620228E+04  0.7818609E-02  0.8085874E-01
        1   -1    0    0  501    0  0.00000000000E+00  0.00000000000E+00  0.14083980026E+04  0.14083980026E+04  0.50400001928E-02 0.  1.
       -1   -1    0    0    0  501  0.00000000000E+00  0.00000000000E+00 -0.23264106620E+04  0.23264106620E+04  0.50400001928E-02 0. -1.
    10030    2    1    2    0    0  0.00000000000E+00  0.00000000000E+00 -0.91801265936E+03  0.37348086646E+04  0.36202276887E+04 0.  0.
        3    1    3    3  502    0  0.72901621961E+03 -0.16564435760E+04 -0.42264669266E+03  0.18584671657E+04  0.10100000352E+00 0. -1.
       -3    1    3    3    0  502 -0.72901621961E+03  0.16564435760E+04 -0.49536596670E+03  0.18763414988E+04  0.10100000352E+00 0.  1.
</event>
<event>
 5   0  0.1031659E-06  0.3595252E+04  0.7818609E-02  0.8091580E-01
        2   -1    0    0  501    0  0.00000000000E+00  0.00000000000E+00  0.27582635871E+04  0.27582635871E+04  0.25500000920E-02 0.  1.
       -2   -1    0    0    0  501  0.00000000000E+00  0.00000000000E+00 -0.11715557446E+04  0.11715557446E+04  0.25500000920E-02 0. -1.
    10030    2    1    2    0    0  0.00000000000E+00  0.00000000000E+00  0.15867078426E+04  0.39298193317E+04  0.35952521750E+04 0.  0.
        2    1    3    3  502    0  0.94184190953E+03 -0.47249712595E+02 -0.87947521472E+03  0.12894864758E+04  0.25500000920E-02 0. -1.
       -2    1    3    3    0  502 -0.94184190953E+03  0.47249712595E+02  0.24661830573E+04  0.26403328559E+04  0.25500000920E-02 0.  1.
</event>
<event>
 5   0  0.9538919E-07  0.3591568E+04  0.7818609E-02  0.8092426E-01
        2   -1    0    0  501    0  0.00000000000E+00  0.00000000000E+00  0.19110891493E+04  0.19110891493E+04  0.25500000920E-02 0. -1.
       -2   -1    0    0    0  501  0.00000000000E+00  0.00000000000E+00 -0.16874356194E+04  0.16874356194E+04  0.25500000920E-02 0.  1.
    10030    2    1    2    0    0  0.00000000000E+00  0.00000000000E+00  0.22365352989E+03  0.35985247687E+04  0.35915678484E+04 0.  0.
        4    1    3    3  502    0  0.82481786915E+03  0.33577231781E+03  0.16742609552E+04  0.18963699338E+04  0.12699999809E+01 0. -1.
       -4    1    3    3    0  502 -0.82481786915E+03 -0.33577231781E+03 -0.14506074253E+04  0.17021548349E+04  0.12699999809E+01 0.  1.
</event>
<event>
 5   0  0.3159875E-07  0.3400957E+04  0.7818609E-02  0.8137672E-01
       -1   -1    0    0    0  501  0.00000000000E+00  0.00000000000E+00  0.13079192573E+04  0.13079192573E+04  0.50400001928E-02 0. -1.
        1   -1    0    0  501    0  0.00000000000E+00  0.00000000000E+00 -0.22108600090E+04  0.22108600090E+04  0.50400001928E-02 0.  1.
    10030    2    1    2    0    0  0.00000000000E+00  0.00000000000E+00 -0.90294075172E+03  0.35187792663E+04  0.34009565601E+04 0.  0.
        5    1    3    3  502    0 -0.41554451459E+03  0.22040314490E+03  0.12392624816E+04  0.13255370150E+04  0.46999998093E+01 0. -1.
       -5    1    3    3    0  502  0.41554451459E+03 -0.22040314490E+03 -0.21422032333E+04  0.21932422513E+04  0.46999998093E+01 0.  1.
</event>
<event>
 5   0  0.9538919E-07  0.3514307E+04  0.7818609E-02  0.8110408E-01
       -2   -1    0    0    0  501  0.00000000000E+00  0.00000000000E+00  0.12558803794E+04  0.12558803794E+04  0.25500000920E-02 0. -1.
        2   -1    0    0  501    0  0.00000000000E+00  0.00000000000E+00 -0.24585054863E+04  0.24585054863E+04  0.25500000920E-02 0.  1.
    10030    2    1    2    0    0  0.00000000000E+00  0.00000000000E+00 -0.12026251069E+04  0.37143858658E+04  0.35143072165E+04 0.  0.
        4    1    3    3  502    0  0.12303453788E+04  0.79313550038E+03 -0.16286453417E+04  0.21898175575E+04  0.12699999809E+01 0.  1.
       -4    1    3    3    0  502 -0.12303453788E+04 -0.79313550038E+03  0.42602023480E+03  0.15245683082E+04  0.12699999809E+01 0. -1.
</event>
<event>
 5   0  0.3159875E-07  0.3512921E+04  0.7818609E-02  0.8110735E-01
        1   -1    0    0  501    0  0.00000000000E+00  0.00000000000E+00  0.14188989694E+04  0.14188989694E+04  0.50400001928E-02 0.  1.
       -1   -1    0    0    0  501  0.00000000000E+00  0.00000000000E+00 -0.21743293889E+04  0.21743293889E+04  0.50400001928E-02 0. -1.
    10030    2    1    2    0    0  0.00000000000E+00  0.00000000000E+00 -0.75543041950E+03  0.35932283582E+04  0.35129211371E+04 0.  0.
        2    1    3    3  502    0  0.10658909062E+04  0.11415648618E+04  0.44431088218E+03  0.16237936808E+04  0.25500000920E-02 0.  1.
       -2    1    3    3    0  502 -0.10658909062E+04 -0.11415648618E+04 -0.11997413017E+04  0.19694346774E+04  0.25500000920E-02 0. -1.
</event>
<event>
 5   0  0.9878977E-07  0.3449054E+04  0.7818609E-02  0.8125971E-01
        2   -1    0    0  501    0  0.00000000000E+00  0.00000000000E+00  0.17134645502E+04  0.17134645502E+04  0.25500000920E-02 0. -1.
       -2   -1    0    0    0  501  0.00000000000E+00  0.00000000000E+00 -0.17356607227E+04  0.17356607227E+04  0.25500000920E-02 0.  1.
    10030    2    1    2    0    0  0.00000000000E+00  0.00000000000E+00 -0.22196172429E+02  0.34491252729E+04  0.34490538526E+04 0.  0.
        5    1    3    3  502    0  0.58783771038E+02  0.17040668321E+04 -0.26931212656E+03  0.17262243225E+04  0.46999998093E+01 0.  1.
       -5    1    3    3    0  502 -0.58783771038E+02 -0.17040668321E+04  0.24711595413E+03  0.17229009504E+04  0.46999998093E+01 0. -1.
</event>
<event>
 5   0  0.3278988E-07  0.2980671E+04  0.7818609E-02  0.8249272E-01
        1   -1    0    0  501    0  0.00000000000E+00  0.00000000000E+00  0.24816294814E+04  0.24816294814E+04  0.50400001928E-02 0. -1.
       -1   -1    0    0    0  501  0.00000000000E+00  0.00000000000E+00 -0.89501693969E+03  0.89501693970E+03  0.50400001928E-02 0.  1.
    10030    2    1    2    0    0  0.00000000000E+00  0.00000000000E+00  0.15866125417E+04  0.33766464211E+04  0.29806713498E+04 0.  0.
        4    1    3    3  502    0  0.50119847203E+03 -0.17105378507E+03 -0.78482791444E+03  0.94679236052E+03  0.12699999809E+01 0.  1.
       -4    1    3    3    0  502 -0.50119847203E+03  0.17105378507E+03  0.23714404562E+04  0.24298540606E+04  0.12699999809E+01 0. -1.
</event>
<event>
 5   0  0.9878336E-07  0.3588861E+04  0.7818609E-02  0.8093048E-01
        2   -1    0    0  501    0  0.00000000000E+00  0.00000000000E+00  0.17419329028E+04  0.17419329028E+04  0.25500000920E-02 0.  1.
       -2   -1    0    0    0  501  0.00000000000E+00  0.00000000000E+00 -0.18485101740E+04  0.18485101740E+04  0.25500000920E-02 0. -1.
    10030    2    1    2    0    0  0.00000000000E+00  0.00000000000E+00 -0.10657727121E+03  0.35904430767E+04  0.35888609297E+04 0.  0.
        3    1    3    3  502    0 -0.32511340252E+03 -0.10797536238E+04  0.13431827616E+04  0.17537692419E+04  0.10100000352E+00 0.  1.
       -3    1    3    3    0  502  0.32511340252E+03  0.10797536238E+04 -0.14497600328E+04  0.18366738348E+04  0.10100000352E+00 0. -1.
</event>
<event>
 5   0  0.3159875E-07  0.3663648E+04  0.7818609E-02  0.8076066E-01
       -1   -1    0    0    0  501  0.00000000000E+00  0.00000000000E+00  0.16557375925E+04  0.16557375925E+04  0.50400001928E-02 0. -1.
        1   -1    0    0  501    0  0.00000000000E+00  0.00000000000E+00 -0.20266373823E+04  0.20266373823E+04  0.50400001928E-02 0.  1.
    10030    2    1    2    0    0  0.00000000000E+00  0.00000000000E+00 -0.37089978983E+03  0.36823749748E+04  0.36636482911E+04 0.  0.
        2    1    3    3  502    0 -0.12842875418E+04 -0.80395116118E+03 -0.12202011807E+04  0.19454107230E+04  0.25500000920E-02 0.  1.
       -2    1    3    3    0  502  0.12842875418E+04  0.80395116118E+03  0.84930139083E+03  0.17369642518E+04  0.25500000920E-02 0. -1.
</event>
<event>
 5   0  0.1031659E-06  0.3589235E+04  0.7818609E-02  0.8092962E-01
        2   -1    0    0  501    0  0.00000000000E+00  0.00000000000E+00  0.15116731328E+04  0.15116731328E+04  0.25500000920E-02 0. -1.
       -2   -1    0    0    0  501  0.00000000000E+00  0.00000000000E+00 -0.21305210229E+04  0.21305210229E+04  0.25500000920E-02 0.  1.
    10030    2    1    2    0    0  0.00000000000E+00  0.00000000000E+00 -0.61884789004E+03  0.36421941557E+04  0.35892346757E+04 0.  0.
        2    1    3    3  502    0 -0.12610561019E+03  0.65983029670E+02 -0.21247850667E+04  0.21295464224E+04  0.25500000920E-02 0.  1.
       -2    1    3    3    0  502  0.12610561019E+03 -0.65983029670E+02  0.15059371767E+04  0.15126477334E+04  0.25500000920E-02 0. -1.
</event>
<event>
 5   0  0.9538919E-07  0.3584206E+04  0.7818609E-02  0.8094119E-01
        2   -1    0    0  501    0  0.00000000000E+00  0.00000000000E+00  0.13686025113E+04  0.13686025113E+04  0.25500000920E-02 0. -1.
       -2   -1    0    0    0  501  0.00000000000E+00  0.00000000000E+00 -0.23466517603E+04  0.23466517603E+04  0.25500000920E-02 0.  1.
    10030    2    1    2    0    0  0.00000000000E+00  0.00000000000E+00 -0.97804924900E+03  0.37152542716E+04  0.35842061840E+04 0.  0.
        4    1    3    3  502    0  0.45541887912E+03  0.41899572174E+03  0.12543332770E+04  0.13986841506E+04  0.12699999809E+01 0. -1.
       -4    1    3    3    0  502 -0.45541887912E+03 -0.41899572174E+03 -0.22323825260E+04  0.23165701210E+04  0.12699999809E+01 0.  1.
</event>
<event>
 5   0  0.9878977E-07  0.3468516E+04  0.7818609E-02  0.8121292E-01
        2   -1    0    0  501    0  0.00000000000E+00  0.00000000000E+00  0.19771734317E+04  0.19771734317E+04  0.25500000920E-02 0.  1.
       -2   -1    0    0    0  501  0.00000000000E+00  0.00000000000E+00 -0.15211870078E+04  0.15211870078E+04  0.25500000920E-02 0. -1.
    10030    2    1    2    0    0  0.00000000000E+00  0.00000000000E+00  0.45598642394E+03  0.34983604396E+04  0.34685158420E+04 0.  0.
        5    1    3    3  502    0  0.99186056382E+03  0.14102055183E+04  0.38865856981E+02  0.17245288130E+04  0.46999998093E+01 0. -1.
       -5    1    3    3    0  502 -0.99186056382E+03 -0.14102055183E+04  0.41712056696E+03  0.17738316266E+04  0.46999998093E+01 0.  1.
</event>
<event>
 5   0  0.3242047E-07  0.2713204E+04  0.7818609E-02  0.8330734E-01
        1   -1    0    0  501    0  0.00000000000E+00  0.00000000000E+00  0.25642470733E+04  0.25642470733E+04  0.50400001928E-02 0.  1.
       -1   -1    0    0    0  501  0.00000000000E+00  0.00000000000E+00 -0.71770324138E+03  0.71770324140E+03  0.50400001928E-02 0. -1.
    10030    2    1    2    0    0  0.00000000000E+00  0.00000000000E+00  0.18465438319E+04  0.32819503147E+04  0.27132035945E+04 0.  0.
        1    1    3    3  502    0 -0.39392286041E+03  0.20619878228E+03 -0.62706282418E+03  0.76870081518E+03  0.50400001928E-02 0. -1.
       -1    1    3    3    0  502  0.39392286041E+03 -0.20619878228E+03  0.24736066561E+04  0.25132494995E+04  0.50400001928E-02 0.  1.
</event>
<event>
 5   0  0.3159875E-07  0.2783321E+04  0.7818609E-02  0.8308465E-01
       -1   -1    0    0    0  501  0.00000000000E+00  0.00000000000E+00  0.13571523547E+04  0.13571523547E+04  0.50400001928E-02 0.  1.
        1   -1    0    0  501    0  0.00000000000E+00  0.00000000000E+00 -0.14270462036E+04  0.14270462036E+04  0.50400001928E-02 0. -1.
    10030    2    1    2    0    0  0.00000000000E+00  0.00000000000E+00 -0.69893848935E+02  0.27841985583E+04  0.27833211208E+04 0.  0.
        2    1    3    3  502    0 -0.49640993020E+03 -0.86208799872E+03  0.93855079870E+03  0.13676608271E+04  0.25500000920E-02 0.  1.
       -2    1    3    3    0  502  0.49640993020E+03  0.86208799872E+03 -0.10084446476E+04  0.14165377311E+04  0.25500000920E-02 0. -1.
</event>
<event>
 5   0  0.9878977E-07  0.3026017E+04  0.7818609E-02  0.8236340E-01
        2   -1    0    0  501    0  0.00000000000E+00  0.00000000000E+00  0.11163036817E+04  0.11163036817E+04  0.25500000920E-02 0. -1.
       -2   -1    0    0    0  501  0.00000000000E+00  0.00000000000E+00 -0.20506920469E+04  0.20506920469E+04  0.25500000920E-02 0.  1.
    10030    2    1    2    0    0  0.00000000000E+00  0.00000000000E+00 -0.93438836522E+03  0.31669957286E+04  0.30260172385E+04 0.  0.
        5    1    3    3  502    0 -0.10208244432E+04 -0.39287022180E+03  0.62685081133E+03  0.12607115390E+04  0.46999998093E+01 0. -1.
       -5    1    3    3    0  502  0.10208244432E+04  0.39287022180E+03 -0.15612391766E+04  0.19062841896E+04  0.46999998093E+01 0.  1.
</event>
<event>
 5   0  0.3365378E-07  0.3578857E+04  0.7818609E-02  0.8095352E-01
        1   -1    0    0  501    0  0.00000000000E+00  0.00000000000E+00  0.10112914135E+04  0.10112914135E+04  0.50400001928E-02 0. -1.
       -1   -1    0    0    0  501  0.00000000000E+00  0.00000000000E+00 -0.31663015234E+04  0.31663015234E+04  0.50400001928E-02 0.  1.
    10030    2    1    2    0    0  0.00000000000E+00  0.00000000000E+00 -0.21550101099E+04  0.41775929369E+04  0.35788565454E+04 0.  0.
        3    1    3    3  502    0  0.90073007261E+03  0.64355902489E+03 -0.27186162229E+04  0.29353631904E+04  0.10100000352E+00 0.  1.
       -3    1    3    3    0  502 -0.90073007261E+03 -0.64355902489E+03  0.56360611294E+03  0.12422297464E+04  0.10100000352E+00 0. -1.
</event>
<event>
 5   0  0.1006019E-06  0.3440554E+04  0.7818609E-02  0.8128024E-01
        2   -1    0    0  501    0  0.00000000000E+00  0.00000000000E+00  0.27418479931E+04  0.27418479931E+04  0.25500000920E-02 0.  1.
       -2   -1    0    0    0  501  0.00000000000E+00  0.00000000000E+00 -0.10793281658E+04  0.10793281658E+04  0.25500000920E-02 0. -1.
    10030    2    1    2    0    0  0.00000000000E+00  0.00000000000E+00  0.16625198273E+04  0.38211761589E+04  0.34405544700E+04 0.  0.
        1    1    3    3  502    0 -0.55164420369E+03  0.82497366826E+03  0.23918645355E+04  0.25895769610E+04  0.50400001928E-02 0.  1.
       -1    1    3    3    0  502  0.55164420369E+03 -0.82497366826E+03 -0.72934470820E+03  0.12315991979E+04  0.50400001928E-02 0. -1.
</event>
<event>
 5   0  0.3242047E-07  0.3680858E+04  0.7818609E-02  0.8072217E-01
        1   -1    0    0  501    0  0.00000000000E+00  0.00000000000E+00  0.25378343923E+04  0.25378343923E+04  0.50400001928E-02 0.  1.
       -1   -1    0    0    0  501  0.00000000000E+00  0.00000000000E+00 -0.13346730192E+04  0.13346730192E+04  0.50400001928E-02 0. -1.
    10030    2    1    2    0    0  0.00000000000E+00  0.00000000000E+00  0.12031613731E+04  0.38725074115E+04  0.36808581013E+04 0.  0.
        1    1    3    3  502    0  0.18272069098E+04  0.20142532871E+03  0.50794182894E+03  0.19071607578E+04  0.50400001928E-02 0. -1.
       -1    1    3    3    0  502 -0.18272069098E+04 -0.20142532871E+03  0.69521954417E+03  0.19653466537E+04  0.50400001928E-02 0.  1.
</event>
<event>
 5   0  0.1006019E-06  0.3864592E+04  0.7818609E-02  0.8032434E-01
        2   -1    0    0  501    0  0.00000000000E+00  0.00000000000E+00  0.28846117219E+04  0.28846117219E+04  0.25500000920E-02 0.  1.
       -2   -1    0    0    0  501  0.00000000000E+00  0.00000000000E+00 -0.12943744974E+04  0.12943744974E+04  0.25500000920E-02 0. -1.
    10030    2    1    2    0    0  0.00000000000E+00  0.00000000000E+00  0.15902372244E+04  0.41789862193E+04  0.38645920084E+04 0.  0.
        1    1    3    3  502    0 -0.13080567034E+04  0.48974493366E+03 -0.64876251144E+03  0.15400504004E+04  0.50400001928E-02 0. -1.
       -1    1    3    3    0  502  0.13080567034E+04 -0.48974493366E+03  0.22389997359E+04  0.26389358190E+04  0.50400001928E-02 0.  1.
</event>
<event>
 5   0  0.1006019E-06  0.3146785E+04  0.7818609E-02  0.8203014E-01
       -2   -1    0    0    0  501  0.00000000000E+00  0.00000000000E+00  0.15921312959E+04  0.15921312959E+04  0.25500000920E-02 0.  1.
        2   -1    0    0  501    0  0.00000000000E+00  0.00000000000E+00 -0.15548744799E+04  0.15548744799E+04  0.25500000920E-02 0. -1.
    10030    2    1    2    0    0  0.00000000000E+00  0.00000000000E+00  0.37256816005E+02  0.31470057759E+04  0.31467852299E+04 0.  0.
        1    1    3    3  502    0  0.76800198230E+03 -0.97862932083E+03 -0.94477805650E+03  0.15620972980E+04  0.50400001928E-02 0. -1.
       -1    1    3    3    0  502 -0.76800198230E+03  0.97862932083E+03  0.98203487250E+03  0.15849084779E+04  0.50400001928E-02 0.  1.
</event>
<event>
 5   0  0.9878977E-07  0.3520552E+04  0.7818609E-02  0.8108937E-01
        2   -1    0    0  501    0  0.00000000000E+00  0.00000000000E+00  0.21816855448E+04  0.21816855448E+04  0.25500000920E-02 0. -1.
       -2   -1    0    0    0  501  0.00000000000E+00  0.00000000000E+00 -0.14202648142E+04  0.14202648142E+04  0.25500000920E-02 0.  1.
    10030    2    1    2    0    0  0.00000000000E+00  0.00000000000E+00  0.76142073055E+03  0.36019503590E+04  0.35205517834E+04 0.  0.
        5    1    3    3  502    0  0.10216678599E+04 -0.14238750180E+04  0.21158923525E+03  0.17652244552E+04  0.46999998093E+01 0.  1.
       -5    1    3    3    0  502 -0.10216678599E+04  0.14238750180E+04  0.54983149530E+03  0.18367259039E+04  0.46999998093E+01 0. -1.
</event>
<event>
 5   0  0.9878336E-07  0.3605360E+04  0.7818609E-02  0.8089265E-01
       -2   -1    0    0    0  501  0.00000000000E+00  0.00000000000E+00  0.13973460199E+04  0.13973460199E+04  0.25500000920E-02 0.  1.
        2   -1    0    0  501    0  0.00000000000E+00  0.00000000000E+00 -0.23255902779E+04  0.23255902779E+04  0.25500000920E-02 0. -1.
    10030    2    1    2    0    0  0.00000000000E+00  0.00000000000E+00 -0.92824425797E+03  0.37229362978E+04  0.36053595209E+04 0.  0.
        3    1    3    3  502    0 -0.17705743889E+04 -0.12333368169E+03 -0.78986069339E+03  0.19426849433E+04  0.10100000352E+00 0. -1.
       -3    1    3    3    0  502  0.17705743889E+04  0.12333368169E+03 -0.13838356458E+03  0.17802513544E+04  0.10100000352E+00 0.  1.
</event>
<event>
 5   0  0.3159875E-07  0.3624607E+04  0.7818609E-02  0.8084878E-01
       -1   -1    0    0    0  501  0.00000000000E+00  0.00000000000E+00  0.14787261159E+04  0.14787261160E+04  0.50400001928E-02 0. -1.
        1   -1    0    0  501    0  0.00000000000E+00  0.00000000000E+00 -0.22211308175E+04  0.22211308175E+04  0.50400001928E-02 0.  1.
    10030    2    1    2    0    0  0.00000000000E+00  0.00000000000E+00 -0.74240470152E+03  0.36998569334E+04  0.36246070941E+04 0.  0.
        2    1    3    3  502    0  0.40554662662E+03  0.16031465376E+04  0.38574342985E+03  0.16980414839E+04  0.25500000920E-02 0.  1.
       -2    1    3    3    0  502 -0.40554662662E+03 -0.16031465376E+04 -0.11281481314E+04  0.20018154495E+04  0.25500000920E-02 0. -1.
</event>
<event>
 5   0  0.3365378E-07  0.3557143E+04  0.7818609E-02  0.8100380E-01
        1   -1    0    0  501    0  0.00000000000E+00  0.00000000000E+00  0.17029159886E+04  0.17029159886E+04  0.50400001928E-02 0.  1.
       -1   -1    0    0    0  501  0.00000000000E+00  0.00000000000E+00 -0.18575878305E+04  0.18575878305E+04  0.50400001928E-02 0. -1.
    10030    2    1    2    0    0  0.00000000000E+00  0.00000000000E+00 -0.15467184189E+03  0.35605038191E+04  0.35571426830E+04 0.  0.
        3    1    3    3  502    0  0.98098336522E+03 -0.12844927236E+04 -0.82037561092E+03  0.18125302958E+04  0.10100000352E+00 0. -1.
       -3    1    3    3    0  502 -0.98098336522E+03  0.12844927236E+04  0.66570376903E+03  0.17479735233E+04  0.10100000352E+00 0.  1.
</event>
<event>
 5   0  0.3159875E-07  0.3510455E+04  0.7818609E-02  0.8111317E-01
        1   -1    0    0  501    0  0.00000000000E+00  0.00000000000E+00  0.21258322627E+04  0.21258322628E+04  0.50400001928E-02 0.  1.
       -1   -1    0    0    0  501  0.00000000000E+00  0.00000000000E+00 -0.14492319182E+04  0.14492319182E+04  0.50400001928E-02 0. -1.
    10030    2    1    2    0    0  0.00000000000E+00  0.00000000000E+00  0.67660034452E+03  0.35750641810E+04  0.35104552229E+04 0.  0.
        2    1    3    3  502    0 -0.18437882597E+03  0.78593214826E+03 -0.12489544302E+04  0.14871355224E+04  0.25500000920E-02 0. -1.
       -2    1    3    3    0  502  0.18437882597E+03 -0.78593214826E+03  0.19255547747E+04  0.20879286586E+04  0.25500000920E-02 0.  1.
</event>
<event>
 5   0  0.3242047E-07  0.3611444E+04  0.7818609E-02  0.8087875E-01
       -1   -1    0    0    0  501  0.00000000000E+00  0.00000000000E+00  0.18379384548E+04  0.18379384548E+04  0.50400001928E-02 0.  1.
        1   -1    0    0  501    0  0.00000000000E+00  0.00000000000E+00 -0.17740697915E+04  0.17740697915E+04  0.50400001928E-02 0. -1.
    10030    2    1    2    0    0  0.00000000000E+00  0.00000000000E+00  0.63868663337E+02  0.36120082463E+04  0.36114435293E+04 0.  0.
        1    1    3    3  502    0 -0.16410031662E+04  0.35813467954E+03  0.69497030613E+03  0.18177281333E+04  0.50400001928E-02 0.  1.
       -1    1    3    3    0  502  0.16410031662E+04 -0.35813467954E+03 -0.63110164279E+03  0.17942801130E+04  0.50400001928E-02 0. -1.
</event>
<event>
 5   0  0.1006019E-06  0.3546630E+04  0.7818609E-02  0.8102827E-01
       -2   -1    0    0    0  501  0.00000000000E+00  0.00000000000E+00  0.18218011705E+04  0.18218011705E+04  0.25500000920E-02 0. -1.
        2   -1    0    0  501    0  0.00000000000E+00  0.00000000000E+00 -0.17261189080E+04  0.17261189080E+04  0.25500000920E-02 0.  1.
    10030    2    1    2    0    0  0.00000000000E+00  0.00000000000E+00  0.95682262451E+02  0.35479200785E+04  0.35466296379E+04 0.  0.
        1    1    3    3  502    0 -0.97251070483E+01  0.84313352361E+03 -0.15127510765E+04  0.17318731292E+04  0.50400001928E-02 0.  1.
       -1    1    3    3    0  502  0.97251070483E+01 -0.84313352361E+03  0.16084333389E+04  0.18160469493E+04  0.50400001928E-02 0. -1.
</event>
<event>
 5   0  0.3365378E-07  0.3558334E+04  0.7818609E-02  0.8100103E-01
        1   -1    0    0  501    0  0.00000000000E+00  0.00000000000E+00  0.22622454859E+04  0.22622454859E+04  0.50400001928E-02 0. -1.
       -1   -1    0    0    0  501  0.00000000000E+00  0.00000000000E+00 -0.13992445404E+04  0.13992445405E+04  0.50400001928E-02 0.  1.
    10030    2    1    2    0    0  0.00000000000E+00  0.00000000000E+00  0.86300094550E+03  0.36614900264E+04  0.35583336805E+04 0.  0.
        3    1    3    3  502    0  0.59478522173E+03 -0.57565465426E+03  0.20520493839E+04  0.22127029682E+04  0.10100000352E+00 0. -1.
       -3    1    3    3    0  502 -0.59478522173E+03  0.57565465426E+03 -0.11890484384E+04  0.14487870582E+04  0.10100000352E+00 0.  1.
</event>
<event>
 5   0  0.1031659E-06  0.2680246E+04  0.7818609E-02  0.8341443E-01
        2   -1    0    0  501    0  0.00000000000E+00  0.00000000000E+00  0.16454618611E+04  0.16454618611E+04  0.25500000920E-02 0.  1.
       -2   -1    0    0    0  501  0.00000000000E+00  0.00000000000E+00 -0.10914445060E+04  0.10914445060E+04  0.25500000920E-02 0. -1.
    10030    2    1    2    0    0  0.00000000000E+00  0.00000000000E+00  0.55401735504E+03  0.27369063671E+04  0.26802464873E+04 0.  0.
        2    1    3    3  502    0  0.51115560286E+03  0.87746859150E+03 -0.61594823202E+03  0.11876966801E+04  0.25500000920E-02 0. -1.
       -2    1    3    3    0  502 -0.51115560286E+03 -0.87746859150E+03  0.11699655871E+04  0.15492096870E+04  0.25500000920E-02 0.  1.
</event>
<event>
 5   0  0.3159875E-07  0.3557242E+04  0.7818609E-02  0.8100357E-01
       -1   -1    0    0    0  501  0.00000000000E+00  0.00000000000E+00  0.14790379670E+04  0.14790379670E+04  0.50400001928E-02 0.  1.
        1   -1    0    0  501    0  0.00000000000E+00  0.00000000000E+00 -0.21388851594E+04  0.21388851594E+04  0.50400001928E-02 0. -1.
    10030    2    1    2    0    0  0.00000000000E+00  0.00000000000E+00 -0.65984719237E+03  0.36179231264E+04  0.35572418292E+04 0.  0.
        5    1    3    3  502    0  0.22825817958E+02 -0.14959497164E+04 -0.13081434155E+04  0.19873720984E+04  0.46999998093E+01 0. -1.
       -5    1    3    3    0  502 -0.22825817958E+02  0.14959497164E+04  0.64829622310E+03  0.16305510280E+04  0.46999998093E+01 0.  1.
</event>
<event>
 5   0  0.9538919E-07  0.3578018E+04  0.7818609E-02  0.8095545E-01
       -2   -1    0    0    0  501  0.00000000000E+00  0.00000000000E+00  0.18107357356E+04  0.18107357356E+04  0.25500000920E-02 0. -1.
        2   -1    0    0  501    0  0.00000000000E+00  0.00000000000E+00 -0.17675433838E+04  0.17675433838E+04  0.25500000920E-02 0.  1.
    10030    2    1    2    0    0  0.00000000000E+00  0.00000000000E+00  0.43192351830E+02  0.35782791194E+04  0.35780184289E+04 0.  0.
        4    1    3    3  502    0 -0.14375391453E+03 -0.17505135221E+04  0.36160561929E+03  0.17932437134E+04  0.12699999809E+01 0. -1.
       -4    1    3    3    0  502  0.14375391453E+03  0.17505135221E+04 -0.31841326746E+03  0.17850354060E+04  0.12699999809E+01 0.  1.
</event>
<event>
 5   0  0.1006019E-06  0.3576618E+04  0.7818609E-02  0.8095869E-01
        2   -1    0    0  501    0  0.00000000000E+00  0.00000000000E+00  0.12772773276E+04  0.12772773276E+04  0.25500000920E-02 0. -1.
       -2   -1    0    0    0  501  0.00000000000E+00  0.00000000000E+00 -0.25038016839E+04  0.25038016839E+04  0.25500000920E-02 0.  1.
    10030    2    1    2    0    0  0.00000000000E+00  0.00000000000E+00 -0.12265243563E+04  0.37810790114E+04  0.35766180246E+04 0.  0.
        1    1    3    3  502    0  0.51835954166E+03 -0.41836263118E+02  0.11955739637E+04  0.13037806525E+04  0.50400001928E-02 0. -1.
       -1    1    3    3    0  502 -0.51835954166E+03  0.41836263118E+02 -0.24220983200E+04  0.24772983589E+04  0.50400001928E-02 0.  1.
</event>
<event>
 5   0  0.1006019E-06  0.3540623E+04  0.7818609E-02  0.8104230E-01
        2   -1    0    0  501    0  0.00000000000E+00  0.00000000000E+00  0.24308255180E+04  0.24308255180E+04  0.25500000920E-02 0. -1.
       -2   -1    0    0    0  501  0.00000000000E+00  0.00000000000E+00 -0.12892750430E+04  0.12892750430E+04  0.25500000920E-02 0.  1.
    10030    2    1    2    0    0  0.00000000000E+00  0.00000000000E+00  0.11415504750E+04  0.37201005610E+04  0.35406229250E+04 0.  0.
        1    1    3    3  502    0  0.53633210801E+03  0.16652759475E+04  0.85505766207E+03  0.19472852172E+04  0.50400001928E-02 0. -1.
       -1    1    3    3    0  502 -0.53633210801E+03 -0.16652759475E+04  0.28649281296E+03  0.17728153439E+04  0.50400001928E-02 0.  1.
</event>
<event>
 5   0  0.3278988E-07  0.3506554E+04  0.7818609E-02  0.8112238E-01
       -1   -1    0    0    0  501  0.00000000000E+00  0.00000000000E+00  0.16987346270E+04  0.16987346270E+04  0.50400001928E-02 0.  1.
        1   -1    0    0  501    0  0.00000000000E+00  0.00000000000E+00 -0.18095707759E+04  0.18095707759E+04  0.50400001928E-02 0. -1.
    10030    2    1    2    0    0  0.00000000000E+00  0.00000000000E+00 -0.11083614895E+03  0.35083054029E+04  0.35065541701E+04 0.  0.
        4    1    3    3  502    0  0.44312062555E+03  0.11760784213E+04 -0.12785107427E+04  0.17927932602E+04  0.12699999809E+01 0. -1.
       -4    1    3    3    0  502 -0.44312062555E+03 -0.11760784213E+04  0.11676745937E+04  0.17155121427E+04  0.12699999809E+01 0.  1.
</event>
<event>
 5   0  0.9538919E-07  0.3620047E+04  0.7818609E-02  0.8085915E-01
        2   -1    0    0  501    0  0.00000000000E+00  0.00000000000E+00  0.20006636160E+04  0.20006636160E+04  0.25500000920E-02 0. -1.
       -2   -1    0    0    0  501  0.00000000000E+00  0.00000000000E+00 -0.16375494060E+04  0.16375494060E+04  0.25500000920E-02 0.  1.
    10030    2    1    2    0    0  0.00000000000E+00  0.00000000000E+00  0.36311420997E+03  0.36382130219E+04  0.36200472460E+04 0.  0.
        4    1    3    3  502    0  0.54790437201E+03 -0.66782152034E+03 -0.14170217728E+04  0.16595593094E+04  0.12699999809E+01 0.  1.
       -4    1    3    3    0  502 -0.54790437201E+03  0.66782152034E+03  0.17801359828E+04  0.19786537125E+04  0.12699999809E+01 0. -1.
</event>
<event>
 5   0  0.9538919E-07  0.3552965E+04  0.7818609E-02  0.8101351E-01
        2   -1    0    0  501    0  0.00000000000E+00  0.00000000000E+00  0.16381478457E+04  0.16381478457E+04  0.25500000920E-02 0.  1.
       -2   -1    0    0    0  501  0.00000000000E+00  0.00000000000E+00 -0.19264986880E+04  0.19264986880E+04  0.25500000920E-02 0. -1.
    10030    2    1    2    0    0  0.00000000000E+00  0.00000000000E+00 -0.28835084228E+03  0.35646465337E+04  0.35529647764E+04 0.  0.
        4    1    3    3  502    0  0.14320438022E+04 -0.48954111537E+03 -0.10775503314E+04  0.18578256874E+04  0.12699999809E+01 0. -1.
       -4    1    3    3    0  502 -0.14320438022E+04  0.48954111537E+03  0.78919948912E+03  0.17068208464E+04  0.12699999809E+01 0.  1.
</event>
<event>
 5   0  0.3159875E-07  0.3182178E+04  0.7818609E-02  0.8193540E-01
       -1   -1    0    0    0  501  0.00000000000E+00  0.00000000000E+00  0.17525967788E+04  0.17525967788E+04  0.50400001928E-02 0. -1.
        1   -1    0    0  501    0  0.00000000000E+00  0.00000000000E+00 -0.14444651076E+04  0.14444651076E+04  0.50400001928E-02 0.  1.
    10030    2    1    2    0    0  0.00000000000E+00  0.00000000000E+00  0.30813167122E+03  0.31970618863E+04  0.31821784328E+04 0.  0.
        2    1    3    3  502    0  0.10303923319E+04  0.49755174969E+03  0.12648129831E+04  0.17055843525E+04  0.25500000920E-02 0. -1.
       -2    1    3    3    0  502 -0.10303923319E+04 -0.49755174969E+03 -0.95668131190E+03  0.14914775338E+04  0.25500000920E-02 0.  1.
</event>
<event>
 5   0  0.1006019E-06  0.3597635E+04  0.7818609E-02  0.8091034E-01
       -2   -1    0    0    0  501  0.00000000000E+00  0.00000000000E+00  0.12948596733E+04  0.12948596733E+04  0.25500000920E-02 0. -1.
        2   -1    0    0  501    0  0.00000000000E+00  0.00000000000E+00 -0.24989153197E+04  0.24989153197E+04  0.25500000920E-02 0.  1.
    10030    2    1    2    0    0  0.00000000000E+00  0.00000000000E+00 -0.12040556465E+04  0.37937749930E+04  0.35976351535E+04 0.  0.
        1    1    3    3  502    0 -0.12324599335E+04 -0.12792257371E+04 -0.90097738687E+03  0.19917671114E+04  0.50400001928E-02 0. -1.
       -1    1    3    3    0  502  0.12324599335E+04  0.12792257371E+04 -0.30307825958E+03  0.18020078817E+04  0.50400001928E-02 0.  1.
</event>
<event>
 5   0  0.3159875E-07  0.3021182E+04  0.7818609E-02  0.8237708E-01
       -1   -1    0    0    0  501  0.00000000000E+00  0.00000000000E+00  0.18988513309E+04  0.18988513309E+04  0.50400001928E-02 0. -1.
        1   -1    0    0  501    0  0.00000000000E+00  0.00000000000E+00 -0.12017187550E+04  0.12017187550E+04  0.50400001928E-02 0.  1.
    10030    2    1    2    0    0  0.00000000000E+00  0.00000000000E+00  0.69713257587E+03  0.31005700859E+04  0.30211820582E+04 0.  0.
        5    1    3    3  502    0  0.48082833240E+03 -0.14144148866E+04  0.57827318181E+03  0.16019323704E+04  0.46999998093E+01 0.  1.
       -5    1    3    3    0  502 -0.48082833240E+03  0.14144148866E+04  0.11885939406E+03  0.14986377154E+04  0.46999998093E+01 0. -1.
</event>
<event>
 5   0  0.3159875E-07  0.3603863E+04  0.7818609E-02  0.8089607E-01
        1   -1    0    0  501    0  0.00000000000E+00  0.00000000000E+00  0.18785134225E+04  0.18785134225E+04  0.50400001928E-02 0.  1.
       -1   -1    0    0    0  501  0.00000000000E+00  0.00000000000E+00 -0.17284713414E+04  0.17284713414E+04  0.50400001928E-02 0. -1.
    10030    2    1    2    0    0  0.00000000000E+00  0.00000000000E+00  0.15004208112E+03  0.36069847640E+04  0.36038627140E+04 0.  0.
        5    1    3    3  502    0 -0.15446161181E+04 -0.17565800975E+03 -0.83694329226E+03  0.17655568110E+04  0.46999998093E+01 0. -1.
       -5    1    3    3    0  502  0.15446161181E+04  0.17565800975E+03  0.98698537339E+03  0.18414279529E+04  0.46999998093E+01 0.  1.
</event>
<event>
 5   0  0.3159875E-07  0.2619126E+04  0.7818609E-02  0.8361734E-01
        1   -1    0    0  501    0  0.00000000000E+00  0.00000000000E+00  0.71780308783E+03  0.71780308785E+03  0.50400001928E-02 0. -1.
       -1   -1    0    0    0  501  0.00000000000E+00  0.00000000000E+00 -0.23891718472E+04  0.23891718472E+04  0.50400001928E-02 0.  1.
    10030    2    1    2    0    0  0.00000000000E+00  0.00000000000E+00 -0.16713687594E+04  0.31069749351E+04  0.26191257544E+04 0.  0.
        5    1    3    3  502    0  0.42864111387E+03  0.84897137187E+03 -0.19036168064E+04  0.21279719524E+04  0.46999998093E+01 0.  1.
       -5    1    3    3    0  502 -0.42864111387E+03 -0.84897137187E+03  0.23224804697E+03  0.97900298267E+03  0.46999998093E+01 0. -1.
</event>
<event>
 5   0  0.3159875E-07  0.3598185E+04  0.7818609E-02  0.8090908E-01
       -1   -1    0    0    0  501  0.00000000000E+00  0.00000000000E+00  0.16630096976E+04  0.16630096976E+04  0.50400001928E-02 0.  1.
        1   -1    0    0  501    0  0.00000000000E+00  0.00000000000E+00 -0.19463107442E+04  0.19463107442E+04  0.50400001928E-02 0. -1.
    10030    2    1    2    0    0  0.00000000000E+00  0.00000000000E+00 -0.28330104662E+03  0.36093204418E+04  0.35981848992E+04 0.  0.
        2    1    3    3  502    0 -0.12306288905E+04 -0.98639940508E+03  0.72665092102E+03  0.17365059210E+04  0.25500000920E-02 0.  1.
       -2    1    3    3    0  502  0.12306288905E+04  0.98639940508E+03 -0.10099519676E+04  0.18728145208E+04  0.25500000920E-02 0. -1.
</event>
<event>
 5   0  0.9878336E-07  0.3596638E+04  0.7818609E-02  0.8091262E-01
       -2   -1    0    0    0  501  0.00000000000E+00  0.00000000000E+00  0.23892874501E+04  0.23892874501E+04  0.25500000920E-02 0. -1.
        2   -1    0    0  501    0  0.00000000000E+00  0.00000000000E+00 -0.13535211457E+04  0.13535211457E+04  0.25500000920E-02 0.  1.
    10030    2    1    2    0    0  0.00000000000E+00  0.00000000000E+00  0.10357663044E+04  0.37428085958E+04  0.35966379227E+04 0.  0.
        3    1    3    3  502    0 -0.14755782778E+03 -0.82800793363E+02 -0.13452192132E+04  0.13558185814E+04  0.10100000352E+00 0.  1.
       -3    1    3    3    0  502  0.14755782778E+03  0.82800793363E+02  0.23809855175E+04  0.23869900144E+04  0.10100000352E+00 0. -1.
</event>
<event>
 5   0  0.9878977E-07  0.3605514E+04  0.7818609E-02  0.8089230E-01
       -2   -1    0    0    0  501  0.00000000000E+00  0.00000000000E+00  0.12441944285E+04  0.12441944285E+04  0.25500000920E-02 0. -1.
        2   -1    0    0  501    0  0.00000000000E+00  0.00000000000E+00 -0.26120778473E+04  0.26120778473E+04  0.25500000920E-02 0.  1.
    10030    2    1    2    0    0  0.00000000000E+00  0.00000000000E+00 -0.13678834188E+04  0.38562722758E+04  0.36055139464E+04 0.  0.
        5    1    3    3  502    0 -0.52602651587E+03  0.43996410999E+03  0.10992361122E+04  0.12956135357E+04  0.46999998093E+01 0. -1.
       -5    1    3    3    0  502  0.52602651587E+03 -0.43996410999E+03 -0.24671195310E+04  0.25606587401E+04  0.46999998093E+01 0.  1.
</event>
<event>
 5   0  0.1031659E-06  0.3619123E+04  0.7818609E-02  0.8086125E-01
        2   -1    0    0  501    0  0.00000000000E+00  0.00000000000E+00  0.19665284692E+04  0.19665284692E+04  0.25500000920E-02 0. -1.
       -2   -1    0    0    0  501  0.00000000000E+00  0.00000000000E+00 -0.16651238763E+04  0.16651238763E+04  0.25500000920E-02 0.  1.
    10030    2    1    2    0    0  0.00000000000E+00  0.00000000000E+00  0.30140459291E+03  0.36316523455E+04  0.36191233787E+04 0.  0.
        2    1    3    3  502    0 -0.29977191311E+03 -0.84193972779E+03 -0.14282084765E+04  0.16847863833E+04  0.25500000920E-02 0.  1.
       -2    1    3    3    0  502  0.29977191311E+03  0.84193972779E+03  0.17296130694E+04  0.19468659622E+04  0.25500000920E-02 0. -1.
</event>
<event>
 5   0  0.3278988E-07  0.3545262E+04  0.7818609E-02  0.8103146E-01
       -1   -1    0    0    0  501  0.00000000000E+00  0.00000000000E+00  0.20117495754E+04  0.20117495754E+04  0.50400001928E-02 0. -1.
        1   -1    0    0  501    0  0.00000000000E+00  0.00000000000E+00 -0.15619345996E+04  0.15619345996E+04  0.50400001928E-02 0.  1.
    10030    2    1    2    0    0  0.00000000000E+00  0.00000000000E+00  0.44981497581E+03  0.35736841751E+04  0.35452623416E+04 0.  0.
        4    1    3    3  502    0 -0.66229570070E+03  0.10836768106E+04  0.14714411231E+04  0.19437416538E+04  0.12699999809E+01 0. -1.
       -4    1    3    3    0  502  0.66229570070E+03 -0.10836768106E+04 -0.10216261473E+04  0.16299425213E+04  0.12699999809E+01 0.  1.
</event>
<event>
 5   0  0.1006019E-06  0.3597921E+04  0.7818609E-02  0.8090968E-01
        2   -1    0    0  501    0  0.00000000000E+00  0.00000000000E+00  0.27035008970E+04  0.27035008970E+04  0.25500000920E-02 0. -1.
       -2   -1    0    0    0  501  0.00000000000E+00  0.00000000000E+00 -0.11970620609E+04  0.11970620609E+04  0.25500000920E-02 0.  1.
    10030    2    1    2    0    0  0.00000000000E+00  0.00000000000E+00  0.15064388362E+04  0.39005629579E+04  0.35979207081E+04 0.  0.
        1    1    3    3  502    0  0.11618665264E+04 -0.35970785386E+02  0.22416716793E+04  0.25251375488E+04  0.50400001928E-02 0. -1.
       -1    1    3    3    0  502 -0.11618665264E+04  0.35970785386E+02 -0.73523284308E+03  0.13754254092E+04  0.50400001928E-02 0.  1.
</event>
<event>
 5   0  0.3159875E-07  0.3614787E+04  0.7818609E-02  0.8087113E-01
        1   -1    0    0  501    0  0.00000000000E+00  0.00000000000E+00  0.17541421357E+04  0.17541421357E+04  0.50400001928E-02 0. -1.
       -1   -1    0    0    0  501  0.00000000000E+00  0.00000000000E+00 -0.18622609386E+04  0.18622609386E+04  0.50400001928E-02 0.  1.
    10030    2    1    2    0    0  0.00000000000E+00  0.00000000000E+00 -0.10811880294E+03  0.36164030743E+04  0.36147865110E+04 0.  0.
        2    1    3    3  502    0 -0.91901150282E+03  0.10445092970E+04 -0.12083034747E+04  0.18427097169E+04  0.25500000920E-02 0.  1.
       -2    1    3    3    0  502  0.91901150282E+03 -0.10445092970E+04  0.11001846718E+04  0.17736933574E+04  0.25500000920E-02 0. -1.
</event>
<event>
 5   0  0.3242047E-07  0.3561358E+04  0.7818609E-02  0.8099401E-01
       -1   -1    0    0    0  501  0.00000000000E+00  0.00000000000E+00  0.12895297841E+04  0.12895297841E+04  0.50400001928E-02 0.  1.
        1   -1    0    0  501    0  0.00000000000E+00  0.00000000000E+00 -0.24588946896E+04  0.24588946896E+04  0.50400001928E-02 0. -1.
    10030    2    1    2    0    0  0.00000000000E+00  0.00000000000E+00 -0.11693649055E+04  0.37484244737E+04  0.35613581332E+04 0.  0.
        1    1    3    3  502    0  0.41834117516E+03 -0.17250445441E+04 -0.73364350280E+03  0.19206823806E+04  0.50400001928E-02 0. -1.
       -1    1    3    3    0  502 -0.41834117516E+03  0.17250445441E+04 -0.43572140274E+03  0.18277420931E+04  0.50400001928E-02 0.  1.
</event>
<event>
 5   0  0.3365378E-07  0.3591920E+04  0.7818609E-02  0.8092345E-01
       -1   -1    0    0    0  501  0.00000000000E+00  0.00000000000E+00  0.32281635479E+04  0.32281635479E+04  0.50400001928E-02 0. -1.
        1   -1    0    0  501    0  0.00000000000E+00  0.00000000000E+00 -0.99916623400E+03  0.99916623402E+03  0.50400001928E-02 0.  1.
    10030    2    1    2    0    0  0.00000000000E+00  0.00000000000E+00  0.22289973139E+04  0.42273297819E+04  0.35919198292E+04 0.  0.
        3    1    3    3  502    0  0.15997086000E+04 -0.76726087482E+03  0.78640915184E+03  0.19406690133E+04  0.10100000352E+00 0.  1.
       -3    1    3    3    0  502 -0.15997086000E+04  0.76726087482E+03  0.14425881620E+04  0.22866607686E+04  0.10100000352E+00 0. -1.
</event>
<event>
 5   0  0.3159875E-07  0.3538666E+04  0.7818609E-02  0.8104687E-01
        1   -1    0    0  501    0  0.00000000000E+00  0.00000000000E+00  0.18201886517E+04  0.18201886518E+04  0.50400001928E-02 0. -1.
       -1   -1    0    0    0  501  0.00000000000E+00  0.00000000000E+00 -0.17198984826E+04  0.17198984826E+04  0.50400001928E-02 0.  1.
    10030    2    1    2    0    0  0.00000000000E+00  0.00000000000E+00  0.10029016915E+03  0.35400871344E+04  0.35386662460E+04 0.  0.
        2    1    3    3  502    0 -0.10942905661E+04  0.32779845747E+02  0.14406648310E+04  0.18094367954E+04  0.25500000920E-02 0. -1.
       -2    1    3    3    0  502  0.10942905661E+04 -0.32779845747E+02 -0.13403746619E+04  0.17306503389E+04  0.25500000920E-02 0.  1.
</event>
<event>
 5   0  0.3365378E-07  0.3621774E+04  0.7818609E-02  0.8085522E-01
       -1   -1    0    0    0  501  0.00000000000E+00  0.00000000000E+00  0.21273262066E+04  0.21273262066E+04  0.50400001928E-02 0. -1.
        1   -1    0    0  501    0  0.00000000000E+00  0.00000000000E+00 -0.15415182139E+04  0.15415182139E+04  0.50400001928E-02 0.  1.
    10030    2    1    2    0    0  0.00000000000E+00  0.00000000000E+00  0.58580799273E+03  0.36688444206E+04  0.36217742031E+04 0.  0.
        3    1    3    3  502    0  0.19735208746E+03  0.14235085881E+04  0.14090346575E+04  0.20126358894E+04  0.10100000352E+00 0. -1.
       -3    1    3    3    0  502 -0.19735208746E+03 -0.14235085881E+04 -0.82322666478E+03  0.16562085312E+04  0.10100000352E+00 0.  1.
</event>
<event>
 5   0  0.3242047E-07  0.3614294E+04  0.7818609E-02  0.8087225E-01
       -1   -1    0    0    0  501  0.00000000000E+00  0.00000000000E+00  0.16590773453E+04  0.16590773453E+04  0.50400001928E-02 0.  1.
        1   -1    0    0  501    0  0.00000000000E+00  0.00000000000E+00 -0.19684316212E+04  0.19684316212E+04  0.50400001928E-02 0. -1.
    10030    2    1    2    0    0  0.00000000000E+00  0.00000000000E+00 -0.30935427595E+03  0.36275089665E+04  0.36142940160E+04 0.  0.
        1    1    3    3  502    0  0.72195604116E+03  0.12650399625E+04 -0.12282768311E+04  0.19053111572E+04  0.50400001928E-02 0. -1.
       -1    1    3    3    0  502 -0.72195604116E+03 -0.12650399625E+04  0.91892255511E+03  0.17221978093E+04  0.50400001928E-02 0.  1.
</event>
<event>
 5   0  0.3159875E-07  0.3560879E+04  0.7818609E-02  0.8099512E-01
       -1   -1    0    0    0  501  0.00000000000E+00  0.00000000000E+00  0.12834667919E+04  0.12834667919E+04  0.50400001928E-02 0.  1.
        1   -1    0    0  501    0  0.00000000000E+00  0.00000000000E+00 -0.24698454871E+04  0.24698454871E+04  0.50400001928E-02 0. -1.
    10030    2    1    2    0    0  0.00000000000E+00  0.00000000000E+00 -0.11863786952E+04  0.37533122789E+04  0.35608789161E+04 0.  0.
        2    1    3    3  502    0 -0.26006519562E+03 -0.97964250420E+03  0.94968734362E+03  0.13889706234E+04  0.25500000920E-02 0.  1.
       -2    1    3    3    0  502  0.26006519562E+03  0.97964250420E+03 -0.21360660388E+04  0.23643416556E+04  0.25500000920E-02 0. -1.
</event>
<event>
 5   0  0.1031659E-06  0.3607922E+04  0.7818609E-02  0.8088679E-01
       -2   -1    0    0    0  501  0.00000000000E+00  0.00000000000E+00  0.20021060253E+04  0.20021060253E+04  0.25500000920E-02 0.  1.
        2   -1    0    0  501    0  0.00000000000E+00  0.00000000000E+00 -0.16254264444E+04  0.16254264444E+04  0.25500000920E-02 0. -1.
    10030    2    1    2    0    0  0.00000000000E+00  0.00000000000E+00  0.37667958087E+03  0.36275324697E+04  0.36079224371E+04 0.  0.
        2    1    3    3  502    0 -0.12406130347E+04 -0.11243105684E+04 -0.48693640719E+03  0.17436461857E+04  0.25500000920E-02 0. -1.
       -2    1    3    3    0  502  0.12406130347E+04  0.11243105684E+04  0.86361598806E+03  0.18838862840E+04  0.25500000920E-02 0.  1.
</event>
<event>
 5   0  0.3159875E-07  0.3615329E+04  0.7818609E-02  0.8086989E-01
       -1   -1    0    0    0  501  0.00000000000E+00  0.00000000000E+00  0.24128570909E+04  0.24128570910E+04  0.50400001928E-02 0. -1.
        1   -1    0    0  501    0  0.00000000000E+00  0.00000000000E+00 -0.13542661931E+04  0.13542661931E+04  0.50400001928E-02 0.  1.
    10030    2    1    2    0    0  0.00000000000E+00  0.00000000000E+00  0.10585908979E+04  0.37671232840E+04  0.36153289129E+04 0.  0.
        2    1    3    3  502    0 -0.10240164376E+04 -0.14798517536E+04  0.70698363210E+03  0.19334934014E+04  0.25500000920E-02 0. -1.
       -2    1    3    3    0  502  0.10240164376E+04  0.14798517536E+04  0.35160726575E+03  0.18336298826E+04  0.25500000920E-02 0.  1.
</event>
<event>
 5   0  0.3159875E-07  0.2621917E+04  0.7818609E-02  0.8360794E-01
        1   -1    0    0  501    0  0.00000000000E+00  0.00000000000E+00  0.93037983816E+03  0.93037983817E+03  0.50400001928E-02 0. -1.
       -1   -1    0    0    0  501  0.00000000000E+00  0.00000000000E+00 -0.18472161202E+04  0.18472161202E+04  0.50400001928E-02 0.  1.
    10030    2    1    2    0    0  0.00000000000E+00  0.00000000000E+00 -0.91683628207E+03  0.27775959584E+04  0.26219173404E+04 0.  0.
        5    1    3    3  502    0  0.65543921782E+03 -0.11313648023E+04 -0.55893979792E+03  0.14219784358E+04  0.46999998093E+01 0.  1.
       -5    1    3    3    0  502 -0.65543921782E+03  0.11313648023E+04 -0.35789648415E+03  0.13556175226E+04  0.46999998093E+01 0. -1.
</event>
<event>
 5   0  0.9878336E-07  0.3605343E+04  0.7818609E-02  0.8089269E-01
       -2   -1    0    0    0  501  0.00000000000E+00  0.00000000000E+00  0.29649307058E+04  0.29649307058E+04  0.25500000920E-02 0.  1.
        2   -1    0    0  501    0  0.00000000000E+00  0.00000000000E+00 -0.10960201867E+04  0.10960201867E+04  0.25500000920E-02 0. -1.
    10030    2    1    2    0    0  0.00000000000E+00  0.00000000000E+00  0.18689105191E+04  0.40609508925E+04  0.36053426498E+04 0.  0.
        3    1    3    3  502    0 -0.13230436532E+01  0.42456822794E+03  0.29078110150E+04  0.29386433672E+04  0.10100000352E+00 0.  1.
       -3    1    3    3    0  502  0.13230436532E+01 -0.42456822794E+03 -0.10389004959E+04  0.11223075252E+04  0.10100000352E+00 0. -1.
</event>
<event>
 5   0  0.9878336E-07  0.3631497E+04  0.7818609E-02  0.8083315E-01
        2   -1    0    0  501    0  0.00000000000E+00  0.00000000000E+00  0.19300448154E+04  0.19300448154E+04  0.25500000920E-02 0.  1.
       -2   -1    0    0    0  501  0.00000000000E+00  0.00000000000E+00 -0.17082203902E+04  0.17082203902E+04  0.25500000920E-02 0. -1.
    10030    2    1    2    0    0  0.00000000000E+00  0.00000000000E+00  0.22182442511E+03  0.36382652056E+04  0.36314966103E+04 0.  0.
        3    1    3    3  502    0 -0.56215542359E+03 -0.52477442080E+03  0.17588290343E+04  0.19196058176E+04  0.10100000352E+00 0.  1.
       -3    1    3    3    0  502  0.56215542359E+03  0.52477442080E+03 -0.15370046092E+04  0.17186593880E+04  0.10100000352E+00 0. -1.
</event>
<event>
 5   0  0.9538919E-07  0.3514480E+04  0.7818609E-02  0.8110367E-01
       -2   -1    0    0    0  501  0.00000000000E+00  0.00000000000E+00  0.25858329821E+04  0.25858329821E+04  0.25500000920E-02 0. -1.
        2   -1    0    0  501    0  0.00000000000E+00  0.00000000000E+00 -0.11941574447E+04  0.11941574447E+04  0.25500000920E-02 0.  1.
    10030    2    1    2    0    0  0.00000000000E+00  0.00000000000E+00  0.13916755374E+04  0.37799904268E+04  0.35144795952E+04 0.  0.
        4    1    3    3  502    0  0.52875248627E+03 -0.13837975433E+04  0.17124524028E+04  0.22642812717E+04  0.12699999809E+01 0. -1.
       -4    1    3    3    0  502 -0.52875248627E+03  0.13837975433E+04 -0.32077686538E+03  0.15157091551E+04  0.12699999809E+01 0.  1.
</event>
<event>
 5   0  0.9878336E-07  0.3562780E+04  0.7818609E-02  0.8099071E-01
        2   -1    0    0  501    0  0.00000000000E+00  0.00000000000E+00  0.21293790500E+04  0.21293790500E+04  0.25500000920E-02 0.  1.
       -2   -1    0    0    0  501  0.00000000000E+00  0.00000000000E+00 -0.14902705141E+04  0.14902705141E+04  0.25500000920E-02 0. -1.
    10030    2    1    2    0    0  0.00000000000E+00  0.00000000000E+00  0.63910853587E+03  0.36196495641E+04  0.35627802691E+04 0.  0.
        3    1    3    3  502    0 -0.12858470158E+04  0.20477989100E+03  0.15546956739E+04  0.20279092683E+04  0.10100000352E+00 0.  1.
       -3    1    3    3    0  502  0.12858470158E+04 -0.20477989100E+03 -0.91558713801E+03  0.15917402958E+04  0.10100000352E+00 0. -1.
</event>
<event>
 5   0  0.1006019E-06  0.3538889E+04  0.7818609E-02  0.8104635E-01
       -2   -1    0    0    0  501  0.00000000000E+00  0.00000000000E+00  0.19322881759E+04  0.19322881759E+04  0.25500000920E-02 0. -1.
        2   -1    0    0  501    0  0.00000000000E+00  0.00000000000E+00 -0.16203241176E+04  0.16203241176E+04  0.25500000920E-02 0.  1.
    10030    2    1    2    0    0  0.00000000000E+00  0.00000000000E+00  0.31196405825E+03  0.35526122935E+04  0.35388886015E+04 0.  0.
        1    1    3    3  502    0  0.10560121607E+04  0.12831682455E+04  0.76599853760E+03  0.18298732714E+04  0.50400001928E-02 0.  1.
       -1    1    3    3    0  502 -0.10560121607E+04 -0.12831682455E+04 -0.45403447936E+03  0.17227390221E+04  0.50400001928E-02 0. -1.
</event>
<event>
 5   0  0.9878336E-07  0.3276054E+04  0.7818609E-02  0.8169015E-01
        2   -1    0    0  501    0  0.00000000000E+00  0.00000000000E+00  0.14182569390E+04  0.14182569390E+04  0.25500000920E-02 0. -1.
       -2   -1    0    0    0  501  0.00000000000E+00  0.00000000000E+00 -0.18918516113E+04  0.18918516113E+04  0.25500000920E-02 0.  1.
    10030    2    1    2    0    0  0.00000000000E+00  0.00000000000E+00 -0.47359467232E+03  0.33101085503E+04  0.32760535254E+04 0.  0.
        3    1    3    3  502    0 -0.71434738966E+03 -0.12616478878E+04  0.53341547059E+03  0.15448558704E+04  0.10100000352E+00 0. -1.
       -3    1    3    3    0  502  0.71434738966E+03  0.12616478878E+04 -0.10070101429E+04  0.17652526799E+04  0.10100000352E+00 0.  1.
</event>
<event>
 5   0  0.9878977E-07  0.3613905E+04  0.7818609E-02  0.8087314E-01
        2   -1    0    0  501    0  0.00000000000E+00  0.00000000000E+00  0.27048773772E+04  0.27048773772E+04  0.25500000920E-02 0. -1.
       -2   -1    0    0    0  501  0.00000000000E+00  0.00000000000E+00 -0.12071071196E+04  0.12071071196E+04  0.25500000920E-02 0.  1.
    10030    2    1    2    0    0  0.00000000000E+00  0.00000000000E+00  0.14977702576E+04  0.39119844967E+04  0.36139046692E+04 0.  0.
        5    1    3    3  502    0  0.31210546987E+03 -0.11710391380E+04  0.21996977935E+04  0.25114607223E+04  0.46999998093E+01 0. -1.
       -5    1    3    3    0  502 -0.31210546987E+03  0.11710391380E+04 -0.70192753590E+03  0.14005237744E+04  0.46999998093E+01 0.  1.
</event>
<event>
 5   0  0.3159875E-07  0.3591054E+04  0.7818609E-02  0.8092544E-01
        1   -1    0    0  501    0  0.00000000000E+00  0.00000000000E+00  0.18744983409E+04  0.18744983409E+04  0.50400001928E-02 0. -1.
       -1   -1    0    0    0  501  0.00000000000E+00  0.00000000000E+00 -0.17198828329E+04  0.17198828329E+04  0.50400001928E-02 0.  1.
    10030    2    1    2    0    0  0.00000000000E+00  0.00000000000E+00  0.15461550794E+03  0.35943811738E+04  0.35910541721E+04 0.  0.
        5    1    3    3  502    0  0.14648761534E+04  0.75876327936E+02 -0.95915924846E+03  0.17526060355E+04  0.46999998093E+01 0.  1.
       -5    1    3    3    0  502 -0.14648761534E+04 -0.75876327936E+02  0.11137747564E+04  0.18417751383E+04  0.46999998093E+01 0. -1.
</event>
<event>
 5   0  0.3242047E-07  0.3490783E+04  0.7818609E-02  0.8115978E-01
       -1   -1    0    0    0  501  0.00000000000E+00  0.00000000000E+00  0.19768389886E+04  0.19768389886E+04  0.50400001928E-02 0.  1.
        1   -1    0    0  501    0  0.00000000000E+00  0.00000000000E+00 -0.15410416445E+04  0.15410416445E+04  0.50400001928E-02 0. -1.
    10030    2    1    2    0    0  0.00000000000E+00  0.00000000000E+00  0.43579734411E+03  0.35178806332E+04  0.34907828383E+04 0.  0.
        1    1    3    3  502    0 -0.62795604810E+03  0.64229585733E+03  0.17260175916E+04  0.19457670706E+04  0.50400001928E-02 0.  1.
       -1    1    3    3    0  502  0.62795604810E+03 -0.64229585733E+03 -0.12902202474E+04  0.15721135626E+04  0.50400001928E-02 0. -1.
</event>
<event>
 5   0  0.3365378E-07  0.3464382E+04  0.7818609E-02  0.8122283E-01
       -1   -1    0    0    0  501  0.00000000000E+00  0.00000000000E+00  0.16566316635E+04  0.16566316635E+04  0.50400001928E-02 0.  1.
        1   -1    0    0  501    0  0.00000000000E+00  0.00000000000E+00 -0.18111969246E+04  0.18111969247E+04  0.50400001928E-02 0. -1.
    10030    2    1    2    0    0  0.00000000000E+00  0.00000000000E+00 -0.15456526111E+03  0.34678285882E+04  0.34643822966E+04 0.  0.
        3    1    3    3  502    0  0.60759169031E+03  0.40968264278E+03  0.14938259911E+04  0.16638881068E+04  0.10100000352E+00 0.  1.
       -3    1    3    3    0  502 -0.60759169031E+03 -0.40968264278E+03 -0.16483912522E+04  0.18039404814E+04  0.10100000352E+00 0. -1.
</event>
<event>
 5   0  0.3242047E-07  0.3584685E+04  0.7818609E-02  0.8094009E-01
       -1   -1    0    0    0  501  0.00000000000E+00  0.00000000000E+00  0.23493712272E+04  0.23493712272E+04  0.50400001928E-02 0. -1.
        1   -1    0    0  501    0  0.00000000000E+00  0.00000000000E+00 -0.13673837649E+04  0.13673837649E+04  0.50400001928E-02 0.  1.
    10030    2    1    2    0    0  0.00000000000E+00  0.00000000000E+00  0.98198746231E+03  0.37167549921E+04  0.35846852435E+04 0.  0.
        1    1    3    3  502    0  0.13200788744E+04  0.60384351925E+03 -0.59905148092E+03  0.15703814528E+04  0.50400001928E-02 0.  1.
       -1    1    3    3    0  502 -0.13200788744E+04 -0.60384351925E+03  0.15810389432E+04  0.21463735393E+04  0.50400001928E-02 0. -1.
</event>
<event>
 5   0  0.3278988E-07  0.3610409E+04  0.7818609E-02  0.8088111E-01
        1   -1    0    0  501    0  0.00000000000E+00  0.00000000000E+00  0.22430825207E+04  0.22430825207E+04  0.50400001928E-02 0. -1.
       -1   -1    0    0    0  501  0.00000000000E+00  0.00000000000E+00 -0.14528060128E+04  0.14528060128E+04  0.50400001928E-02 0.  1.
    10030    2    1    2    0    0  0.00000000000E+00  0.00000000000E+00  0.79027650786E+03  0.36958885335E+04  0.36104092695E+04 0.  0.
        4    1    3    3  502    0 -0.20076736250E+03 -0.15913119430E+04  0.12431107185E+04  0.20292626999E+04  0.12699999809E+01 0.  1.
       -4    1    3    3    0  502  0.20076736250E+03  0.15913119430E+04 -0.45283421067E+03  0.16666258336E+04  0.12699999809E+01 0. -1.
</event>
<event>
 5   0  0.9538919E-07  0.3359637E+04  0.7818609E-02  0.8147884E-01
       -2   -1    0    0    0  501  0.00000000000E+00  0.00000000000E+00  0.11851164678E+04  0.11851164678E+04  0.25500000920E-02 0.  1.
        2   -1    0    0  501    0  0.00000000000E+00  0.00000000000E+00 -0.23810231248E+04  0.23810231248E+04  0.25500000920E-02 0. -1.
    10030    2    1    2    0    0  0.00000000000E+00  0.00000000000E+00 -0.11959066570E+04  0.35661395926E+04  0.33596367158E+04 0.  0.
        4    1    3    3  502    0 -0.90066703032E+03  0.10538457299E+03 -0.20988979588E+04  0.22864123124E+04  0.12699999809E+01 0. -1.
       -4    1    3    3    0  502  0.90066703032E+03 -0.10538457299E+03  0.90299130183E+03  0.12797272803E+04  0.12699999809E+01 0.  1.
</event>
<event>
 5   0  0.9878977E-07  0.3516228E+04  0.7818609E-02  0.8109955E-01
       -2   -1    0    0    0  501  0.00000000000E+00  0.00000000000E+00  0.18866109117E+04  0.18866109117E+04  0.25500000920E-02 0.  1.
        2   -1    0    0  501    0  0.00000000000E+00  0.00000000000E+00 -0.16383689960E+04  0.16383689960E+04  0.25500000920E-02 0. -1.
    10030    2    1    2    0    0  0.00000000000E+00  0.00000000000E+00  0.24824191577E+03  0.35249799077E+04  0.35162279933E+04 0.  0.
        5    1    3    3  502    0  0.24468910876E+03 -0.10376623557E+04  0.15255729131E+04  0.18611853017E+04  0.46999998093E+01 0.  1.
       -5    1    3    3    0  502 -0.24468910876E+03  0.10376623557E+04 -0.12773309973E+04  0.16637946060E+04  0.46999998093E+01 0. -1.
</event>
<event>
 5   0  0.3242047E-07  0.3615084E+04  0.7818609E-02  0.8087045E-01
       -1   -1    0    0    0  501  0.00000000000E+00  0.00000000000E+00  0.10178654692E+04  0.10178654693E+04  0.50400001928E-02 0. -1.
        1   -1    0    0  501    0  0.00000000000E+00  0.00000000000E+00 -0.32098631474E+04  0.32098631474E+04  0.50400001928E-02 0.  1.
    10030    2    1    2    0    0  0.00000000000E+00  0.00000000000E+00 -0.21919976782E+04  0.42277286167E+04  0.36150844299E+04 0.  0.
        1    1    3    3  502    0  0.75499364877E+03 -0.34553548034E+03  0.78164473600E+03  0.11403414713E+04  0.50400001928E-02 0. -1.
       -1    1    3    3    0  502 -0.75499364877E+03  0.34553548034E+03 -0.29736424142E+04  0.30873871454E+04  0.50400001928E-02 0.  1.
</event>
<event>
 5   0  0.9878336E-07  0.3569164E+04  0.7818609E-02  0.8097592E-01
        2   -1    0    0  501    0  0.00000000000E+00  0.00000000000E+00  0.20522635087E+04  0.20522635087E+04  0.25500000920E-02 0. -1.
       -2   -1    0    0    0  501  0.00000000000E+00  0.00000000000E+00 -0.15518148207E+04  0.15518148207E+04  0.25500000920E-02 0.  1.
    10030    2    1    2    0    0  0.00000000000E+00  0.00000000000E+00  0.50044868800E+03  0.36040783293E+04  0.35691640078E+04 0.  0.
        3    1    3    3  502    0  0.38423584996E+03  0.14684231145E+04 -0.69748156703E+03  0.16704443056E+04  0.10100000352E+00 0.  1.
       -3    1    3    3    0  502 -0.38423584996E+03 -0.14684231145E+04  0.11979302550E+04  0.19336340237E+04  0.10100000352E+00 0. -1.
</event>
<event>
 5   0  0.1006019E-06  0.3042692E+04  0.7818609E-02  0.8231644E-01
        2   -1    0    0  501    0  0.00000000000E+00  0.00000000000E+00  0.27061299388E+04  0.27061299388E+04  0.25500000920E-02 0. -1.
       -2   -1    0    0    0  501  0.00000000000E+00  0.00000000000E+00 -0.85527830764E+03  0.85527830764E+03  0.25500000920E-02 0.  1.
    10030    2    1    2    0    0  0.00000000000E+00  0.00000000000E+00  0.18508516312E+04  0.35614082464E+04  0.30426923829E+04 0.  0.
        1    1    3    3  502    0  0.86211898143E+02 -0.13249625963E+04  0.17946876071E+04  0.22324564901E+04  0.50400001928E-02 0. -1.
       -1    1    3    3    0  502 -0.86211898143E+02  0.13249625963E+04  0.56164024049E+02  0.13289517563E+04  0.50400001928E-02 0.  1.
</event>
<event>
 5   0  0.1031659E-06  0.3524780E+04  0.7818609E-02  0.8107942E-01
        2   -1    0    0  501    0  0.00000000000E+00  0.00000000000E+00  0.16792880863E+04  0.16792880863E+04  0.25500000920E-02 0. -1.
       -2   -1    0    0    0  501  0.00000000000E+00  0.00000000000E+00 -0.18496043779E+04  0.18496043779E+04  0.25500000920E-02 0.  1.
    10030    2    1    2    0    0  0.00000000000E+00  0.00000000000E+00 -0.17031629153E+03  0.35288924642E+04  0.35247800477E+04 0.  0.
        2    1    3    3  502    0 -0.11569253608E+04 -0.12289605594E+04 -0.59289700964E+03  0.17889514278E+04  0.25500000920E-02 0.  1.
       -2    1    3    3    0  502  0.11569253608E+04  0.12289605594E+04  0.42258071811E+03  0.17399410364E+04  0.25500000920E-02 0. -1.
</event>
<event>
 5   0  0.3159875E-07  0.3594614E+04  0.7818609E-02  0.8091727E-01
        1   -1    0    0  501    0  0.00000000000E+00  0.00000000000E+00  0.22017320053E+04  0.22017320053E+04  0.50400001928E-02 0. -1.
       -1   -1    0    0    0  501  0.00000000000E+00  0.00000000000E+00 -0.14671686439E+04  0.14671686439E+04  0.50400001928E-02 0.  1.
    10030    2    1    2    0    0  0.00000000000E+00  0.00000000000E+00  0.73456336143E+03  0.36689006493E+04  0.35946138377E+04 0.  0.
        2    1    3    3  502    0  0.98907391890E+03 -0.14103843607E+04 -0.15601346242E+03  0.17296795837E+04  0.25500000920E-02 0.  1.
       -2    1    3    3    0  502 -0.98907391890E+03  0.14103843607E+04  0.89057682385E+03  0.19392210656E+04  0.25500000920E-02 0. -1.
</event>
<event>
 5   0  0.3278988E-07  0.3662971E+04  0.7818609E-02  0.8076218E-01
       -1   -1    0    0    0  501  0.00000000000E+00  0.00000000000E+00  0.23359315298E+04  0.23359315298E+04  0.50400001928E-02 0. -1.
        1   -1    0    0  501    0  0.00000000000E+00  0.00000000000E+00 -0.14359748722E+04  0.14359748722E+04  0.50400001928E-02 0.  1.
    10030    2    1    2    0    0  0.00000000000E+00  0.00000000000E+00  0.89995665754E+03  0.37719064020E+04  0.36629709144E+04 0.  0.
        4    1    3    3  502    0 -0.17806888901E+04 -0.42831058149E+03  0.44393089761E+03  0.18845103163E+04  0.12699999809E+01 0.  1.
       -4    1    3    3    0  502  0.17806888901E+04  0.42831058149E+03  0.45602575993E+03  0.18873960857E+04  0.12699999809E+01 0. -1.
</event>
<event>
 5   0  0.9878977E-07  0.3367463E+04  0.7818609E-02  0.8145938E-01
       -2   -1    0    0    0  501  0.00000000000E+00  0.00000000000E+00  0.10908536428E+04  0.10908536428E+04  0.25500000920E-02 0.  1.
        2   -1    0    0  501    0  0.00000000000E+00  0.00000000000E+00 -0.25988377019E+04  0.25988377019E+04  0.25500000920E-02 0. -1.
    10030    2    1    2    0    0  0.00000000000E+00  0.00000000000E+00 -0.15079840591E+04  0.36896913447E+04  0.33674628872E+04 0.  0.
        5    1    3    3  502    0 -0.97516073053E+02 -0.84183016444E+03  0.84012863114E+03  0.11933254448E+04  0.46999998093E+01 0.  1.
       -5    1    3    3    0  502  0.97516073053E+02  0.84183016444E+03 -0.23481126902E+04  0.24963658999E+04  0.46999998093E+01 0. -1.
</event>
<event>
 5   0  0.3159875E-07  0.3611240E+04  0.7818609E-02  0.8087922E-01
        1   -1    0    0  501    0  0.00000000000E+00  0.00000000000E+00  0.17163677114E+04  0.17163677114E+04  0.50400001928E-02 0. -1.
       -1   -1    0    0    0  501  0.00000000000E+00  0.00000000000E+00 -0.18995138442E+04  0.18995138442E+04  0.50400001928E-02 0.  1.
    10030    2    1    2    0    0  0.00000000000E+00  0.00000000000E+00 -0.18314613278E+03  0.36158815556E+04  0.36112403573E+04 0.  0.
        2    1    3    3  502    0 -0.19835770298E+03  0.48777845315E+03  0.16377803074E+04  0.17203482011E+04  0.25500000920E-02 0. -1.
       -2    1    3    3    0  502  0.19835770298E+03 -0.48777845315E+03 -0.18209264401E+04  0.18955333545E+04  0.25500000920E-02 0.  1.
</event>
<event>
 5   0  0.3159875E-07  0.3559045E+04  0.7818609E-02  0.8099938E-01
        1   -1    0    0  501    0  0.00000000000E+00  0.00000000000E+00  0.12115389421E+04  0.12115389421E+04  0.50400001928E-02 0.  1.
       -1   -1    0    0    0  501  0.00000000000E+00  0.00000000000E+00 -0.26137835347E+04  0.26137835347E+04  0.50400001928E-02 0. -1.
    10030    2    1    2    0    0  0.00000000000E+00  0.00000000000E+00 -0.14022445927E+04  0.38253224768E+04  0.35590451183E+04 0.  0.
        5    1    3    3  502    0 -0.18839725107E+03  0.10692242632E+04  0.81431047759E+03  0.13571505787E+04  0.46999998093E+01 0. -1.
       -5    1    3    3    0  502  0.18839725107E+03 -0.10692242632E+04 -0.22165550703E+04  0.24681718981E+04  0.46999998093E+01 0.  1.
</event>
<event>
 5   0  0.3278988E-07  0.3466317E+04  0.7818609E-02  0.8121819E-01
       -1   -1    0    0    0  501  0.00000000000E+00  0.00000000000E+00  0.17181577285E+04  0.17181577285E+04  0.50400001928E-02 0. -1.
        1   -1    0    0  501    0  0.00000000000E+00  0.00000000000E+00 -0.17482903553E+04  0.17482903553E+04  0.50400001928E-02 0.  1.
    10030    2    1    2    0    0  0.00000000000E+00  0.00000000000E+00 -0.30132626823E+02  0.34664480838E+04  0.34663171151E+04 0.  0.
        4    1    3    3  502    0 -0.15341069927E+04 -0.56829273016E+03  0.55714066063E+03  0.17282500458E+04  0.12699999809E+01 0. -1.
       -4    1    3    3    0  502  0.15341069927E+04  0.56829273016E+03 -0.58727328746E+03  0.17381980380E+04  0.12699999809E+01 0.  1.
</event>
<event>
 5   0  0.3365378E-07  0.3592698E+04  0.7818609E-02  0.8092166E-01
        1   -1    0    0  501    0  0.00000000000E+00  0.00000000000E+00  0.16196214394E+04  0.16196214394E+04  0.50400001928E-02 0. -1.
       -1   -1    0    0    0  501  0.00000000000E+00  0.00000000000E+00 -0.19923603899E+04  0.19923603899E+04  0.50400001928E-02 0.  1.
    10030    2    1    2    0    0  0.00000000000E+00  0.00000000000E+00 -0.37273895047E+03  0.36119818293E+04  0.35926979291E+04 0.  0.
        3    1    3    3  502    0  0.61401911519E+03 -0.46111650201E+03 -0.18190385728E+04  0.19744744216E+04  0.10100000352E+00 0.  1.
       -3    1    3    3    0  502 -0.61401911519E+03  0.46111650201E+03  0.14462996223E+04  0.16375074076E+04  0.10100000352E+00 0. -1.
</event>
<event>
 5   0  0.3159875E-07  0.3604781E+04  0.7818609E-02  0.8089397E-01
        1   -1    0    0  501    0  0.00000000000E+00  0.00000000000E+00  0.16741445228E+04  0.16741445228E+04  0.50400001928E-02 0. -1.
       -1   -1    0    0    0  501  0.00000000000E+00  0.00000000000E+00 -0.19404605414E+04  0.19404605414E+04  0.50400001928E-02 0.  1.
    10030    2    1    2    0    0  0.00000000000E+00  0.00000000000E+00 -0.26631601861E+03  0.36146050641E+04  0.36047809292E+04 0.  0.
        5    1    3    3  502    0 -0.58351587441E+03  0.31498351730E+03 -0.18136980742E+04  0.19311209662E+04  0.46999998093E+01 0.  1.
       -5    1    3    3    0  502  0.58351587441E+03 -0.31498351730E+03  0.15473820556E+04  0.16834840979E+04  0.46999998093E+01 0. -1.
</event>
<event>
 5   0  0.3242047E-07  0.2653502E+04  0.7818609E-02  0.8350251E-01
        1   -1    0    0  501    0  0.00000000000E+00  0.00000000000E+00  0.23743993440E+04  0.23743993440E+04  0.50400001928E-02 0. -1.
       -1   -1    0    0    0  501  0.00000000000E+00  0.00000000000E+00 -0.74135320138E+03  0.74135320139E+03  0.50400001928E-02 0.  1.
    10030    2    1    2    0    0  0.00000000000E+00  0.00000000000E+00  0.16330461426E+04  0.31157525454E+04  0.26535022555E+04 0.  0.
        1    1    3    3  502    0  0.38698485839E+03 -0.57395058121E+03  0.21455496237E+04  0.22544533125E+04  0.50400001928E-02 0. -1.
       -1    1    3    3    0  502 -0.38698485839E+03  0.57395058121E+03 -0.51250348116E+03  0.86129923286E+03  0.50400001928E-02 0.  1.
</event>
<event>
 5   0  0.1006019E-06  0.3609095E+04  0.7818609E-02  0.8088412E-01
       -2   -1    0    0    0  501  0.00000000000E+00  0.00000000000E+00  0.13937466548E+04  0.13937466548E+04  0.25500000920E-02 0.  1.
        2   -1    0    0  501    0  0.00000000000E+00  0.00000000000E+00 -0.23364303813E+04  0.23364303813E+04  0.25500000920E-02 0. -1.
    10030    2    1    2    0    0  0.00000000000E+00  0.00000000000E+00 -0.94268372656E+03  0.37301770361E+04  0.36090951930E+04 0.  0.
        1    1    3    3  502    0  0.14872600380E+04 -0.84901610777E+03 -0.10593043617E+04  0.20136773581E+04  0.50400001928E-02 0. -1.
       -1    1    3    3    0  502 -0.14872600380E+04  0.84901610777E+03  0.11662063510E+03  0.17164996780E+04  0.50400001928E-02 0.  1.
</event>
<event>
 5   0  0.3242047E-07  0.3546554E+04  0.7818609E-02  0.8102845E-01
        1   -1    0    0  501    0  0.00000000000E+00  0.00000000000E+00  0.28027752253E+04  0.28027752253E+04  0.50400001928E-02 0.  1.
       -1   -1    0    0    0  501  0.00000000000E+00  0.00000000000E+00 -0.11219275113E+04  0.11219275113E+04  0.50400001928E-02 0. -1.
    10030    2    1    2    0    0  0.00000000000E+00  0.00000000000E+00  0.16808477140E+04  0.39247027366E+04  0.35465536134E+04 0.  0.
        1    1    3    3  502    0  0.12500149362E+04  0.92927356029E+03 -0.97549791330E+02  0.15606417438E+04  0.50400001928E-02 0. -1.
       -1    1    3    3    0  502 -0.12500149362E+04 -0.92927356029E+03  0.17783975054E+04  0.23640609928E+04  0.50400001928E-02 0.  1.
</event>
<event>
 5   0  0.9538919E-07  0.3597662E+04  0.7818609E-02  0.8091027E-01
       -2   -1    0    0    0  501  0.00000000000E+00  0.00000000000E+00  0.29664290584E+04  0.29664290584E+04  0.25500000920E-02 0.  1.
        2   -1    0    0  501    0  0.00000000000E+00  0.00000000000E+00 -0.10908039942E+04  0.10908039942E+04  0.25500000920E-02 0. -1.
    10030    2    1    2    0    0  0.00000000000E+00  0.00000000000E+00  0.18756250643E+04  0.40572330526E+04  0.35976618326E+04 0.  0.
        4    1    3    3  502    0 -0.10298470346E+04 -0.13739450538E+04  0.33314829162E+03  0.17490852817E+04  0.12699999809E+01 0. -1.
       -4    1    3    3    0  502  0.10298470346E+04  0.13739450538E+04  0.15424767726E+04  0.23081477710E+04  0.12699999809E+01 0.  1.
</event>
<event>
 5   0  0.9878977E-07  0.3432714E+04  0.7818609E-02  0.8129924E-01
       -2   -1    0    0    0  501  0.00000000000E+00  0.00000000000E+00  0.14048926276E+04  0.14048926276E+04  0.25500000920E-02 0. -1.
        2   -1    0    0  501    0  0.00000000000E+00  0.00000000000E+00 -0.20968731238E+04  0.20968731238E+04  0.25500000920E-02 0.  1.
    10030    2    1    2    0    0  0.00000000000E+00  0.00000000000E+00 -0.69198049624E+03  0.35017657515E+04  0.34327141406E+04 0.  0.
        5    1    3    3  502    0 -0.10146317449E+04 -0.63306922819E+03  0.90987344786E+03  0.15027128823E+04  0.46999998093E+01 0. -1.
       -5    1    3    3    0  502  0.10146317449E+04  0.63306922819E+03 -0.16018539441E+04  0.19990528692E+04  0.46999998093E+01 0.  1.
</event>
<event>
 5   0  0.3159875E-07  0.3587695E+04  0.7818609E-02  0.8093316E-01
       -1   -1    0    0    0  501  0.00000000000E+00  0.00000000000E+00  0.28181762432E+04  0.28181762432E+04  0.50400001928E-02 0. -1.
        1   -1    0    0  501    0  0.00000000000E+00  0.00000000000E+00 -0.11418335531E+04  0.11418335531E+04  0.50400001928E-02 0.  1.
    10030    2    1    2    0    0  0.00000000000E+00  0.00000000000E+00  0.16763426901E+04  0.39600097963E+04  0.35876946319E+04 0.  0.
        2    1    3    3  502    0 -0.30039513258E+03 -0.62271769200E+03  0.26652029329E+04  0.27534199159E+04  0.25500000920E-02 0. -1.
       -2    1    3    3    0  502  0.30039513258E+03  0.62271769200E+03 -0.98886024283E+03  0.12065898804E+04  0.25500000920E-02 0.  1.
</event>
<event>
 5   0  0.3242047E-07  0.3580589E+04  0.7818609E-02  0.8094953E-01
       -1   -1    0    0    0  501  0.00000000000E+00  0.00000000000E+00  0.21851998730E+04  0.21851998730E+04  0.50400001928E-02 0.  1.
        1   -1    0    0  501    0  0.00000000000E+00  0.00000000000E+00 -0.14667554123E+04  0.14667554123E+04  0.50400001928E-02 0. -1.
    10030    2    1    2    0    0  0.00000000000E+00  0.00000000000E+00  0.71844446068E+03  0.36519552853E+04  0.35805886336E+04 0.  0.
        1    1    3    3  502    0 -0.11392638760E+04 -0.45816389327E+03 -0.96955615637E+03  0.15645687817E+04  0.50400001928E-02 0. -1.
       -1    1    3    3    0  502  0.11392638760E+04  0.45816389327E+03  0.16880006170E+04  0.20873865036E+04  0.50400001928E-02 0.  1.
</event>
<event>
 5   0  0.1031659E-06  0.3608989E+04  0.7818609E-02  0.8088436E-01
       -2   -1    0    0    0  501  0.00000000000E+00  0.00000000000E+00  0.17429383220E+04  0.17429383220E+04  0.25500000920E-02 0. -1.
        2   -1    0    0  501    0  0.00000000000E+00  0.00000000000E+00 -0.18682248632E+04  0.18682248632E+04  0.25500000920E-02 0.  1.
    10030    2    1    2    0    0  0.00000000000E+00  0.00000000000E+00 -0.12528654122E+03  0.36111631853E+04  0.36089891706E+04 0.  0.
        2    1    3    3  502    0  0.15076937447E+04 -0.98672124633E+03 -0.15986899247E+03  0.18089547646E+04  0.25500000920E-02 0. -1.
       -2    1    3    3    0  502 -0.15076937447E+04  0.98672124633E+03  0.34582451259E+02  0.18022084207E+04  0.25500000920E-02 0.  1.
</event>
<event>
 5   0  0.3365378E-07  0.3479162E+04  0.7818609E-02  0.8118746E-01
       -1   -1    0    0    0  501  0.00000000000E+00  0.00000000000E+00  0.15025255785E+04  0.15025255785E+04  0.50400001928E-02 0.  1.
        1   -1    0    0  501    0  0.00000000000E+00  0.00000000000E+00 -0.20140374330E+04  0.20140374330E+04  0.50400001928E-02 0. -1.
    10030    2    1    2    0    0  0.00000000000E+00  0.00000000000E+00 -0.51151185451E+03  0.35165630116E+04  0.34791624045E+04 0.  0.
        3    1    3    3  502    0 -0.18794212571E+02 -0.72392049864E+03  0.13429323929E+04  0.15257396674E+04  0.10100000352E+00 0.  1.
       -3    1    3    3    0  502  0.18794212571E+02  0.72392049864E+03 -0.18544442474E+04  0.19908233441E+04  0.10100000352E+00 0. -1.
</event>
<event>
 5   0  0.3365378E-07  0.2775731E+04  0.7818609E-02  0.8310843E-01
        1   -1    0    0  501    0  0.00000000000E+00  0.00000000000E+00  0.20185992364E+04  0.20185992365E+04  0.50400001928E-02 0.  1.
       -1   -1    0    0    0  501  0.00000000000E+00  0.00000000000E+00 -0.95421155851E+03  0.95421155853E+03  0.50400001928E-02 0. -1.
    10030    2    1    2    0    0  0.00000000000E+00  0.00000000000E+00  0.10643876779E+04  0.29728107950E+04  0.27757310557E+04 0.  0.
        3    1    3    3  502    0 -0.10297002221E+04  0.59804500915E+02 -0.46234556782E+03  0.11303196716E+04  0.10100000352E+00 0. -1.
       -3    1    3    3    0  502  0.10297002221E+04 -0.59804500915E+02  0.15267332458E+04  0.18424911234E+04  0.10100000352E+00 0.  1.
</event>
<event>
 5   0  0.1031659E-06  0.3611712E+04  0.7818609E-02  0.8087814E-01
       -2   -1    0    0    0  501  0.00000000000E+00  0.00000000000E+00  0.16528988850E+04  0.16528988850E+04  0.25500000920E-02 0. -1.
        2   -1    0    0  501    0  0.00000000000E+00  0.00000000000E+00 -0.19729672551E+04  0.19729672551E+04  0.25500000920E-02 0.  1.
    10030    2    1    2    0    0  0.00000000000E+00  0.00000000000E+00 -0.32006837010E+03  0.36258661401E+04  0.36117117139E+04 0.  0.
        2    1    3    3  502    0  0.87912097389E+03  0.14958825066E+04  0.34252453137E+03  0.17685703873E+04  0.25500000920E-02 0. -1.
       -2    1    3    3    0  502 -0.87912097389E+03 -0.14958825066E+04 -0.66259290147E+03  0.18572957528E+04  0.25500000920E-02 0.  1.
</event>
<event>
 5   0  0.3159875E-07  0.3686440E+04  0.7818609E-02  0.8070973E-01
       -1   -1    0    0    0  501  0.00000000000E+00  0.00000000000E+00  0.12912842123E+04  0.12912842123E+04  0.50400001928E-02 0. -1.
        1   -1    0    0  501    0  0.00000000000E+00  0.00000000000E+00 -0.26310711667E+04  0.26310711667E+04  0.50400001928E-02 0.  1.
    10030    2    1    2    0    0  0.00000000000E+00  0.00000000000E+00 -0.13397869545E+04  0.39223553790E+04  0.36864403747E+04 0.  0.
        5    1    3    3  502    0  0.68811092688E+03 -0.16434173561E+04 -0.11724793261E+04  0.21328495292E+04  0.46999998093E+01 0.  1.
       -5    1    3    3    0  502 -0.68811092688E+03  0.16434173561E+04 -0.16730762837E+03  0.17895058498E+04  0.46999998093E+01 0. -1.
</event>
<event>
 5   0  0.9878336E-07  0.3579615E+04  0.7818609E-02  0.8095177E-01
        2   -1    0    0  501    0  0.00000000000E+00  0.00000000000E+00  0.21884049606E+04  0.21884049606E+04  0.25500000920E-02 0. -1.
       -2   -1    0    0    0  501  0.00000000000E+00  0.00000000000E+00 -0.14638105229E+04  0.14638105229E+04  0.25500000920E-02 0.  1.
    10030    2    1    2    0    0  0.00000000000E+00  0.00000000000E+00  0.72459443777E+03  0.36522154835E+04  0.35796146215E+04 0.  0.
        3    1    3    3  502    0  0.32927608965E+03 -0.12644109506E+04 -0.88572567048E+03  0.15785017481E+04  0.10100000352E+00 0.  1.
       -3    1    3    3    0  502 -0.32927608965E+03  0.12644109506E+04  0.16103201083E+04  0.20737137354E+04  0.10100000352E+00 0. -1.
</event>
<event>
 5   0  0.9878336E-07  0.3587791E+04  0.7818609E-02  0.8093294E-01
       -2   -1    0    0    0  501  0.00000000000E+00  0.00000000000E+00  0.20465531687E+04  0.20465531687E+04  0.25500000920E-02 0. -1.
        2   -1    0    0  501    0  0.00000000000E+00  0.00000000000E+00 -0.15724298064E+04  0.15724298064E+04  0.25500000920E-02 0.  1.
    10030    2    1    2    0    0  0.00000000000E+00  0.00000000000E+00  0.47412336224E+03  0.36189829751E+04  0.35877910769E+04 0.  0.
        3    1    3    3  502    0  0.78170986086E+03  0.13623758221E+04  0.11111535887E+04  0.19240063656E+04  0.10100000352E+00 0. -1.
       -3    1    3    3    0  502 -0.78170986086E+03 -0.13623758221E+04 -0.63703022644E+03  0.16949766095E+04  0.10100000352E+00 0.  1.
</event>
<event>
 5   0  0.1031659E-06  0.3610456E+04  0.7818609E-02  0.8088101E-01
       -2   -1    0    0    0  501  0.00000000000E+00  0.00000000000E+00  0.21692118431E+04  0.21692118431E+04  0.25500000920E-02 0. -1.
        2   -1    0    0  501    0  0.00000000000E+00  0.00000000000E+00 -0.15023192091E+04  0.15023192091E+04  0.25500000920E-02 0.  1.
    10030    2    1    2    0    0  0.00000000000E+00  0.00000000000E+00  0.66689263399E+03  0.36715310522E+04  0.36104562706E+04 0.  0.
        2    1    3    3  502    0 -0.38076264754E+03  0.15545703737E+04  0.11825434671E+04  0.19899945458E+04  0.25500000920E-02 0. -1.
       -2    1    3    3    0  502  0.38076264754E+03 -0.15545703737E+04 -0.51565083315E+03  0.16815365064E+04  0.25500000920E-02 0.  1.
</event>
<event>
 5   0  0.3278988E-07  0.3626961E+04  0.7818609E-02  0.8084344E-01
        1   -1    0    0  501    0  0.00000000000E+00  0.00000000000E+00  0.27320659086E+04  0.27320659086E+04  0.50400001928E-02 0. -1.
       -1   -1    0    0    0  501  0.00000000000E+00  0.00000000000E+00 -0.12037454110E+04  0.12037454110E+04  0.50400001928E-02 0.  1.
    10030    2    1    2    0    0  0.00000000000E+00  0.00000000000E+00  0.15283204977E+04  0.39358113196E+04  0.36269611522E+04 0.  0.
        4    1    3    3  502    0 -0.14062777250E+03 -0.16796585963E+04  0.14902255898E+04  0.22498451262E+04  0.12699999809E+01 0. -1.
       -4    1    3    3    0  502  0.14062777250E+03  0.16796585963E+04  0.38094907844E+02  0.16859661934E+04  0.12699999809E+01 0.  1.
</event>
<event>
 5   0  0.1006019E-06  0.3405122E+04  0.7818609E-02  0.8136650E-01
        2   -1    0    0  501    0  0.00000000000E+00  0.00000000000E+00  0.18437500940E+04  0.18437500940E+04  0.25500000920E-02 0.  1.
       -2   -1    0    0    0  501  0.00000000000E+00  0.00000000000E+00 -0.15721840239E+04  0.15721840239E+04  0.25500000920E-02 0. -1.
    10030    2    1    2    0    0  0.00000000000E+00  0.00000000000E+00  0.27156607017E+03  0.34159341179E+04  0.34051222837E+04 0.  0.
        1    1    3    3  502    0 -0.93904918749E+03  0.10399193851E+04 -0.83448430388E+03  0.16308310021E+04  0.50400001928E-02 0. -1.
       -1    1    3    3    0  502  0.93904918749E+03 -0.10399193851E+04  0.11060503740E+04  0.17851031158E+04  0.50400001928E-02 0.  1.
</event>
<event>
 5   0  0.1031659E-06  0.3385078E+04  0.7818609E-02  0.8141578E-01
       -2   -1    0    0    0  501  0.00000000000E+00  0.00000000000E+00  0.12197447035E+04  0.12197447035E+04  0.25500000920E-02 0.  1.
        2   -1    0    0  501    0  0.00000000000E+00  0.00000000000E+00 -0.23485971256E+04  0.23485971256E+04  0.25500000920E-02 0. -1.
    10030    2    1    2    0    0  0.00000000000E+00  0.00000000000E+00 -0.11288524221E+04  0.35683418291E+04  0.33850783770E+04 0.  0.
        2    1    3    3  502    0  0.98482976667E+02  0.80274666840E+03 -0.21317243075E+04  0.22799889547E+04  0.25500000920E-02 0. -1.
       -2    1    3    3    0  502 -0.98482976667E+02 -0.80274666840E+03  0.10028718854E+04  0.12883528744E+04  0.25500000920E-02 0.  1.
</event>
<event>
 5   0  0.1006019E-06  0.3589246E+04  0.7818609E-02  0.8092959E-01
        2   -1    0    0  501    0  0.00000000000E+00  0.00000000000E+00  0.17095767995E+04  0.17095767995E+04  0.25500000920E-02 0.  1.
       -2   -1    0    0    0  501  0.00000000000E+00  0.00000000000E+00 -0.18839004296E+04  0.18839004296E+04  0.25500000920E-02 0. -1.
    10030    2    1    2    0    0  0.00000000000E+00  0.00000000000E+00 -0.17432363009E+03  0.35934772291E+04  0.35892464207E+04 0.  0.
        1    1    3    3  502    0  0.85918968401E+03 -0.15662608531E+04 -0.25851405914E+03  0.18050511050E+04  0.50400001928E-02 0. -1.
       -1    1    3    3    0  502 -0.85918968401E+03  0.15662608531E+04  0.84190429042E+02  0.17884261241E+04  0.50400001928E-02 0.  1.
</event>
<event>
 5   0  0.9878336E-07  0.2773812E+04  0.7818609E-02  0.8311445E-01
        2   -1    0    0  501    0  0.00000000000E+00  0.00000000000E+00  0.25143699095E+04  0.25143699095E+04  0.25500000920E-02 0. -1.
       -2   -1    0    0    0  501  0.00000000000E+00  0.00000000000E+00 -0.76500595012E+03  0.76500595012E+03  0.25500000920E-02 0.  1.
    10030    2    1    2    0    0  0.00000000000E+00  0.00000000000E+00  0.17493639594E+04  0.32793758596E+04  0.27738117756E+04 0.  0.
        3    1    3    3  502    0  0.75455507228E+03 -0.11562665450E+04  0.10297445045E+04  0.17224051309E+04  0.10100000352E+00 0. -1.
       -3    1    3    3    0  502 -0.75455507228E+03  0.11562665450E+04  0.71961945490E+03  0.15569707288E+04  0.10100000352E+00 0.  1.
</event>
<event>
 5   0  0.3159875E-07  0.3435629E+04  0.7818609E-02  0.8129217E-01
        1   -1    0    0  501    0  0.00000000000E+00  0.00000000000E+00  0.21619434277E+04  0.21619434277E+04  0.50400001928E-02 0. -1.
       -1   -1    0    0    0  501  0.00000000000E+00  0.00000000000E+00 -0.13649234911E+04  0.13649234911E+04  0.50400001928E-02 0.  1.
    10030    2    1    2    0    0  0.00000000000E+00  0.00000000000E+00  0.79701993663E+03  0.35268669188E+04  0.34356294159E+04 0.  0.
        2    1    3    3  502    0 -0.99950897554E+02 -0.26468106070E+03 -0.13408414651E+04  0.13703656740E+04  0.25500000920E-02 0.  1.
       -2    1    3    3    0  502  0.99950897554E+02  0.26468106070E+03  0.21378614018E+04  0.21565012448E+04  0.25500000920E-02 0. -1.
</event>
<event>
 5   0  0.1006019E-06  0.3575757E+04  0.7818609E-02  0.8096068E-01
       -2   -1    0    0    0  501  0.00000000000E+00  0.00000000000E+00  0.32637321672E+04  0.32637321672E+04  0.25500000920E-02 0.  1.
        2   -1    0    0  501    0  0.00000000000E+00  0.00000000000E+00 -0.97940306015E+03  0.97940306016E+03  0.25500000920E-02 0. -1.
    10030    2    1    2    0    0  0.00000000000E+00  0.00000000000E+00  0.22843291071E+04  0.42431352274E+04  0.35757568553E+04 0.  0.
        1    1    3    3  502    0 -0.19290353023E+03  0.80930415657E+03 -0.73569961447E+03  0.11106029500E+04  0.50400001928E-02 0. -1.
       -1    1    3    3    0  502  0.19290353023E+03 -0.80930415657E+03  0.30200287216E+04  0.31325322774E+04  0.50400001928E-02 0.  1.
</event>
<event>
 5   0  0.9538919E-07  0.3691368E+04  0.7818609E-02  0.8069877E-01
        2   -1    0    0  501    0  0.00000000000E+00  0.00000000000E+00  0.14372220854E+04  0.14372220854E+04  0.25500000920E-02 0.  1.
       -2   -1    0    0    0  501  0.00000000000E+00  0.00000000000E+00 -0.23702319829E+04  0.23702319829E+04  0.25500000920E-02 0. -1.
    10030    2    1    2    0    0  0.00000000000E+00  0.00000000000E+00 -0.93300989752E+03  0.38074540683E+04  0.36913681763E+04 0.  0.
        4    1    3    3  502    0  0.10063940260E+04  0.31302637276E+03  0.10963118230E+04  0.15207615433E+04  0.12699999809E+01 0.  1.
       -4    1    3    3    0  502 -0.10063940260E+04 -0.31302637276E+03 -0.20293217205E+04  0.22866925250E+04  0.12699999809E+01 0. -1.
</event>
<event>
 5   0  0.3242047E-07  0.3368436E+04  0.7818609E-02  0.8145697E-01
       -1   -1    0    0    0  501  0.00000000000E+00  0.00000000000E+00  0.32291578447E+04  0.32291578447E+04  0.50400001928E-02 0. -1.
        1   -1    0    0  501    0  0.00000000000E+00  0.00000000000E+00 -0.87843017607E+03  0.87843017608E+03  0.50400001928E-02 0.  1.
    10030    2    1    2    0    0  0.00000000000E+00  0.00000000000E+00  0.23507276687E+04  0.41075880208E+04  0.33684356572E+04 0.  0.
        1    1    3    3  502    0  0.10596227322E+04 -0.11772535967E+04  0.18736043487E+04  0.24533894148E+04  0.50400001928E-02 0. -1.
       -1    1    3    3    0  502 -0.10596227322E+04  0.11772535967E+04  0.47712332000E+03  0.16541986060E+04  0.50400001928E-02 0.  1.
</event>
<event>
 5   0  0.3159875E-07  0.3454507E+04  0.7818609E-02  0.8124657E-01
       -1   -1    0    0    0  501  0.00000000000E+00  0.00000000000E+00  0.19348245542E+04  0.19348245542E+04  0.50400001928E-02 0. -1.
        1   -1    0    0  501    0  0.00000000000E+00  0.00000000000E+00 -0.15419508391E+04  0.15419508391E+04  0.50400001928E-02 0.  1.
    10030    2    1    2    0    0  0.00000000000E+00  0.00000000000E+00  0.39287371509E+03  0.34767753934E+04  0.34545068215E+04 0.  0.
        2    1    3    3  502    0 -0.15223385678E+04  0.55127566067E+03  0.80196695398E+03  0.18068122659E+04  0.25500000920E-02 0. -1.
       -2    1    3    3    0  502  0.15223385678E+04 -0.55127566067E+03 -0.40909323889E+03  0.16699631275E+04  0.25500000920E-02 0.  1.
</event>
<event>
 5   0  0.3159875E-07  0.3617272E+04  0.7818609E-02  0.8086547E-01
        1   -1    0    0  501    0  0.00000000000E+00  0.00000000000E+00  0.18575473994E+04  0.18575473994E+04  0.50400001928E-02 0.  1.
       -1   -1    0    0    0  501  0.00000000000E+00  0.00000000000E+00 -0.17610121243E+04  0.17610121243E+04  0.50400001928E-02 0. -1.
    10030    2    1    2    0    0  0.00000000000E+00  0.00000000000E+00  0.96535275100E+02  0.36185595238E+04  0.36172716193E+04 0.  0.
        5    1    3    3  502    0 -0.93123242301E+02  0.31919901741E+03 -0.17301677585E+04  0.17618349848E+04  0.46999998093E+01 0. -1.
       -5    1    3    3    0  502  0.93123242301E+02 -0.31919901741E+03  0.18267030336E+04  0.18567245390E+04  0.46999998093E+01 0.  1.
</event>
<event>
 5   0  0.3365378E-07  0.3634584E+04  0.7818609E-02  0.8082615E-01
       -1   -1    0    0    0  501  0.00000000000E+00  0.00000000000E+00  0.18521736921E+04  0.18521736921E+04  0.50400001928E-02 0. -1.
        1   -1    0    0  501    0  0.00000000000E+00  0.00000000000E+00 -0.17830674925E+04  0.17830674925E+04  0.50400001928E-02 0.  1.
    10030    2    1    2    0    0  0.00000000000E+00  0.00000000000E+00  0.69106199616E+02  0.36352411846E+04  0.36345842683E+04 0.  0.
        3    1    3    3  502    0 -0.38073975927E+03  0.55710910679E+03  0.17222280321E+04  0.18497034156E+04  0.10100000352E+00 0. -1.
       -3    1    3    3    0  502  0.38073975927E+03 -0.55710910679E+03 -0.16531218325E+04  0.17855377689E+04  0.10100000352E+00 0.  1.
</event>
<event>
 5   0  0.9538919E-07  0.3552088E+04  0.7818609E-02  0.8101555E-01
        2   -1    0    0  501    0  0.00000000000E+00  0.00000000000E+00  0.21447132750E+04  0.21447132750E+04  0.25500000920E-02 0. -1.
       -2   -1    0    0    0  501  0.00000000000E+00  0.00000000000E+00 -0.14707480600E+04  0.14707480600E+04  0.25500000920E-02 0.  1.
    10030    2    1    2    0    0  0.00000000000E+00  0.00000000000E+00  0.67396521500E+03  0.36154613351E+04  0.35520883371E+04 0.  0.
        4    1    3    3  502    0  0.21617142339E+03 -0.12329216970E+04  0.16194240766E+04  0.20467930887E+04  0.12699999809E+01 0. -1.
       -4    1    3    3    0  502 -0.21617142339E+03  0.12329216970E+04 -0.94545886163E+03  0.15686682464E+04  0.12699999809E+01 0.  1.
</event>
<event>
 5   0  0.3242047E-07  0.3287443E+04  0.7818609E-02  0.8166098E-01
       -1   -1    0    0    0  501  0.00000000000E+00  0.00000000000E+00  0.18193166843E+04  0.18193166843E+04  0.50400001928E-02 0.  1.
        1   -1    0    0  501    0  0.00000000000E+00  0.00000000000E+00 -0.14850741602E+04  0.14850741602E+04  0.50400001928E-02 0. -1.
    10030    2    1    2    0    0  0.00000000000E+00  0.00000000000E+00  0.33424252409E+03  0.33043908445E+04  0.32874428951E+04 0.  0.
        1    1    3    3  502    0 -0.12567280078E+04  0.92945865401E+03  0.67823215906E+03  0.17038948139E+04  0.50400001928E-02 0.  1.
       -1    1    3    3    0  502  0.12567280078E+04 -0.92945865401E+03 -0.34398963497E+03  0.16004960307E+04  0.50400001928E-02 0. -1.
</event>
<event>
 5   0  0.9878977E-07  0.3662259E+04  0.7818609E-02  0.8076377E-01
        2   -1    0    0  501    0  0.00000000000E+00  0.00000000000E+00  0.26187773883E+04  0.26187773883E+04  0.25500000920E-02 0.  1.
       -2   -1    0    0    0  501  0.00000000000E+00  0.00000000000E+00 -0.12803822529E+04  0.12803822529E+04  0.25500000920E-02 0. -1.
    10030    2    1    2    0    0  0.00000000000E+00  0.00000000000E+00  0.13383951354E+04  0.38991596412E+04  0.36622594623E+04 0.  0.
        5    1    3    3  502    0  0.93892574923E+03  0.84815689860E+03 -0.74008046105E+03  0.14658420331E+04  0.46999998093E+01 0. -1.
       -5    1    3    3    0  502 -0.93892574923E+03 -0.84815689860E+03  0.20784755964E+04  0.24333176081E+04  0.46999998093E+01 0.  1.
</event>
<event>
 5   0  0.9878977E-07  0.3502989E+04  0.7818609E-02  0.8113082E-01
       -2   -1    0    0    0  501  0.00000000000E+00  0.00000000000E+00  0.10066940083E+04  0.10066940083E+04  0.25500000920E-02 0.  1.
        2   -1    0    0  501    0  0.00000000000E+00  0.00000000000E+00 -0.30473345263E+04  0.30473345263E+04  0.25500000920E-02 0. -1.
    10030    2    1    2    0    0  0.00000000000E+00  0.00000000000E+00 -0.20406405180E+04  0.40540285345E+04  0.35029892428E+04 0.  0.
        5    1    3    3  502    0  0.90285879834E+03  0.12920477153E+04 -0.19041031476E+04  0.24718762499E+04  0.46999998093E+01 0.  1.
       -5    1    3    3    0  502 -0.90285879834E+03 -0.12920477153E+04 -0.13653737039E+03  0.15821522846E+04  0.46999998093E+01 0. -1.
</event>
<event>
 5   0  0.9878977E-07  0.3608001E+04  0.7818609E-02  0.8088662E-01
        2   -1    0    0  501    0  0.00000000000E+00  0.00000000000E+00  0.14612483713E+04  0.14612483713E+04  0.25500000920E-02 0.  1.
       -2   -1    0    0    0  501  0.00000000000E+00  0.00000000000E+00 -0.22271483831E+04  0.22271483831E+04  0.25500000920E-02 0. -1.
    10030    2    1    2    0    0  0.00000000000E+00  0.00000000000E+00 -0.76590001183E+03  0.36883967545E+04  0.36080005253E+04 0.  0.
        5    1    3    3  502    0 -0.80667107827E+03 -0.31683965514E+03  0.12344839537E+04  0.15083362747E+04  0.46999998093E+01 0.  1.
       -5    1    3    3    0  502  0.80667107827E+03  0.31683965514E+03 -0.20003839656E+04  0.21800604797E+04  0.46999998093E+01 0. -1.
</event>
<event>
 5   0  0.1031659E-06  0.3673205E+04  0.7818609E-02  0.8073926E-01
        2   -1    0    0  501    0  0.00000000000E+00  0.00000000000E+00  0.12935766074E+04  0.12935766074E+04  0.25500000920E-02 0. -1.
       -2   -1    0    0    0  501  0.00000000000E+00  0.00000000000E+00 -0.26075835144E+04  0.26075835144E+04  0.25500000920E-02 0.  1.
    10030    2    1    2    0    0  0.00000000000E+00  0.00000000000E+00 -0.13140069070E+04  0.39011601219E+04  0.36732051596E+04 0.  0.
        2    1    3    3  502    0 -0.10542836463E+04  0.57862914765E+03  0.81722582315E+03  0.14540232954E+04  0.25500000920E-02 0. -1.
       -2    1    3    3    0  502  0.10542836463E+04 -0.57862914765E+03 -0.21312327302E+04  0.24471368265E+04  0.25500000920E-02 0.  1.
</event>
<event>
 5   0  0.3278988E-07  0.3608659E+04  0.7818609E-02  0.8088511E-01
       -1   -1    0    0    0  501  0.00000000000E+00  0.00000000000E+00  0.14607983602E+04  0.14607983602E+04  0.50400001928E-02 0.  1.
        1   -1    0    0  501    0  0.00000000000E+00  0.00000000000E+00 -0.22286475169E+04  0.22286475169E+04  0.50400001928E-02 0. -1.
    10030    2    1    2    0    0  0.00000000000E+00  0.00000000000E+00 -0.76784915674E+03  0.36894458771E+04  0.36086588301E+04 0.  0.
        4    1    3    3  502    0  0.44518310155E+03 -0.14163069228E+04 -0.14323024288E+04  0.20629118144E+04  0.12699999809E+01 0. -1.
       -4    1    3    3    0  502 -0.44518310155E+03  0.14163069228E+04  0.66445327207E+03  0.16265340627E+04  0.12699999809E+01 0.  1.
</event>
<event>
 5   0  0.1006019E-06  0.3555196E+04  0.7818609E-02  0.8100832E-01
       -2   -1    0    0    0  501  0.00000000000E+00  0.00000000000E+00  0.18887777321E+04  0.18887777321E+04  0.25500000920E-02 0.  1.
        2   -1    0    0  501    0  0.00000000000E+00  0.00000000000E+00 -0.16729623057E+04  0.16729623057E+04  0.25500000920E-02 0. -1.
    10030    2    1    2    0    0  0.00000000000E+00  0.00000000000E+00  0.21581542637E+03  0.35617400378E+04  0.35551956062E+04 0.  0.
        1    1    3    3  502    0 -0.18172284136E+02 -0.13683028574E+04 -0.10287604913E+04  0.17119962295E+04  0.50400001928E-02 0. -1.
       -1    1    3    3    0  502  0.18172284136E+02  0.13683028574E+04  0.12445759177E+04  0.18497438083E+04  0.50400001928E-02 0.  1.
</event>
<event>
 5   0  0.9878977E-07  0.3620668E+04  0.7818609E-02  0.8085774E-01
        2   -1    0    0  501    0  0.00000000000E+00  0.00000000000E+00  0.29930036136E+04  0.29930036136E+04  0.25500000920E-02 0. -1.
       -2   -1    0    0    0  501  0.00000000000E+00  0.00000000000E+00 -0.10949902277E+04  0.10949902277E+04  0.25500000920E-02 0.  1.
    10030    2    1    2    0    0  0.00000000000E+00  0.00000000000E+00  0.18980133859E+04  0.40879938413E+04  0.36206682855E+04 0.  0.
        5    1    3    3  502    0  0.12943460719E+04 -0.49095653135E+03  0.22661632617E+04  0.26555391332E+04  0.46999998093E+01 0. -1.
       -5    1    3    3    0  502 -0.12943460719E+04  0.49095653135E+03 -0.36814987581E+03  0.14324547081E+04  0.46999998093E+01 0.  1.
</event>
<event>
 5   0  0.9538919E-07  0.3587277E+04  0.7818609E-02  0.8093412E-01
       -2   -1    0    0    0  501  0.00000000000E+00  0.00000000000E+00  0.13486349843E+04  0.13486349843E+04  0.25500000920E-02 0. -1.
        2   -1    0    0  501    0  0.00000000000E+00  0.00000000000E+00 -0.23854775407E+04  0.23854775407E+04  0.25500000920E-02 0.  1.
    10030    2    1    2    0    0  0.00000000000E+00  0.00000000000E+00 -0.10368425564E+04  0.37341125250E+04  0.35872766638E+04 0.  0.
        4    1    3    3  502    0  0.14350516495E+04  0.85628711219E+03 -0.11966556404E+04  0.20553800597E+04  0.12699999809E+01 0. -1.
       -4    1    3    3    0  502 -0.14350516495E+04 -0.85628711219E+03  0.15981308401E+03  0.16787324653E+04  0.12699999809E+01 0.  1.
</event>
<event>
 5   0  0.9878336E-07  0.3597151E+04  0.7818609E-02  0.8091145E-01
       -2   -1    0    0    0  501  0.00000000000E+00  0.00000000000E+00  0.12629114978E+04  0.12629114978E+04  0.25500000920E-02 0. -1.
        2   -1    0    0  501    0  0.00000000000E+00  0.00000000000E+00 -0.25614417315E+04  0.25614417315E+04  0.25500000920E-02 0.  1.
    10030    2    1    2    0    0  0.00000000000E+00  0.00000000000E+00 -0.12985302337E+04  0.38243532292E+04  0.35971512137E+04 0.  0.
        3    1    3    3  502    0  0.11146782839E+04 -0.12268861523E+04  0.92755377428E+02  0.16602291641E+04  0.10100000352E+00 0. -1.
       -3    1    3    3    0  502 -0.11146782839E+04  0.12268861523E+04 -0.13912856111E+04  0.21641240651E+04  0.10100000352E+00 0.  1.
</event>
<event>
 5   0  0.9878977E-07  0.3481929E+04  0.7818609E-02  0.8118086E-01
        2   -1    0    0  501    0  0.00000000000E+00  0.00000000000E+00  0.24011062721E+04  0.24011062721E+04  0.25500000920E-02 0. -1.
       -2   -1    0    0    0  501  0.00000000000E+00  0.00000000000E+00 -0.12623171528E+04  0.12623171528E+04  0.25500000920E-02 0.  1.
    10030    2    1    2    0    0  0.00000000000E+00  0.00000000000E+00  0.11387891193E+04  0.36634234249E+04  0.34819291394E+04 0.  0.
        5    1    3    3  502    0  0.71065787530E+03  0.12647325142E+04  0.15820351948E+04  0.21464949093E+04  0.46999998093E+01 0. -1.
       -5    1    3    3    0  502 -0.71065787530E+03 -0.12647325142E+04 -0.44324607544E+03  0.15169285156E+04  0.46999998093E+01 0.  1.
</event>
<event>
 5   0  0.3278988E-07  0.3072005E+04  0.7818609E-02  0.8223463E-01
        1   -1    0    0  501    0  0.00000000000E+00  0.00000000000E+00  0.13741767096E+04  0.13741767096E+04  0.50400001928E-02 0. -1.
       -1   -1    0    0    0  501  0.00000000000E+00  0.00000000000E+00 -0.17168849503E+04  0.17168849503E+04  0.50400001928E-02 0.  1.
    10030    2    1    2    0    0  0.00000000000E+00  0.00000000000E+00 -0.34270824075E+03  0.30910616599E+04  0.30720047603E+04 0.  0.
        4    1    3    3  502    0  0.62305296943E+03  0.12946700559E+03 -0.15780052491E+04  0.17014872575E+04  0.12699999809E+01 0.  1.
       -4    1    3    3    0  502 -0.62305296943E+03 -0.12946700559E+03  0.12352970083E+04  0.13895744025E+04  0.12699999809E+01 0. -1.
</event>
<event>
 5   0  0.3365378E-07  0.3473071E+04  0.7818609E-02  0.8120202E-01
       -1   -1    0    0    0  501  0.00000000000E+00  0.00000000000E+00  0.32711994757E+04  0.32711994757E+04  0.50400001928E-02 0.  1.
        1   -1    0    0  501    0  0.00000000000E+00  0.00000000000E+00 -0.92184999143E+03  0.92184999144E+03  0.50400001928E-02 0. -1.
    10030    2    1    2    0    0  0.00000000000E+00  0.00000000000E+00  0.23493494842E+04  0.41930494671E+04  0.34730708076E+04 0.  0.
        3    1    3    3  502    0 -0.15355235211E+02  0.96405433845E+02 -0.91853463618E+03  0.92370757223E+03  0.10100000352E+00 0. -1.
       -3    1    3    3    0  502  0.15355235211E+02 -0.96405433845E+02  0.32678841204E+04  0.32693418949E+04  0.10100000352E+00 0.  1.
</event>
<event>
 5   0  0.3159875E-07  0.3563559E+04  0.7818609E-02  0.8098890E-01
        1   -1    0    0  501    0  0.00000000000E+00  0.00000000000E+00  0.18135435840E+04  0.18135435841E+04  0.50400001928E-02 0.  1.
       -1   -1    0    0    0  501  0.00000000000E+00  0.00000000000E+00 -0.17505716442E+04  0.17505716442E+04  0.50400001928E-02 0. -1.
    10030    2    1    2    0    0  0.00000000000E+00  0.00000000000E+00  0.62971939811E+02  0.35641152283E+04  0.35635588806E+04 0.  0.
        5    1    3    3  502    0  0.70249510780E+02  0.11230643339E+04  0.14131890336E+04  0.18064699905E+04  0.46999998093E+01 0.  1.
       -5    1    3    3    0  502 -0.70249510780E+02 -0.11230643339E+04 -0.13502170937E+04  0.17576452378E+04  0.46999998093E+01 0. -1.
</event>
<event>
 5   0  0.1006019E-06  0.3631287E+04  0.7818609E-02  0.8083362E-01
        2   -1    0    0  501    0  0.00000000000E+00  0.00000000000E+00  0.28837695023E+04  0.28837695023E+04  0.25500000920E-02 0.  1.
       -2   -1    0    0    0  501  0.00000000000E+00  0.00000000000E+00 -0.11431433810E+04  0.11431433810E+04  0.25500000920E-02 0. -1.
    10030    2    1    2    0    0  0.00000000000E+00  0.00000000000E+00  0.17406261213E+04  0.40269128833E+04  0.36312873854E+04 0.  0.
        1    1    3    3  502    0  0.10966286531E+04  0.95566280527E+03 -0.33465912228E+03  0.14926093019E+04  0.50400001928E-02 0.  1.
       -1    1    3    3    0  502 -0.10966286531E+04 -0.95566280527E+03  0.20752852436E+04  0.25343035813E+04  0.50400001928E-02 0. -1.
</event>
<event>
 5   0  0.9878977E-07  0.3540510E+04  0.7818609E-02  0.8104256E-01
       -2   -1    0    0    0  501  0.00000000000E+00  0.00000000000E+00  0.13316467714E+04  0.13316467714E+04  0.25500000920E-02 0.  1.
        2   -1    0    0  501    0  0.00000000000E+00  0.00000000000E+00 -0.23533285886E+04  0.23533285886E+04  0.25500000920E-02 0. -1.
    10030    2    1    2    0    0  0.00000000000E+00  0.00000000000E+00 -0.10216818172E+04  0.36849753600E+04  0.35405098034E+04 0.  0.
        5    1    3    3  502    0 -0.12142249563E+04 -0.11962929203E+04 -0.10081679010E+04  0.19803746116E+04  0.46999998093E+01 0.  1.
       -5    1    3    3    0  502  0.12142249563E+04  0.11962929203E+04 -0.13513916176E+02  0.17046007484E+04  0.46999998093E+01 0. -1.
</event>
<event>
 5   0  0.3159875E-07  0.3564692E+04  0.7818609E-02  0.8098628E-01
       -1   -1    0    0    0  501  0.00000000000E+00  0.00000000000E+00  0.12833550614E+04  0.12833550614E+04  0.50400001928E-02 0.  1.
        1   -1    0    0  501    0  0.00000000000E+00  0.00000000000E+00 -0.24753540448E+04  0.24753540448E+04  0.50400001928E-02 0. -1.
    10030    2    1    2    0    0  0.00000000000E+00  0.00000000000E+00 -0.11919989834E+04  0.37587091061E+04  0.35646924928E+04 0.  0.
        5    1    3    3  502    0  0.44010904901E+03 -0.97757328260E+03 -0.20973612651E+04  0.23554812383E+04  0.46999998093E+01 0. -1.
       -5    1    3    3    0  502 -0.44010904901E+03  0.97757328260E+03  0.90536228170E+03  0.14032278678E+04  0.46999998093E+01 0.  1.
</event>
<event>
 5   0  0.3242047E-07  0.3695267E+04  0.7818609E-02  0.8069011E-01
       -1   -1    0    0    0  501  0.00000000000E+00  0.00000000000E+00  0.12384234524E+04  0.12384234524E+04  0.50400001928E-02 0. -1.
        1   -1    0    0  501    0  0.00000000000E+00  0.00000000000E+00 -0.27565287575E+04  0.27565287575E+04  0.50400001928E-02 0.  1.
    10030    2    1    2    0    0  0.00000000000E+00  0.00000000000E+00 -0.15181053051E+04  0.39949522098E+04  0.36952671678E+04 0.  0.
        1    1    3    3  502    0  0.13041001330E+04  0.21134526798E+03 -0.21554743913E+04  0.25281245679E+04  0.50400001928E-02 0.  1.
       -1    1    3    3    0  502 -0.13041001330E+04 -0.21134526798E+03  0.63736908615E+03  0.14668276420E+04  0.50400001928E-02 0. -1.
</event>
<event>
 5   0  0.9538919E-07  0.3592643E+04  0.7818609E-02  0.8092179E-01
        2   -1    0    0  501    0  0.00000000000E+00  0.00000000000E+00  0.22702875932E+04  0.22702875932E+04  0.25500000920E-02 0. -1.
       -2   -1    0    0    0  501  0.00000000000E+00  0.00000000000E+00 -0.14213050586E+04  0.14213050586E+04  0.25500000920E-02 0.  1.
    10030    2    1    2    0    0  0.00000000000E+00  0.00000000000E+00  0.84898253460E+03  0.36915926519E+04  0.35926431723E+04 0.  0.
        4    1    3    3  502    0  0.13235054455E+04  0.11648977137E+04  0.77763749327E+03  0.19270119438E+04  0.12699999809E+01 0. -1.
       -4    1    3    3    0  502 -0.13235054455E+04 -0.11648977137E+04  0.71345041338E+02  0.17645807081E+04  0.12699999809E+01 0.  1.
</event>
<event>
 5   0  0.3242047E-07  0.3488633E+04  0.7818609E-02  0.8116489E-01
       -1   -1    0    0    0  501  0.00000000000E+00  0.00000000000E+00  0.12139854300E+04  0.12139854300E+04  0.50400001928E-02 0.  1.
        1   -1    0    0  501    0  0.00000000000E+00  0.00000000000E+00 -0.25063235292E+04  0.25063235292E+04  0.50400001928E-02 0. -1.
    10030    2    1    2    0    0  0.00000000000E+00  0.00000000000E+00 -0.12923380992E+04  0.37203089591E+04  0.34886331118E+04 0.  0.
        1    1    3    3  502    0  0.86399701215E+03  0.17543087649E+03 -0.22512376899E+04  0.24177133755E+04  0.50400001928E-02 0. -1.
       -1    1    3    3    0  502 -0.86399701215E+03 -0.17543087649E+03  0.95889959074E+03  0.13025955837E+04  0.50400001928E-02 0.  1.
</event>
<event>
 5   0  0.9538919E-07  0.3599322E+04  0.7818609E-02  0.8090647E-01
       -2   -1    0    0    0  501  0.00000000000E+00  0.00000000000E+00  0.14245623100E+04  0.14245623100E+04  0.25500000920E-02 0. -1.
        2   -1    0    0  501    0  0.00000000000E+00  0.00000000000E+00 -0.22735259895E+04  0.22735259895E+04  0.25500000920E-02 0.  1.
    10030    2    1    2    0    0  0.00000000000E+00  0.00000000000E+00 -0.84896367956E+03  0.36980882995E+04  0.35993218447E+04 0.  0.
        4    1    3    3  502    0  0.80796584557E+03  0.10434711305E+04 -0.16816326174E+04  0.21376460607E+04  0.12699999809E+01 0.  1.
       -4    1    3    3    0  502 -0.80796584557E+03 -0.10434711305E+04  0.83266893787E+03  0.15604422388E+04  0.12699999809E+01 0. -1.
</event>
<event>
 5   0  0.1006019E-06  0.3553716E+04  0.7818609E-02  0.8101177E-01
       -2   -1    0    0    0  501  0.00000000000E+00  0.00000000000E+00  0.22459298293E+04  0.22459298293E+04  0.25500000920E-02 0.  1.
        2   -1    0    0  501    0  0.00000000000E+00  0.00000000000E+00 -0.14057539457E+04  0.14057539457E+04  0.25500000920E-02 0. -1.
    10030    2    1    2    0    0  0.00000000000E+00  0.00000000000E+00  0.84017588368E+03  0.36516837750E+04  0.35537162066E+04 0.  0.
        1    1    3    3  502    0  0.49844373798E+03  0.10130447145E+04 -0.98978540080E+03  0.15014595876E+04  0.50400001928E-02 0. -1.
       -1    1    3    3    0  502 -0.49844373798E+03 -0.10130447145E+04  0.18299612845E+04  0.21502241874E+04  0.50400001928E-02 0.  1.
</event>
<event>
 5   0  0.3159875E-07  0.3572622E+04  0.7818609E-02  0.8096792E-01
       -1   -1    0    0    0  501  0.00000000000E+00  0.00000000000E+00  0.17586641143E+04  0.17586641143E+04  0.50400001928E-02 0. -1.
        1   -1    0    0  501    0  0.00000000000E+00  0.00000000000E+00 -0.18143927598E+04  0.18143927598E+04  0.50400001928E-02 0.  1.
    10030    2    1    2    0    0  0.00000000000E+00  0.00000000000E+00 -0.55728645486E+02  0.35730568742E+04  0.35726222504E+04 0.  0.
        2    1    3    3  502    0 -0.12415387906E+04 -0.71277044137E+03  0.10406509581E+04  0.17698629007E+04  0.25500000920E-02 0. -1.
       -2    1    3    3    0  502  0.12415387906E+04  0.71277044137E+03 -0.10963796035E+04  0.18031939734E+04  0.25500000920E-02 0.  1.
</event>
<event>
 5   0  0.3242047E-07  0.3605597E+04  0.7818609E-02  0.8089211E-01
        1   -1    0    0  501    0  0.00000000000E+00  0.00000000000E+00  0.18492442716E+04  0.18492442716E+04  0.50400001928E-02 0.  1.
       -1   -1    0    0    0  501  0.00000000000E+00  0.00000000000E+00 -0.17575188978E+04  0.17575188978E+04  0.50400001928E-02 0. -1.
    10030    2    1    2    0    0  0.00000000000E+00  0.00000000000E+00  0.91725373854E+02  0.36067631694E+04  0.36055966242E+04 0.  0.
        1    1    3    3  502    0  0.15178824459E+04 -0.77182270223E+03 -0.54627844937E+03  0.17883225513E+04  0.50400001928E-02 0.  1.
       -1    1    3    3    0  502 -0.15178824459E+04  0.77182270223E+03  0.63800382322E+03  0.18184406181E+04  0.50400001928E-02 0. -1.
</event>
<event>
 5   0  0.3159875E-07  0.3612538E+04  0.7818609E-02  0.8087626E-01
       -3   -1    0    0    0  501  0.00000000000E+00  0.00000000000E+00  0.18942263866E+04  0.18942263893E+04  0.10100000352E+00 0. -1.
        3   -1    0    0  501    0  0.00000000000E+00  0.00000000000E+00 -0.17223960250E+04  0.17223960279E+04  0.10100000352E+00 0.  1.
    10030    2    1    2    0    0  0.00000000000E+00  0.00000000000E+00  0.17183036166E+03  0.36166224172E+04  0.36125381708E+04 0.  0.
        5    1    3    3  502    0 -0.38448488862E+03 -0.17493906725E+04 -0.14756419026E+03  0.17972183047E+04  0.46999998093E+01 0.  1.
       -5    1    3    3    0  502  0.38448488862E+03  0.17493906725E+04  0.31939455192E+03  0.18194041125E+04  0.46999998093E+01 0. -1.
</event>
<event>
 5   0  0.9538919E-07  0.3561246E+04  0.7818609E-02  0.8099427E-01
        2   -1    0    0  501    0  0.00000000000E+00  0.00000000000E+00  0.17593328344E+04  0.17593328344E+04  0.25500000920E-02 0. -1.
       -2   -1    0    0    0  501  0.00000000000E+00  0.00000000000E+00 -0.18021707719E+04  0.18021707720E+04  0.25500000920E-02 0.  1.
    10030    2    1    2    0    0  0.00000000000E+00  0.00000000000E+00 -0.42837937527E+02  0.35615036064E+04  0.35612459687E+04 0.  0.
        4    1    3    3  502    0  0.81186425145E+03 -0.84692875178E+03 -0.13609951474E+04  0.17968642902E+04  0.12699999809E+01 0.  1.
       -4    1    3    3    0  502 -0.81186425145E+03  0.84692875178E+03  0.13181572098E+04  0.17646393162E+04  0.12699999809E+01 0. -1.
</event>
<event>
 5   0  0.3278988E-07  0.3577776E+04  0.7818609E-02  0.8095601E-01
        1   -1    0    0  501    0  0.00000000000E+00  0.00000000000E+00  0.33470492572E+04  0.33470492572E+04  0.50400001928E-02 0.  1.
       -1   -1    0    0    0  501  0.00000000000E+00  0.00000000000E+00 -0.95610200385E+03  0.95610200386E+03  0.50400001928E-02 0. -1.
    10030    2    1    2    0    0  0.00000000000E+00  0.00000000000E+00  0.23909472534E+04  0.43031512611E+04  0.35777761259E+04 0.  0.
        4    1    3    3  502    0 -0.83627905819E+03  0.13168384818E+04  0.14233850328E+03  0.15664252656E+04  0.12699999809E+01 0. -1.
       -4    1    3    3    0  502  0.83627905819E+03 -0.13168384818E+04  0.22486087501E+04  0.27367259954E+04  0.12699999809E+01 0.  1.
</event>
<event>
 5   0  0.9538919E-07  0.3702592E+04  0.7818609E-02  0.8067388E-01
       -2   -1    0    0    0  501  0.00000000000E+00  0.00000000000E+00  0.13765892537E+04  0.13765892537E+04  0.25500000920E-02 0.  1.
        2   -1    0    0  501    0  0.00000000000E+00  0.00000000000E+00 -0.24897015691E+04  0.24897015691E+04  0.25500000920E-02 0. -1.
    10030    2    1    2    0    0  0.00000000000E+00  0.00000000000E+00 -0.11131123154E+04  0.38662908228E+04  0.37025917544E+04 0.  0.
        4    1    3    3  502    0 -0.11391169077E+04 -0.61843079590E+03 -0.19368333670E+04  0.23305297859E+04  0.12699999809E+01 0. -1.
       -4    1    3    3    0  502  0.11391169077E+04  0.61843079590E+03  0.82372105158E+03  0.15357610369E+04  0.12699999809E+01 0.  1.
</event>
<event>
 5   0  0.3159875E-07  0.3349304E+04  0.7818609E-02  0.8150462E-01
        1   -1    0    0  501    0  0.00000000000E+00  0.00000000000E+00  0.16820590796E+04  0.16820590796E+04  0.50400001928E-02 0. -1.
       -1   -1    0    0    0  501  0.00000000000E+00  0.00000000000E+00 -0.16672778770E+04  0.16672778770E+04  0.50400001928E-02 0.  1.
    10030    2    1    2    0    0  0.00000000000E+00  0.00000000000E+00  0.14781202593E+02  0.33493369566E+04  0.33493043404E+04 0.  0.
        2    1    3    3  502    0 -0.32815929282E+03 -0.59411010837E+03 -0.15235732121E+04  0.16679120705E+04  0.25500000920E-02 0. -1.
       -2    1    3    3    0  502  0.32815929282E+03  0.59411010837E+03  0.15383544147E+04  0.16814248861E+04  0.25500000920E-02 0.  1.
</event>
<event>
 5   0  0.1006019E-06  0.3632759E+04  0.7818609E-02  0.8083029E-01
       -2   -1    0    0    0  501  0.00000000000E+00  0.00000000000E+00  0.16668608549E+04  0.16668608549E+04  0.25500000920E-02 0. -1.
        2   -1    0    0  501    0  0.00000000000E+00  0.00000000000E+00 -0.19793103513E+04  0.19793103513E+04  0.25500000920E-02 0.  1.
    10030    2    1    2    0    0  0.00000000000E+00  0.00000000000E+00 -0.31244949639E+03  0.36461712063E+04  0.36327592513E+04 0.  0.
        1    1    3    3  502    0  0.68978815394E+03  0.15829864482E+04 -0.72184871026E+03  0.18715553299E+04  0.50400001928E-02 0. -1.
       -1    1    3    3    0  502 -0.68978815394E+03 -0.15829864482E+04  0.40939921388E+03  0.17746158764E+04  0.50400001928E-02 0.  1.
</event>
<event>
 5   0  0.3365378E-07  0.3624203E+04  0.7818609E-02  0.8084970E-01
        1   -1    0    0  501    0  0.00000000000E+00  0.00000000000E+00  0.24063967901E+04  0.24063967901E+04  0.50400001928E-02 0. -1.
       -1   -1    0    0    0  501  0.00000000000E+00  0.00000000000E+00 -0.13645759457E+04  0.13645759457E+04  0.50400001928E-02 0.  1.
    10030    2    1    2    0    0  0.00000000000E+00  0.00000000000E+00  0.10418208444E+04  0.37709727357E+04  0.36242026298E+04 0.  0.
        3    1    3    3  502    0 -0.15280359517E+04  0.89589170137E+03  0.12307109806E+03  0.17755737990E+04  0.10100000352E+00 0. -1.
       -3    1    3    3    0  502  0.15280359517E+04 -0.89589170137E+03  0.91874974633E+03  0.19953989368E+04  0.10100000352E+00 0.  1.
</event>
<event>
 5   0  0.3242047E-07  0.3511045E+04  0.7818609E-02  0.8111177E-01
        1   -1    0    0  501    0  0.00000000000E+00  0.00000000000E+00  0.26636176954E+04  0.26636176954E+04  0.50400001928E-02 0. -1.
       -1   -1    0    0    0  501  0.00000000000E+00  0.00000000000E+00 -0.11570200728E+04  0.11570200728E+04  0.50400001928E-02 0.  1.
    10030    2    1    2    0    0  0.00000000000E+00  0.00000000000E+00  0.15065976226E+04  0.38206377682E+04  0.35110449384E+04 0.  0.
        1    1    3    3  502    0  0.10739139555E+04  0.20803046904E+02  0.22643118669E+04  0.25061588499E+04  0.50400001928E-02 0. -1.
       -1    1    3    3    0  502 -0.10739139555E+04 -0.20803046904E+02 -0.75771424435E+03  0.13144789183E+04  0.50400001928E-02 0.  1.
</event>
<event>
 5   0  0.3365378E-07  0.2875965E+04  0.7818609E-02  0.8280065E-01
       -1   -1    0    0    0  501  0.00000000000E+00  0.00000000000E+00  0.10110051584E+04  0.10110051585E+04  0.50400001928E-02 0.  1.
        1   -1    0    0  501    0  0.00000000000E+00  0.00000000000E+00 -0.20452849823E+04  0.20452849823E+04  0.50400001928E-02 0. -1.
    10030    2    1    2    0    0  0.00000000000E+00  0.00000000000E+00 -0.10342798239E+04  0.30562901408E+04  0.28759649981E+04 0.  0.
        3    1    3    3  502    0 -0.87794326079E+03 -0.85080328813E+03  0.28739056534E+03  0.12558837333E+04  0.10100000352E+00 0.  1.
       -3    1    3    3    0  502  0.87794326079E+03  0.85080328813E+03 -0.13216703892E+04  0.18004064075E+04  0.10100000352E+00 0. -1.
</event>
<event>
 5   0  0.9878336E-07  0.3653336E+04  0.7818609E-02  0.8078383E-01
        2   -1    0    0  501    0  0.00000000000E+00  0.00000000000E+00  0.19008764528E+04  0.19008764528E+04  0.25500000920E-02 0. -1.
       -2   -1    0    0    0  501  0.00000000000E+00  0.00000000000E+00 -0.17553561817E+04  0.17553561817E+04  0.25500000920E-02 0.  1.
    10030    2    1    2    0    0  0.00000000000E+00  0.00000000000E+00  0.14552027115E+03  0.36562326345E+04  0.36533355894E+04 0.  0.
        3    1    3    3  502    0  0.52483841907E+03 -0.17325226694E+04  0.31713619189E+03  0.18378426322E+04  0.10100000352E+00 0.  1.
       -3    1    3    3    0  502 -0.52483841907E+03  0.17325226694E+04 -0.17161592074E+03  0.18183900024E+04  0.10100000352E+00 0. -1.
</event>
<event>
 5   0  0.1031659E-06  0.3593527E+04  0.7818609E-02  0.8091976E-01
        2   -1    0    0  501    0  0.00000000000E+00  0.00000000000E+00  0.15496569421E+04  0.15496569421E+04  0.25500000920E-02 0. -1.
       -2   -1    0    0    0  501  0.00000000000E+00  0.00000000000E+00 -0.20832735955E+04  0.20832735955E+04  0.25500000920E-02 0.  1.
    10030    2    1    2    0    0  0.00000000000E+00  0.00000000000E+00 -0.53361665341E+03  0.36329305376E+04  0.35935271751E+04 0.  0.
        2    1    3    3  502    0  0.30587553903E+03  0.40935277398E+03 -0.20082613170E+04  0.20722555481E+04  0.25500000920E-02 0.  1.
       -2    1    3    3    0  502 -0.30587553903E+03 -0.40935277398E+03  0.14746446636E+04  0.15606749895E+04  0.25500000920E-02 0. -1.
</event>
<event>
 5   0  0.3278988E-07  0.3631480E+04  0.7818609E-02  0.8083319E-01
        1   -1    0    0  501    0  0.00000000000E+00  0.00000000000E+00  0.23407744141E+04  0.23407744141E+04  0.50400001928E-02 0. -1.
       -1   -1    0    0    0  501  0.00000000000E+00  0.00000000000E+00 -0.14084703573E+04  0.14084703573E+04  0.50400001928E-02 0.  1.
    10030    2    1    2    0    0  0.00000000000E+00  0.00000000000E+00  0.93230405677E+03  0.37492447714E+04  0.36314797950E+04 0.  0.
        4    1    3    3  502    0  0.69594413685E+03  0.16613067671E+04  0.22929711265E+03  0.18157249777E+04  0.12699999809E+01 0.  1.
       -4    1    3    3    0  502 -0.69594413685E+03 -0.16613067671E+04  0.70300694412E+03  0.19335197936E+04  0.12699999809E+01 0. -1.
</event>
<event>
 5   0  0.1006019E-06  0.3552972E+04  0.7818609E-02  0.8101350E-01
        2   -1    0    0  501    0  0.00000000000E+00  0.00000000000E+00  0.23295456492E+04  0.23295456492E+04  0.25500000920E-02 0. -1.
       -2   -1    0    0    0  501  0.00000000000E+00  0.00000000000E+00 -0.13547283920E+04  0.13547283920E+04  0.25500000920E-02 0.  1.
    10030    2    1    2    0    0  0.00000000000E+00  0.00000000000E+00  0.97481725724E+03  0.36842740411E+04  0.35529715064E+04 0.  0.
        1    1    3    3  502    0 -0.91090145485E+03 -0.17942144452E+03  0.20579663062E+04  0.22576888255E+04  0.50400001928E-02 0. -1.
       -1    1    3    3    0  502  0.91090145485E+03  0.17942144452E+03 -0.10831490490E+04  0.14265852157E+04  0.50400001928E-02 0.  1.
</event>
<event>
 5   0  0.9878977E-07  0.3678567E+04  0.7818609E-02  0.8072728E-01
       -2   -1    0    0    0  501  0.00000000000E+00  0.00000000000E+00  0.25971801345E+04  0.25971801345E+04  0.25500000920E-02 0.  1.
        2   -1    0    0  501    0  0.00000000000E+00  0.00000000000E+00 -0.13025527000E+04  0.13025527000E+04  0.25500000920E-02 0. -1.
    10030    2    1    2    0    0  0.00000000000E+00  0.00000000000E+00  0.12946274345E+04  0.38997328344E+04  0.36785671104E+04 0.  0.
        5    1    3    3  502    0  0.46660304606E+03  0.16924417894E+04  0.12288027067E+04  0.21429082564E+04  0.46999998093E+01 0.  1.
       -5    1    3    3    0  502 -0.46660304606E+03 -0.16924417894E+04  0.65824727715E+02  0.17568245780E+04  0.46999998093E+01 0. -1.
</event>
<event>
 5   0  0.3278988E-07  0.2799694E+04  0.7818609E-02  0.8303363E-01
        1   -1    0    0  501    0  0.00000000000E+00  0.00000000000E+00  0.14330604028E+04  0.14330604028E+04  0.50400001928E-02 0.  1.
       -1   -1    0    0    0  501  0.00000000000E+00  0.00000000000E+00 -0.13674034826E+04  0.13674034826E+04  0.50400001928E-02 0. -1.
    10030    2    1    2    0    0  0.00000000000E+00  0.00000000000E+00  0.65656920164E+02  0.28004638854E+04  0.27996941158E+04 0.  0.
        4    1    3    3  502    0 -0.10938835097E+03  0.99906014483E+03  0.10075106527E+04  0.14230833821E+04  0.12699999809E+01 0.  1.
       -4    1    3    3    0  502  0.10938835097E+03 -0.99906014483E+03 -0.94185373254E+03  0.13773805032E+04  0.12699999809E+01 0. -1.
</event>
<event>
 5   0  0.1006019E-06  0.2764697E+04  0.7818609E-02  0.8314313E-01
       -2   -1    0    0    0  501  0.00000000000E+00  0.00000000000E+00  0.15332438651E+04  0.15332438651E+04  0.25500000920E-02 0. -1.
        2   -1    0    0  501    0  0.00000000000E+00  0.00000000000E+00 -0.12463034031E+04  0.12463034031E+04  0.25500000920E-02 0.  1.
    10030    2    1    2    0    0  0.00000000000E+00  0.00000000000E+00  0.28694046209E+03  0.27795472682E+04  0.27646967623E+04 0.  0.
        1    1    3    3  502    0 -0.44971653503E+03  0.12515875291E+04 -0.23561046978E+03  0.13506400699E+04  0.50400001928E-02 0.  1.
       -1    1    3    3    0  502  0.44971653503E+03 -0.12515875291E+04  0.52255093187E+03  0.14289071983E+04  0.50400001928E-02 0. -1.
</event>
<event>
 5   0  0.3242047E-07  0.3696167E+04  0.7818609E-02  0.8068812E-01
       -1   -1    0    0    0  501  0.00000000000E+00  0.00000000000E+00  0.19628714260E+04  0.19628714260E+04  0.50400001928E-02 0.  1.
        1   -1    0    0  501    0  0.00000000000E+00  0.00000000000E+00 -0.17400082890E+04  0.17400082890E+04  0.50400001928E-02 0. -1.
    10030    2    1    2    0    0  0.00000000000E+00  0.00000000000E+00  0.22286313702E+03  0.37028797151E+04  0.36961669614E+04 0.  0.
        1    1    3    3  502    0  0.16641273113E+04 -0.68211298329E+03  0.53742697587E+03  0.18770790033E+04  0.50400001928E-02 0. -1.
       -1    1    3    3    0  502 -0.16641273113E+04  0.68211298329E+03 -0.31456383884E+03  0.18258007117E+04  0.50400001928E-02 0.  1.
</event>
<event>
 5   0  0.1006019E-06  0.3600175E+04  0.7818609E-02  0.8090452E-01
       -2   -1    0    0    0  501  0.00000000000E+00  0.00000000000E+00  0.24302427809E+04  0.24302427809E+04  0.25500000920E-02 0. -1.
        2   -1    0    0  501    0  0.00000000000E+00  0.00000000000E+00 -0.13333299044E+04  0.13333299044E+04  0.25500000920E-02 0.  1.
    10030    2    1    2    0    0  0.00000000000E+00  0.00000000000E+00  0.10969128765E+04  0.37635726852E+04  0.36001752039E+04 0.  0.
        1    1    3    3  502    0 -0.34832716581E+03 -0.35099348309E+03 -0.12609334012E+04  0.13544302426E+04  0.50400001928E-02 0.  1.
       -1    1    3    3    0  502  0.34832716581E+03  0.35099348309E+03  0.23578462777E+04  0.24091424427E+04  0.50400001928E-02 0. -1.
</event>
<event>
 5   0  0.3278988E-07  0.3644483E+04  0.7818609E-02  0.8080378E-01
       -1   -1    0    0    0  501  0.00000000000E+00  0.00000000000E+00  0.20203917710E+04  0.20203917710E+04  0.50400001928E-02 0. -1.
        1   -1    0    0  501    0  0.00000000000E+00  0.00000000000E+00 -0.16435252970E+04  0.16435252970E+04  0.50400001928E-02 0.  1.
    10030    2    1    2    0    0  0.00000000000E+00  0.00000000000E+00  0.37686647398E+03  0.36639170680E+04  0.36444834945E+04 0.  0.
        4    1    3    3  502    0 -0.41716675625E+03  0.13127792645E+04  0.13877512486E+04  0.19553190637E+04  0.12699999809E+01 0. -1.
       -4    1    3    3    0  502  0.41716675625E+03 -0.13127792645E+04 -0.10108847747E+04  0.17085980043E+04  0.12699999809E+01 0.  1.
</event>
<event>
 5   0  0.1031659E-06  0.3535649E+04  0.7818609E-02  0.8105393E-01
        2   -1    0    0  501    0  0.00000000000E+00  0.00000000000E+00  0.14654301008E+04  0.14654301008E+04  0.25500000920E-02 0. -1.
       -2   -1    0    0    0  501  0.00000000000E+00  0.00000000000E+00 -0.21326190110E+04  0.21326190110E+04  0.25500000920E-02 0.  1.
    10030    2    1    2    0    0  0.00000000000E+00  0.00000000000E+00 -0.66718891022E+03  0.35980491119E+04  0.35356493561E+04 0.  0.
        2    1    3    3  502    0 -0.12559065434E+04  0.11986088978E+04  0.58178036047E+01  0.17360870896E+04  0.25500000920E-02 0. -1.
       -2    1    3    3    0  502  0.12559065434E+04 -0.11986088978E+04 -0.67300671383E+03  0.18619620223E+04  0.25500000920E-02 0.  1.
</event>
<event>
 5   0  0.1031659E-06  0.3598779E+04  0.7818609E-02  0.8090771E-01
        2   -1    0    0  501    0  0.00000000000E+00  0.00000000000E+00  0.15478558593E+04  0.15478558593E+04  0.25500000920E-02 0.  1.
       -2   -1    0    0    0  501  0.00000000000E+00  0.00000000000E+00 -0.20917985567E+04  0.20917985567E+04  0.25500000920E-02 0. -1.
    10030    2    1    2    0    0  0.00000000000E+00  0.00000000000E+00 -0.54394269739E+03  0.36396544160E+04  0.35987790443E+04 0.  0.
        2    1    3    3  502    0  0.78296402030E+03 -0.94355960526E+03  0.10599781853E+04  0.16207686877E+04  0.25500000920E-02 0.  1.
       -2    1    3    3    0  502 -0.78296402030E+03  0.94355960526E+03 -0.16039208827E+04  0.20188857283E+04  0.25500000920E-02 0. -1.
</event>
<event>
 5   0  0.3278988E-07  0.3517004E+04  0.7818609E-02  0.8109772E-01
        1   -1    0    0  501    0  0.00000000000E+00  0.00000000000E+00  0.12766395766E+04  0.12766395766E+04  0.50400001928E-02 0. -1.
       -1   -1    0    0    0  501  0.00000000000E+00  0.00000000000E+00 -0.24222419472E+04  0.24222419472E+04  0.50400001928E-02 0.  1.
    10030    2    1    2    0    0  0.00000000000E+00  0.00000000000E+00 -0.11456023705E+04  0.36988815238E+04  0.35170043696E+04 0.  0.
        4    1    3    3  502    0 -0.57398169247E+03  0.14663881145E+04  0.25034818225E+03  0.15944983257E+04  0.12699999809E+01 0. -1.
       -4    1    3    3    0  502  0.57398169247E+03 -0.14663881145E+04 -0.13959505528E+04  0.21043831981E+04  0.12699999809E+01 0.  1.
</event>
<event>
 5   0  0.3159875E-07  0.3636834E+04  0.7818609E-02  0.8082106E-01
        1   -1    0    0  501    0  0.00000000000E+00  0.00000000000E+00  0.19677012610E+04  0.19677012610E+04  0.50400001928E-02 0.  1.
       -1   -1    0    0    0  501  0.00000000000E+00  0.00000000000E+00 -0.16804585676E+04  0.16804585676E+04  0.50400001928E-02 0. -1.
    10030    2    1    2    0    0  0.00000000000E+00  0.00000000000E+00  0.28724269348E+03  0.36481598286E+04  0.36368340312E+04 0.  0.
        5    1    3    3  502    0  0.24328423344E+02 -0.76071087055E+03 -0.15129893057E+04  0.16936444816E+04  0.46999998093E+01 0. -1.
       -5    1    3    3    0  502 -0.24328423344E+02  0.76071087055E+03  0.18002319992E+04  0.19545153470E+04  0.46999998093E+01 0.  1.
</event>
<event>
 5   0  0.3159875E-07  0.3639481E+04  0.7818609E-02  0.8081507E-01
        1   -1    0    0  501    0  0.00000000000E+00  0.00000000000E+00  0.24447492262E+04  0.24447492262E+04  0.50400001928E-02 0.  1.
       -1   -1    0    0    0  501  0.00000000000E+00  0.00000000000E+00 -0.13545175360E+04  0.13545175360E+04  0.50400001928E-02 0. -1.
    10030    2    1    2    0    0  0.00000000000E+00  0.00000000000E+00  0.10902316902E+04  0.37992667622E+04  0.36394811158E+04 0.  0.
        2    1    3    3  502    0 -0.53777559446E+03 -0.73121793282E+03  0.21915648114E+04  0.23720958197E+04  0.25500000920E-02 0.  1.
       -2    1    3    3    0  502  0.53777559446E+03  0.73121793282E+03 -0.11013331212E+04  0.14271709425E+04  0.25500000920E-02 0. -1.
</event>
<event>
 5   0  0.9878336E-07  0.3669981E+04  0.7818609E-02  0.8074647E-01
       -2   -1    0    0    0  501  0.00000000000E+00  0.00000000000E+00  0.20274882735E+04  0.20274882735E+04  0.25500000920E-02 0. -1.
        2   -1    0    0  501    0  0.00000000000E+00  0.00000000000E+00 -0.16607694626E+04  0.16607694626E+04  0.25500000920E-02 0.  1.
    10030    2    1    2    0    0  0.00000000000E+00  0.00000000000E+00  0.36671881086E+03  0.36882577362E+04  0.36699812591E+04 0.  0.
        3    1    3    3  502    0 -0.13477429825E+04 -0.10902885616E+04 -0.42134324878E+03  0.17840040465E+04  0.10100000352E+00 0.  1.
       -3    1    3    3    0  502  0.13477429825E+04  0.10902885616E+04  0.78806205964E+03  0.19042536896E+04  0.10100000352E+00 0. -1.
</event>
<event>
 5   0  0.3159875E-07  0.3611014E+04  0.7818609E-02  0.8087973E-01
        1   -1    0    0  501    0  0.00000000000E+00  0.00000000000E+00  0.24620926043E+04  0.24620926043E+04  0.50400001928E-02 0. -1.
       -1   -1    0    0    0  501  0.00000000000E+00  0.00000000000E+00 -0.13240183132E+04  0.13240183132E+04  0.50400001928E-02 0.  1.
    10030    2    1    2    0    0  0.00000000000E+00  0.00000000000E+00  0.11380742911E+04  0.37861109175E+04  0.36110140941E+04 0.  0.
        2    1    3    3  502    0 -0.43690143778E+03  0.12973203654E+03 -0.12627143191E+04  0.13424457976E+04  0.25500000920E-02 0.  1.
       -2    1    3    3    0  502  0.43690143778E+03 -0.12973203654E+03  0.24007886102E+04  0.24436651200E+04  0.25500000920E-02 0. -1.
</event>
<event>
 5   0  0.3242047E-07  0.3604852E+04  0.7818609E-02  0.8089381E-01
       -1   -1    0    0    0  501  0.00000000000E+00  0.00000000000E+00  0.16358953395E+04  0.16358953395E+04  0.50400001928E-02 0.  1.
        1   -1    0    0  501    0  0.00000000000E+00  0.00000000000E+00 -0.19859089701E+04  0.19859089701E+04  0.50400001928E-02 0. -1.
    10030    2    1    2    0    0  0.00000000000E+00  0.00000000000E+00 -0.35001363057E+03  0.36218043097E+04  0.36048518577E+04 0.  0.
        1    1    3    3  502    0  0.10746988265E+04 -0.47152737073E+03 -0.15494399297E+04  0.19437283053E+04  0.50400001928E-02 0. -1.
       -1    1    3    3    0  502 -0.10746988265E+04  0.47152737073E+03  0.11994262992E+04  0.16780760043E+04  0.50400001928E-02 0.  1.
</event>
<event>
 5   0  0.1006019E-06  0.2696883E+04  0.7818609E-02  0.8336017E-01
       -2   -1    0    0    0  501  0.00000000000E+00  0.00000000000E+00  0.16208144271E+04  0.16208144271E+04  0.25500000920E-02 0. -1.
        2   -1    0    0  501    0  0.00000000000E+00  0.00000000000E+00 -0.11218400162E+04  0.11218400162E+04  0.25500000920E-02 0.  1.
    10030    2    1    2    0    0  0.00000000000E+00  0.00000000000E+00  0.49897441088E+03  0.27426544433E+04  0.26968830031E+04 0.  0.
        1    1    3    3  502    0 -0.10497240326E+04 -0.78319518417E+03 -0.76862955905E+02  0.13119539455E+04  0.50400001928E-02 0. -1.
       -1    1    3    3    0  502  0.10497240326E+04  0.78319518417E+03  0.57583736678E+03  0.14307004977E+04  0.50400001928E-02 0.  1.
</event>
<event>
 5   0  0.3159875E-07  0.3515627E+04  0.7818609E-02  0.8110096E-01
        3   -1    0    0  501    0  0.00000000000E+00  0.00000000000E+00  0.16430803592E+04  0.16430803623E+04  0.10100000352E+00 0. -1.
       -3   -1    0    0    0  501  0.00000000000E+00  0.00000000000E+00 -0.18805586968E+04  0.18805586995E+04  0.10100000352E+00 0.  1.
    10030    2    1    2    0    0  0.00000000000E+00  0.00000000000E+00 -0.23747833764E+03  0.35236390618E+04  0.35156274372E+04 0.  0.
        4    1    3    3  502    0  0.81179222181E+03 -0.33380034807E+03  0.14077148111E+04  0.16589430026E+04  0.12699999809E+01 0. -1.
       -4    1    3    3    0  502 -0.81179222181E+03  0.33380034807E+03 -0.16451931487E+04  0.18646960592E+04  0.12699999809E+01 0.  1.
</event>
<event>
 5   0  0.3159875E-07  0.3625080E+04  0.7818609E-02  0.8084771E-01
        1   -1    0    0  501    0  0.00000000000E+00  0.00000000000E+00  0.12718683898E+04  0.12718683898E+04  0.50400001928E-02 0. -1.
       -1   -1    0    0    0  501  0.00000000000E+00  0.00000000000E+00 -0.25830509675E+04  0.25830509675E+04  0.50400001928E-02 0.  1.
    10030    2    1    2    0    0  0.00000000000E+00  0.00000000000E+00 -0.13111825778E+04  0.38549193573E+04  0.36250797921E+04 0.  0.
        5    1    3    3  502    0  0.29380015024E+03 -0.15520074154E+04 -0.16009037298E+04  0.22489909711E+04  0.46999998093E+01 0.  1.
       -5    1    3    3    0  502 -0.29380015024E+03  0.15520074154E+04  0.28972115207E+03  0.16059283862E+04  0.46999998093E+01 0. -1.
</event>
<event>
 5   0  0.1031659E-06  0.3755473E+04  0.7818609E-02  0.8055778E-01
       -2   -1    0    0    0  501  0.00000000000E+00  0.00000000000E+00  0.13516814054E+04  0.13516814054E+04  0.25500000920E-02 0. -1.
        2   -1    0    0  501    0  0.00000000000E+00  0.00000000000E+00 -0.26085246178E+04  0.26085246178E+04  0.25500000920E-02 0.  1.
    10030    2    1    2    0    0  0.00000000000E+00  0.00000000000E+00 -0.12568432124E+04  0.39602060232E+04  0.37554729244E+04 0.  0.
        2    1    3    3  502    0  0.10216252319E+04 -0.12440585076E+04  0.39097111465E+03  0.16565802417E+04  0.25500000920E-02 0. -1.
       -2    1    3    3    0  502 -0.10216252319E+04  0.12440585076E+04 -0.16478143270E+04  0.23036257815E+04  0.25500000920E-02 0.  1.
</event>
<event>
 5   0  0.1031659E-06  0.3600417E+04  0.7818609E-02  0.8090396E-01
        2   -1    0    0  501    0  0.00000000000E+00  0.00000000000E+00  0.21744033757E+04  0.21744033757E+04  0.25500000920E-02 0.  1.
       -2   -1    0    0    0  501  0.00000000000E+00  0.00000000000E+00 -0.14904095424E+04  0.14904095424E+04  0.25500000920E-02 0. -1.
    10030    2    1    2    0    0  0.00000000000E+00  0.00000000000E+00  0.68399383324E+03  0.36648129181E+04  0.36004174981E+04 0.  0.
        2    1    3    3  502    0 -0.41717216980E+03 -0.17345214944E+04  0.58746166944E+03  0.18782195417E+04  0.25500000920E-02 0.  1.
       -2    1    3    3    0  502  0.41717216980E+03  0.17345214944E+04  0.96532163802E+02  0.17865933764E+04  0.25500000920E-02 0. -1.
</event>
<event>
 5   0  0.3365378E-07  0.3582686E+04  0.7818609E-02  0.8094469E-01
        1   -1    0    0  501    0  0.00000000000E+00  0.00000000000E+00  0.19062432200E+04  0.19062432200E+04  0.50400001928E-02 0.  1.
       -1   -1    0    0    0  501  0.00000000000E+00  0.00000000000E+00 -0.16833685213E+04  0.16833685213E+04  0.50400001928E-02 0. -1.
    10030    2    1    2    0    0  0.00000000000E+00  0.00000000000E+00  0.22287469875E+03  0.35896117413E+04  0.35826860485E+04 0.  0.
        3    1    3    3  502    0 -0.55348875988E+03  0.45575056946E+03  0.17562109934E+04  0.18969278986E+04  0.10100000352E+00 0.  1.
       -3    1    3    3    0  502  0.55348875988E+03 -0.45575056946E+03 -0.15333362946E+04  0.16926838428E+04  0.10100000352E+00 0. -1.
</event>
<event>
 5   0  0.9878977E-07  0.3717205E+04  0.7818609E-02  0.8064160E-01
        2   -1    0    0  501    0  0.00000000000E+00  0.00000000000E+00  0.26222895622E+04  0.26222895622E+04  0.25500000920E-02 0.  1.
       -2   -1    0    0    0  501  0.00000000000E+00  0.00000000000E+00 -0.13173232383E+04  0.13173232384E+04  0.25500000920E-02 0. -1.
    10030    2    1    2    0    0  0.00000000000E+00  0.00000000000E+00  0.13049663238E+04  0.39396128005E+04  0.37172048520E+04 0.  0.
        5    1    3    3  502    0  0.12175420371E+04  0.45670688702E+03  0.20598631332E+04  0.24359901499E+04  0.46999998093E+01 0.  1.
       -5    1    3    3    0  502 -0.12175420371E+04 -0.45670688702E+03 -0.75489680940E+03  0.15036226506E+04  0.46999998093E+01 0. -1.
</event>
<event>
 5   0  0.3278988E-07  0.3646371E+04  0.7818609E-02  0.8079952E-01
        1   -1    0    0  501    0  0.00000000000E+00  0.00000000000E+00  0.23476617746E+04  0.23476617746E+04  0.50400001928E-02 0.  1.
       -1   -1    0    0    0  501  0.00000000000E+00  0.00000000000E+00 -0.14158791592E+04  0.14158791593E+04  0.50400001928E-02 0. -1.
    10030    2    1    2    0    0  0.00000000000E+00  0.00000000000E+00  0.93178261534E+03  0.37635409339E+04  0.36463710067E+04 0.  0.
        4    1    3    3  502    0  0.68021504629E+02  0.18176402568E+04  0.59464239114E+03  0.19136468364E+04  0.12699999809E+01 0.  1.
       -4    1    3    3    0  502 -0.68021504629E+02 -0.18176402568E+04  0.33714022421E+03  0.18498940975E+04  0.12699999809E+01 0. -1.
</event>
<event>
 5   0  0.1031659E-06  0.3233635E+04  0.7818609E-02  0.8179990E-01
        2   -1    0    0  501    0  0.00000000000E+00  0.00000000000E+00  0.21305294812E+04  0.21305294812E+04  0.25500000920E-02 0.  1.
       -2   -1    0    0    0  501  0.00000000000E+00  0.00000000000E+00 -0.12269715613E+04  0.12269715613E+04  0.25500000920E-02 0. -1.
    10030    2    1    2    0    0  0.00000000000E+00  0.00000000000E+00  0.90355791992E+03  0.33575010425E+04  0.32336351581E+04 0.  0.
        2    1    3    3  502    0 -0.63558446382E+03  0.96290950107E+03  0.16278343148E+04  0.19952460686E+04  0.25500000920E-02 0.  1.
       -2    1    3    3    0  502  0.63558446382E+03 -0.96290950107E+03 -0.72427639484E+03  0.13622549739E+04  0.25500000920E-02 0. -1.
</event>
<event>
 5   0  0.3159875E-07  0.3602982E+04  0.7818609E-02  0.8089809E-01
       -1   -1    0    0    0  501  0.00000000000E+00  0.00000000000E+00  0.17038121270E+04  0.17038121270E+04  0.50400001928E-02 0.  1.
        1   -1    0    0  501    0  0.00000000000E+00  0.00000000000E+00 -0.19047698933E+04  0.19047698933E+04  0.50400001928E-02 0. -1.
    10030    2    1    2    0    0  0.00000000000E+00  0.00000000000E+00 -0.20095776631E+03  0.36085820203E+04  0.36029821223E+04 0.  0.
        5    1    3    3  502    0 -0.61103428563E+03  0.56485483028E+02  0.15959052019E+04  0.17098213391E+04  0.46999998093E+01 0.  1.
       -5    1    3    3    0  502  0.61103428563E+03 -0.56485483028E+02 -0.17968629682E+04  0.18987606812E+04  0.46999998093E+01 0. -1.
</event>
<event>
 5   0  0.3159875E-07  0.2656185E+04  0.7818609E-02  0.8349363E-01
        3   -1    0    0  501    0  0.00000000000E+00  0.00000000000E+00  0.26107755537E+04  0.26107755556E+04  0.10100000352E+00 0.  1.
       -3   -1    0    0    0  501  0.00000000000E+00  0.00000000000E+00 -0.67559598678E+03  0.67559599433E+03  0.10100000352E+00 0. -1.
    10030    2    1    2    0    0  0.00000000000E+00  0.00000000000E+00  0.19351795669E+04  0.32863715500E+04  0.26561848596E+04 0.  0.
        1    1    3    3  502    0 -0.10141303548E+04  0.77054840332E+03  0.14332050684E+04  0.19173632901E+04  0.50400001928E-02 0. -1.
       -1    1    3    3    0  502  0.10141303548E+04 -0.77054840332E+03  0.50197449852E+03  0.13690082598E+04  0.50400001928E-02 0.  1.
</event>
<event>
 5   0  0.3159875E-07  0.3050255E+04  0.7818609E-02  0.8229524E-01
       -1   -1    0    0    0  501  0.00000000000E+00  0.00000000000E+00  0.89584886701E+03  0.89584886702E+03  0.50400001928E-02 0.  1.
        1   -1    0    0  501    0  0.00000000000E+00  0.00000000000E+00 -0.25964354601E+04  0.25964354601E+04  0.50400001928E-02 0. -1.
    10030    2    1    2    0    0  0.00000000000E+00  0.00000000000E+00 -0.17005865931E+04  0.34922843271E+04  0.30502549174E+04 0.  0.
        2    1    3    3  502    0 -0.10873334914E+04 -0.96315583080E+03 -0.13824641514E+04  0.20052856170E+04  0.25500000920E-02 0. -1.
       -2    1    3    3    0  502  0.10873334914E+04  0.96315583080E+03 -0.31812244170E+03  0.14869987101E+04  0.25500000920E-02 0.  1.
</event>
<event>
 5   0  0.3159875E-07  0.3669971E+04  0.7818609E-02  0.8074649E-01
        1   -1    0    0  501    0  0.00000000000E+00  0.00000000000E+00  0.19261010172E+04  0.19261010172E+04  0.50400001928E-02 0.  1.
       -1   -1    0    0    0  501  0.00000000000E+00  0.00000000000E+00 -0.17481799655E+04  0.17481799655E+04  0.50400001928E-02 0. -1.
    10030    2    1    2    0    0  0.00000000000E+00  0.00000000000E+00  0.17792105166E+03  0.36742809828E+04  0.36699706865E+04 0.  0.
        5    1    3    3  502    0 -0.55088034977E+03 -0.83492277891E+03  0.16291378451E+04  0.19117210609E+04  0.46999998093E+01 0.  1.
       -5    1    3    3    0  502  0.55088034977E+03  0.83492277891E+03 -0.14512167934E+04  0.17625599218E+04  0.46999998093E+01 0. -1.
</event>
<event>
 5   0  0.1031659E-06  0.3617918E+04  0.7818609E-02  0.8086400E-01
       -2   -1    0    0    0  501  0.00000000000E+00  0.00000000000E+00  0.14726098341E+04  0.14726098341E+04  0.25500000920E-02 0.  1.
        2   -1    0    0  501    0  0.00000000000E+00  0.00000000000E+00 -0.22221317717E+04  0.22221317717E+04  0.25500000920E-02 0. -1.
    10030    2    1    2    0    0  0.00000000000E+00  0.00000000000E+00 -0.74952193767E+03  0.36947416058E+04  0.36179182410E+04 0.  0.
        2    1    3    3  502    0  0.18005998314E+04 -0.12654923667E+03 -0.49627769308E+03  0.18720219045E+04  0.25500000920E-02 0. -1.
       -2    1    3    3    0  502 -0.18005998314E+04  0.12654923667E+03 -0.25324424459E+03  0.18227197013E+04  0.25500000920E-02 0.  1.
</event>
<event>
 5   0  0.1031659E-06  0.3708864E+04  0.7818609E-02  0.8066000E-01
       -2   -1    0    0    0  501  0.00000000000E+00  0.00000000000E+00  0.19803953279E+04  0.19803953279E+04  0.25500000920E-02 0.  1.
        2   -1    0    0  501    0  0.00000000000E+00  0.00000000000E+00 -0.17364802381E+04  0.17364802381E+04  0.25500000920E-02 0. -1.
    10030    2    1    2    0    0  0.00000000000E+00  0.00000000000E+00  0.24391508977E+03  0.37168755660E+04  0.37088636268E+04 0.  0.
        2    1    3    3  502    0  0.56079623617E+03  0.33542387267E+03  0.18611937503E+04  0.19725728805E+04  0.25500000920E-02 0.  1.
       -2    1    3    3    0  502 -0.56079623617E+03 -0.33542387267E+03 -0.16172786605E+04  0.17443026855E+04  0.25500000920E-02 0. -1.
</event>
<event>
 5   0  0.3278988E-07  0.3544688E+04  0.7818609E-02  0.8103280E-01
        1   -1    0    0  501    0  0.00000000000E+00  0.00000000000E+00  0.23163349297E+04  0.23163349298E+04  0.50400001928E-02 0.  1.
       -1   -1    0    0    0  501  0.00000000000E+00  0.00000000000E+00 -0.13561091038E+04  0.13561091038E+04  0.50400001928E-02 0. -1.
    10030    2    1    2    0    0  0.00000000000E+00  0.00000000000E+00  0.96022582600E+03  0.36724440335E+04  0.35446877919E+04 0.  0.
        4    1    3    3  502    0 -0.51408014365E+03  0.14191071140E+04  0.14426049762E+04  0.20878826896E+04  0.12699999809E+01 0.  1.
       -4    1    3    3    0  502  0.51408014365E+03 -0.14191071140E+04 -0.48237915022E+03  0.15845613439E+04  0.12699999809E+01 0. -1.
</event>
<event>
 5   0  0.9538919E-07  0.3296167E+04  0.7818609E-02  0.8163871E-01
        2   -1    0    0  501    0  0.00000000000E+00  0.00000000000E+00  0.13524396456E+04  0.13524396456E+04  0.25500000920E-02 0.  1.
       -2   -1    0    0    0  501  0.00000000000E+00  0.00000000000E+00 -0.20083551413E+04  0.20083551413E+04  0.25500000920E-02 0. -1.
    10030    2    1    2    0    0  0.00000000000E+00  0.00000000000E+00 -0.65591549568E+03  0.33607947869E+04  0.32961669349E+04 0.  0.
        4    1    3    3  502    0 -0.60932876337E+03  0.24353759024E+03  0.12134996389E+04  0.13795561193E+04  0.12699999809E+01 0.  1.
       -4    1    3    3    0  502  0.60932876337E+03 -0.24353759024E+03 -0.18694151346E+04  0.19812386676E+04  0.12699999809E+01 0. -1.
</event>
<event>
 5   0  0.3159875E-07  0.3027910E+04  0.7818609E-02  0.8235806E-01
       -3   -1    0    0    0  501  0.00000000000E+00  0.00000000000E+00  0.13982599746E+04  0.13982599782E+04  0.10100000352E+00 0. -1.
        3   -1    0    0  501    0  0.00000000000E+00  0.00000000000E+00 -0.16392230368E+04  0.16392230399E+04  0.10100000352E+00 0.  1.
    10030    2    1    2    0    0  0.00000000000E+00  0.00000000000E+00 -0.24096306222E+03  0.30374830181E+04  0.30279101519E+04 0.  0.
        4    1    3    3  502    0  0.66197160752E+02 -0.83662297159E+03 -0.13845201271E+04  0.16190174971E+04  0.12699999809E+01 0.  1.
       -4    1    3    3    0  502 -0.66197160752E+02  0.83662297159E+03  0.11435570649E+04  0.14184655210E+04  0.12699999809E+01 0. -1.
</event>
<event>
 5   0  0.3365378E-07  0.3584725E+04  0.7818609E-02  0.8093999E-01
       -1   -1    0    0    0  501  0.00000000000E+00  0.00000000000E+00  0.20366179590E+04  0.20366179591E+04  0.50400001928E-02 0. -1.
        1   -1    0    0  501    0  0.00000000000E+00  0.00000000000E+00 -0.15774014709E+04  0.15774014709E+04  0.50400001928E-02 0.  1.
    10030    2    1    2    0    0  0.00000000000E+00  0.00000000000E+00  0.45921648813E+03  0.36140194300E+04  0.35847254647E+04 0.  0.
        3    1    3    3  502    0 -0.57585063869E+03 -0.77192551162E+03  0.17536131012E+04  0.20006578599E+04  0.10100000352E+00 0. -1.
       -3    1    3    3    0  502  0.57585063869E+03  0.77192551162E+03 -0.12943966131E+04  0.16133615701E+04  0.10100000352E+00 0.  1.
</event>
<event>
 5   0  0.1031659E-06  0.3622321E+04  0.7818609E-02  0.8085398E-01
        2   -1    0    0  501    0  0.00000000000E+00  0.00000000000E+00  0.23798404048E+04  0.23798404048E+04  0.25500000920E-02 0. -1.
       -2   -1    0    0    0  501  0.00000000000E+00  0.00000000000E+00 -0.13783707561E+04  0.13783707561E+04  0.25500000920E-02 0.  1.
    10030    2    1    2    0    0  0.00000000000E+00  0.00000000000E+00  0.10014696488E+04  0.37582111609E+04  0.36223210339E+04 0.  0.
        2    1    3    3  502    0  0.10876029497E+04  0.61040192341E+02  0.20019781405E+04  0.22791495248E+04  0.25500000920E-02 0. -1.
       -2    1    3    3    0  502 -0.10876029497E+04 -0.61040192341E+02 -0.10005084918E+04  0.14790616361E+04  0.25500000920E-02 0.  1.
</event>
<event>
 5   0  0.3242047E-07  0.3037692E+04  0.7818609E-02  0.8233049E-01
       -1   -1    0    0    0  501  0.00000000000E+00  0.00000000000E+00  0.87121152468E+03  0.87121152470E+03  0.50400001928E-02 0. -1.
        1   -1    0    0  501    0  0.00000000000E+00  0.00000000000E+00 -0.26479141327E+04  0.26479141327E+04  0.50400001928E-02 0.  1.
    10030    2    1    2    0    0  0.00000000000E+00  0.00000000000E+00 -0.17767026080E+04  0.35191256574E+04  0.30376920902E+04 0.  0.
        1    1    3    3  502    0 -0.72504800719E+03  0.50271089535E+02  0.65668574840E+03  0.97951925318E+03  0.50400001928E-02 0. -1.
       -1    1    3    3    0  502  0.72504800719E+03 -0.50271089535E+02 -0.24333883564E+04  0.25396064042E+04  0.50400001928E-02 0.  1.
</event>
<event>
 5   0  0.1031659E-06  0.3614076E+04  0.7818609E-02  0.8087275E-01
        2   -1    0    0  501    0  0.00000000000E+00  0.00000000000E+00  0.17570026077E+04  0.17570026077E+04  0.25500000920E-02 0. -1.
       -2   -1    0    0    0  501  0.00000000000E+00  0.00000000000E+00 -0.18584979890E+04  0.18584979890E+04  0.25500000920E-02 0.  1.
    10030    2    1    2    0    0  0.00000000000E+00  0.00000000000E+00 -0.10149538128E+03  0.36155005967E+04  0.36140757121E+04 0.  0.
        2    1    3    3  502    0 -0.20090619337E+03 -0.20659273529E+03  0.17338676152E+04  0.17576520599E+04  0.25500000920E-02 0. -1.
       -2    1    3    3    0  502  0.20090619337E+03  0.20659273529E+03 -0.18353629965E+04  0.18578485368E+04  0.25500000920E-02 0.  1.
</event>
<event>
 5   0  0.1031659E-06  0.2853897E+04  0.7818609E-02  0.8286728E-01
       -2   -1    0    0    0  501  0.00000000000E+00  0.00000000000E+00  0.10482863561E+04  0.10482863561E+04  0.25500000920E-02 0.  1.
        2   -1    0    0  501    0  0.00000000000E+00  0.00000000000E+00 -0.19423905694E+04  0.19423905694E+04  0.25500000920E-02 0. -1.
    10030    2    1    2    0    0  0.00000000000E+00  0.00000000000E+00 -0.89410421330E+03  0.29906769256E+04  0.28538966570E+04 0.  0.
        2    1    3    3  502    0  0.13984639006E+03  0.10458330342E+04 -0.14537488115E+04  0.17963043604E+04  0.25500000920E-02 0. -1.
       -2    1    3    3    0  502 -0.13984639006E+03 -0.10458330342E+04  0.55964459816E+03  0.11943725652E+04  0.25500000920E-02 0.  1.
</event>
<event>
 5   0  0.3365378E-07  0.3627098E+04  0.7818609E-02  0.8084313E-01
       -1   -1    0    0    0  501  0.00000000000E+00  0.00000000000E+00  0.95646168496E+03  0.95646168497E+03  0.50400001928E-02 0.  1.
        1   -1    0    0  501    0  0.00000000000E+00  0.00000000000E+00 -0.34386747034E+04  0.34386747034E+04  0.50400001928E-02 0. -1.
    10030    2    1    2    0    0  0.00000000000E+00  0.00000000000E+00 -0.24822130184E+04  0.43951363883E+04  0.36270983449E+04 0.  0.
        3    1    3    3  502    0 -0.14045824240E+04 -0.64310370380E+03 -0.23922858576E+04  0.28477123791E+04  0.10100000352E+00 0.  1.
       -3    1    3    3    0  502  0.14045824240E+04  0.64310370380E+03 -0.89927160828E+02  0.15474240092E+04  0.10100000352E+00 0. -1.
</event>
<event>
 5   0  0.3242047E-07  0.3572707E+04  0.7818609E-02  0.8096772E-01
       -1   -1    0    0    0  501  0.00000000000E+00  0.00000000000E+00  0.17080506315E+04  0.17080506315E+04  0.50400001928E-02 0.  1.
        1   -1    0    0  501    0  0.00000000000E+00  0.00000000000E+00 -0.18682457664E+04  0.18682457664E+04  0.50400001928E-02 0. -1.
    10030    2    1    2    0    0  0.00000000000E+00  0.00000000000E+00 -0.16019513491E+03  0.35762963980E+04  0.35727067393E+04 0.  0.
        1    1    3    3  502    0  0.52299840154E+03 -0.12498116975E+04 -0.12455275264E+04  0.18403519843E+04  0.50400001928E-02 0. -1.
       -1    1    3    3    0  502 -0.52299840154E+03  0.12498116975E+04  0.10853323915E+04  0.17359444136E+04  0.50400001928E-02 0.  1.
</event>
<event>
 5   0  0.3365378E-07  0.3019826E+04  0.7818609E-02  0.8238092E-01
        1   -1    0    0  501    0  0.00000000000E+00  0.00000000000E+00  0.16618389575E+04  0.16618389575E+04  0.50400001928E-02 0. -1.
       -1   -1    0    0    0  501  0.00000000000E+00  0.00000000000E+00 -0.13718759376E+04  0.13718759376E+04  0.50400001928E-02 0.  1.
    10030    2    1    2    0    0  0.00000000000E+00  0.00000000000E+00  0.28996301982E+03  0.30337148951E+04  0.30198257420E+04 0.  0.
        3    1    3    3  502    0 -0.11217020190E+04 -0.71276398260E+03  0.86492882785E+03  0.15856701428E+04  0.10100000352E+00 0. -1.
       -3    1    3    3    0  502  0.11217020190E+04  0.71276398260E+03 -0.57496580803E+03  0.14480447524E+04  0.10100000352E+00 0.  1.
</event>
<event>
 5   0  0.3159875E-07  0.3556606E+04  0.7818609E-02  0.8100505E-01
        3   -1    0    0  501    0  0.00000000000E+00  0.00000000000E+00  0.21374585310E+04  0.21374585334E+04  0.10100000352E+00 0. -1.
       -3   -1    0    0    0  501  0.00000000000E+00  0.00000000000E+00 -0.14794961340E+04  0.14794961375E+04  0.10100000352E+00 0.  1.
    10030    2    1    2    0    0  0.00000000000E+00  0.00000000000E+00  0.65796239701E+03  0.36169546709E+04  0.35566060473E+04 0.  0.
        5    1    3    3  502    0  0.12717306731E+04  0.79272378075E+03  0.13026343089E+04  0.19855951577E+04  0.46999998093E+01 0. -1.
       -5    1    3    3    0  502 -0.12717306731E+04 -0.79272378075E+03 -0.64467191185E+03  0.16313595132E+04  0.46999998093E+01 0.  1.
</event>
<event>
 5   0  0.3278988E-07  0.3457776E+04  0.7818609E-02  0.8123870E-01
        1   -1    0    0  501    0  0.00000000000E+00  0.00000000000E+00  0.25118144114E+04  0.25118144114E+04  0.50400001928E-02 0. -1.
       -1   -1    0    0    0  501  0.00000000000E+00  0.00000000000E+00 -0.11899977892E+04  0.11899977892E+04  0.50400001928E-02 0.  1.
    10030    2    1    2    0    0  0.00000000000E+00  0.00000000000E+00  0.13218166222E+04  0.37018122006E+04  0.34577759305E+04 0.  0.
        4    1    3    3  502    0 -0.13364628467E+03  0.13094816369E+03  0.25009427819E+04  0.25079324477E+04  0.12699999809E+01 0. -1.
       -4    1    3    3    0  502  0.13364628467E+03 -0.13094816369E+03 -0.11791261597E+04  0.11938797529E+04  0.12699999809E+01 0.  1.
</event>
<event>
 5   0  0.3278988E-07  0.3581861E+04  0.7818609E-02  0.8094659E-01
        1   -1    0    0  501    0  0.00000000000E+00  0.00000000000E+00  0.18391099671E+04  0.18391099671E+04  0.50400001928E-02 0. -1.
       -1   -1    0    0    0  501  0.00000000000E+00  0.00000000000E+00 -0.17440136572E+04  0.17440136572E+04  0.50400001928E-02 0.  1.
    10030    2    1    2    0    0  0.00000000000E+00  0.00000000000E+00  0.95096309917E+02  0.35831236243E+04  0.35818614712E+04 0.  0.
        4    1    3    3  502    0 -0.87672993051E+03 -0.13340795438E+04 -0.76453078346E+03  0.17700091898E+04  0.12699999809E+01 0.  1.
       -4    1    3    3    0  502  0.87672993051E+03  0.13340795438E+04  0.85962709337E+03  0.18131144345E+04  0.12699999809E+01 0. -1.
</event>
<event>
 5   0  0.1006019E-06  0.3545745E+04  0.7818609E-02  0.8103034E-01
       -2   -1    0    0    0  501  0.00000000000E+00  0.00000000000E+00  0.18456579882E+04  0.18456579882E+04  0.25500000920E-02 0. -1.
        2   -1    0    0  501    0  0.00000000000E+00  0.00000000000E+00 -0.17029571984E+04  0.17029571984E+04  0.25500000920E-02 0.  1.
    10030    2    1    2    0    0  0.00000000000E+00  0.00000000000E+00  0.14270078980E+03  0.35486151867E+04  0.35457448058E+04 0.  0.
        1    1    3    3  502    0  0.93229353195E+03 -0.53203783798E+03 -0.13407635011E+04  0.17175221270E+04  0.50400001928E-02 0.  1.
       -1    1    3    3    0  502 -0.93229353195E+03  0.53203783798E+03  0.14834642909E+04  0.18310930597E+04  0.50400001928E-02 0. -1.
</event>
<event>
 5   0  0.9878336E-07  0.3627900E+04  0.7818609E-02  0.8084131E-01
       -2   -1    0    0    0  501  0.00000000000E+00  0.00000000000E+00  0.11571474669E+04  0.11571474669E+04  0.25500000920E-02 0. -1.
        2   -1    0    0  501    0  0.00000000000E+00  0.00000000000E+00 -0.28435570610E+04  0.28435570610E+04  0.25500000920E-02 0.  1.
    10030    2    1    2    0    0  0.00000000000E+00  0.00000000000E+00 -0.16864095940E+04  0.40007045279E+04  0.36279001365E+04 0.  0.
        3    1    3    3  502    0  0.11778970426E+04 -0.68343693511E+03  0.47821661252E+03  0.14433359366E+04  0.10100000352E+00 0. -1.
       -3    1    3    3    0  502 -0.11778970426E+04  0.68343693511E+03 -0.21646262066E+04  0.25573685913E+04  0.10100000352E+00 0.  1.
</event>
<event>
 5   0  0.3159875E-07  0.3485042E+04  0.7818609E-02  0.8117344E-01
        3   -1    0    0  501    0  0.00000000000E+00  0.00000000000E+00  0.12870492041E+04  0.12870492081E+04  0.10100000352E+00 0. -1.
       -3   -1    0    0    0  501  0.00000000000E+00  0.00000000000E+00 -0.23591796474E+04  0.23591796496E+04  0.10100000352E+00 0.  1.
    10030    2    1    2    0    0  0.00000000000E+00  0.00000000000E+00 -0.10721304433E+04  0.36462288577E+04  0.34850424954E+04 0.  0.
        1    1    3    3  502    0 -0.57294593362E+03 -0.44719986089E+03 -0.21930193336E+04  0.23103221758E+04  0.50400001928E-02 0.  1.
       -1    1    3    3    0  502  0.57294593362E+03  0.44719986089E+03  0.11208888903E+04  0.13359066819E+04  0.50400001928E-02 0. -1.
</event>
<event>
 5   0  0.1031659E-06  0.3657675E+04  0.7818609E-02  0.8077407E-01
        2   -1    0    0  501    0  0.00000000000E+00  0.00000000000E+00  0.25507441074E+04  0.25507441074E+04  0.25500000920E-02 0. -1.
       -2   -1    0    0    0  501  0.00000000000E+00  0.00000000000E+00 -0.13112434804E+04  0.13112434804E+04  0.25500000920E-02 0.  1.
    10030    2    1    2    0    0  0.00000000000E+00  0.00000000000E+00  0.12395006269E+04  0.38619875878E+04  0.36576749889E+04 0.  0.
        2    1    3    3  502    0  0.17344773924E+04 -0.40071630989E+03  0.10622812919E+04  0.20730236199E+04  0.25500000920E-02 0.  1.
       -2    1    3    3    0  502 -0.17344773924E+04  0.40071630989E+03  0.17721933504E+03  0.17889639679E+04  0.25500000920E-02 0. -1.
</event>
<event>
 5   0  0.9538919E-07  0.3512164E+04  0.7818609E-02  0.8110913E-01
        2   -1    0    0  501    0  0.00000000000E+00  0.00000000000E+00  0.24038484977E+04  0.24038484977E+04  0.25500000920E-02 0.  1.
       -2   -1    0    0    0  501  0.00000000000E+00  0.00000000000E+00 -0.12828693568E+04  0.12828693568E+04  0.25500000920E-02 0. -1.
    10030    2    1    2    0    0  0.00000000000E+00  0.00000000000E+00  0.11209791409E+04  0.36867178545E+04  0.35121637639E+04 0.  0.
        4    1    3    3  502    0 -0.30339194720E+03 -0.58636828322E+03 -0.11476361477E+04  0.13239882090E+04  0.12699999809E+01 0. -1.
       -4    1    3    3    0  502  0.30339194720E+03  0.58636828322E+03  0.22686152886E+04  0.23627296455E+04  0.12699999809E+01 0.  1.
</event>
<event>
 5   0  0.3278988E-07  0.3609775E+04  0.7818609E-02  0.8088256E-01
       -1   -1    0    0    0  501  0.00000000000E+00  0.00000000000E+00  0.12267193061E+04  0.12267193061E+04  0.50400001928E-02 0.  1.
        1   -1    0    0  501    0  0.00000000000E+00  0.00000000000E+00 -0.26555538331E+04  0.26555538331E+04  0.50400001928E-02 0. -1.
    10030    2    1    2    0    0  0.00000000000E+00  0.00000000000E+00 -0.14288345270E+04  0.38822731392E+04  0.36097751484E+04 0.  0.
        4    1    3    3  502    0  0.42854731375E+02 -0.67208097830E+03 -0.25153677348E+04  0.26039596433E+04  0.12699999809E+01 0. -1.
       -4    1    3    3    0  502 -0.42854731375E+02  0.67208097830E+03  0.10865332078E+04  0.12783134959E+04  0.12699999809E+01 0.  1.
</event>
<event>
 5   0  0.9878977E-07  0.3480295E+04  0.7818609E-02  0.8118476E-01
        2   -1    0    0  501    0  0.00000000000E+00  0.00000000000E+00  0.20801948618E+04  0.20801948618E+04  0.25500000920E-02 0. -1.
       -2   -1    0    0    0  501  0.00000000000E+00  0.00000000000E+00 -0.14556870426E+04  0.14556870426E+04  0.25500000920E-02 0.  1.
    10030    2    1    2    0    0  0.00000000000E+00  0.00000000000E+00  0.62450781920E+03  0.35358819044E+04  0.34802946464E+04 0.  0.
        5    1    3    3  502    0 -0.92551745597E+03  0.13693455178E+03  0.18029161186E+04  0.20312218622E+04  0.46999998093E+01 0. -1.
       -5    1    3    3    0  502  0.92551745597E+03 -0.13693455178E+03 -0.11784082994E+04  0.15046600423E+04  0.46999998093E+01 0.  1.
</event>
<event>
 5   0  0.9878336E-07  0.3544390E+04  0.7818609E-02  0.8103350E-01
       -2   -1    0    0    0  501  0.00000000000E+00  0.00000000000E+00  0.16538483022E+04  0.16538483022E+04  0.25500000920E-02 0. -1.
        2   -1    0    0  501    0  0.00000000000E+00  0.00000000000E+00 -0.18990101326E+04  0.18990101326E+04  0.25500000920E-02 0.  1.
    10030    2    1    2    0    0  0.00000000000E+00  0.00000000000E+00 -0.24516183045E+03  0.35528584348E+04  0.35443897549E+04 0.  0.
        3    1    3    3  502    0  0.20453860685E+03 -0.95396539265E+03 -0.16055713360E+04  0.18787616499E+04  0.10100000352E+00 0.  1.
       -3    1    3    3    0  502 -0.20453860685E+03  0.95396539265E+03  0.13604095056E+04  0.16740967849E+04  0.10100000352E+00 0. -1.
</event>
<event>
 5   0  0.3278988E-07  0.2694997E+04  0.7818609E-02  0.8336630E-01
        1   -1    0    0  501    0  0.00000000000E+00  0.00000000000E+00  0.11420175911E+04  0.11420175912E+04  0.50400001928E-02 0.  1.
       -1   -1    0    0    0  501  0.00000000000E+00  0.00000000000E+00 -0.15899506583E+04  0.15899506583E+04  0.50400001928E-02 0. -1.
    10030    2    1    2    0    0  0.00000000000E+00  0.00000000000E+00 -0.44793306714E+03  0.27319682495E+04  0.26949965646E+04 0.  0.
        4    1    3    3  502    0 -0.12870729910E+04  0.23767084659E+03 -0.54884033431E+03  0.14192503799E+04  0.12699999809E+01 0. -1.
       -4    1    3    3    0  502  0.12870729910E+04 -0.23767084659E+03  0.10090726717E+03  0.13127178695E+04  0.12699999809E+01 0.  1.
</event>
<event>
 5   0  0.3365378E-07  0.3577442E+04  0.7818609E-02  0.8095678E-01
        1   -1    0    0  501    0  0.00000000000E+00  0.00000000000E+00  0.20176497326E+04  0.20176497326E+04  0.50400001928E-02 0.  1.
       -1   -1    0    0    0  501  0.00000000000E+00  0.00000000000E+00 -0.15857676391E+04  0.15857676391E+04  0.50400001928E-02 0. -1.
    10030    2    1    2    0    0  0.00000000000E+00  0.00000000000E+00  0.43188209357E+03  0.36034173717E+04  0.35774424680E+04 0.  0.
        3    1    3    3  502    0 -0.46435244570E+03  0.58111794726E+02  0.19548954018E+04  0.20101284080E+04  0.10100000352E+00 0.  1.
       -3    1    3    3    0  502  0.46435244570E+03 -0.58111794726E+02 -0.15230133082E+04  0.15932889637E+04  0.10100000352E+00 0. -1.
</event>
<event>
 5   0  0.9538919E-07  0.3546271E+04  0.7818609E-02  0.8102911E-01
       -2   -1    0    0    0  501  0.00000000000E+00  0.00000000000E+00  0.15936655893E+04  0.15936655893E+04  0.25500000920E-02 0. -1.
        2   -1    0    0  501    0  0.00000000000E+00  0.00000000000E+00 -0.19728160097E+04  0.19728160097E+04  0.25500000920E-02 0.  1.
    10030    2    1    2    0    0  0.00000000000E+00  0.00000000000E+00 -0.37915042044E+03  0.35664815990E+04  0.35462707109E+04 0.  0.
        4    1    3    3  502    0  0.13244359154E+04  0.10836429683E+04 -0.65654334120E+03  0.18328838885E+04  0.12699999809E+01 0.  1.
       -4    1    3    3    0  502 -0.13244359154E+04 -0.10836429683E+04  0.27739292076E+03  0.17335977106E+04  0.12699999809E+01 0. -1.
</event>
<event>
 5   0  0.9878336E-07  0.3464375E+04  0.7818609E-02  0.8122285E-01
       -2   -1    0    0    0  501  0.00000000000E+00  0.00000000000E+00  0.26660045485E+04  0.26660045485E+04  0.25500000920E-02 0. -1.
        2   -1    0    0  501    0  0.00000000000E+00  0.00000000000E+00 -0.11254570798E+04  0.11254570798E+04  0.25500000920E-02 0.  1.
    10030    2    1    2    0    0  0.00000000000E+00  0.00000000000E+00  0.15405474687E+04  0.37914616283E+04  0.34643750916E+04 0.  0.
        3    1    3    3  502    0  0.16130757229E+04  0.52475361650E+03  0.11542463629E+04  0.20517466515E+04  0.10100000352E+00 0. -1.
       -3    1    3    3    0  502 -0.16130757229E+04 -0.52475361650E+03  0.38630110579E+03  0.17397149767E+04  0.10100000352E+00 0.  1.
</event>
<event>
 5   0  0.1031659E-06  0.3611530E+04  0.7818609E-02  0.8087856E-01
        2   -1    0    0  501    0  0.00000000000E+00  0.00000000000E+00  0.17785359773E+04  0.17785359773E+04  0.25500000920E-02 0. -1.
       -2   -1    0    0    0  501  0.00000000000E+00  0.00000000000E+00 -0.18334110017E+04  0.18334110017E+04  0.25500000920E-02 0.  1.
    10030    2    1    2    0    0  0.00000000000E+00  0.00000000000E+00 -0.54875024423E+02  0.36119469790E+04  0.36115301066E+04 0.  0.
        2    1    3    3  502    0  0.30837007110E+03  0.17785920639E+04  0.20584664357E+02  0.18052439057E+04  0.25500000920E-02 0.  1.
       -2    1    3    3    0  502 -0.30837007110E+03 -0.17785920639E+04 -0.75459688780E+02  0.18067030733E+04  0.25500000920E-02 0. -1.
</event>
<event>
 5   0  0.1031659E-06  0.3565451E+04  0.7818609E-02  0.8098452E-01
        2   -1    0    0  501    0  0.00000000000E+00  0.00000000000E+00  0.15447628992E+04  0.15447628992E+04  0.25500000920E-02 0. -1.
       -2   -1    0    0    0  501  0.00000000000E+00  0.00000000000E+00 -0.20573451141E+04  0.20573451141E+04  0.25500000920E-02 0.  1.
    10030    2    1    2    0    0  0.00000000000E+00  0.00000000000E+00 -0.51258221496E+03  0.36021080133E+04  0.35654511092E+04 0.  0.
        2    1    3    3  502    0  0.19383776122E+03 -0.16704726712E+04 -0.85403133595E+03  0.18861128136E+04  0.25500000920E-02 0.  1.
       -2    1    3    3    0  502 -0.19383776122E+03  0.16704726712E+04  0.34144912100E+03  0.17159951996E+04  0.25500000920E-02 0. -1.
</event>
<event>
 5   0  0.9538919E-07  0.3575805E+04  0.7818609E-02  0.8096056E-01
       -2   -1    0    0    0  501  0.00000000000E+00  0.00000000000E+00  0.14539123350E+04  0.14539123350E+04  0.25500000920E-02 0. -1.
        2   -1    0    0  501    0  0.00000000000E+00  0.00000000000E+00 -0.21986166097E+04  0.21986166097E+04  0.25500000920E-02 0.  1.
    10030    2    1    2    0    0  0.00000000000E+00  0.00000000000E+00 -0.74470427475E+03  0.36525289447E+04  0.35758052569E+04 0.  0.
        4    1    3    3  502    0  0.10414013007E+04 -0.63499374485E+03 -0.17076344910E+04  0.20985115898E+04  0.12699999809E+01 0.  1.
       -4    1    3    3    0  502 -0.10414013007E+04  0.63499374485E+03  0.96293021621E+03  0.15540173549E+04  0.12699999809E+01 0. -1.
</event>
<event>
 5   0  0.9878977E-07  0.3531858E+04  0.7818609E-02  0.8106281E-01
       -2   -1    0    0    0  501  0.00000000000E+00  0.00000000000E+00  0.14730687589E+04  0.14730687589E+04  0.25500000920E-02 0.  1.
        2   -1    0    0  501    0  0.00000000000E+00  0.00000000000E+00 -0.21170125507E+04  0.21170125507E+04  0.25500000920E-02 0. -1.
    10030    2    1    2    0    0  0.00000000000E+00  0.00000000000E+00 -0.64394379182E+03  0.35900813095E+04  0.35318578966E+04 0.  0.
        5    1    3    3  502    0  0.61951203763E+03  0.42661595089E+03  0.13020796707E+04  0.15037386385E+04  0.46999998093E+01 0.  1.
       -5    1    3    3    0  502 -0.61951203763E+03 -0.42661595089E+03 -0.19460234625E+04  0.20863426710E+04  0.46999998093E+01 0. -1.
</event>
<event>
 5   0  0.9878977E-07  0.3600529E+04  0.7818609E-02  0.8090371E-01
       -2   -1    0    0    0  501  0.00000000000E+00  0.00000000000E+00  0.19723552402E+04  0.19723552402E+04  0.25500000920E-02 0. -1.
        2   -1    0    0  501    0  0.00000000000E+00  0.00000000000E+00 -0.16431887871E+04  0.16431887871E+04  0.25500000920E-02 0.  1.
    10030    2    1    2    0    0  0.00000000000E+00  0.00000000000E+00  0.32916645304E+03  0.36155440273E+04  0.36005288583E+04 0.  0.
        5    1    3    3  502    0  0.12809012908E+04 -0.45453315180E+03 -0.10208572854E+04  0.16998471078E+04  0.46999998093E+01 0.  1.
       -5    1    3    3    0  502 -0.12809012908E+04  0.45453315180E+03  0.13500237384E+04  0.19156969195E+04  0.46999998093E+01 0. -1.
</event>
<event>
 5   0  0.9878336E-07  0.3628610E+04  0.7818609E-02  0.8083969E-01
        2   -1    0    0  501    0  0.00000000000E+00  0.00000000000E+00  0.15085907869E+04  0.15085907869E+04  0.25500000920E-02 0. -1.
       -2   -1    0    0    0  501  0.00000000000E+00  0.00000000000E+00 -0.21819721480E+04  0.21819721480E+04  0.25500000920E-02 0.  1.
    10030    2    1    2    0    0  0.00000000000E+00  0.00000000000E+00 -0.67338136113E+03  0.36905629348E+04  0.36286102462E+04 0.  0.
        3    1    3    3  502    0 -0.80435827567E+03 -0.10589533083E+04 -0.15919952476E+04  0.20743247632E+04  0.10100000352E+00 0.  1.
       -3    1    3    3    0  502  0.80435827567E+03  0.10589533083E+04  0.91861388648E+03  0.16162381716E+04  0.10100000352E+00 0. -1.
</event>
<event>
 5   0  0.3242047E-07  0.2771932E+04  0.7818609E-02  0.8312036E-01
       -1   -1    0    0    0  501  0.00000000000E+00  0.00000000000E+00  0.15291701312E+04  0.15291701312E+04  0.50400001928E-02 0. -1.
        1   -1    0    0  501    0  0.00000000000E+00  0.00000000000E+00 -0.12561722415E+04  0.12561722416E+04  0.50400001928E-02 0.  1.
    10030    2    1    2    0    0  0.00000000000E+00  0.00000000000E+00  0.27299788965E+03  0.27853423727E+04  0.27719315081E+04 0.  0.
        1    1    3    3  502    0 -0.43968313586E+03 -0.40071276074E+03  0.13943576205E+04  0.15159568432E+04  0.50400001928E-02 0. -1.
       -1    1    3    3    0  502  0.43968313586E+03  0.40071276074E+03 -0.11213597309E+04  0.12693855295E+04  0.50400001928E-02 0.  1.
</event>
<event>
 5   0  0.3242047E-07  0.3610308E+04  0.7818609E-02  0.8088135E-01
        1   -1    0    0  501    0  0.00000000000E+00  0.00000000000E+00  0.14070936193E+04  0.14070936193E+04  0.50400001928E-02 0.  1.
       -1   -1    0    0    0  501  0.00000000000E+00  0.00000000000E+00 -0.23158236035E+04  0.23158236035E+04  0.50400001928E-02 0. -1.
    10030    2    1    2    0    0  0.00000000000E+00  0.00000000000E+00 -0.90872998424E+03  0.37229172228E+04  0.36103078074E+04 0.  0.
        1    1    3    3  502    0  0.14720939175E+04 -0.36455257821E+03 -0.14639961373E+04  0.21079003236E+04  0.50400001928E-02 0. -1.
       -1    1    3    3    0  502 -0.14720939175E+04  0.36455257821E+03  0.55526615303E+03  0.16150168993E+04  0.50400001928E-02 0.  1.
</event>
<event>
 5   0  0.1031659E-06  0.3553811E+04  0.7818609E-02  0.8101154E-01
        2   -1    0    0  501    0  0.00000000000E+00  0.00000000000E+00  0.31195472913E+04  0.31195472913E+04  0.25500000920E-02 0.  1.
       -2   -1    0    0    0  501  0.00000000000E+00  0.00000000000E+00 -0.10121320445E+04  0.10121320445E+04  0.25500000920E-02 0. -1.
    10030    2    1    2    0    0  0.00000000000E+00  0.00000000000E+00  0.21074152469E+04  0.41316793358E+04  0.35538113500E+04 0.  0.
        2    1    3    3  502    0  0.65044143345E+03  0.10758305014E+04 -0.40623395912E+03  0.13211780181E+04  0.25500000920E-02 0. -1.
       -2    1    3    3    0  502 -0.65044143345E+03 -0.10758305014E+04  0.25136492060E+04  0.28105013177E+04  0.25500000920E-02 0.  1.
</event>
<event>
 5   0  0.9538919E-07  0.3597925E+04  0.7818609E-02  0.8090967E-01
       -2   -1    0    0    0  501  0.00000000000E+00  0.00000000000E+00  0.18072522162E+04  0.18072522162E+04  0.25500000920E-02 0. -1.
        2   -1    0    0  501    0  0.00000000000E+00  0.00000000000E+00 -0.17907106354E+04  0.17907106354E+04  0.25500000920E-02 0.  1.
    10030    2    1    2    0    0  0.00000000000E+00  0.00000000000E+00  0.16541580849E+02  0.35979628516E+04  0.35979248265E+04 0.  0.
        4    1    3    3  502    0  0.69771484320E+03 -0.23191279881E+03  0.16501391110E+04  0.18065298910E+04  0.12699999809E+01 0. -1.
       -4    1    3    3    0  502 -0.69771484320E+03  0.23191279881E+03 -0.16335975302E+04  0.17914329605E+04  0.12699999809E+01 0.  1.
</event>
<event>
 5   0  0.3159875E-07  0.3110390E+04  0.7818609E-02  0.8212892E-01
        1   -1    0    0  501    0  0.00000000000E+00  0.00000000000E+00  0.22438140154E+04  0.22438140154E+04  0.50400001928E-02 0.  1.
       -1   -1    0    0    0  501  0.00000000000E+00  0.00000000000E+00 -0.10779107379E+04  0.10779107379E+04  0.50400001928E-02 0. -1.
    10030    2    1    2    0    0  0.00000000000E+00  0.00000000000E+00  0.11659032775E+04  0.33217247534E+04  0.31103898284E+04 0.  0.
        5    1    3    3  502    0  0.14177276344E+04 -0.62114306182E+03  0.42155841560E+03  0.16042144297E+04  0.46999998093E+01 0. -1.
       -5    1    3    3    0  502 -0.14177276344E+04  0.62114306182E+03  0.74434486192E+03  0.17175103237E+04  0.46999998093E+01 0.  1.
</event>
<event>
 5   0  0.1006019E-06  0.3569244E+04  0.7818609E-02  0.8097573E-01
        2   -1    0    0  501    0  0.00000000000E+00  0.00000000000E+00  0.26580993461E+04  0.26580993461E+04  0.25500000920E-02 0. -1.
       -2   -1    0    0    0  501  0.00000000000E+00  0.00000000000E+00 -0.11981777218E+04  0.11981777218E+04  0.25500000920E-02 0.  1.
    10030    2    1    2    0    0  0.00000000000E+00  0.00000000000E+00  0.14599216243E+04  0.38562770679E+04  0.35692438520E+04 0.  0.
        1    1    3    3  502    0  0.14805495971E+04  0.64778508532E+02 -0.34430992586E+03  0.15214377048E+04  0.50400001928E-02 0.  1.
       -1    1    3    3    0  502 -0.14805495971E+04 -0.64778508532E+02  0.18042315502E+04  0.23348393630E+04  0.50400001928E-02 0. -1.
</event>
<event>
 5   0  0.3159875E-07  0.3555728E+04  0.7818609E-02  0.8100709E-01
        1   -1    0    0  501    0  0.00000000000E+00  0.00000000000E+00  0.13212945422E+04  0.13212945422E+04  0.50400001928E-02 0. -1.
       -1   -1    0    0    0  501  0.00000000000E+00  0.00000000000E+00 -0.23921993498E+04  0.23921993498E+04  0.50400001928E-02 0.  1.
    10030    2    1    2    0    0  0.00000000000E+00  0.00000000000E+00 -0.10709048076E+04  0.37134938921E+04  0.35557277426E+04 0.  0.
        5    1    3    3  502    0 -0.10102274754E+04  0.32775939172E+03  0.95356815524E+03  0.14273402144E+04  0.46999998093E+01 0. -1.
       -5    1    3    3    0  502  0.10102274754E+04 -0.32775939172E+03 -0.20244729628E+04  0.22861536777E+04  0.46999998093E+01 0.  1.
</event>
<event>
 5   0  0.3278988E-07  0.3501938E+04  0.7818609E-02  0.8113331E-01
       -1   -1    0    0    0  501  0.00000000000E+00  0.00000000000E+00  0.14978079066E+04  0.14978079066E+04  0.50400001928E-02 0.  1.
        1   -1    0    0  501    0  0.00000000000E+00  0.00000000000E+00 -0.20469198643E+04  0.20469198643E+04  0.50400001928E-02 0. -1.
    10030    2    1    2    0    0  0.00000000000E+00  0.00000000000E+00 -0.54911195770E+03  0.35447277710E+04  0.35019381817E+04 0.  0.
        4    1    3    3  502    0 -0.28179968976E+03  0.28362492570E+03  0.14509838203E+04  0.15050614018E+04  0.12699999809E+01 0.  1.
       -4    1    3    3    0  502  0.28179968976E+03 -0.28362492570E+03 -0.20000957780E+04  0.20396663692E+04  0.12699999809E+01 0. -1.
</event>
<event>
 5   0  0.3242047E-07  0.3620969E+04  0.7818609E-02  0.8085705E-01
        1   -1    0    0  501    0  0.00000000000E+00  0.00000000000E+00  0.14240255379E+04  0.14240255379E+04  0.50400001928E-02 0.  1.
       -1   -1    0    0    0  501  0.00000000000E+00  0.00000000000E+00 -0.23018219560E+04  0.23018219560E+04  0.50400001928E-02 0. -1.
    10030    2    1    2    0    0  0.00000000000E+00  0.00000000000E+00 -0.87779641813E+03  0.37258474939E+04  0.36209685163E+04 0.  0.
        1    1    3    3  502    0 -0.59401635514E+03  0.11582181902E+04  0.85593330214E+03  0.15578660481E+04  0.50400001928E-02 0.  1.
       -1    1    3    3    0  502  0.59401635514E+03 -0.11582181902E+04 -0.17337297203E+04  0.21679814458E+04  0.50400001928E-02 0. -1.
</event>
<event>
 5   0  0.3242047E-07  0.3636524E+04  0.7818609E-02  0.8082176E-01
        1   -1    0    0  501    0  0.00000000000E+00  0.00000000000E+00  0.13198675025E+04  0.13198675025E+04  0.50400001928E-02 0. -1.
       -1   -1    0    0    0  501  0.00000000000E+00  0.00000000000E+00 -0.25048556765E+04  0.25048556765E+04  0.50400001928E-02 0.  1.
    10030    2    1    2    0    0  0.00000000000E+00  0.00000000000E+00 -0.11849881740E+04  0.38247231791E+04  0.36365244979E+04 0.  0.
        1    1    3    3  502    0  0.72215699854E+03  0.51959633590E+03 -0.22603048879E+04  0.24290881559E+04  0.50400001928E-02 0.  1.
       -1    1    3    3    0  502 -0.72215699854E+03 -0.51959633590E+03  0.10753167139E+04  0.13956350232E+04  0.50400001928E-02 0. -1.
</event>
<event>
 5   0  0.3242047E-07  0.3580662E+04  0.7818609E-02  0.8094936E-01
        1   -1    0    0  501    0  0.00000000000E+00  0.00000000000E+00  0.31720769209E+04  0.31720769209E+04  0.50400001928E-02 0.  1.
       -1   -1    0    0    0  501  0.00000000000E+00  0.00000000000E+00 -0.10104689716E+04  0.10104689716E+04  0.50400001928E-02 0. -1.
    10030    2    1    2    0    0  0.00000000000E+00  0.00000000000E+00  0.21616079493E+04  0.41825458924E+04  0.35806621198E+04 0.  0.
        1    1    3    3  502    0 -0.11155966941E+04 -0.91312223796E+03 -0.15921180306E+03  0.14504125633E+04  0.50400001928E-02 0. -1.
       -1    1    3    3    0  502  0.11155966941E+04  0.91312223796E+03  0.23208197524E+04  0.27321333292E+04  0.50400001928E-02 0.  1.
</event>
<event>
 5   0  0.3159875E-07  0.3570870E+04  0.7818609E-02  0.8097197E-01
        1   -1    0    0  501    0  0.00000000000E+00  0.00000000000E+00  0.31313270478E+04  0.31313270479E+04  0.50400001928E-02 0. -1.
       -1   -1    0    0    0  501  0.00000000000E+00  0.00000000000E+00 -0.10180277486E+04  0.10180277486E+04  0.50400001928E-02 0.  1.
    10030    2    1    2    0    0  0.00000000000E+00  0.00000000000E+00  0.21132992993E+04  0.41493547964E+04  0.35708698238E+04 0.  0.
        2    1    3    3  502    0 -0.69556808667E+03  0.21853771512E+03  0.29504634493E+04  0.30392117830E+04  0.25500000920E-02 0. -1.
       -2    1    3    3    0  502  0.69556808667E+03 -0.21853771512E+03 -0.83716415005E+03  0.11101430134E+04  0.25500000920E-02 0.  1.
</event>
<event>
 5   0  0.3159875E-07  0.3364121E+04  0.7818609E-02  0.8146769E-01
       -1   -1    0    0    0  501  0.00000000000E+00  0.00000000000E+00  0.17870546822E+04  0.17870546822E+04  0.50400001928E-02 0.  1.
        1   -1    0    0  501    0  0.00000000000E+00  0.00000000000E+00 -0.15832352223E+04  0.15832352223E+04  0.50400001928E-02 0. -1.
    10030    2    1    2    0    0  0.00000000000E+00  0.00000000000E+00  0.20381945985E+03  0.33702899045E+04  0.33641212327E+04 0.  0.
        5    1    3    3  502    0 -0.42441474479E+03  0.27738881876E+03 -0.15048495155E+04  0.15879756253E+04  0.46999998093E+01 0. -1.
       -5    1    3    3    0  502  0.42441474479E+03 -0.27738881876E+03  0.17086689754E+04  0.17823142792E+04  0.46999998093E+01 0.  1.
</event>
<event>
 5   0  0.9878336E-07  0.3977969E+04  0.7818609E-02  0.8009006E-01
        2   -1    0    0  501    0  0.00000000000E+00  0.00000000000E+00  0.14675589128E+04  0.14675589128E+04  0.25500000920E-02 0.  1.
       -2   -1    0    0    0  501  0.00000000000E+00  0.00000000000E+00 -0.26956726206E+04  0.26956726206E+04  0.25500000920E-02 0. -1.
    10030    2    1    2    0    0  0.00000000000E+00  0.00000000000E+00 -0.12281137079E+04  0.41632315334E+04  0.39779685169E+04 0.  0.
        3    1    3    3  502    0  0.82017277991E+03 -0.15779581140E+04 -0.15462838227E+04  0.23566138565E+04  0.10100000352E+00 0.  1.
       -3    1    3    3    0  502 -0.82017277991E+03  0.15779581140E+04  0.31817011480E+03  0.18066176769E+04  0.10100000352E+00 0. -1.
</event>
<event>
 5   0  0.3365378E-07  0.3602787E+04  0.7818609E-02  0.8089854E-01
        1   -1    0    0  501    0  0.00000000000E+00  0.00000000000E+00  0.24127758008E+04  0.24127758008E+04  0.50400001928E-02 0.  1.
       -1   -1    0    0    0  501  0.00000000000E+00  0.00000000000E+00 -0.13449317096E+04  0.13449317097E+04  0.50400001928E-02 0. -1.
    10030    2    1    2    0    0  0.00000000000E+00  0.00000000000E+00  0.10678440912E+04  0.37577075105E+04  0.36027870783E+04 0.  0.
        3    1    3    3  502    0 -0.87683285640E+03  0.15513526815E+04  0.25898183709E+03  0.18007228001E+04  0.10100000352E+00 0. -1.
       -3    1    3    3    0  502  0.87683285640E+03 -0.15513526815E+04  0.80886225409E+03  0.19569847104E+04  0.10100000352E+00 0.  1.
</event>
<event>
 5   0  0.3159875E-07  0.3591775E+04  0.7818609E-02  0.8092378E-01
       -1   -1    0    0    0  501  0.00000000000E+00  0.00000000000E+00  0.15811258861E+04  0.15811258861E+04  0.50400001928E-02 0. -1.
        1   -1    0    0  501    0  0.00000000000E+00  0.00000000000E+00 -0.20398198668E+04  0.20398198668E+04  0.50400001928E-02 0.  1.
    10030    2    1    2    0    0  0.00000000000E+00  0.00000000000E+00 -0.45869398074E+03  0.36209457529E+04  0.35917750455E+04 0.  0.
        2    1    3    3  502    0  0.14812716106E+04 -0.98520705418E+03  0.18440730538E+02  0.17790836362E+04  0.25500000920E-02 0. -1.
       -2    1    3    3    0  502 -0.14812716106E+04  0.98520705418E+03 -0.47713471128E+03  0.18418621167E+04  0.25500000920E-02 0.  1.
</event>
<event>
 5   0  0.9878977E-07  0.3622690E+04  0.7818609E-02  0.8085314E-01
        2   -1    0    0  501    0  0.00000000000E+00  0.00000000000E+00  0.21153745167E+04  0.21153745167E+04  0.25500000920E-02 0. -1.
       -2   -1    0    0    0  501  0.00000000000E+00  0.00000000000E+00 -0.15510114229E+04  0.15510114229E+04  0.25500000920E-02 0.  1.
    10030    2    1    2    0    0  0.00000000000E+00  0.00000000000E+00  0.56436309377E+03  0.36663859396E+04  0.36226896301E+04 0.  0.
        5    1    3    3  502    0  0.23029759830E+02 -0.17534943252E+04  0.74116607629E+03  0.19038439960E+04  0.46999998093E+01 0.  1.
       -5    1    3    3    0  502 -0.23029759830E+02  0.17534943252E+04 -0.17680298252E+03  0.17625419436E+04  0.46999998093E+01 0. -1.
</event>
<event>
 5   0  0.9878336E-07  0.2851057E+04  0.7818609E-02  0.8287590E-01
       -2   -1    0    0    0  501  0.00000000000E+00  0.00000000000E+00  0.17784961293E+04  0.17784961293E+04  0.25500000920E-02 0.  1.
        2   -1    0    0  501    0  0.00000000000E+00  0.00000000000E+00 -0.11426122100E+04  0.11426122100E+04  0.25500000920E-02 0. -1.
    10030    2    1    2    0    0  0.00000000000E+00  0.00000000000E+00  0.63588391931E+03  0.29211083393E+04  0.28510569218E+04 0.  0.
        3    1    3    3  502    0  0.22757901211E+03  0.11397452349E+04  0.11636439204E+04  0.16446515104E+04  0.10100000352E+00 0.  1.
       -3    1    3    3    0  502 -0.22757901211E+03 -0.11397452349E+04 -0.52776000104E+03  0.12764568289E+04  0.10100000352E+00 0. -1.
</event>
<event>
 5   0  0.3242047E-07  0.3618862E+04  0.7818609E-02  0.8086185E-01
        1   -1    0    0  501    0  0.00000000000E+00  0.00000000000E+00  0.26645936075E+04  0.26645936075E+04  0.50400001928E-02 0. -1.
       -1   -1    0    0    0  501  0.00000000000E+00  0.00000000000E+00 -0.12287201736E+04  0.12287201737E+04  0.50400001928E-02 0.  1.
    10030    2    1    2    0    0  0.00000000000E+00  0.00000000000E+00  0.14358734338E+04  0.38933137811E+04  0.36188616553E+04 0.  0.
        1    1    3    3  502    0  0.82065613272E+03 -0.16117450334E+04  0.66058954182E+03  0.19255069679E+04  0.50400001928E-02 0. -1.
       -1    1    3    3    0  502 -0.82065613272E+03  0.16117450334E+04  0.77528389202E+03  0.19678068132E+04  0.50400001928E-02 0.  1.
</event>
<event>
 5   0  0.9538919E-07  0.3544028E+04  0.7818609E-02  0.8103435E-01
        2   -1    0    0  501    0  0.00000000000E+00  0.00000000000E+00  0.20643111551E+04  0.20643111551E+04  0.25500000920E-02 0.  1.
       -2   -1    0    0    0  501  0.00000000000E+00  0.00000000000E+00 -0.15211044659E+04  0.15211044659E+04  0.25500000920E-02 0. -1.
    10030    2    1    2    0    0  0.00000000000E+00  0.00000000000E+00  0.54320668921E+03  0.35854156211E+04  0.35440276055E+04 0.  0.
        4    1    3    3  502    0 -0.15037966184E+04  0.84642157835E+03  0.67904417709E+03  0.18544369402E+04  0.12699999809E+01 0.  1.
       -4    1    3    3    0  502  0.15037966184E+04 -0.84642157835E+03 -0.13583748788E+03  0.17309786809E+04  0.12699999809E+01 0. -1.
</event>
<event>
 5   0  0.1006019E-06  0.2958671E+04  0.7818609E-02  0.8255632E-01
        2   -1    0    0  501    0  0.00000000000E+00  0.00000000000E+00  0.14466120047E+04  0.14466120047E+04  0.25500000920E-02 0.  1.
       -2   -1    0    0    0  501  0.00000000000E+00  0.00000000000E+00 -0.15127995406E+04  0.15127995406E+04  0.25500000920E-02 0. -1.
    10030    2    1    2    0    0  0.00000000000E+00  0.00000000000E+00 -0.66187535903E+02  0.29594115452E+04  0.29586713072E+04 0.  0.
        1    1    3    3  502    0  0.72324442107E+03 -0.10344686583E+04 -0.80479575588E+03  0.14969649649E+04  0.50400001928E-02 0. -1.
       -1    1    3    3    0  502 -0.72324442107E+03  0.10344686583E+04  0.73860821998E+03  0.14624465803E+04  0.50400001928E-02 0.  1.
</event>
<event>
 5   0  0.9878336E-07  0.3592373E+04  0.7818609E-02  0.8092241E-01
        2   -1    0    0  501    0  0.00000000000E+00  0.00000000000E+00  0.24230319660E+04  0.24230319660E+04  0.25500000920E-02 0.  1.
       -2   -1    0    0    0  501  0.00000000000E+00  0.00000000000E+00 -0.13315075883E+04  0.13315075883E+04  0.25500000920E-02 0. -1.
    10030    2    1    2    0    0  0.00000000000E+00  0.00000000000E+00  0.10915243777E+04  0.37545395543E+04  0.35923727253E+04 0.  0.
        3    1    3    3  502    0  0.11794504030E+04 -0.13490537323E+04  0.41675502784E+03  0.18397646559E+04  0.10100000352E+00 0.  1.
       -3    1    3    3    0  502 -0.11794504030E+04  0.13490537323E+04  0.67476934983E+03  0.19147748984E+04  0.10100000352E+00 0. -1.
</event>
<event>
 5   0  0.3159875E-07  0.3593884E+04  0.7818609E-02  0.8091894E-01
       -1   -1    0    0    0  501  0.00000000000E+00  0.00000000000E+00  0.22116724768E+04  0.22116724768E+04  0.50400001928E-02 0. -1.
        1   -1    0    0  501    0  0.00000000000E+00  0.00000000000E+00 -0.14599812471E+04  0.14599812471E+04  0.50400001928E-02 0.  1.
    10030    2    1    2    0    0  0.00000000000E+00  0.00000000000E+00  0.75169122975E+03  0.36716537239E+04  0.35938838829E+04 0.  0.
        5    1    3    3  502    0 -0.59989036325E+03  0.16936680625E+04  0.35085619689E+03  0.18307108222E+04  0.46999998093E+01 0. -1.
       -5    1    3    3    0  502  0.59989036325E+03 -0.16936680625E+04  0.40083503286E+03  0.18409429017E+04  0.46999998093E+01 0.  1.
</event>
<event>
 5   0  0.3159875E-07  0.3584580E+04  0.7818609E-02  0.8094033E-01
       -1   -1    0    0    0  501  0.00000000000E+00  0.00000000000E+00  0.24209863922E+04  0.24209863922E+04  0.50400001928E-02 0. -1.
        1   -1    0    0  501    0  0.00000000000E+00  0.00000000000E+00 -0.13268574243E+04  0.13268574244E+04  0.50400001928E-02 0.  1.
    10030    2    1    2    0    0  0.00000000000E+00  0.00000000000E+00  0.10941289678E+04  0.37478438165E+04  0.35845801811E+04 0.  0.
        2    1    3    3  502    0 -0.20256560511E+03 -0.16297080311E+04  0.12976199849E+04  0.20930357657E+04  0.25500000920E-02 0. -1.
       -2    1    3    3    0  502  0.20256560511E+03  0.16297080311E+04 -0.20349101712E+03  0.16548080508E+04  0.25500000920E-02 0.  1.
</event>
<event>
 5   0  0.3365378E-07  0.3592029E+04  0.7818609E-02  0.8092320E-01
       -1   -1    0    0    0  501  0.00000000000E+00  0.00000000000E+00  0.16151227164E+04  0.16151227164E+04  0.50400001928E-02 0. -1.
        1   -1    0    0  501    0  0.00000000000E+00  0.00000000000E+00 -0.19971655681E+04  0.19971655681E+04  0.50400001928E-02 0.  1.
    10030    2    1    2    0    0  0.00000000000E+00  0.00000000000E+00 -0.38204285177E+03  0.36122882845E+04  0.35920286622E+04 0.  0.
        3    1    3    3  502    0  0.42773450720E+03  0.15266873959E+04 -0.10395435367E+04  0.18958855420E+04  0.10100000352E+00 0. -1.
       -3    1    3    3    0  502 -0.42773450720E+03 -0.15266873959E+04  0.65750068496E+03  0.17164027425E+04  0.10100000352E+00 0.  1.
</event>
<event>
 5   0  0.1031659E-06  0.3560669E+04  0.7818609E-02  0.8099561E-01
       -2   -1    0    0    0  501  0.00000000000E+00  0.00000000000E+00  0.19912876957E+04  0.19912876957E+04  0.25500000920E-02 0.  1.
        2   -1    0    0  501    0  0.00000000000E+00  0.00000000000E+00 -0.15917292380E+04  0.15917292380E+04  0.25500000920E-02 0. -1.
    10030    2    1    2    0    0  0.00000000000E+00  0.00000000000E+00  0.39955845767E+03  0.35830169337E+04  0.35606689521E+04 0.  0.
        2    1    3    3  502    0  0.99731876801E+03 -0.14676928517E+04  0.54568934585E+02  0.17753154088E+04  0.25500000920E-02 0. -1.
       -2    1    3    3    0  502 -0.99731876801E+03  0.14676928517E+04  0.34498952309E+03  0.18077015249E+04  0.25500000920E-02 0.  1.
</event>
<event>
 5   0  0.9538919E-07  0.3274884E+04  0.7818609E-02  0.8169316E-01
       -2   -1    0    0    0  501  0.00000000000E+00  0.00000000000E+00  0.12689519883E+04  0.12689519883E+04  0.25500000920E-02 0. -1.
        2   -1    0    0  501    0  0.00000000000E+00  0.00000000000E+00 -0.21129376869E+04  0.21129376869E+04  0.25500000920E-02 0.  1.
    10030    2    1    2    0    0  0.00000000000E+00  0.00000000000E+00 -0.84398569866E+03  0.33818896752E+04  0.32748841072E+04 0.  0.
        4    1    3    3  502    0  0.79113012301E+03  0.16378210047E+03  0.10487995339E+04  0.13238933201E+04  0.12699999809E+01 0. -1.
       -4    1    3    3    0  502 -0.79113012301E+03 -0.16378210047E+03 -0.18927852325E+04  0.20579963550E+04  0.12699999809E+01 0.  1.
</event>
<event>
 5   0  0.3159875E-07  0.3607659E+04  0.7818609E-02  0.8088740E-01
       -1   -1    0    0    0  501  0.00000000000E+00  0.00000000000E+00  0.15320996873E+04  0.15320996873E+04  0.50400001928E-02 0.  1.
        1   -1    0    0  501    0  0.00000000000E+00  0.00000000000E+00 -0.21237529472E+04  0.21237529472E+04  0.50400001928E-02 0. -1.
    10030    2    1    2    0    0  0.00000000000E+00  0.00000000000E+00 -0.59165325985E+03  0.36558526345E+04  0.36076592003E+04 0.  0.
        2    1    3    3  502    0 -0.81437946031E+03  0.79700919900E+03 -0.17128497815E+04  0.20572534950E+04  0.25500000920E-02 0. -1.
       -2    1    3    3    0  502  0.81437946031E+03 -0.79700919900E+03  0.11211965217E+04  0.15985991395E+04  0.25500000920E-02 0.  1.
</event>
<event>
 5   0  0.3159875E-07  0.3615614E+04  0.7818609E-02  0.8086925E-01
        1   -1    0    0  501    0  0.00000000000E+00  0.00000000000E+00  0.16468561754E+04  0.16468561755E+04  0.50400001928E-02 0. -1.
       -1   -1    0    0    0  501  0.00000000000E+00  0.00000000000E+00 -0.19844875526E+04  0.19844875526E+04  0.50400001928E-02 0.  1.
    10030    2    1    2    0    0  0.00000000000E+00  0.00000000000E+00 -0.33763137720E+03  0.36313437281E+04  0.36156136858E+04 0.  0.
        5    1    3    3  502    0 -0.11386717991E+04 -0.12250501933E+04 -0.85796564705E+03  0.18797469467E+04  0.46999998093E+01 0.  1.
       -5    1    3    3    0  502  0.11386717991E+04  0.12250501933E+04  0.52033426985E+03  0.17515967814E+04  0.46999998093E+01 0. -1.
</event>
<event>
 5   0  0.3159875E-07  0.3645445E+04  0.7818609E-02  0.8080161E-01
       -1   -1    0    0    0  501  0.00000000000E+00  0.00000000000E+00  0.15468674728E+04  0.15468674728E+04  0.50400001928E-02 0. -1.
        1   -1    0    0  501    0  0.00000000000E+00  0.00000000000E+00 -0.21477712668E+04  0.21477712668E+04  0.50400001928E-02 0.  1.
    10030    2    1    2    0    0  0.00000000000E+00  0.00000000000E+00 -0.60090379408E+03  0.36946387396E+04  0.36454451095E+04 0.  0.
        2    1    3    3  502    0  0.15412209579E+04  0.62471690233E+03 -0.10566331187E+04  0.19703062698E+04  0.25500000920E-02 0.  1.
       -2    1    3    3    0  502 -0.15412209579E+04 -0.62471690233E+03  0.45572932459E+03  0.17243324698E+04  0.25500000920E-02 0. -1.
</event>
<event>
 5   0  0.1031659E-06  0.3447630E+04  0.7818609E-02  0.8126314E-01
       -2   -1    0    0    0  501  0.00000000000E+00  0.00000000000E+00  0.21731387055E+04  0.21731387055E+04  0.25500000920E-02 0.  1.
        2   -1    0    0  501    0  0.00000000000E+00  0.00000000000E+00 -0.13673943289E+04  0.13673943289E+04  0.25500000920E-02 0. -1.
    10030    2    1    2    0    0  0.00000000000E+00  0.00000000000E+00  0.80574437656E+03  0.35405330344E+04  0.34476296448E+04 0.  0.
        2    1    3    3  502    0 -0.65052372208E+03 -0.12961930355E+04  0.13597752638E+04  0.19880357809E+04  0.25500000920E-02 0.  1.
       -2    1    3    3    0  502  0.65052372208E+03  0.12961930355E+04 -0.55403088724E+03  0.15524972535E+04  0.25500000920E-02 0. -1.
</event>
<event>
 5   0  0.9878336E-07  0.3824706E+04  0.7818609E-02  0.8040874E-01
        2   -1    0    0  501    0  0.00000000000E+00  0.00000000000E+00  0.29968070192E+04  0.29968070192E+04  0.25500000920E-02 0. -1.
       -2   -1    0    0    0  501  0.00000000000E+00  0.00000000000E+00 -0.12203302766E+04  0.12203302766E+04  0.25500000920E-02 0.  1.
    10030    2    1    2    0    0  0.00000000000E+00  0.00000000000E+00  0.17764767426E+04  0.42171372958E+04  0.38247061789E+04 0.  0.
        3    1    3    3  502    0  0.20540415690E+03  0.86298531336E+03  0.27562204373E+04  0.28954594848E+04  0.10100000352E+00 0. -1.
       -3    1    3    3    0  502 -0.20540415690E+03 -0.86298531336E+03 -0.97974369469E+03  0.13216778111E+04  0.10100000352E+00 0.  1.
</event>
<event>
 5   0  0.1031659E-06  0.3546908E+04  0.7818609E-02  0.8102762E-01
        2   -1    0    0  501    0  0.00000000000E+00  0.00000000000E+00  0.12271689431E+04  0.12271689431E+04  0.25500000920E-02 0. -1.
       -2   -1    0    0    0  501  0.00000000000E+00  0.00000000000E+00 -0.25629225153E+04  0.25629225153E+04  0.25500000920E-02 0.  1.
    10030    2    1    2    0    0  0.00000000000E+00  0.00000000000E+00 -0.13357535722E+04  0.37900914585E+04  0.35469079009E+04 0.  0.
        2    1    3    3  502    0 -0.46125598292E+03 -0.68014857669E+03 -0.23471791167E+04  0.24868874068E+04  0.25500000920E-02 0.  1.
       -2    1    3    3    0  502  0.46125598292E+03  0.68014857669E+03  0.10114255445E+04  0.13032040517E+04  0.25500000920E-02 0. -1.
</event>
<event>
 5   0  0.3365378E-07  0.3578295E+04  0.7818609E-02  0.8095482E-01
        1   -1    0    0  501    0  0.00000000000E+00  0.00000000000E+00  0.21118446494E+04  0.21118446494E+04  0.50400001928E-02 0.  1.
       -1   -1    0    0    0  501  0.00000000000E+00  0.00000000000E+00 -0.15157595210E+04  0.15157595210E+04  0.50400001928E-02 0. -1.
    10030    2    1    2    0    0  0.00000000000E+00  0.00000000000E+00  0.59608512846E+03  0.36276041704E+04  0.35782949203E+04 0.  0.
        3    1    3    3  502    0 -0.11890351048E+04 -0.74082121595E+03  0.14262245324E+04  0.19991840789E+04  0.10100000352E+00 0.  1.
       -3    1    3    3    0  502  0.11890351048E+04  0.74082121595E+03 -0.83013940391E+03  0.16284200915E+04  0.10100000352E+00 0. -1.
</event>
<event>
 5   0  0.3159875E-07  0.2867914E+04  0.7818609E-02  0.8282489E-01
        1   -1    0    0  501    0  0.00000000000E+00  0.00000000000E+00  0.12135809073E+04  0.12135809073E+04  0.50400001928E-02 0.  1.
       -1   -1    0    0    0  501  0.00000000000E+00  0.00000000000E+00 -0.16943509904E+04  0.16943509904E+04  0.50400001928E-02 0. -1.
    10030    2    1    2    0    0  0.00000000000E+00  0.00000000000E+00 -0.48077008309E+03  0.29079318977E+04  0.28679135358E+04 0.  0.
        5    1    3    3  502    0  0.14127076018E+04 -0.13269610281E+03 -0.45029772472E+03  0.14886709357E+04  0.46999998093E+01 0. -1.
       -5    1    3    3    0  502 -0.14127076018E+04  0.13269610281E+03 -0.30472358367E+02  0.14192609620E+04  0.46999998093E+01 0.  1.
</event>
<event>
 5   0  0.9878977E-07  0.3602939E+04  0.7818609E-02  0.8089819E-01
       -2   -1    0    0    0  501  0.00000000000E+00  0.00000000000E+00  0.14305245758E+04  0.14305245758E+04  0.25500000920E-02 0. -1.
        2   -1    0    0  501    0  0.00000000000E+00  0.00000000000E+00 -0.22686033536E+04  0.22686033536E+04  0.25500000920E-02 0.  1.
    10030    2    1    2    0    0  0.00000000000E+00  0.00000000000E+00 -0.83807877781E+03  0.36991279294E+04  0.36029392723E+04 0.  0.
        5    1    3    3  502    0  0.10927901477E+04 -0.14299978870E+04 -0.33828525104E+03  0.18312682122E+04  0.46999998093E+01 0. -1.
       -5    1    3    3    0  502 -0.10927901477E+04  0.14299978870E+04 -0.49979352677E+03  0.18678597172E+04  0.46999998093E+01 0.  1.
</event>
<event>
 5   0  0.3159875E-07  0.3580326E+04  0.7818609E-02  0.8095013E-01
        1   -1    0    0  501    0  0.00000000000E+00  0.00000000000E+00  0.23752793778E+04  0.23752793778E+04  0.50400001928E-02 0. -1.
       -1   -1    0    0    0  501  0.00000000000E+00  0.00000000000E+00 -0.13491819836E+04  0.13491819836E+04  0.50400001928E-02 0.  1.
    10030    2    1    2    0    0  0.00000000000E+00  0.00000000000E+00  0.10260973942E+04  0.37244613614E+04  0.35803263217E+04 0.  0.
        5    1    3    3  502    0  0.78929772240E+03  0.91084219718E+03  0.18899809696E+04  0.22415785863E+04  0.46999998093E+01 0. -1.
       -5    1    3    3    0  502 -0.78929772240E+03 -0.91084219718E+03 -0.86388357544E+03  0.14828827751E+04  0.46999998093E+01 0.  1.
</event>
<event>
 5   0  0.3159875E-07  0.3598978E+04  0.7818609E-02  0.8090726E-01
       -1   -1    0    0    0  501  0.00000000000E+00  0.00000000000E+00  0.28580765065E+04  0.28580765065E+04  0.50400001928E-02 0. -1.
        1   -1    0    0  501    0  0.00000000000E+00  0.00000000000E+00 -0.11329861991E+04  0.11329861991E+04  0.50400001928E-02 0.  1.
    10030    2    1    2    0    0  0.00000000000E+00  0.00000000000E+00  0.17250903074E+04  0.39910627056E+04  0.35989783205E+04 0.  0.
        2    1    3    3  502    0 -0.37189894879E+03 -0.46051838907E+03  0.27470229016E+04  0.28100748810E+04  0.25500000920E-02 0. -1.
       -2    1    3    3    0  502  0.37189894879E+03  0.46051838907E+03 -0.10219325942E+04  0.11809878246E+04  0.25500000920E-02 0.  1.
</event>
<event>
 5   0  0.9878977E-07  0.3609279E+04  0.7818609E-02  0.8088370E-01
        2   -1    0    0  501    0  0.00000000000E+00  0.00000000000E+00  0.25995247209E+04  0.25995247209E+04  0.25500000920E-02 0. -1.
       -2   -1    0    0    0  501  0.00000000000E+00  0.00000000000E+00 -0.12528148920E+04  0.12528148920E+04  0.25500000920E-02 0.  1.
    10030    2    1    2    0    0  0.00000000000E+00  0.00000000000E+00  0.13467098289E+04  0.38523396128E+04  0.36092787547E+04 0.  0.
        5    1    3    3  502    0 -0.12628457204E+04  0.11637599479E+04  0.12653068970E+04  0.21331057553E+04  0.46999998093E+01 0. -1.
       -5    1    3    3    0  502  0.12628457204E+04 -0.11637599479E+04  0.81402931959E+02  0.17192338576E+04  0.46999998093E+01 0.  1.
</event>
<event>
 5   0  0.3242047E-07  0.3589789E+04  0.7818609E-02  0.8092835E-01
       -1   -1    0    0    0  501  0.00000000000E+00  0.00000000000E+00  0.13085968598E+04  0.13085968598E+04  0.50400001928E-02 0.  1.
        1   -1    0    0  501    0  0.00000000000E+00  0.00000000000E+00 -0.24619093912E+04  0.24619093913E+04  0.50400001928E-02 0. -1.
    10030    2    1    2    0    0  0.00000000000E+00  0.00000000000E+00 -0.11533125314E+04  0.37705062511E+04  0.35897893523E+04 0.  0.
        1    1    3    3  502    0  0.14553902484E+04  0.76884188358E+03  0.17517748598E+03  0.16552841957E+04  0.50400001928E-02 0.  1.
       -1    1    3    3    0  502 -0.14553902484E+04 -0.76884188358E+03 -0.13284900174E+04  0.21152220553E+04  0.50400001928E-02 0. -1.
</event>
<event>
 5   0  0.9878336E-07  0.3609171E+04  0.7818609E-02  0.8088394E-01
       -2   -1    0    0    0  501  0.00000000000E+00  0.00000000000E+00  0.16945107404E+04  0.16945107404E+04  0.25500000920E-02 0. -1.
        2   -1    0    0  501    0  0.00000000000E+00  0.00000000000E+00 -0.19218109663E+04  0.19218109663E+04  0.25500000920E-02 0.  1.
    10030    2    1    2    0    0  0.00000000000E+00  0.00000000000E+00 -0.22730022591E+03  0.36163217067E+04  0.36091712752E+04 0.  0.
        3    1    3    3  502    0  0.10313734896E+04  0.14446922772E+04 -0.43935143292E+03  0.18286324788E+04  0.10100000352E+00 0.  1.
       -3    1    3    3    0  502 -0.10313734896E+04 -0.14446922772E+04  0.21205120702E+03  0.17876892278E+04  0.10100000352E+00 0. -1.
</event>
<event>
 5   0  0.1006019E-06  0.3563861E+04  0.7818609E-02  0.8098820E-01
       -2   -1    0    0    0  501  0.00000000000E+00  0.00000000000E+00  0.14744549236E+04  0.14744549236E+04  0.25500000920E-02 0.  1.
        2   -1    0    0  501    0  0.00000000000E+00  0.00000000000E+00 -0.21535253937E+04  0.21535253937E+04  0.25500000920E-02 0. -1.
    10030    2    1    2    0    0  0.00000000000E+00  0.00000000000E+00 -0.67907047011E+03  0.36279803173E+04  0.35638608950E+04 0.  0.
        1    1    3    3  502    0 -0.12542329215E+04 -0.11190009200E+04  0.26272774086E+03  0.17012610459E+04  0.50400001928E-02 0.  1.
       -1    1    3    3    0  502  0.12542329215E+04  0.11190009200E+04 -0.94179821098E+03  0.19267192714E+04  0.50400001928E-02 0. -1.
</event>
<event>
 5   0  0.9878336E-07  0.3530480E+04  0.7818609E-02  0.8106604E-01
       -2   -1    0    0    0  501  0.00000000000E+00  0.00000000000E+00  0.18307452662E+04  0.18307452662E+04  0.25500000920E-02 0.  1.
        2   -1    0    0  501    0  0.00000000000E+00  0.00000000000E+00 -0.17020786812E+04  0.17020786812E+04  0.25500000920E-02 0. -1.
    10030    2    1    2    0    0  0.00000000000E+00  0.00000000000E+00  0.12866658499E+03  0.35328239475E+04  0.35304801308E+04 0.  0.
        3    1    3    3  502    0  0.67393790848E+03  0.12709875445E+04 -0.95931740955E+03  0.17291302858E+04  0.10100000352E+00 0. -1.
       -3    1    3    3    0  502 -0.67393790848E+03 -0.12709875445E+04  0.10879839945E+04  0.18036936617E+04  0.10100000352E+00 0.  1.
</event>
<event>
 5   0  0.3159875E-07  0.3651801E+04  0.7818609E-02  0.8078728E-01
       -1   -1    0    0    0  501  0.00000000000E+00  0.00000000000E+00  0.22163594533E+04  0.22163594533E+04  0.50400001928E-02 0. -1.
        1   -1    0    0  501    0  0.00000000000E+00  0.00000000000E+00 -0.15042292919E+04  0.15042292919E+04  0.50400001928E-02 0.  1.
    10030    2    1    2    0    0  0.00000000000E+00  0.00000000000E+00  0.71213016136E+03  0.37205887452E+04  0.36518010959E+04 0.  0.
        2    1    3    3  502    0 -0.56776522868E+03 -0.99499245601E+02  0.21212286938E+04  0.21981511836E+04  0.25500000920E-02 0. -1.
       -2    1    3    3    0  502  0.56776522868E+03  0.99499245601E+02 -0.14090985324E+04  0.15224375616E+04  0.25500000920E-02 0.  1.
</event>
<event>
 5   0  0.9538919E-07  0.3033639E+04  0.7818609E-02  0.8234190E-01
        2   -1    0    0  501    0  0.00000000000E+00  0.00000000000E+00  0.10456966542E+04  0.10456966542E+04  0.25500000920E-02 0. -1.
       -2   -1    0    0    0  501  0.00000000000E+00  0.00000000000E+00 -0.22001998234E+04  0.22001998235E+04  0.25500000920E-02 0.  1.
    10030    2    1    2    0    0  0.00000000000E+00  0.00000000000E+00 -0.11545031692E+04  0.32458964777E+04  0.30336391308E+04 0.  0.
        4    1    3    3  502    0 -0.99803794613E+03 -0.11137896398E+04 -0.30628788690E+03  0.15265716446E+04  0.12699999809E+01 0. -1.
       -4    1    3    3    0  502  0.99803794613E+03  0.11137896398E+04 -0.84821528232E+03  0.17193248331E+04  0.12699999809E+01 0.  1.
</event>
<event>
 5   0  0.3159875E-07  0.3412979E+04  0.7818609E-02  0.8134728E-01
       -1   -1    0    0    0  501  0.00000000000E+00  0.00000000000E+00  0.22101698330E+04  0.22101698330E+04  0.50400001928E-02 0. -1.
        1   -1    0    0  501    0  0.00000000000E+00  0.00000000000E+00 -0.13175938961E+04  0.13175938961E+04  0.50400001928E-02 0.  1.
    10030    2    1    2    0    0  0.00000000000E+00  0.00000000000E+00  0.89257593689E+03  0.35277637291E+04  0.34129789225E+04 0.  0.
        5    1    3    3  502    0 -0.68136567242E+03 -0.13895202593E+04 -0.29696338545E+03  0.15758283767E+04  0.46999998093E+01 0. -1.
       -5    1    3    3    0  502  0.68136567242E+03  0.13895202593E+04  0.11895393223E+04  0.19519353524E+04  0.46999998093E+01 0.  1.
</event>
<event>
 5   0  0.3159875E-07  0.3609854E+04  0.7818609E-02  0.8088238E-01
        1   -1    0    0  501    0  0.00000000000E+00  0.00000000000E+00  0.21676299733E+04  0.21676299733E+04  0.50400001928E-02 0.  1.
       -1   -1    0    0    0  501  0.00000000000E+00  0.00000000000E+00 -0.15029144079E+04  0.15029144079E+04  0.50400001928E-02 0. -1.
    10030    2    1    2    0    0  0.00000000000E+00  0.00000000000E+00  0.66471556543E+03  0.36705443812E+04  0.36098544668E+04 0.  0.
        2    1    3    3  502    0  0.80809226107E+03  0.94632101687E+01 -0.13086713021E+04  0.15380907748E+04  0.25500000920E-02 0. -1.
       -2    1    3    3    0  502 -0.80809226107E+03 -0.94632101687E+01  0.19733868675E+04  0.21324536064E+04  0.25500000920E-02 0.  1.
</event>
<event>
 5   0  0.3159875E-07  0.3585281E+04  0.7818609E-02  0.8093872E-01
        1   -1    0    0  501    0  0.00000000000E+00  0.00000000000E+00  0.18523746025E+04  0.18523746025E+04  0.50400001928E-02 0.  1.
       -1   -1    0    0    0  501  0.00000000000E+00  0.00000000000E+00 -0.17348328268E+04  0.17348328269E+04  0.50400001928E-02 0. -1.
    10030    2    1    2    0    0  0.00000000000E+00  0.00000000000E+00  0.11754177563E+03  0.35872074293E+04  0.35852811706E+04 0.  0.
        2    1    3    3  502    0 -0.83576842977E+03  0.61747039867E+03  0.15203026699E+04  0.18414936246E+04  0.25500000920E-02 0.  1.
       -2    1    3    3    0  502  0.83576842977E+03 -0.61747039867E+03 -0.14027608943E+04  0.17457138047E+04  0.25500000920E-02 0. -1.
</event>
<event>
 5   0  0.3365378E-07  0.3665351E+04  0.7818609E-02  0.8075684E-01
        1   -1    0    0  501    0  0.00000000000E+00  0.00000000000E+00  0.21748285583E+04  0.21748285583E+04  0.50400001928E-02 0.  1.
       -1   -1    0    0    0  501  0.00000000000E+00  0.00000000000E+00 -0.15443513092E+04  0.15443513092E+04  0.50400001928E-02 0. -1.
    10030    2    1    2    0    0  0.00000000000E+00  0.00000000000E+00  0.63047724909E+03  0.37191798675E+04  0.36653509143E+04 0.  0.
        3    1    3    3  502    0 -0.10177479875E+04  0.28951382964E+03  0.18335661583E+04  0.21169775839E+04  0.10100000352E+00 0.  1.
       -3    1    3    3    0  502  0.10177479875E+04 -0.28951382964E+03 -0.12030889092E+04  0.16022022836E+04  0.10100000352E+00 0. -1.
</event>
<event>
 5   0  0.3159875E-07  0.3603442E+04  0.7818609E-02  0.8089704E-01
        1   -1    0    0  501    0  0.00000000000E+00  0.00000000000E+00  0.16843208658E+04  0.16843208658E+04  0.50400001928E-02 0.  1.
       -1   -1    0    0    0  501  0.00000000000E+00  0.00000000000E+00 -0.19273044928E+04  0.19273044928E+04  0.50400001928E-02 0. -1.
    10030    2    1    2    0    0  0.00000000000E+00  0.00000000000E+00 -0.24298362702E+03  0.36116253587E+04  0.36034423387E+04 0.  0.
        5    1    3    3  502    0 -0.20397007457E+03 -0.16963843247E+04  0.45151751952E+03  0.17672616470E+04  0.46999998093E+01 0. -1.
       -5    1    3    3    0  502  0.20397007457E+03  0.16963843247E+04 -0.69450114654E+03  0.18443637117E+04  0.46999998093E+01 0.  1.
</event>
<event>
 5   0  0.9878977E-07  0.3496249E+04  0.7818609E-02  0.8114680E-01
       -2   -1    0    0    0  501  0.00000000000E+00  0.00000000000E+00  0.12639650501E+04  0.12639650501E+04  0.25500000920E-02 0. -1.
        2   -1    0    0  501    0  0.00000000000E+00  0.00000000000E+00 -0.24177400373E+04  0.24177400373E+04  0.25500000920E-02 0.  1.
    10030    2    1    2    0    0  0.00000000000E+00  0.00000000000E+00 -0.11537749872E+04  0.36817050875E+04  0.34962487941E+04 0.  0.
        5    1    3    3  502    0  0.11763572539E+04  0.12058510842E+04 -0.10685854605E+04  0.19949411527E+04  0.46999998093E+01 0.  1.
       -5    1    3    3    0  502 -0.11763572539E+04 -0.12058510842E+04 -0.85189526631E+02  0.16867639348E+04  0.46999998093E+01 0. -1.
</event>
<event>
 5   0  0.3365378E-07  0.2891739E+04  0.7818609E-02  0.8275340E-01
       -1   -1    0    0    0  501  0.00000000000E+00  0.00000000000E+00  0.11181514731E+04  0.11181514731E+04  0.50400001928E-02 0.  1.
        1   -1    0    0  501    0  0.00000000000E+00  0.00000000000E+00 -0.18696379088E+04  0.18696379089E+04  0.50400001928E-02 0. -1.
    10030    2    1    2    0    0  0.00000000000E+00  0.00000000000E+00 -0.75148643579E+03  0.29877893819E+04  0.28917388415E+04 0.  0.
        3    1    3    3  502    0 -0.10491048529E+03 -0.10802646709E+04 -0.13627536005E+04  0.17421467662E+04  0.10100000352E+00 0. -1.
       -3    1    3    3    0  502  0.10491048529E+03  0.10802646709E+04  0.61126716469E+03  0.12456426157E+04  0.10100000352E+00 0.  1.
</event>
<event>
 5   0  0.3159875E-07  0.3549925E+04  0.7818609E-02  0.8102059E-01
        1   -1    0    0  501    0  0.00000000000E+00  0.00000000000E+00  0.29864124188E+04  0.29864124188E+04  0.50400001928E-02 0.  1.
       -1   -1    0    0    0  501  0.00000000000E+00  0.00000000000E+00 -0.10549420068E+04  0.10549420068E+04  0.50400001928E-02 0. -1.
    10030    2    1    2    0    0  0.00000000000E+00  0.00000000000E+00  0.19314704121E+04  0.40413544256E+04  0.35499250190E+04 0.  0.
        5    1    3    3  502    0 -0.12316591098E+04  0.36262557495E+02  0.24201575777E+04  0.27157842194E+04  0.46999998093E+01 0.  1.
       -5    1    3    3    0  502  0.12316591098E+04 -0.36262557495E+02 -0.48868716557E+03  0.13255702062E+04  0.46999998093E+01 0. -1.
</event>
<event>
 5   0  0.3278988E-07  0.2979378E+04  0.7818609E-02  0.8249644E-01
       -1   -1    0    0    0  501  0.00000000000E+00  0.00000000000E+00  0.13781472046E+04  0.13781472046E+04  0.50400001928E-02 0. -1.
        1   -1    0    0  501    0  0.00000000000E+00  0.00000000000E+00 -0.16102581654E+04  0.16102581654E+04  0.50400001928E-02 0.  1.
    10030    2    1    2    0    0  0.00000000000E+00  0.00000000000E+00 -0.23211096078E+03  0.29884053699E+04  0.29793776459E+04 0.  0.
        4    1    3    3  502    0 -0.41841152572E+03  0.11483410436E+04 -0.97034969285E+03  0.15605561497E+04  0.12699999809E+01 0.  1.
       -4    1    3    3    0  502  0.41841152572E+03 -0.11483410436E+04  0.73823873207E+03  0.14278492202E+04  0.12699999809E+01 0. -1.
</event>
<event>
 5   0  0.3159875E-07  0.3628313E+04  0.7818609E-02  0.8084037E-01
       -1   -1    0    0    0  501  0.00000000000E+00  0.00000000000E+00  0.13868941297E+04  0.13868941297E+04  0.50400001928E-02 0. -1.
        1   -1    0    0  501    0  0.00000000000E+00  0.00000000000E+00 -0.23730459884E+04  0.23730459884E+04  0.50400001928E-02 0.  1.
    10030    2    1    2    0    0  0.00000000000E+00  0.00000000000E+00 -0.98615185869E+03  0.37599401181E+04  0.36283128591E+04 0.  0.
        2    1    3    3  502    0 -0.35600601572E+03 -0.11915124350E+04  0.87572169382E+03  0.15209637244E+04  0.25500000920E-02 0. -1.
       -2    1    3    3    0  502  0.35600601572E+03  0.11915124350E+04 -0.18618735525E+04  0.22389763937E+04  0.25500000920E-02 0.  1.
</event>
<event>
 5   0  0.1031659E-06  0.3366921E+04  0.7818609E-02  0.8146073E-01
        2   -1    0    0  501    0  0.00000000000E+00  0.00000000000E+00  0.18119939288E+04  0.18119939288E+04  0.25500000920E-02 0.  1.
       -2   -1    0    0    0  501  0.00000000000E+00  0.00000000000E+00 -0.15640448747E+04  0.15640448747E+04  0.25500000920E-02 0. -1.
    10030    2    1    2    0    0  0.00000000000E+00  0.00000000000E+00  0.24794905409E+03  0.33760388035E+04  0.33669213340E+04 0.  0.
        2    1    3    3  502    0 -0.11192295400E+04  0.73845226493E+03  0.11445979024E+04  0.17629778413E+04  0.25500000920E-02 0.  1.
       -2    1    3    3    0  502  0.11192295400E+04 -0.73845226493E+03 -0.89664884829E+03  0.16130609622E+04  0.25500000920E-02 0. -1.
</event>
<event>
 5   0  0.9878336E-07  0.3591473E+04  0.7818609E-02  0.8092448E-01
        2   -1    0    0  501    0  0.00000000000E+00  0.00000000000E+00  0.19763630868E+04  0.19763630868E+04  0.25500000920E-02 0.  1.
       -2   -1    0    0    0  501  0.00000000000E+00  0.00000000000E+00 -0.16316184141E+04  0.16316184141E+04  0.25500000920E-02 0. -1.
    10030    2    1    2    0    0  0.00000000000E+00  0.00000000000E+00  0.34474467271E+03  0.36079815008E+04  0.35914734610E+04 0.  0.
        3    1    3    3  502    0  0.22761326557E+03  0.74095213054E+03 -0.14549041622E+04  0.16485035608E+04  0.10100000352E+00 0. -1.
       -3    1    3    3    0  502 -0.22761326557E+03 -0.74095213054E+03  0.17996488349E+04  0.19594779401E+04  0.10100000352E+00 0.  1.
</event>
<event>
 5   0  0.9538919E-07  0.3561520E+04  0.7818609E-02  0.8099363E-01
        2   -1    0    0  501    0  0.00000000000E+00  0.00000000000E+00  0.21929353769E+04  0.21929353769E+04  0.25500000920E-02 0.  1.
       -2   -1    0    0    0  501  0.00000000000E+00  0.00000000000E+00 -0.14460554695E+04  0.14460554695E+04  0.25500000920E-02 0. -1.
    10030    2    1    2    0    0  0.00000000000E+00  0.00000000000E+00  0.74687990737E+03  0.36389908464E+04  0.35615200103E+04 0.  0.
        4    1    3    3  502    0 -0.40346256392E+03 -0.17317363804E+04  0.47256387801E+03  0.18398399831E+04  0.12699999809E+01 0. -1.
       -4    1    3    3    0  502  0.40346256392E+03  0.17317363804E+04  0.27431602936E+03  0.17991508632E+04  0.12699999809E+01 0.  1.
</event>
<event>
 5   0  0.3159875E-07  0.2990775E+04  0.7818609E-02  0.8246370E-01
       -1   -1    0    0    0  501  0.00000000000E+00  0.00000000000E+00  0.13411591295E+04  0.13411591295E+04  0.50400001928E-02 0. -1.
        1   -1    0    0  501    0  0.00000000000E+00  0.00000000000E+00 -0.16673517149E+04  0.16673517150E+04  0.50400001928E-02 0.  1.
    10030    2    1    2    0    0  0.00000000000E+00  0.00000000000E+00 -0.32619258542E+03  0.30085108445E+04  0.29907751334E+04 0.  0.
        5    1    3    3  502    0  0.11903088999E+04  0.12834487746E+03 -0.10644311400E+04  0.16019810943E+04  0.46999998093E+01 0.  1.
       -5    1    3    3    0  502 -0.11903088999E+04 -0.12834487746E+03  0.73823855461E+03  0.14065297502E+04  0.46999998093E+01 0. -1.
</event>
<event>
 5   0  0.1006019E-06  0.3613527E+04  0.7818609E-02  0.8087400E-01
        2   -1    0    0  501    0  0.00000000000E+00  0.00000000000E+00  0.27347241228E+04  0.27347241228E+04  0.25500000920E-02 0. -1.
       -2   -1    0    0    0  501  0.00000000000E+00  0.00000000000E+00 -0.11936829769E+04  0.11936829769E+04  0.25500000920E-02 0.  1.
    10030    2    1    2    0    0  0.00000000000E+00  0.00000000000E+00  0.15410411459E+04  0.39284070998E+04  0.36135266054E+04 0.  0.
        1    1    3    3  502    0  0.28133727399E+03  0.62622565729E+03 -0.10463636760E+04  0.12514736026E+04  0.50400001928E-02 0.  1.
       -1    1    3    3    0  502 -0.28133727399E+03 -0.62622565729E+03  0.25874048219E+04  0.26769334971E+04  0.50400001928E-02 0. -1.
</event>
<event>
 5   0  0.9878977E-07  0.3254792E+04  0.7818609E-02  0.8174495E-01
        2   -1    0    0  501    0  0.00000000000E+00  0.00000000000E+00  0.14206393422E+04  0.14206393422E+04  0.25500000920E-02 0.  1.
       -2   -1    0    0    0  501  0.00000000000E+00  0.00000000000E+00 -0.18642436962E+04  0.18642436962E+04  0.25500000920E-02 0. -1.
    10030    2    1    2    0    0  0.00000000000E+00  0.00000000000E+00 -0.44360435406E+03  0.32848830384E+04  0.32547921213E+04 0.  0.
        5    1    3    3  502    0  0.15294793535E+04 -0.12310758576E+03  0.32536625506E+03  0.15685496040E+04  0.46999998093E+01 0.  1.
       -5    1    3    3    0  502 -0.15294793535E+04  0.12310758576E+03 -0.76897060912E+03  0.17163334344E+04  0.46999998093E+01 0. -1.
</event>
<event>
 5   0  0.3278988E-07  0.3548025E+04  0.7818609E-02  0.8102502E-01
        1   -1    0    0  501    0  0.00000000000E+00  0.00000000000E+00  0.18853695476E+04  0.18853695476E+04  0.50400001928E-02 0. -1.
       -1   -1    0    0    0  501  0.00000000000E+00  0.00000000000E+00 -0.16692321586E+04  0.16692321586E+04  0.50400001928E-02 0.  1.
    10030    2    1    2    0    0  0.00000000000E+00  0.00000000000E+00  0.21613738897E+03  0.35546017062E+04  0.35480245093E+04 0.  0.
        4    1    3    3  502    0 -0.59327481382E+03 -0.18416209705E+03 -0.15567057632E+04  0.16760743208E+04  0.12699999809E+01 0.  1.
       -4    1    3    3    0  502  0.59327481382E+03  0.18416209705E+03  0.17728431522E+04  0.18785273854E+04  0.12699999809E+01 0. -1.
</event>
<event>
 5   0  0.3159875E-07  0.3479933E+04  0.7818609E-02  0.8118562E-01
       -1   -1    0    0    0  501  0.00000000000E+00  0.00000000000E+00  0.12309436308E+04  0.12309436308E+04  0.50400001928E-02 0.  1.
        1   -1    0    0  501    0  0.00000000000E+00  0.00000000000E+00 -0.24594816562E+04  0.24594816562E+04  0.50400001928E-02 0. -1.
    10030    2    1    2    0    0  0.00000000000E+00  0.00000000000E+00 -0.12285380254E+04  0.36904252870E+04  0.34799329188E+04 0.  0.
        2    1    3    3  502    0 -0.88980620298E+03 -0.67699362968E+03  0.79956716125E+03  0.13745483254E+04  0.25500000920E-02 0.  1.
       -2    1    3    3    0  502  0.88980620298E+03  0.67699362968E+03 -0.20281051866E+04  0.23158769616E+04  0.25500000920E-02 0. -1.
</event>
<event>
 5   0  0.3159875E-07  0.3606461E+04  0.7818609E-02  0.8089013E-01
        1   -1    0    0  501    0  0.00000000000E+00  0.00000000000E+00  0.19207538438E+04  0.19207538438E+04  0.50400001928E-02 0. -1.
       -1   -1    0    0    0  501  0.00000000000E+00  0.00000000000E+00 -0.16928976977E+04  0.16928976977E+04  0.50400001928E-02 0.  1.
    10030    2    1    2    0    0  0.00000000000E+00  0.00000000000E+00  0.22785614615E+03  0.36136515415E+04  0.36064607359E+04 0.  0.
        2    1    3    3  502    0  0.27008217837E+03  0.14474299285E+04 -0.92912876358E+03  0.17410565873E+04  0.25500000920E-02 0.  1.
       -2    1    3    3    0  502 -0.27008217837E+03 -0.14474299285E+04  0.11569849097E+04  0.18725949541E+04  0.25500000920E-02 0. -1.
</event>
<event>
 5   0  0.3159875E-07  0.3620443E+04  0.7818609E-02  0.8085825E-01
       -1   -1    0    0    0  501  0.00000000000E+00  0.00000000000E+00  0.21222303326E+04  0.21222303326E+04  0.50400001928E-02 0.  1.
        1   -1    0    0  501    0  0.00000000000E+00  0.00000000000E+00 -0.15440841743E+04  0.15440841744E+04  0.50400001928E-02 0. -1.
    10030    2    1    2    0    0  0.00000000000E+00  0.00000000000E+00  0.57814615829E+03  0.36663145070E+04  0.36204432165E+04 0.  0.
        5    1    3    3  502    0  0.96338650170E+03 -0.14330118505E+04  0.83932082392E+03  0.19199265743E+04  0.46999998093E+01 0.  1.
       -5    1    3    3    0  502 -0.96338650170E+03  0.14330118505E+04 -0.26117466563E+03  0.17463879327E+04  0.46999998093E+01 0. -1.
</event>
<event>
 5   0  0.3159875E-07  0.3532393E+04  0.7818609E-02  0.8106156E-01
        1   -1    0    0  501    0  0.00000000000E+00  0.00000000000E+00  0.18783726742E+04  0.18783726743E+04  0.50400001928E-02 0. -1.
       -1   -1    0    0    0  501  0.00000000000E+00  0.00000000000E+00 -0.16607196830E+04  0.16607196830E+04  0.50400001928E-02 0.  1.
    10030    2    1    2    0    0  0.00000000000E+00  0.00000000000E+00  0.21765299127E+03  0.35390923572E+04  0.35323932239E+04 0.  0.
        2    1    3    3  502    0 -0.17613965469E+04  0.12338939484E+03  0.15022960371E+03  0.17720924559E+04  0.25500000920E-02 0. -1.
       -2    1    3    3    0  502  0.17613965469E+04 -0.12338939484E+03  0.67423387565E+02  0.17669999014E+04  0.25500000920E-02 0.  1.
</event>
<event>
 5   0  0.1031659E-06  0.3590944E+04  0.7818609E-02  0.8092569E-01
       -2   -1    0    0    0  501  0.00000000000E+00  0.00000000000E+00  0.13588389349E+04  0.13588389349E+04  0.25500000920E-02 0.  1.
        2   -1    0    0  501    0  0.00000000000E+00  0.00000000000E+00 -0.23724080475E+04  0.23724080475E+04  0.25500000920E-02 0. -1.
    10030    2    1    2    0    0  0.00000000000E+00  0.00000000000E+00 -0.10135691126E+04  0.37312469824E+04  0.35909444019E+04 0.  0.
        2    1    3    3  502    0  0.11297817084E+04 -0.13941814459E+04 -0.56888426941E+03  0.18824924767E+04  0.25500000920E-02 0.  1.
       -2    1    3    3    0  502 -0.11297817084E+04  0.13941814459E+04 -0.44468484318E+03  0.18487545057E+04  0.25500000920E-02 0. -1.
</event>
<event>
 5   0  0.1031659E-06  0.3567422E+04  0.7818609E-02  0.8097995E-01
        2   -1    0    0  501    0  0.00000000000E+00  0.00000000000E+00  0.24385386728E+04  0.24385386728E+04  0.25500000920E-02 0. -1.
       -2   -1    0    0    0  501  0.00000000000E+00  0.00000000000E+00 -0.13047257596E+04  0.13047257596E+04  0.25500000920E-02 0.  1.
    10030    2    1    2    0    0  0.00000000000E+00  0.00000000000E+00  0.11338129132E+04  0.37432644324E+04  0.35674216023E+04 0.  0.
        2    1    3    3  502    0  0.13057204144E+04 -0.99269317697E+02 -0.70393390227E+03  0.14867021009E+04  0.25500000920E-02 0.  1.
       -2    1    3    3    0  502 -0.13057204144E+04  0.99269317697E+02  0.18377468155E+04  0.22565623315E+04  0.25500000920E-02 0. -1.
</event>
<event>
 5   0  0.9878336E-07  0.3479770E+04  0.7818609E-02  0.8118601E-01
       -2   -1    0    0    0  501  0.00000000000E+00  0.00000000000E+00  0.19582705313E+04  0.19582705313E+04  0.25500000920E-02 0. -1.
        2   -1    0    0  501    0  0.00000000000E+00  0.00000000000E+00 -0.15458539237E+04  0.15458539237E+04  0.25500000920E-02 0.  1.
    10030    2    1    2    0    0  0.00000000000E+00  0.00000000000E+00  0.41241660769E+03  0.35041244550E+04  0.34797702134E+04 0.  0.
        3    1    3    3  502    0 -0.20415608437E+02  0.13603156217E+04  0.12983841816E+04  0.18806054560E+04  0.10100000352E+00 0. -1.
       -3    1    3    3    0  502  0.20415608437E+02 -0.13603156217E+04 -0.88596757395E+03  0.16235189990E+04  0.10100000352E+00 0.  1.
</event>
<event>
 5   0  0.3242047E-07  0.3593902E+04  0.7818609E-02  0.8091890E-01
       -1   -1    0    0    0  501  0.00000000000E+00  0.00000000000E+00  0.20253501811E+04  0.20253501811E+04  0.50400001928E-02 0. -1.
        1   -1    0    0  501    0  0.00000000000E+00  0.00000000000E+00 -0.15943086859E+04  0.15943086859E+04  0.50400001928E-02 0.  1.
    10030    2    1    2    0    0  0.00000000000E+00  0.00000000000E+00  0.43104149520E+03  0.36196588671E+04  0.35939022724E+04 0.  0.
        1    1    3    3  502    0  0.16267016087E+04 -0.34063356547E+03  0.90367735912E+03  0.18917775026E+04  0.50400001928E-02 0. -1.
       -1    1    3    3    0  502 -0.16267016087E+04  0.34063356547E+03 -0.47263586392E+03  0.17278813645E+04  0.50400001928E-02 0.  1.
</event>
<event>
 5   0  0.3159875E-07  0.3718347E+04  0.7818609E-02  0.8063908E-01
       -1   -1    0    0    0  501  0.00000000000E+00  0.00000000000E+00  0.13898355218E+04  0.13898355218E+04  0.50400001928E-02 0. -1.
        1   -1    0    0  501    0  0.00000000000E+00  0.00000000000E+00 -0.24870041799E+04  0.24870041799E+04  0.50400001928E-02 0.  1.
    10030    2    1    2    0    0  0.00000000000E+00  0.00000000000E+00 -0.10971686581E+04  0.38768397017E+04  0.37183473491E+04 0.  0.
        2    1    3    3  502    0 -0.13296933541E+04  0.78851671957E+03 -0.16254107942E+04  0.22431681352E+04  0.25500000920E-02 0.  1.
       -2    1    3    3    0  502  0.13296933541E+04 -0.78851671957E+03  0.52824213609E+03  0.16336715665E+04  0.25500000920E-02 0. -1.
</event>
<event>
 5   0  0.3159875E-07  0.3554242E+04  0.7818609E-02  0.8101054E-01
        1   -1    0    0  501    0  0.00000000000E+00  0.00000000000E+00  0.17518703696E+04  0.17518703696E+04  0.50400001928E-02 0.  1.
       -1   -1    0    0    0  501  0.00000000000E+00  0.00000000000E+00 -0.18027351834E+04  0.18027351834E+04  0.50400001928E-02 0. -1.
    10030    2    1    2    0    0  0.00000000000E+00  0.00000000000E+00 -0.50864813715E+02  0.35546055530E+04  0.35542416080E+04 0.  0.
        2    1    3    3  502    0 -0.48386970147E+03  0.12257328608E+04 -0.12178662921E+04  0.17943659714E+04  0.25500000920E-02 0. -1.
       -2    1    3    3    0  502  0.48386970147E+03 -0.12257328608E+04  0.11670014784E+04  0.17602395816E+04  0.25500000920E-02 0.  1.
</event>
<event>
 5   0  0.9878336E-07  0.3489219E+04  0.7818609E-02  0.8116350E-01
        2   -1    0    0  501    0  0.00000000000E+00  0.00000000000E+00  0.14510365470E+04  0.14510365470E+04  0.25500000920E-02 0. -1.
       -2   -1    0    0    0  501  0.00000000000E+00  0.00000000000E+00 -0.20975783389E+04  0.20975783389E+04  0.25500000920E-02 0.  1.
    10030    2    1    2    0    0  0.00000000000E+00  0.00000000000E+00 -0.64654179190E+03  0.35486148859E+04  0.34892192995E+04 0.  0.
        3    1    3    3  502    0 -0.10502533488E+03 -0.31510100844E+03 -0.20651262650E+04  0.20916657159E+04  0.10100000352E+00 0.  1.
       -3    1    3    3    0  502  0.10502533488E+03  0.31510100844E+03  0.14185844731E+04  0.14569491700E+04  0.10100000352E+00 0. -1.
</event>
<event>
 5   0  0.1031659E-06  0.3528229E+04  0.7818609E-02  0.8107132E-01
        2   -1    0    0  501    0  0.00000000000E+00  0.00000000000E+00  0.22607287292E+04  0.22607287292E+04  0.25500000920E-02 0.  1.
       -2   -1    0    0    0  501  0.00000000000E+00  0.00000000000E+00 -0.13765914427E+04  0.13765914427E+04  0.25500000920E-02 0. -1.
    10030    2    1    2    0    0  0.00000000000E+00  0.00000000000E+00  0.88413728649E+03  0.36373201718E+04  0.35282289170E+04 0.  0.
        2    1    3    3  502    0 -0.13268877943E+04  0.31763030049E+03 -0.71080164159E+03  0.15384275089E+04  0.25500000920E-02 0. -1.
       -2    1    3    3    0  502  0.13268877943E+04 -0.31763030049E+03  0.15949389281E+04  0.20988926630E+04  0.25500000920E-02 0.  1.
</event>
<event>
 5   0  0.1031659E-06  0.3455832E+04  0.7818609E-02  0.8124338E-01
        2   -1    0    0  501    0  0.00000000000E+00  0.00000000000E+00  0.16099774640E+04  0.16099774640E+04  0.25500000920E-02 0.  1.
       -2   -1    0    0    0  501  0.00000000000E+00  0.00000000000E+00 -0.18544941031E+04  0.18544941031E+04  0.25500000920E-02 0. -1.
    10030    2    1    2    0    0  0.00000000000E+00  0.00000000000E+00 -0.24451663903E+03  0.34644715671E+04  0.34558320058E+04 0.  0.
        2    1    3    3  502    0 -0.64180808933E+03 -0.44612206689E+03  0.14226170034E+04  0.16232010536E+04  0.25500000920E-02 0.  1.
       -2    1    3    3    0  502  0.64180808933E+03  0.44612206689E+03 -0.16671336424E+04  0.18412705135E+04  0.25500000920E-02 0. -1.
</event>
<event>
 5   0  0.3278988E-07  0.3592324E+04  0.7818609E-02  0.8092252E-01
       -1   -1    0    0    0  501  0.00000000000E+00  0.00000000000E+00  0.21350315146E+04  0.21350315147E+04  0.50400001928E-02 0. -1.
        1   -1    0    0  501    0  0.00000000000E+00  0.00000000000E+00 -0.15110773742E+04  0.15110773742E+04  0.50400001928E-02 0.  1.
    10030    2    1    2    0    0  0.00000000000E+00  0.00000000000E+00  0.62395414043E+03  0.36461088889E+04  0.35923239359E+04 0.  0.
        4    1    3    3  502    0 -0.59033886890E+03  0.61602727750E+03 -0.12922591570E+04  0.15485234672E+04  0.12699999809E+01 0.  1.
       -4    1    3    3    0  502  0.59033886890E+03 -0.61602727750E+03  0.19162132975E+04  0.20975854216E+04  0.12699999809E+01 0. -1.
</event>
<event>
 5   0  0.3159875E-07  0.3618593E+04  0.7818609E-02  0.8086246E-01
        3   -1    0    0  501    0  0.00000000000E+00  0.00000000000E+00  0.20725781486E+04  0.20725781511E+04  0.10100000352E+00 0.  1.
       -3   -1    0    0    0  501  0.00000000000E+00  0.00000000000E+00 -0.15794601933E+04  0.15794601966E+04  0.10100000352E+00 0. -1.
    10030    2    1    2    0    0  0.00000000000E+00  0.00000000000E+00  0.49311795527E+03  0.36520383476E+04  0.36185934802E+04 0.  0.
        5    1    3    3  502    0 -0.15273652271E+04 -0.80815481262E+03  0.78777449554E+03  0.18990970181E+04  0.46999998093E+01 0.  1.
       -5    1    3    3    0  502  0.15273652271E+04  0.80815481262E+03 -0.29465654027E+03  0.17529413296E+04  0.46999998093E+01 0. -1.
</event>
<event>
 5   0  0.1006019E-06  0.3647156E+04  0.7818609E-02  0.8079775E-01
       -2   -1    0    0    0  501  0.00000000000E+00  0.00000000000E+00  0.20894521820E+04  0.20894521820E+04  0.25500000920E-02 0. -1.
        2   -1    0    0  501    0  0.00000000000E+00  0.00000000000E+00 -0.15915353756E+04  0.15915353756E+04  0.25500000920E-02 0.  1.
    10030    2    1    2    0    0  0.00000000000E+00  0.00000000000E+00  0.49791680647E+03  0.36809875576E+04  0.36471561871E+04 0.  0.
        1    1    3    3  502    0  0.22697888280E+02  0.16561332721E+04 -0.52110302355E+03  0.17363297412E+04  0.50400001928E-02 0.  1.
       -1    1    3    3    0  502 -0.22697888280E+02 -0.16561332721E+04  0.10190198300E+04  0.19446578164E+04  0.50400001928E-02 0. -1.
</event>
<event>
 5   0  0.9878336E-07  0.3619381E+04  0.7818609E-02  0.8086067E-01
        2   -1    0    0  501    0  0.00000000000E+00  0.00000000000E+00  0.14443775809E+04  0.14443775809E+04  0.25500000920E-02 0.  1.
       -2   -1    0    0    0  501  0.00000000000E+00  0.00000000000E+00 -0.22673989904E+04  0.22673989904E+04  0.25500000920E-02 0. -1.
    10030    2    1    2    0    0  0.00000000000E+00  0.00000000000E+00 -0.82302140947E+03  0.37117765712E+04  0.36193813110E+04 0.  0.
        3    1    3    3  502    0  0.70234817595E+01  0.14852135397E+04 -0.14718647493E+04  0.20910032133E+04  0.10100000352E+00 0. -1.
       -3    1    3    3    0  502 -0.70234817595E+01 -0.14852135397E+04  0.64884333981E+03  0.16207733579E+04  0.10100000352E+00 0.  1.
</event>
<event>
 5   0  0.3159875E-07  0.3655645E+04  0.7818609E-02  0.8077863E-01
        1   -1    0    0  501    0  0.00000000000E+00  0.00000000000E+00  0.13250443290E+04  0.13250443290E+04  0.50400001928E-02 0. -1.
       -1   -1    0    0    0  501  0.00000000000E+00  0.00000000000E+00 -0.25213759974E+04  0.25213759975E+04  0.50400001928E-02 0.  1.
    10030    2    1    2    0    0  0.00000000000E+00  0.00000000000E+00 -0.11963316685E+04  0.38464203264E+04  0.36556449317E+04 0.  0.
        2    1    3    3  502    0 -0.14641163137E+04 -0.63403363785E+03  0.34016967734E+03  0.16313646568E+04  0.25500000920E-02 0.  1.
       -2    1    3    3    0  502  0.14641163137E+04  0.63403363785E+03 -0.15365013458E+04  0.22150556697E+04  0.25500000920E-02 0. -1.
</event>
<event>
 5   0  0.9878336E-07  0.3423456E+04  0.7818609E-02  0.8132173E-01
       -2   -1    0    0    0  501  0.00000000000E+00  0.00000000000E+00  0.12541364201E+04  0.12541364201E+04  0.25500000920E-02 0.  1.
        2   -1    0    0  501    0  0.00000000000E+00  0.00000000000E+00 -0.23362794477E+04  0.23362794477E+04  0.25500000920E-02 0. -1.
    10030    2    1    2    0    0  0.00000000000E+00  0.00000000000E+00 -0.10821430275E+04  0.35904158678E+04  0.34234562319E+04 0.  0.
        3    1    3    3  502    0 -0.12708120104E+04  0.93846989343E+03 -0.12322448917E+04  0.20035259893E+04  0.10100000352E+00 0. -1.
       -3    1    3    3    0  502  0.12708120104E+04 -0.93846989343E+03  0.15010186423E+03  0.15868898785E+04  0.10100000352E+00 0.  1.
</event>
<event>
 5   0  0.1031659E-06  0.3555698E+04  0.7818609E-02  0.8100716E-01
        2   -1    0    0  501    0  0.00000000000E+00  0.00000000000E+00  0.31345840471E+04  0.31345840471E+04  0.25500000920E-02 0.  1.
       -2   -1    0    0    0  501  0.00000000000E+00  0.00000000000E+00 -0.10083466940E+04  0.10083466940E+04  0.25500000920E-02 0. -1.
    10030    2    1    2    0    0  0.00000000000E+00  0.00000000000E+00  0.21262373531E+04  0.41429307411E+04  0.35556982217E+04 0.  0.
        2    1    3    3  502    0  0.11199106328E+04 -0.66712352314E+03 -0.34546053062E+03  0.13485535209E+04  0.25500000920E-02 0. -1.
       -2    1    3    3    0  502 -0.11199106328E+04  0.66712352314E+03  0.24716978837E+04  0.27943772202E+04  0.25500000920E-02 0.  1.
</event>
<event>
 5   0  0.9878977E-07  0.3539188E+04  0.7818609E-02  0.8104565E-01
        2   -1    0    0  501    0  0.00000000000E+00  0.00000000000E+00  0.18438875943E+04  0.18438875943E+04  0.25500000920E-02 0. -1.
       -2   -1    0    0    0  501  0.00000000000E+00  0.00000000000E+00 -0.16982933541E+04  0.16982933541E+04  0.25500000920E-02 0.  1.
    10030    2    1    2    0    0  0.00000000000E+00  0.00000000000E+00  0.14559424019E+03  0.35421809485E+04  0.35391875041E+04 0.  0.
        5    1    3    3  502    0  0.11989025613E+04 -0.66252830772E+03  0.11940700221E+04  0.18171781469E+04  0.46999998093E+01 0. -1.
       -5    1    3    3    0  502 -0.11989025613E+04  0.66252830772E+03 -0.10484757819E+04  0.17250028015E+04  0.46999998093E+01 0.  1.
</event>
<event>
 5   0  0.3159875E-07  0.3621869E+04  0.7818609E-02  0.8085501E-01
        1   -1    0    0  501    0  0.00000000000E+00  0.00000000000E+00  0.29519585443E+04  0.29519585443E+04  0.50400001928E-02 0.  1.
       -1   -1    0    0    0  501  0.00000000000E+00  0.00000000000E+00 -0.11109516150E+04  0.11109516150E+04  0.50400001928E-02 0. -1.
    10030    2    1    2    0    0  0.00000000000E+00  0.00000000000E+00  0.18410069293E+04  0.40629101593E+04  0.36218686404E+04 0.  0.
        5    1    3    3  502    0  0.15031353787E+04 -0.27020452398E+03  0.20121635728E+04  0.25261137713E+04  0.46999998093E+01 0.  1.
       -5    1    3    3    0  502 -0.15031353787E+04  0.27020452398E+03 -0.17115664354E+03  0.15367963880E+04  0.46999998093E+01 0. -1.
</event>
<event>
 5   0  0.3159875E-07  0.3541309E+04  0.7818609E-02  0.8104069E-01
        1   -1    0    0  501    0  0.00000000000E+00  0.00000000000E+00  0.13052472254E+04  0.13052472255E+04  0.50400001928E-02 0.  1.
       -1   -1    0    0    0  501  0.00000000000E+00  0.00000000000E+00 -0.24020101333E+04  0.24020101333E+04  0.50400001928E-02 0. -1.
    10030    2    1    2    0    0  0.00000000000E+00  0.00000000000E+00 -0.10967629079E+04  0.37072573588E+04  0.35413088326E+04 0.  0.
        5    1    3    3  502    0  0.58876571046E+03 -0.15229599283E+04  0.16865549978E+03  0.16414989408E+04  0.46999998093E+01 0. -1.
       -5    1    3    3    0  502 -0.58876571046E+03  0.15229599283E+04 -0.12654184077E+04  0.20657584180E+04  0.46999998093E+01 0.  1.
</event>
<event>
 5   0  0.1006019E-06  0.3595399E+04  0.7818609E-02  0.8091546E-01
       -2   -1    0    0    0  501  0.00000000000E+00  0.00000000000E+00  0.27268117508E+04  0.27268117508E+04  0.25500000920E-02 0. -1.
        2   -1    0    0  501    0  0.00000000000E+00  0.00000000000E+00 -0.11851654251E+04  0.11851654251E+04  0.25500000920E-02 0.  1.
    10030    2    1    2    0    0  0.00000000000E+00  0.00000000000E+00  0.15416463257E+04  0.39119771759E+04  0.35953987305E+04 0.  0.
        1    1    3    3  502    0 -0.61138487262E+03  0.98300854106E+03 -0.72564285966E+03  0.13662557645E+04  0.50400001928E-02 0.  1.
       -1    1    3    3    0  502  0.61138487262E+03 -0.98300854106E+03  0.22672891853E+04  0.25457214114E+04  0.50400001928E-02 0. -1.
</event>
<event>
 5   0  0.3278988E-07  0.3612024E+04  0.7818609E-02  0.8087743E-01
        1   -1    0    0  501    0  0.00000000000E+00  0.00000000000E+00  0.17088416724E+04  0.17088416724E+04  0.50400001928E-02 0.  1.
       -1   -1    0    0    0  501  0.00000000000E+00  0.00000000000E+00 -0.19087078150E+04  0.19087078150E+04  0.50400001928E-02 0. -1.
    10030    2    1    2    0    0  0.00000000000E+00  0.00000000000E+00 -0.19986614253E+03  0.36175494874E+04  0.36120240612E+04 0.  0.
        4    1    3    3  502    0 -0.31328031505E+03  0.14935420367E+03 -0.18749948797E+04  0.19068452076E+04  0.12699999809E+01 0. -1.
       -4    1    3    3    0  502  0.31328031505E+03 -0.14935420367E+03  0.16751287372E+04  0.17107042798E+04  0.12699999809E+01 0.  1.
</event>
<event>
 5   0  0.1031659E-06  0.2915762E+04  0.7818609E-02  0.8268203E-01
        2   -1    0    0  501    0  0.00000000000E+00  0.00000000000E+00  0.27533531422E+04  0.27533531422E+04  0.25500000920E-02 0. -1.
       -2   -1    0    0    0  501  0.00000000000E+00  0.00000000000E+00 -0.77193783387E+03  0.77193783387E+03  0.25500000920E-02 0.  1.
    10030    2    1    2    0    0  0.00000000000E+00  0.00000000000E+00  0.19814153083E+04  0.35252909760E+04  0.29157623089E+04 0.  0.
        2    1    3    3  502    0 -0.41045731697E+03  0.11931115048E+04  0.18737477533E+04  0.22589645670E+04  0.25500000920E-02 0. -1.
       -2    1    3    3    0  502  0.41045731697E+03 -0.11931115048E+04  0.10766755498E+03  0.12663264091E+04  0.25500000920E-02 0.  1.
</event>
<event>
 5   0  0.3242047E-07  0.2927686E+04  0.7818609E-02  0.8264688E-01
       -1   -1    0    0    0  501  0.00000000000E+00  0.00000000000E+00  0.10087715610E+04  0.10087715611E+04  0.50400001928E-02 0. -1.
        1   -1    0    0  501    0  0.00000000000E+00  0.00000000000E+00 -0.21242034191E+04  0.21242034191E+04  0.50400001928E-02 0.  1.
    10030    2    1    2    0    0  0.00000000000E+00  0.00000000000E+00 -0.11154318581E+04  0.31329749802E+04  0.29276857749E+04 0.  0.
        1    1    3    3  502    0  0.10695478878E+04 -0.40334507156E+03  0.42085366712E+03  0.12180877391E+04  0.50400001928E-02 0. -1.
       -1    1    3    3    0  502 -0.10695478878E+04  0.40334507156E+03 -0.15362855252E+04  0.19148872410E+04  0.50400001928E-02 0.  1.
</event>
<event>
 5   0  0.9538919E-07  0.3593902E+04  0.7818609E-02  0.8091890E-01
       -2   -1    0    0    0  501  0.00000000000E+00  0.00000000000E+00  0.12349873357E+04  0.12349873357E+04  0.25500000920E-02 0.  1.
        2   -1    0    0  501    0  0.00000000000E+00  0.00000000000E+00 -0.26146280298E+04  0.26146280298E+04  0.25500000920E-02 0. -1.
    10030    2    1    2    0    0  0.00000000000E+00  0.00000000000E+00 -0.13796406941E+04  0.38496153655E+04  0.35939017819E+04 0.  0.
        4    1    3    3  502    0 -0.46344822310E+03 -0.94444618659E+03  0.87063466224E+03  0.13655655176E+04  0.12699999809E+01 0.  1.
       -4    1    3    3    0  502  0.46344822310E+03  0.94444618659E+03 -0.22502753563E+04  0.24840498479E+04  0.12699999809E+01 0. -1.
</event>
<event>
 5   0  0.3278988E-07  0.3626388E+04  0.7818609E-02  0.8084474E-01
       -1   -1    0    0    0  501  0.00000000000E+00  0.00000000000E+00  0.33609051582E+04  0.33609051582E+04  0.50400001928E-02 0. -1.
        1   -1    0    0  501    0  0.00000000000E+00  0.00000000000E+00 -0.97821064787E+03  0.97821064788E+03  0.50400001928E-02 0.  1.
    10030    2    1    2    0    0  0.00000000000E+00  0.00000000000E+00  0.23826945103E+04  0.43391158061E+04  0.36263884029E+04 0.  0.
        4    1    3    3  502    0  0.12408748657E+04 -0.42557951568E+03 -0.30637534402E+03  0.13471287321E+04  0.12699999809E+01 0.  1.
       -4    1    3    3    0  502 -0.12408748657E+04  0.42557951568E+03  0.26890698543E+04  0.29919870740E+04  0.12699999809E+01 0. -1.
</event>
<event>
 5   0  0.9878977E-07  0.3619994E+04  0.7818609E-02  0.8085927E-01
       -2   -1    0    0    0  501  0.00000000000E+00  0.00000000000E+00  0.21898300096E+04  0.21898300096E+04  0.25500000920E-02 0. -1.
        2   -1    0    0  501    0  0.00000000000E+00  0.00000000000E+00 -0.14960469172E+04  0.14960469172E+04  0.25500000920E-02 0.  1.
    10030    2    1    2    0    0  0.00000000000E+00  0.00000000000E+00  0.69378309232E+03  0.36858769268E+04  0.36199936105E+04 0.  0.
        5    1    3    3  502    0 -0.48887697272E+03 -0.31311228802E+03  0.20924514820E+04  0.21715007009E+04  0.46999998093E+01 0. -1.
       -5    1    3    3    0  502  0.48887697272E+03  0.31311228802E+03 -0.13986683897E+04  0.15143762259E+04  0.46999998093E+01 0.  1.
</event>
<event>
 5   0  0.3278988E-07  0.3585197E+04  0.7818609E-02  0.8093891E-01
        1   -1    0    0  501    0  0.00000000000E+00  0.00000000000E+00  0.20283206666E+04  0.20283206666E+04  0.50400001928E-02 0. -1.
       -1   -1    0    0    0  501  0.00000000000E+00  0.00000000000E+00 -0.15842707047E+04  0.15842707047E+04  0.50400001928E-02 0.  1.
    10030    2    1    2    0    0  0.00000000000E+00  0.00000000000E+00  0.44404996192E+03  0.36125913714E+04  0.35851967934E+04 0.  0.
        4    1    3    3  502    0  0.35072846431E+02  0.43049374011E+03 -0.15310539298E+04  0.15908119668E+04  0.12699999809E+01 0.  1.
       -4    1    3    3    0  502 -0.35072846431E+02 -0.43049374011E+03  0.19751038917E+04  0.20217794046E+04  0.12699999809E+01 0. -1.
</event>
<event>
 5   0  0.3159875E-07  0.3499066E+04  0.7818609E-02  0.8114011E-01
        1   -1    0    0  501    0  0.00000000000E+00  0.00000000000E+00  0.28067902128E+04  0.28067902128E+04  0.50400001928E-02 0. -1.
       -1   -1    0    0    0  501  0.00000000000E+00  0.00000000000E+00 -0.10905220033E+04  0.10905220033E+04  0.50400001928E-02 0.  1.
    10030    2    1    2    0    0  0.00000000000E+00  0.00000000000E+00  0.17162682094E+04  0.38973122161E+04  0.34990664388E+04 0.  0.
        5    1    3    3  502    0  0.74261220968E+03 -0.33754296644E+03  0.25820073068E+04  0.27078020552E+04  0.46999998093E+01 0. -1.
       -5    1    3    3    0  502 -0.74261220968E+03  0.33754296644E+03 -0.86573909733E+03  0.11895101609E+04  0.46999998093E+01 0.  1.
</event>
<event>
 5   0  0.1006019E-06  0.3160317E+04  0.7818609E-02  0.8199377E-01
       -2   -1    0    0    0  501  0.00000000000E+00  0.00000000000E+00  0.10776806761E+04  0.10776806761E+04  0.25500000920E-02 0.  1.
        2   -1    0    0  501    0  0.00000000000E+00  0.00000000000E+00 -0.23169209464E+04  0.23169209464E+04  0.25500000920E-02 0. -1.
    10030    2    1    2    0    0  0.00000000000E+00  0.00000000000E+00 -0.12392402704E+04  0.33946016225E+04  0.31603170296E+04 0.  0.
        1    1    3    3  502    0 -0.41965330060E+03  0.43193591332E+03  0.94957915252E+03  0.11244456825E+04  0.50400001928E-02 0.  1.
       -1    1    3    3    0  502  0.41965330060E+03 -0.43193591332E+03 -0.21888194229E+04  0.22701559400E+04  0.50400001928E-02 0. -1.
</event>
<event>
 5   0  0.3159875E-07  0.3552183E+04  0.7818609E-02  0.8101533E-01
       -1   -1    0    0    0  501  0.00000000000E+00  0.00000000000E+00  0.16417923276E+04  0.16417923276E+04  0.50400001928E-02 0. -1.
        1   -1    0    0  501    0  0.00000000000E+00  0.00000000000E+00 -0.19213767151E+04  0.19213767151E+04  0.50400001928E-02 0.  1.
    10030    2    1    2    0    0  0.00000000000E+00  0.00000000000E+00 -0.27958438749E+03  0.35631690427E+04  0.35521833001E+04 0.  0.
        5    1    3    3  502    0  0.13522849581E+03 -0.99272341731E+03  0.13312673843E+04  0.16661576959E+04  0.46999998093E+01 0. -1.
       -5    1    3    3    0  502 -0.13522849581E+03  0.99272341731E+03 -0.16108517717E+04  0.18970113468E+04  0.46999998093E+01 0.  1.
</event>
<event>
 5   0  0.1006019E-06  0.3597704E+04  0.7818609E-02  0.8091018E-01
        2   -1    0    0  501    0  0.00000000000E+00  0.00000000000E+00  0.24087075374E+04  0.24087075374E+04  0.25500000920E-02 0.  1.
       -2   -1    0    0    0  501  0.00000000000E+00  0.00000000000E+00 -0.13434045973E+04  0.13434045973E+04  0.25500000920E-02 0. -1.
    10030    2    1    2    0    0  0.00000000000E+00  0.00000000000E+00  0.10653029401E+04  0.37521121346E+04  0.35977041452E+04 0.  0.
        1    1    3    3  502    0 -0.45676194097E+03  0.14457060261E+04  0.15422759556E+04  0.21627095292E+04  0.50400001928E-02 0.  1.
       -1    1    3    3    0  502  0.45676194097E+03 -0.14457060261E+04 -0.47697301550E+03  0.15894026054E+04  0.50400001928E-02 0. -1.
</event>
<event>
 5   0  0.3365378E-07  0.3442332E+04  0.7818609E-02  0.8127594E-01
       -1   -1    0    0    0  501  0.00000000000E+00  0.00000000000E+00  0.16768497444E+04  0.16768497444E+04  0.50400001928E-02 0.  1.
        1   -1    0    0  501    0  0.00000000000E+00  0.00000000000E+00 -0.17666533269E+04  0.17666533269E+04  0.50400001928E-02 0. -1.
    10030    2    1    2    0    0  0.00000000000E+00  0.00000000000E+00 -0.89803582422E+02  0.34435030713E+04  0.34423318723E+04 0.  0.
        3    1    3    3  502    0  0.84475702825E+03 -0.13650832651E+04  0.57607137417E+03  0.17055570925E+04  0.10100000352E+00 0.  1.
       -3    1    3    3    0  502 -0.84475702825E+03  0.13650832651E+04 -0.66587495659E+03  0.17379459788E+04  0.10100000352E+00 0. -1.
</event>
<event>
 5   0  0.3159875E-07  0.3444553E+04  0.7818609E-02  0.8127057E-01
        1   -1    0    0  501    0  0.00000000000E+00  0.00000000000E+00  0.14034643211E+04  0.14034643212E+04  0.50400001928E-02 0. -1.
       -1   -1    0    0    0  501  0.00000000000E+00  0.00000000000E+00 -0.21135099376E+04  0.21135099376E+04  0.50400001928E-02 0.  1.
    10030    2    1    2    0    0  0.00000000000E+00  0.00000000000E+00 -0.71004561645E+03  0.35169742588E+04  0.34445526791E+04 0.  0.
        5    1    3    3  502    0 -0.75257513562E+03  0.15149605185E+04 -0.68546124168E+03  0.18251996908E+04  0.46999998093E+01 0.  1.
       -5    1    3    3    0  502  0.75257513562E+03 -0.15149605185E+04 -0.24584374769E+02  0.16917745680E+04  0.46999998093E+01 0. -1.
</event>
<event>
 5   0  0.9538919E-07  0.3594213E+04  0.7818609E-02  0.8091819E-01
       -2   -1    0    0    0  501  0.00000000000E+00  0.00000000000E+00  0.18043733488E+04  0.18043733488E+04  0.25500000920E-02 0.  1.
        2   -1    0    0  501    0  0.00000000000E+00  0.00000000000E+00 -0.17898688206E+04  0.17898688206E+04  0.25500000920E-02 0. -1.
    10030    2    1    2    0    0  0.00000000000E+00  0.00000000000E+00  0.14504528190E+02  0.35942421694E+04  0.35942129028E+04 0.  0.
        4    1    3    3  502    0  0.17181918094E+04  0.11451108166E+03  0.52135187222E+03  0.17991957285E+04  0.12699999809E+01 0.  1.
       -4    1    3    3    0  502 -0.17181918094E+04 -0.11451108166E+03 -0.50684734403E+03  0.17950464409E+04  0.12699999809E+01 0. -1.
</event>
<event>
 5   0  0.1031659E-06  0.3665521E+04  0.7818609E-02  0.8075646E-01
       -2   -1    0    0    0  501  0.00000000000E+00  0.00000000000E+00  0.20647265737E+04  0.20647265737E+04  0.25500000920E-02 0.  1.
        2   -1    0    0  501    0  0.00000000000E+00  0.00000000000E+00 -0.16268547459E+04  0.16268547459E+04  0.25500000920E-02 0. -1.
    10030    2    1    2    0    0  0.00000000000E+00  0.00000000000E+00  0.43787182780E+03  0.36915813196E+04  0.36655205499E+04 0.  0.
        2    1    3    3  502    0  0.11852758463E+04  0.13447577422E+04 -0.16556111962E+03  0.18001840744E+04  0.25500000920E-02 0. -1.
       -2    1    3    3    0  502 -0.11852758463E+04 -0.13447577422E+04  0.60343294742E+03  0.18913972452E+04  0.25500000920E-02 0.  1.
</event>
<event>
 5   0  0.3278988E-07  0.3586969E+04  0.7818609E-02  0.8093483E-01
        1   -1    0    0  501    0  0.00000000000E+00  0.00000000000E+00  0.19880004637E+04  0.19880004637E+04  0.50400001928E-02 0.  1.
       -1   -1    0    0    0  501  0.00000000000E+00  0.00000000000E+00 -0.16180005182E+04  0.16180005182E+04  0.50400001928E-02 0. -1.
    10030    2    1    2    0    0  0.00000000000E+00  0.00000000000E+00  0.36999994553E+03  0.36060009820E+04  0.35869685142E+04 0.  0.
        4    1    3    3  502    0 -0.17173056752E+04 -0.31310585339E+03  0.59877848945E+03  0.18454569488E+04  0.12699999809E+01 0.  1.
       -4    1    3    3    0  502  0.17173056752E+04  0.31310585339E+03 -0.22877854392E+03  0.17605440331E+04  0.12699999809E+01 0. -1.
</event>
<event>
 5   0  0.9878977E-07  0.3681529E+04  0.7818609E-02  0.8072068E-01
       -2   -1    0    0    0  501  0.00000000000E+00  0.00000000000E+00  0.15545459666E+04  0.15545459666E+04  0.25500000920E-02 0. -1.
        2   -1    0    0  501    0  0.00000000000E+00  0.00000000000E+00 -0.21796804611E+04  0.21796804611E+04  0.25500000920E-02 0.  1.
    10030    2    1    2    0    0  0.00000000000E+00  0.00000000000E+00 -0.62513449443E+03  0.37342264277E+04  0.36815287419E+04 0.  0.
        5    1    3    3  502    0  0.17832968037E+04 -0.30296163507E+03 -0.65871169640E+03  0.19250601111E+04  0.46999998093E+01 0.  1.
       -5    1    3    3    0  502 -0.17832968037E+04  0.30296163507E+03  0.33577201976E+02  0.18091663166E+04  0.46999998093E+01 0. -1.
</event>
<event>
 5   0  0.3242047E-07  0.3426392E+04  0.7818609E-02  0.8131459E-01
       -1   -1    0    0    0  501  0.00000000000E+00  0.00000000000E+00  0.16316056550E+04  0.16316056550E+04  0.50400001928E-02 0. -1.
        1   -1    0    0  501    0  0.00000000000E+00  0.00000000000E+00 -0.17988668330E+04  0.17988668330E+04  0.50400001928E-02 0.  1.
    10030    2    1    2    0    0  0.00000000000E+00  0.00000000000E+00 -0.16726117792E+03  0.34304724880E+04  0.34263924453E+04 0.  0.
        1    1    3    3  502    0 -0.13953416810E+04  0.60603619012E+03  0.70520546865E+03  0.16767745893E+04  0.50400001928E-02 0. -1.
       -1    1    3    3    0  502  0.13953416810E+04 -0.60603619012E+03 -0.87246664657E+03  0.17536978987E+04  0.50400001928E-02 0.  1.
</event>
<event>
 5   0  0.9538919E-07  0.3591098E+04  0.7818609E-02  0.8092534E-01
       -2   -1    0    0    0  501  0.00000000000E+00  0.00000000000E+00  0.12433375878E+04  0.12433375878E+04  0.25500000920E-02 0.  1.
        2   -1    0    0  501    0  0.00000000000E+00  0.00000000000E+00 -0.25930175314E+04  0.25930175314E+04  0.25500000920E-02 0. -1.
    10030    2    1    2    0    0  0.00000000000E+00  0.00000000000E+00 -0.13496799436E+04  0.38363551192E+04  0.35910979729E+04 0.  0.
        4    1    3    3  502    0 -0.15445689406E+04  0.64305980684E+03 -0.13710996387E+04  0.21631308235E+04  0.12699999809E+01 0. -1.
       -4    1    3    3    0  502  0.15445689406E+04 -0.64305980684E+03  0.21419695108E+02  0.16732242957E+04  0.12699999809E+01 0.  1.
</event>
<event>
 5   0  0.3159875E-07  0.3595862E+04  0.7818609E-02  0.8091440E-01
       -1   -1    0    0    0  501  0.00000000000E+00  0.00000000000E+00  0.16345116068E+04  0.16345116068E+04  0.50400001928E-02 0. -1.
        1   -1    0    0  501    0  0.00000000000E+00  0.00000000000E+00 -0.19776890414E+04  0.19776890414E+04  0.50400001928E-02 0.  1.
    10030    2    1    2    0    0  0.00000000000E+00  0.00000000000E+00 -0.34317743460E+03  0.36122006483E+04  0.35958618955E+04 0.  0.
        2    1    3    3  502    0 -0.43386441145E+03 -0.16514430297E+04  0.39404461132E+03  0.17523622809E+04  0.25500000920E-02 0. -1.
       -2    1    3    3    0  502  0.43386441145E+03  0.16514430297E+04 -0.73722204592E+03  0.18598383674E+04  0.25500000920E-02 0.  1.
</event>
<event>
 5   0  0.3159875E-07  0.3635429E+04  0.7818609E-02  0.8082424E-01
       -1   -1    0    0    0  501  0.00000000000E+00  0.00000000000E+00  0.14234683915E+04  0.14234683915E+04  0.50400001928E-02 0. -1.
        1   -1    0    0  501    0  0.00000000000E+00  0.00000000000E+00 -0.23211512672E+04  0.23211512672E+04  0.50400001928E-02 0.  1.
    10030    2    1    2    0    0  0.00000000000E+00  0.00000000000E+00 -0.89768287574E+03  0.37446196588E+04  0.36354287015E+04 0.  0.
        2    1    3    3  502    0  0.11558331994E+04 -0.75426675429E+03  0.76957171164E+03  0.15802244590E+04  0.25500000920E-02 0. -1.
       -2    1    3    3    0  502 -0.11558331994E+04  0.75426675429E+03 -0.16672545874E+04  0.21643951997E+04  0.25500000920E-02 0.  1.
</event>
<event>
 5   0  0.1031659E-06  0.3576483E+04  0.7818609E-02  0.8095900E-01
       -2   -1    0    0    0  501  0.00000000000E+00  0.00000000000E+00  0.17324662217E+04  0.17324662217E+04  0.25500000920E-02 0. -1.
        2   -1    0    0  501    0  0.00000000000E+00  0.00000000000E+00 -0.18458128732E+04  0.18458128732E+04  0.25500000920E-02 0.  1.
    10030    2    1    2    0    0  0.00000000000E+00  0.00000000000E+00 -0.11334665143E+03  0.35782790949E+04  0.35764834430E+04 0.  0.
        2    1    3    3  502    0 -0.56221009398E+03 -0.16467797111E+04 -0.46900261080E+03  0.18022006147E+04  0.25500000920E-02 0. -1.
       -2    1    3    3    0  502  0.56221009398E+03  0.16467797111E+04  0.35565595937E+03  0.17760784803E+04  0.25500000920E-02 0.  1.
</event>
<event>
 5   0  0.3159875E-07  0.3667741E+04  0.7818609E-02  0.8075149E-01
        1   -1    0    0  501    0  0.00000000000E+00  0.00000000000E+00  0.19031917332E+04  0.19031917332E+04  0.50400001928E-02 0.  1.
       -1   -1    0    0    0  501  0.00000000000E+00  0.00000000000E+00 -0.17670737871E+04  0.17670737871E+04  0.50400001928E-02 0. -1.
    10030    2    1    2    0    0  0.00000000000E+00  0.00000000000E+00  0.13611794604E+03  0.36702655203E+04  0.36677405707E+04 0.  0.
        5    1    3    3  502    0 -0.48887746249E+03  0.12414630387E+04 -0.11909114539E+04  0.17884417326E+04  0.46999998093E+01 0. -1.
       -5    1    3    3    0  502  0.48887746249E+03 -0.12414630387E+04  0.13270294000E+04  0.18818237877E+04  0.46999998093E+01 0.  1.
</event>
<event>
 5   0  0.3242047E-07  0.3445780E+04  0.7818609E-02  0.8126761E-01
        1   -1    0    0  501    0  0.00000000000E+00  0.00000000000E+00  0.24379742936E+04  0.24379742936E+04  0.50400001928E-02 0.  1.
       -1   -1    0    0    0  501  0.00000000000E+00  0.00000000000E+00 -0.12175478931E+04  0.12175478931E+04  0.50400001928E-02 0. -1.
    10030    2    1    2    0    0  0.00000000000E+00  0.00000000000E+00  0.12204264006E+04  0.36555221867E+04  0.34457802975E+04 0.  0.
        1    1    3    3  502    0  0.22413093998E+03  0.65698371329E+03 -0.10626292507E+04  0.12692687667E+04  0.50400001928E-02 0. -1.
       -1    1    3    3    0  502 -0.22413093998E+03 -0.65698371329E+03  0.22830556512E+04  0.23862534200E+04  0.50400001928E-02 0.  1.
</event>
<event>
 5   0  0.3159875E-07  0.3579819E+04  0.7818609E-02  0.8095130E-01
       -1   -1    0    0    0  501  0.00000000000E+00  0.00000000000E+00  0.13813319714E+04  0.13813319714E+04  0.50400001928E-02 0.  1.
        1   -1    0    0  501    0  0.00000000000E+00  0.00000000000E+00 -0.23193387620E+04  0.23193387620E+04  0.50400001928E-02 0. -1.
    10030    2    1    2    0    0  0.00000000000E+00  0.00000000000E+00 -0.93800679066E+03  0.37006707334E+04  0.35798194281E+04 0.  0.
        5    1    3    3  502    0 -0.94119802970E+03  0.11314412477E+04 -0.15220896690E+04  0.21172605127E+04  0.46999998093E+01 0. -1.
       -5    1    3    3    0  502  0.94119802970E+03 -0.11314412477E+04  0.58408287835E+03  0.15834102207E+04  0.46999998093E+01 0.  1.
</event>
<event>
 5   0  0.1031659E-06  0.3467992E+04  0.7818609E-02  0.8121418E-01
       -2   -1    0    0    0  501  0.00000000000E+00  0.00000000000E+00  0.15747785470E+04  0.15747785470E+04  0.25500000920E-02 0. -1.
        2   -1    0    0  501    0  0.00000000000E+00  0.00000000000E+00 -0.19093114198E+04  0.19093114198E+04  0.25500000920E-02 0.  1.
    10030    2    1    2    0    0  0.00000000000E+00  0.00000000000E+00 -0.33453287284E+03  0.34840899668E+04  0.34679923088E+04 0.  0.
        2    1    3    3  502    0 -0.14035631271E+04  0.57689146972E+03  0.67564504667E+03  0.16611109080E+04  0.25500000920E-02 0. -1.
       -2    1    3    3    0  502  0.14035631271E+04 -0.57689146972E+03 -0.10101779195E+04  0.18229790588E+04  0.25500000920E-02 0.  1.
</event>
<event>
 5   0  0.1031659E-06  0.3593937E+04  0.7818609E-02  0.8091882E-01
        2   -1    0    0  501    0  0.00000000000E+00  0.00000000000E+00  0.18922724075E+04  0.18922724075E+04  0.25500000920E-02 0.  1.
       -2   -1    0    0    0  501  0.00000000000E+00  0.00000000000E+00 -0.17064641236E+04  0.17064641236E+04  0.25500000920E-02 0. -1.
    10030    2    1    2    0    0  0.00000000000E+00  0.00000000000E+00  0.18580828389E+03  0.35987365310E+04  0.35939365467E+04 0.  0.
        2    1    3    3  502    0  0.14481634304E+04 -0.37244415062E+03 -0.90502259965E+03  0.17478437780E+04  0.25500000920E-02 0. -1.
       -2    1    3    3    0  502 -0.14481634304E+04  0.37244415062E+03  0.10908308835E+04  0.18508927530E+04  0.25500000920E-02 0.  1.
</event>
<event>
 5   0  0.3242047E-07  0.3586442E+04  0.7818609E-02  0.8093604E-01
       -1   -1    0    0    0  501  0.00000000000E+00  0.00000000000E+00  0.11409826157E+04  0.11409826157E+04  0.50400001928E-02 0. -1.
        1   -1    0    0  501    0  0.00000000000E+00  0.00000000000E+00 -0.28183095369E+04  0.28183095369E+04  0.50400001928E-02 0.  1.
    10030    2    1    2    0    0  0.00000000000E+00  0.00000000000E+00 -0.16773269212E+04  0.39592921526E+04  0.35864423527E+04 0.  0.
        1    1    3    3  502    0 -0.15922619171E+04 -0.78194615373E+03 -0.11284492821E+04  0.21024118488E+04  0.50400001928E-02 0. -1.
       -1    1    3    3    0  502  0.15922619171E+04  0.78194615373E+03 -0.54887763913E+03  0.18568803038E+04  0.50400001928E-02 0.  1.
</event>
<event>
 5   0  0.9878336E-07  0.3565214E+04  0.7818609E-02  0.8098507E-01
       -2   -1    0    0    0  501  0.00000000000E+00  0.00000000000E+00  0.13278300196E+04  0.13278300196E+04  0.25500000920E-02 0. -1.
        2   -1    0    0  501    0  0.00000000000E+00  0.00000000000E+00 -0.23931429271E+04  0.23931429271E+04  0.25500000920E-02 0.  1.
    10030    2    1    2    0    0  0.00000000000E+00  0.00000000000E+00 -0.10653129075E+04  0.37209729467E+04  0.35652136092E+04 0.  0.
        3    1    3    3  502    0  0.46855517920E+03 -0.16672782629E+04 -0.97339252142E+03  0.19866690144E+04  0.10100000352E+00 0.  1.
       -3    1    3    3    0  502 -0.46855517920E+03  0.16672782629E+04 -0.91920386083E+02  0.17343039323E+04  0.10100000352E+00 0. -1.
</event>
<event>
 5   0  0.9878336E-07  0.3589032E+04  0.7818609E-02  0.8093009E-01
       -2   -1    0    0    0  501  0.00000000000E+00  0.00000000000E+00  0.17947609858E+04  0.17947609858E+04  0.25500000920E-02 0. -1.
        2   -1    0    0  501    0  0.00000000000E+00  0.00000000000E+00 -0.17942709214E+04  0.17942709214E+04  0.25500000920E-02 0.  1.
    10030    2    1    2    0    0  0.00000000000E+00  0.00000000000E+00  0.49006436861E+00  0.35890319072E+04  0.35890318737E+04 0.  0.
        3    1    3    3  502    0  0.15914141356E+04 -0.23931676645E+03 -0.79374236285E+03  0.17944075386E+04  0.10100000352E+00 0. -1.
       -3    1    3    3    0  502 -0.15914141356E+04  0.23931676645E+03  0.79423242722E+03  0.17946243686E+04  0.10100000352E+00 0.  1.
</event>
<event>
 5   0  0.9538919E-07  0.3522520E+04  0.7818609E-02  0.8108474E-01
       -2   -1    0    0    0  501  0.00000000000E+00  0.00000000000E+00  0.20740225231E+04  0.20740225231E+04  0.25500000920E-02 0. -1.
        2   -1    0    0  501    0  0.00000000000E+00  0.00000000000E+00 -0.14956623029E+04  0.14956623029E+04  0.25500000920E-02 0.  1.
    10030    2    1    2    0    0  0.00000000000E+00  0.00000000000E+00  0.57836022018E+03  0.35696848260E+04  0.35225202927E+04 0.  0.
        4    1    3    3  502    0 -0.13153278847E+04  0.80084175141E+03 -0.57701638466E+03  0.16445012849E+04  0.12699999809E+01 0.  1.
       -4    1    3    3    0  502  0.13153278847E+04 -0.80084175141E+03  0.11553766048E+04  0.19251835411E+04  0.12699999809E+01 0. -1.
</event>
<event>
 5   0  0.3278988E-07  0.3668058E+04  0.7818609E-02  0.8075078E-01
       -1   -1    0    0    0  501  0.00000000000E+00  0.00000000000E+00  0.15250917957E+04  0.15250917957E+04  0.50400001928E-02 0.  1.
        1   -1    0    0  501    0  0.00000000000E+00  0.00000000000E+00 -0.22055478873E+04  0.22055478873E+04  0.50400001928E-02 0. -1.
    10030    2    1    2    0    0  0.00000000000E+00  0.00000000000E+00 -0.68045609158E+03  0.37306396831E+04  0.36680583355E+04 0.  0.
        4    1    3    3  502    0 -0.52739485489E+03  0.42346253710E+01  0.14462994884E+04  0.15394632468E+04  0.12699999809E+01 0.  1.
       -4    1    3    3    0  502  0.52739485489E+03 -0.42346253710E+01 -0.21267555800E+04  0.21911764363E+04  0.12699999809E+01 0. -1.
</event>
<event>
 5   0  0.3278988E-07  0.3543033E+04  0.7818609E-02  0.8103667E-01
        1   -1    0    0  501    0  0.00000000000E+00  0.00000000000E+00  0.19851176293E+04  0.19851176293E+04  0.50400001928E-02 0. -1.
       -1   -1    0    0    0  501  0.00000000000E+00  0.00000000000E+00 -0.15808993911E+04  0.15808993911E+04  0.50400001928E-02 0.  1.
    10030    2    1    2    0    0  0.00000000000E+00  0.00000000000E+00  0.40421823817E+03  0.35660170204E+04  0.35430333057E+04 0.  0.
        4    1    3    3  502    0 -0.31587446731E+03 -0.56508179247E+03 -0.14575801969E+04  0.15948779748E+04  0.12699999809E+01 0.  1.
       -4    1    3    3    0  502  0.31587446731E+03  0.56508179247E+03  0.18617984351E+04  0.19711390456E+04  0.12699999809E+01 0. -1.
</event>
<event>
 5   0  0.9878977E-07  0.3877112E+04  0.7818609E-02  0.8029806E-01
       -2   -1    0    0    0  501  0.00000000000E+00  0.00000000000E+00  0.18947102051E+04  0.18947102051E+04  0.25500000920E-02 0.  1.
        2   -1    0    0  501    0  0.00000000000E+00  0.00000000000E+00 -0.19834163158E+04  0.19834163158E+04  0.25500000920E-02 0. -1.
    10030    2    1    2    0    0  0.00000000000E+00  0.00000000000E+00 -0.88706110669E+02  0.38781265208E+04  0.38771118810E+04 0.  0.
        5    1    3    3  502    0 -0.11214693139E+04 -0.11826707044E+04  0.10054803916E+04  0.19150499536E+04  0.46999998093E+01 0.  1.
       -5    1    3    3    0  502  0.11214693139E+04  0.11826707044E+04 -0.10941865023E+04  0.19630765672E+04  0.46999998093E+01 0. -1.
</event>
<event>
 5   0  0.3278988E-07  0.3519412E+04  0.7818609E-02  0.8109205E-01
        1   -1    0    0  501    0  0.00000000000E+00  0.00000000000E+00  0.10991220421E+04  0.10991220421E+04  0.50400001928E-02 0.  1.
       -1   -1    0    0    0  501  0.00000000000E+00  0.00000000000E+00 -0.28173076044E+04  0.28173076044E+04  0.50400001928E-02 0. -1.
    10030    2    1    2    0    0  0.00000000000E+00  0.00000000000E+00 -0.17181855623E+04  0.39164296465E+04  0.35194118187E+04 0.  0.
        4    1    3    3  502    0  0.11694092837E+04 -0.58553948255E+03 -0.21692741547E+04  0.25330074081E+04  0.12699999809E+01 0. -1.
       -4    1    3    3    0  502 -0.11694092837E+04  0.58553948255E+03  0.45108859240E+03  0.13834222383E+04  0.12699999809E+01 0.  1.
</event>
<event>
 5   0  0.9878336E-07  0.3197926E+04  0.7818609E-02  0.8189365E-01
        2   -1    0    0  501    0  0.00000000000E+00  0.00000000000E+00  0.21899080948E+04  0.21899080948E+04  0.25500000920E-02 0. -1.
       -2   -1    0    0    0  501  0.00000000000E+00  0.00000000000E+00 -0.11674839485E+04  0.11674839485E+04  0.25500000920E-02 0.  1.
    10030    2    1    2    0    0  0.00000000000E+00  0.00000000000E+00  0.10224241464E+04  0.33573920433E+04  0.31979259212E+04 0.  0.
        3    1    3    3  502    0  0.26306396236E+02 -0.15106214976E+04 -0.38353352646E+02  0.15113372640E+04  0.10100000352E+00 0. -1.
       -3    1    3    3    0  502 -0.26306396236E+02  0.15106214976E+04  0.10607774990E+04  0.18460547793E+04  0.10100000352E+00 0.  1.
</event>
<event>
 5   0  0.9878336E-07  0.3589064E+04  0.7818609E-02  0.8093001E-01
        2   -1    0    0  501    0  0.00000000000E+00  0.00000000000E+00  0.21746373758E+04  0.21746373758E+04  0.25500000920E-02 0. -1.
       -2   -1    0    0    0  501  0.00000000000E+00  0.00000000000E+00 -0.14808653811E+04  0.14808653811E+04  0.25500000920E-02 0.  1.
    10030    2    1    2    0    0  0.00000000000E+00  0.00000000000E+00  0.69377199471E+03  0.36555027568E+04  0.35890640597E+04 0.  0.
        3    1    3    3  502    0  0.15353528199E+04  0.68960783328E+03 -0.28711421423E+03  0.17074254969E+04  0.10100000352E+00 0.  1.
       -3    1    3    3    0  502 -0.15353528199E+04 -0.68960783328E+03  0.98088620894E+03  0.19480772599E+04  0.10100000352E+00 0. -1.
</event>
<event>
 5   0  0.3278988E-07  0.3694988E+04  0.7818609E-02  0.8069073E-01
        1   -1    0    0  501    0  0.00000000000E+00  0.00000000000E+00  0.30069353025E+04  0.30069353025E+04  0.50400001928E-02 0.  1.
       -1   -1    0    0    0  501  0.00000000000E+00  0.00000000000E+00 -0.11351204907E+04  0.11351204907E+04  0.50400001928E-02 0. -1.
    10030    2    1    2    0    0  0.00000000000E+00  0.00000000000E+00  0.18718148118E+04  0.41420557932E+04  0.36949878896E+04 0.  0.
        4    1    3    3  502    0 -0.10066789238E+04 -0.37076373198E+03 -0.75019586901E+03  0.13090697672E+04  0.12699999809E+01 0. -1.
       -4    1    3    3    0  502  0.10066789238E+04  0.37076373198E+03  0.26220106808E+04  0.28329860260E+04  0.12699999809E+01 0.  1.
</event>
<event>
 5   0  0.3365378E-07  0.3655353E+04  0.7818609E-02  0.8077929E-01
        1   -1    0    0  501    0  0.00000000000E+00  0.00000000000E+00  0.18141117519E+04  0.18141117519E+04  0.50400001928E-02 0. -1.
       -1   -1    0    0    0  501  0.00000000000E+00  0.00000000000E+00 -0.18413425741E+04  0.18413425741E+04  0.50400001928E-02 0.  1.
    10030    2    1    2    0    0  0.00000000000E+00  0.00000000000E+00 -0.27230822157E+02  0.36554543260E+04  0.36553528984E+04 0.  0.
        3    1    3    3  502    0 -0.72868936274E+02  0.54553575199E+03  0.17292703060E+04  0.18147437670E+04  0.10100000352E+00 0. -1.
       -3    1    3    3    0  502  0.72868936274E+02 -0.54553575199E+03 -0.17565011281E+04  0.18407105590E+04  0.10100000352E+00 0.  1.
</event>
<event>
 5   0  0.3278988E-07  0.3597921E+04  0.7818609E-02  0.8090968E-01
       -1   -1    0    0    0  501  0.00000000000E+00  0.00000000000E+00  0.26219610844E+04  0.26219610844E+04  0.50400001928E-02 0. -1.
        1   -1    0    0  501    0  0.00000000000E+00  0.00000000000E+00 -0.12342892620E+04  0.12342892620E+04  0.50400001928E-02 0.  1.
    10030    2    1    2    0    0  0.00000000000E+00  0.00000000000E+00  0.13876718224E+04  0.38562503464E+04  0.35979207395E+04 0.  0.
        4    1    3    3  502    0 -0.12050858466E+03  0.65061036878E+02 -0.12286935796E+04  0.12363028686E+04  0.12699999809E+01 0.  1.
       -4    1    3    3    0  502  0.12050858466E+03 -0.65061036878E+02  0.26163654019E+04  0.26199474779E+04  0.12699999809E+01 0. -1.
</event>
<event>
 5   0  0.9878977E-07  0.3557770E+04  0.7818609E-02  0.8100234E-01
        2   -1    0    0  501    0  0.00000000000E+00  0.00000000000E+00  0.17530388841E+04  0.17530388841E+04  0.25500000920E-02 0.  1.
       -2   -1    0    0    0  501  0.00000000000E+00  0.00000000000E+00 -0.18051117194E+04  0.18051117194E+04  0.25500000920E-02 0. -1.
    10030    2    1    2    0    0  0.00000000000E+00  0.00000000000E+00 -0.52072835276E+02  0.35581506035E+04  0.35577695452E+04 0.  0.
        5    1    3    3  502    0  0.80420545918E+03 -0.63391963405E+03 -0.14807740836E+04  0.18003651018E+04  0.46999998093E+01 0. -1.
       -5    1    3    3    0  502 -0.80420545918E+03  0.63391963405E+03  0.14287012483E+04  0.17577855017E+04  0.46999998093E+01 0.  1.
</event>
<event>
 5   0  0.3278988E-07  0.3578971E+04  0.7818609E-02  0.8095326E-01
        1   -1    0    0  501    0  0.00000000000E+00  0.00000000000E+00  0.18988283517E+04  0.18988283517E+04  0.50400001928E-02 0.  1.
       -1   -1    0    0    0  501  0.00000000000E+00  0.00000000000E+00 -0.16864386385E+04  0.16864386385E+04  0.50400001928E-02 0. -1.
    10030    2    1    2    0    0  0.00000000000E+00  0.00000000000E+00  0.21238971319E+03  0.35852669902E+04  0.35789705225E+04 0.  0.
        4    1    3    3  502    0 -0.99636796215E+01 -0.12903024567E+04 -0.11358558620E+04  0.17190549313E+04  0.12699999809E+01 0. -1.
       -4    1    3    3    0  502  0.99636796215E+01  0.12903024567E+04  0.13482455752E+04  0.18662120589E+04  0.12699999809E+01 0.  1.
</event>
<event>
 5   0  0.3159875E-07  0.3611933E+04  0.7818609E-02  0.8087764E-01
       -1   -1    0    0    0  501  0.00000000000E+00  0.00000000000E+00  0.22983872374E+04  0.22983872374E+04  0.50400001928E-02 0. -1.
        1   -1    0    0  501    0  0.00000000000E+00  0.00000000000E+00 -0.14190452360E+04  0.14190452360E+04  0.50400001928E-02 0.  1.
    10030    2    1    2    0    0  0.00000000000E+00  0.00000000000E+00  0.87934200142E+03  0.37174324734E+04  0.36119332551E+04 0.  0.
        2    1    3    3  502    0  0.12616253260E+04 -0.10193262099E+03 -0.88614242841E+03  0.15451010083E+04  0.25500000920E-02 0. -1.
       -2    1    3    3    0  502 -0.12616253260E+04  0.10193262099E+03  0.17654844298E+04  0.21723314651E+04  0.25500000920E-02 0.  1.
</event>
<event>
 5   0  0.3159875E-07  0.3616912E+04  0.7818609E-02  0.8086629E-01
        1   -1    0    0  501    0  0.00000000000E+00  0.00000000000E+00  0.15481155323E+04  0.15481155323E+04  0.50400001928E-02 0.  1.
       -1   -1    0    0    0  501  0.00000000000E+00  0.00000000000E+00 -0.21125764587E+04  0.21125764587E+04  0.50400001928E-02 0. -1.
    10030    2    1    2    0    0  0.00000000000E+00  0.00000000000E+00 -0.56446092639E+03  0.36606919911E+04  0.36169116268E+04 0.  0.
        5    1    3    3  502    0  0.16885895498E+04  0.55705527619E+03  0.51679758340E+02  0.17788586610E+04  0.46999998093E+01 0.  1.
       -5    1    3    3    0  502 -0.16885895498E+04 -0.55705527619E+03 -0.61614068473E+03  0.18818333300E+04  0.46999998093E+01 0. -1.
</event>
<event>
 5   0  0.1031659E-06  0.3558618E+04  0.7818609E-02  0.8100037E-01
       -2   -1    0    0    0  501  0.00000000000E+00  0.00000000000E+00  0.14949265444E+04  0.14949265444E+04  0.25500000920E-02 0. -1.
        2   -1    0    0  501    0  0.00000000000E+00  0.00000000000E+00 -0.21177905354E+04  0.21177905354E+04  0.25500000920E-02 0.  1.
    10030    2    1    2    0    0  0.00000000000E+00  0.00000000000E+00 -0.62286399105E+03  0.36127170798E+04  0.35586184323E+04 0.  0.
        2    1    3    3  502    0 -0.11243255077E+04 -0.11036477753E+04  0.52805794719E+03  0.16616231386E+04  0.25500000920E-02 0. -1.
       -2    1    3    3    0  502  0.11243255077E+04  0.11036477753E+04 -0.11509219382E+04  0.19510939411E+04  0.25500000920E-02 0.  1.
</event>
<event>
 5   0  0.9538919E-07  0.3455465E+04  0.7818609E-02  0.8124426E-01
        2   -1    0    0  501    0  0.00000000000E+00  0.00000000000E+00  0.15415209296E+04  0.15415209296E+04  0.25500000920E-02 0. -1.
       -2   -1    0    0    0  501  0.00000000000E+00  0.00000000000E+00 -0.19364380165E+04  0.19364380165E+04  0.25500000920E-02 0.  1.
    10030    2    1    2    0    0  0.00000000000E+00  0.00000000000E+00 -0.39491708685E+03  0.34779589461E+04  0.34554650809E+04 0.  0.
        4    1    3    3  502    0  0.34457660806E+03 -0.36486876581E+03  0.14665414494E+04  0.15500347385E+04  0.12699999809E+01 0. -1.
       -4    1    3    3    0  502 -0.34457660806E+03  0.36486876581E+03 -0.18614585362E+04  0.19279242075E+04  0.12699999809E+01 0.  1.
</event>
<event>
 5   0  0.9878336E-07  0.3646424E+04  0.7818609E-02  0.8079940E-01
        2   -1    0    0  501    0  0.00000000000E+00  0.00000000000E+00  0.18884190658E+04  0.18884190658E+04  0.25500000920E-02 0. -1.
       -2   -1    0    0    0  501  0.00000000000E+00  0.00000000000E+00 -0.17602562824E+04  0.17602562824E+04  0.25500000920E-02 0.  1.
    10030    2    1    2    0    0  0.00000000000E+00  0.00000000000E+00  0.12816278343E+03  0.36486753482E+04  0.36464237408E+04 0.  0.
        3    1    3    3  502    0 -0.18323080428E+02  0.18201113745E+04  0.16883779183E+03  0.18280173306E+04  0.10100000352E+00 0.  1.
       -3    1    3    3    0  502  0.18323080428E+02 -0.18201113745E+04 -0.40675008407E+02  0.18206580176E+04  0.10100000352E+00 0. -1.
</event>
<event>
 5   0  0.3242047E-07  0.2586915E+04  0.7818609E-02  0.8372659E-01
       -1   -1    0    0    0  501  0.00000000000E+00  0.00000000000E+00  0.81254024497E+03  0.81254024499E+03  0.50400001928E-02 0. -1.
        1   -1    0    0  501    0  0.00000000000E+00  0.00000000000E+00 -0.20590149642E+04  0.20590149642E+04  0.50400001928E-02 0.  1.
    10030    2    1    2    0    0  0.00000000000E+00  0.00000000000E+00 -0.12464747192E+04  0.28715552091E+04  0.25869151694E+04 0.  0.
        1    1    3    3  502    0  0.53492993684E+03 -0.54684470836E+03 -0.17809963546E+04  0.19383336110E+04  0.50400001928E-02 0.  1.
       -1    1    3    3    0  502 -0.53492993684E+03  0.54684470836E+03  0.53452163546E+03  0.93322159811E+03  0.50400001928E-02 0. -1.
</event>
<event>
 5   0  0.3365378E-07  0.3163827E+04  0.7818609E-02  0.8198436E-01
       -1   -1    0    0    0  501  0.00000000000E+00  0.00000000000E+00  0.25923607337E+04  0.25923607337E+04  0.50400001928E-02 0. -1.
        1   -1    0    0  501    0  0.00000000000E+00  0.00000000000E+00 -0.96531742377E+03  0.96531742378E+03  0.50400001928E-02 0.  1.
    10030    2    1    2    0    0  0.00000000000E+00  0.00000000000E+00  0.16270433099E+04  0.35576781575E+04  0.31638274194E+04 0.  0.
        3    1    3    3  502    0  0.51359130941E+03  0.30536757642E+03  0.24605861279E+04  0.25320958696E+04  0.10100000352E+00 0. -1.
       -3    1    3    3    0  502 -0.51359130941E+03 -0.30536757642E+03 -0.83354281792E+03  0.10255822879E+04  0.10100000352E+00 0.  1.
</event>
<event>
 5   0  0.3159875E-07  0.3608171E+04  0.7818609E-02  0.8088623E-01
       -1   -1    0    0    0  501  0.00000000000E+00  0.00000000000E+00  0.10202427918E+04  0.10202427918E+04  0.50400001928E-02 0.  1.
        1   -1    0    0  501    0  0.00000000000E+00  0.00000000000E+00 -0.31901474329E+04  0.31901474329E+04  0.50400001928E-02 0. -1.
    10030    2    1    2    0    0  0.00000000000E+00  0.00000000000E+00 -0.21699046411E+04  0.42103902247E+04  0.36081712393E+04 0.  0.
        5    1    3    3  502    0  0.55615702376E+03 -0.12302253458E+04 -0.24813119508E+04  0.28248355924E+04  0.46999998093E+01 0. -1.
       -5    1    3    3    0  502 -0.55615702376E+03  0.12302253458E+04  0.31140730974E+03  0.13855546323E+04  0.46999998093E+01 0.  1.
</event>
<event>
 5   0  0.3159875E-07  0.3676142E+04  0.7818609E-02  0.8073270E-01
        1   -1    0    0  501    0  0.00000000000E+00  0.00000000000E+00  0.20284660502E+04  0.20284660502E+04  0.50400001928E-02 0.  1.
       -1   -1    0    0    0  501  0.00000000000E+00  0.00000000000E+00 -0.16655469476E+04  0.16655469476E+04  0.50400001928E-02 0. -1.
    10030    2    1    2    0    0  0.00000000000E+00  0.00000000000E+00  0.36291910263E+03  0.36940129978E+04  0.36761422378E+04 0.  0.
        5    1    3    3  502    0  0.75185747950E+02 -0.25825681261E+03 -0.16456573283E+04  0.16675010075E+04  0.46999998093E+01 0. -1.
       -5    1    3    3    0  502 -0.75185747950E+02  0.25825681261E+03  0.20085764309E+04  0.20265119903E+04  0.46999998093E+01 0.  1.
</event>
<event>
 5   0  0.1031659E-06  0.3607581E+04  0.7818609E-02  0.8088757E-01
       -2   -1    0    0    0  501  0.00000000000E+00  0.00000000000E+00  0.90695443375E+03  0.90695443376E+03  0.25500000920E-02 0. -1.
        2   -1    0    0  501    0  0.00000000000E+00  0.00000000000E+00 -0.35874578339E+04  0.35874578339E+04  0.25500000920E-02 0.  1.
    10030    2    1    2    0    0  0.00000000000E+00  0.00000000000E+00 -0.26805034001E+04  0.44944122676E+04  0.36075813440E+04 0.  0.
        2    1    3    3  502    0  0.11629798857E+04 -0.10442340957E+04 -0.21851600922E+03  0.15781940018E+04  0.25500000920E-02 0. -1.
       -2    1    3    3    0  502 -0.11629798857E+04  0.10442340957E+04 -0.24619873909E+04  0.29162182658E+04  0.25500000920E-02 0.  1.
</event>
<event>
 5   0  0.1031659E-06  0.3621913E+04  0.7818609E-02  0.8085491E-01
        2   -1    0    0  501    0  0.00000000000E+00  0.00000000000E+00  0.10012305902E+04  0.10012305902E+04  0.25500000920E-02 0. -1.
       -2   -1    0    0    0  501  0.00000000000E+00  0.00000000000E+00 -0.32755335021E+04  0.32755335021E+04  0.25500000920E-02 0.  1.
    10030    2    1    2    0    0  0.00000000000E+00  0.00000000000E+00 -0.22743029119E+04  0.42767640923E+04  0.36219134951E+04 0.  0.
        2    1    3    3  502    0 -0.82333811020E+03 -0.20668169490E+01 -0.30417510856E+04  0.31512123988E+04  0.25500000920E-02 0.  1.
       -2    1    3    3    0  502  0.82333811020E+03  0.20668169490E+01  0.76744817372E+03  0.11255516935E+04  0.25500000920E-02 0. -1.
</event>
<event>
 5   0  0.3365378E-07  0.3573048E+04  0.7818609E-02  0.8096693E-01
        1   -1    0    0  501    0  0.00000000000E+00  0.00000000000E+00  0.19212011440E+04  0.19212011440E+04  0.50400001928E-02 0.  1.
       -1   -1    0    0    0  501  0.00000000000E+00  0.00000000000E+00 -0.16612882176E+04  0.16612882176E+04  0.50400001928E-02 0. -1.
    10030    2    1    2    0    0  0.00000000000E+00  0.00000000000E+00  0.25991292642E+03  0.35824893616E+04  0.35730484599E+04 0.  0.
        3    1    3    3  502    0  0.44480878646E+03 -0.83568146017E+03 -0.13891211539E+04  0.16810341906E+04  0.10100000352E+00 0. -1.
       -3    1    3    3    0  502 -0.44480878646E+03  0.83568146017E+03  0.16490340803E+04  0.19014551711E+04  0.10100000352E+00 0.  1.
</event>
<event>
 5   0  0.3242047E-07  0.3605467E+04  0.7818609E-02  0.8089241E-01
        1   -1    0    0  501    0  0.00000000000E+00  0.00000000000E+00  0.17055765573E+04  0.17055765573E+04  0.50400001928E-02 0. -1.
       -1   -1    0    0    0  501  0.00000000000E+00  0.00000000000E+00 -0.19054250869E+04  0.19054250869E+04  0.50400001928E-02 0.  1.
    10030    2    1    2    0    0  0.00000000000E+00  0.00000000000E+00 -0.19984852961E+03  0.36110016443E+04  0.36054671598E+04 0.  0.
        1    1    3    3  502    0 -0.12092667329E+04 -0.12866928793E+04  0.26387395957E+03  0.17853666468E+04  0.50400001928E-02 0. -1.
       -1    1    3    3    0  502  0.12092667329E+04  0.12866928793E+04 -0.46372248918E+03  0.18256349975E+04  0.50400001928E-02 0.  1.
</event>
<event>
 5   0  0.1006019E-06  0.3583010E+04  0.7818609E-02  0.8094395E-01
       -2   -1    0    0    0  501  0.00000000000E+00  0.00000000000E+00  0.18456202625E+04  0.18456202625E+04  0.25500000920E-02 0. -1.
        2   -1    0    0  501    0  0.00000000000E+00  0.00000000000E+00 -0.17389766846E+04  0.17389766846E+04  0.25500000920E-02 0.  1.
    10030    2    1    2    0    0  0.00000000000E+00  0.00000000000E+00  0.10664357791E+03  0.35845969470E+04  0.35830102456E+04 0.  0.
        1    1    3    3  502    0  0.77412345191E+03  0.11963138792E+04  0.11396463663E+04  0.18246171809E+04  0.50400001928E-02 0. -1.
       -1    1    3    3    0  502 -0.77412345191E+03 -0.11963138792E+04 -0.10330027884E+04  0.17599797662E+04  0.50400001928E-02 0.  1.
</event>
<event>
 5   0  0.9878977E-07  0.3512709E+04  0.7818609E-02  0.8110785E-01
        2   -1    0    0  501    0  0.00000000000E+00  0.00000000000E+00  0.24912599098E+04  0.24912599098E+04  0.25500000920E-02 0.  1.
       -2   -1    0    0    0  501  0.00000000000E+00  0.00000000000E+00 -0.12382416914E+04  0.12382416914E+04  0.25500000920E-02 0. -1.
    10030    2    1    2    0    0  0.00000000000E+00  0.00000000000E+00  0.12530182184E+04  0.37295016012E+04  0.35127094298E+04 0.  0.
        5    1    3    3  502    0  0.11187724451E+03  0.46400268515E+03 -0.11680571369E+04  0.12618219267E+04  0.46999998093E+01 0. -1.
       -5    1    3    3    0  502 -0.11187724451E+03 -0.46400268515E+03  0.24210753554E+04  0.24676796745E+04  0.46999998093E+01 0.  1.
</event>
<event>
 5   0  0.3159875E-07  0.3591319E+04  0.7818609E-02  0.8092483E-01
       -1   -1    0    0    0  501  0.00000000000E+00  0.00000000000E+00  0.28014569084E+04  0.28014569084E+04  0.50400001928E-02 0.  1.
        1   -1    0    0  501    0  0.00000000000E+00  0.00000000000E+00 -0.11509701568E+04  0.11509701568E+04  0.50400001928E-02 0. -1.
    10030    2    1    2    0    0  0.00000000000E+00  0.00000000000E+00  0.16504867516E+04  0.39524270653E+04  0.35913191433E+04 0.  0.
        2    1    3    3  502    0 -0.93295794409E+03  0.12986156646E+04  0.17244542787E+04  0.23517133604E+04  0.25500000920E-02 0.  1.
       -2    1    3    3    0  502  0.93295794409E+03 -0.12986156646E+04 -0.73967527146E+02  0.16007137049E+04  0.25500000920E-02 0. -1.
</event>
<event>
 5   0  0.3159875E-07  0.3586129E+04  0.7818609E-02  0.8093676E-01
        1   -1    0    0  501    0  0.00000000000E+00  0.00000000000E+00  0.25652736716E+04  0.25652736716E+04  0.50400001928E-02 0. -1.
       -1   -1    0    0    0  501  0.00000000000E+00  0.00000000000E+00 -0.12533089416E+04  0.12533089416E+04  0.50400001928E-02 0.  1.
    10030    2    1    2    0    0  0.00000000000E+00  0.00000000000E+00  0.13119647300E+04  0.38185826131E+04  0.35861290720E+04 0.  0.
        2    1    3    3  502    0 -0.90532009323E+03 -0.34596538094E+03  0.22623383134E+04  0.24611930360E+04  0.25500000920E-02 0. -1.
       -2    1    3    3    0  502  0.90532009323E+03  0.34596538094E+03 -0.95037358346E+03  0.13573895772E+04  0.25500000920E-02 0.  1.
</event>
<event>
 5   0  0.3365378E-07  0.3584380E+04  0.7818609E-02  0.8094079E-01
        1   -1    0    0  501    0  0.00000000000E+00  0.00000000000E+00  0.14550762268E+04  0.14550762268E+04  0.50400001928E-02 0. -1.
       -1   -1    0    0    0  501  0.00000000000E+00  0.00000000000E+00 -0.22074066142E+04  0.22074066142E+04  0.50400001928E-02 0.  1.
    10030    2    1    2    0    0  0.00000000000E+00  0.00000000000E+00 -0.75233038741E+03  0.36624828410E+04  0.35843799393E+04 0.  0.
        3    1    3    3  502    0  0.16026045356E+04 -0.29052395146E+03 -0.11402558943E+04  0.19881974194E+04  0.10100000352E+00 0. -1.
       -3    1    3    3    0  502 -0.16026045356E+04  0.29052395146E+03  0.38792550689E+03  0.16742854216E+04  0.10100000352E+00 0.  1.
</event>
<event>
 5   0  0.9878336E-07  0.3635925E+04  0.7818609E-02  0.8082312E-01
       -2   -1    0    0    0  501  0.00000000000E+00  0.00000000000E+00  0.28863684069E+04  0.28863684069E+04  0.25500000920E-02 0.  1.
        2   -1    0    0  501    0  0.00000000000E+00  0.00000000000E+00 -0.11450331015E+04  0.11450331015E+04  0.25500000920E-02 0. -1.
    10030    2    1    2    0    0  0.00000000000E+00  0.00000000000E+00  0.17413353054E+04  0.40314015083E+04  0.36359248446E+04 0.  0.
        3    1    3    3  502    0 -0.14477109722E+04 -0.10940072163E+04  0.74785670766E+03  0.19626534370E+04  0.10100000352E+00 0.  1.
       -3    1    3    3    0  502  0.14477109722E+04  0.10940072163E+04  0.99347859775E+03  0.20687480714E+04  0.10100000352E+00 0. -1.
</event>
<event>
 5   0  0.3159875E-07  0.3667182E+04  0.7818609E-02  0.8075274E-01
        1   -1    0    0  501    0  0.00000000000E+00  0.00000000000E+00  0.11076272368E+04  0.11076272368E+04  0.50400001928E-02 0.  1.
       -1   -1    0    0    0  501  0.00000000000E+00  0.00000000000E+00 -0.30353670731E+04  0.30353670731E+04  0.50400001928E-02 0. -1.
    10030    2    1    2    0    0  0.00000000000E+00  0.00000000000E+00 -0.19277398363E+04  0.41429943098E+04  0.36671816119E+04 0.  0.
        5    1    3    3  502    0  0.11593618099E+04 -0.44635367374E+03  0.55969257368E+03  0.13625818417E+04  0.46999998093E+01 0.  1.
       -5    1    3    3    0  502 -0.11593618099E+04  0.44635367374E+03 -0.24874324100E+04  0.27804124681E+04  0.46999998093E+01 0. -1.
</event>
<event>
 5   0  0.3278988E-07  0.3606931E+04  0.7818609E-02  0.8088906E-01
        1   -1    0    0  501    0  0.00000000000E+00  0.00000000000E+00  0.25978119843E+04  0.25978119843E+04  0.50400001928E-02 0. -1.
       -1   -1    0    0    0  501  0.00000000000E+00  0.00000000000E+00 -0.12520107291E+04  0.12520107291E+04  0.50400001928E-02 0.  1.
    10030    2    1    2    0    0  0.00000000000E+00  0.00000000000E+00  0.13458012551E+04  0.38498227134E+04  0.36069313698E+04 0.  0.
        4    1    3    3  502    0  0.10796746458E+04  0.14444768859E+04  0.69063418351E+03  0.19311105621E+04  0.12699999809E+01 0.  1.
       -4    1    3    3    0  502 -0.10796746458E+04 -0.14444768859E+04  0.65516707164E+03  0.19187121513E+04  0.12699999809E+01 0. -1.
</event>
<event>
 5   0  0.9878336E-07  0.3601537E+04  0.7818609E-02  0.8090140E-01
        2   -1    0    0  501    0  0.00000000000E+00  0.00000000000E+00  0.12729079391E+04  0.12729079391E+04  0.25500000920E-02 0.  1.
       -2   -1    0    0    0  501  0.00000000000E+00  0.00000000000E+00 -0.25475274468E+04  0.25475274468E+04  0.25500000920E-02 0. -1.
    10030    2    1    2    0    0  0.00000000000E+00  0.00000000000E+00 -0.12746195076E+04  0.38204353859E+04  0.36015374007E+04 0.  0.
        3    1    3    3  502    0  0.29975764573E+03  0.19332358080E+02 -0.25207645410E+04  0.25385984849E+04  0.10100000352E+00 0. -1.
       -3    1    3    3    0  502 -0.29975764573E+03 -0.19332358080E+02  0.12461450334E+04  0.12818369010E+04  0.10100000352E+00 0.  1.
</event>
<event>
 5   0  0.9878977E-07  0.2893261E+04  0.7818609E-02  0.8274885E-01
        2   -1    0    0  501    0  0.00000000000E+00  0.00000000000E+00  0.14806792424E+04  0.14806792424E+04  0.25500000920E-02 0. -1.
       -2   -1    0    0    0  501  0.00000000000E+00  0.00000000000E+00 -0.14133649366E+04  0.14133649366E+04  0.25500000920E-02 0.  1.
    10030    2    1    2    0    0  0.00000000000E+00  0.00000000000E+00  0.67314305744E+02  0.28940441790E+04  0.28932612212E+04 0.  0.
        5    1    3    3  502    0 -0.10658046405E+04  0.63508887785E+03  0.77779436965E+03  0.14643304224E+04  0.46999998093E+01 0. -1.
       -5    1    3    3    0  502  0.10658046405E+04 -0.63508887785E+03 -0.71048006391E+03  0.14297137566E+04  0.46999998093E+01 0.  1.
</event>
<event>
 5   0  0.9878977E-07  0.3137669E+04  0.7818609E-02  0.8205475E-01
       -2   -1    0    0    0  501  0.00000000000E+00  0.00000000000E+00  0.96867982539E+03  0.96867982539E+03  0.25500000920E-02 0.  1.
        2   -1    0    0  501    0  0.00000000000E+00  0.00000000000E+00 -0.25408200938E+04  0.25408200938E+04  0.25500000920E-02 0. -1.
    10030    2    1    2    0    0  0.00000000000E+00  0.00000000000E+00 -0.15721402684E+04  0.35094999192E+04  0.31376686663E+04 0.  0.
        5    1    3    3  502    0 -0.61956838890E+03 -0.12925602251E+04 -0.72815909229E+02  0.14352355802E+04  0.46999998093E+01 0. -1.
       -5    1    3    3    0  502  0.61956838890E+03  0.12925602251E+04 -0.14993243592E+04  0.20742643390E+04  0.46999998093E+01 0.  1.
</event>
<event>
 5   0  0.9878977E-07  0.3609355E+04  0.7818609E-02  0.8088352E-01
       -2   -1    0    0    0  501  0.00000000000E+00  0.00000000000E+00  0.15539387432E+04  0.15539387432E+04  0.25500000920E-02 0. -1.
        2   -1    0    0  501    0  0.00000000000E+00  0.00000000000E+00 -0.20958744639E+04  0.20958744639E+04  0.25500000920E-02 0.  1.
    10030    2    1    2    0    0  0.00000000000E+00  0.00000000000E+00 -0.54193572068E+03  0.36498132070E+04  0.36093548067E+04 0.  0.
        5    1    3    3  502    0 -0.12842936662E+04 -0.63338055514E+03  0.83964075474E+03  0.16599999505E+04  0.46999998093E+01 0. -1.
       -5    1    3    3    0  502  0.12842936662E+04  0.63338055514E+03 -0.13815764754E+04  0.19898132566E+04  0.46999998093E+01 0.  1.
</event>
<event>
 5   0  0.1031659E-06  0.3571975E+04  0.7818609E-02  0.8096941E-01
       -2   -1    0    0    0  501  0.00000000000E+00  0.00000000000E+00  0.12666177854E+04  0.12666177854E+04  0.25500000920E-02 0. -1.
        2   -1    0    0  501    0  0.00000000000E+00  0.00000000000E+00 -0.25183217859E+04  0.25183217859E+04  0.25500000920E-02 0.  1.
    10030    2    1    2    0    0  0.00000000000E+00  0.00000000000E+00 -0.12517040005E+04  0.37849395713E+04  0.35719748954E+04 0.  0.
        2    1    3    3  502    0  0.80180024752E+03  0.15791673837E+04 -0.87002027131E+03  0.19732178124E+04  0.25500000920E-02 0.  1.
       -2    1    3    3    0  502 -0.80180024752E+03 -0.15791673837E+04 -0.38168372923E+03  0.18117217589E+04  0.25500000920E-02 0. -1.
</event>
<event>
 5   0  0.9538919E-07  0.3532245E+04  0.7818609E-02  0.8106190E-01
       -2   -1    0    0    0  501  0.00000000000E+00  0.00000000000E+00  0.21577399818E+04  0.21577399818E+04  0.25500000920E-02 0.  1.
        2   -1    0    0  501    0  0.00000000000E+00  0.00000000000E+00 -0.14455817567E+04  0.14455817567E+04  0.25500000920E-02 0. -1.
    10030    2    1    2    0    0  0.00000000000E+00  0.00000000000E+00  0.71215822510E+03  0.36033217384E+04  0.35322454916E+04 0.  0.
        4    1    3    3  502    0 -0.76169638266E+03 -0.10773907531E+04  0.15536849768E+04  0.20383549334E+04  0.12699999809E+01 0.  1.
       -4    1    3    3    0  502  0.76169638266E+03  0.10773907531E+04 -0.84152675170E+03  0.15649668051E+04  0.12699999809E+01 0. -1.
</event>
<event>
 5   0  0.9878336E-07  0.3602338E+04  0.7818609E-02  0.8089956E-01
       -2   -1    0    0    0  501  0.00000000000E+00  0.00000000000E+00  0.16245506965E+04  0.16245506965E+04  0.25500000920E-02 0.  1.
        2   -1    0    0  501    0  0.00000000000E+00  0.00000000000E+00 -0.19969887912E+04  0.19969887912E+04  0.25500000920E-02 0. -1.
    10030    2    1    2    0    0  0.00000000000E+00  0.00000000000E+00 -0.37243809474E+03  0.36215394878E+04  0.36023378696E+04 0.  0.
        3    1    3    3  502    0 -0.70643051977E+03  0.13039537850E+04 -0.12138564548E+04  0.19164516837E+04  0.10100000352E+00 0. -1.
       -3    1    3    3    0  502  0.70643051977E+03 -0.13039537850E+04  0.84141836008E+03  0.17050878041E+04  0.10100000352E+00 0.  1.
</event>
<event>
 5   0  0.9878977E-07  0.3535571E+04  0.7818609E-02  0.8105412E-01
        2   -1    0    0  501    0  0.00000000000E+00  0.00000000000E+00  0.11265141631E+04  0.11265141631E+04  0.25500000920E-02 0.  1.
       -2   -1    0    0    0  501  0.00000000000E+00  0.00000000000E+00 -0.27741018811E+04  0.27741018811E+04  0.25500000920E-02 0. -1.
    10030    2    1    2    0    0  0.00000000000E+00  0.00000000000E+00 -0.16475877180E+04  0.39006160443E+04  0.35355707087E+04 0.  0.
        5    1    3    3  502    0 -0.41845920047E+02 -0.58104808236E+03 -0.26651546870E+04  0.27280834941E+04  0.46999998093E+01 0. -1.
       -5    1    3    3    0  502  0.41845920047E+02  0.58104808236E+03  0.10175669689E+04  0.11725325502E+04  0.46999998093E+01 0.  1.
</event>
<event>
 5   0  0.1006019E-06  0.3652427E+04  0.7818609E-02  0.8078587E-01
       -2   -1    0    0    0  501  0.00000000000E+00  0.00000000000E+00  0.16670094214E+04  0.16670094214E+04  0.25500000920E-02 0.  1.
        2   -1    0    0  501    0  0.00000000000E+00  0.00000000000E+00 -0.20006215226E+04  0.20006215226E+04  0.25500000920E-02 0. -1.
    10030    2    1    2    0    0  0.00000000000E+00  0.00000000000E+00 -0.33361210117E+03  0.36676309440E+04  0.36524265506E+04 0.  0.
        1    1    3    3  502    0  0.17042813503E+04 -0.44266758646E+03 -0.65310025341E+03  0.18780493748E+04  0.50400001928E-02 0. -1.
       -1    1    3    3    0  502 -0.17042813503E+04  0.44266758646E+03  0.31948815224E+03  0.17895815692E+04  0.50400001928E-02 0.  1.
</event>
<event>
 5   0  0.1006019E-06  0.3682269E+04  0.7818609E-02  0.8071903E-01
        2   -1    0    0  501    0  0.00000000000E+00  0.00000000000E+00  0.23933045159E+04  0.23933045159E+04  0.25500000920E-02 0.  1.
       -2   -1    0    0    0  501  0.00000000000E+00  0.00000000000E+00 -0.14163581690E+04  0.14163581690E+04  0.25500000920E-02 0. -1.
    10030    2    1    2    0    0  0.00000000000E+00  0.00000000000E+00  0.97694634689E+03  0.38096626850E+04  0.36822690842E+04 0.  0.
        1    1    3    3  502    0 -0.86684470254E+03  0.68176216690E+03 -0.10368312174E+04  0.15136837067E+04  0.50400001928E-02 0. -1.
       -1    1    3    3    0  502  0.86684470254E+03 -0.68176216690E+03  0.20137775642E+04  0.22959789783E+04  0.50400001928E-02 0.  1.
</event>
<event>
 5   0  0.3159875E-07  0.3291627E+04  0.7818609E-02  0.8165029E-01
       -1   -1    0    0    0  501  0.00000000000E+00  0.00000000000E+00  0.14752504784E+04  0.14752504784E+04  0.50400001928E-02 0.  1.
        1   -1    0    0  501    0  0.00000000000E+00  0.00000000000E+00 -0.18360960232E+04  0.18360960232E+04  0.50400001928E-02 0. -1.
    10030    2    1    2    0    0  0.00000000000E+00  0.00000000000E+00 -0.36084554480E+03  0.33113465016E+04  0.32916266718E+04 0.  0.
        2    1    3    3  502    0 -0.62750159403E+03 -0.14838067106E+04  0.15813603812E+03  0.16187796674E+04  0.25500000920E-02 0. -1.
       -2    1    3    3    0  502  0.62750159403E+03  0.14838067106E+04 -0.51898158292E+03  0.16925668342E+04  0.25500000920E-02 0.  1.
</event>
<event>
 5   0  0.9878336E-07  0.2931448E+04  0.7818609E-02  0.8263582E-01
        2   -1    0    0  501    0  0.00000000000E+00  0.00000000000E+00  0.18561991260E+04  0.18561991260E+04  0.25500000920E-02 0. -1.
       -2   -1    0    0    0  501  0.00000000000E+00  0.00000000000E+00 -0.11573902218E+04  0.11573902218E+04  0.25500000920E-02 0.  1.
    10030    2    1    2    0    0  0.00000000000E+00  0.00000000000E+00  0.69880890418E+03  0.30135893478E+04  0.29314479140E+04 0.  0.
        3    1    3    3  502    0 -0.47415799833E+03 -0.41534802928E+03  0.17097392908E+04  0.18222371540E+04  0.10100000352E+00 0. -1.
       -3    1    3    3    0  502  0.47415799833E+03  0.41534802928E+03 -0.10109303866E+04  0.11913521938E+04  0.10100000352E+00 0.  1.
</event>
<event>
 5   0  0.3278988E-07  0.3664631E+04  0.7818609E-02  0.8075846E-01
        1   -1    0    0  501    0  0.00000000000E+00  0.00000000000E+00  0.18763365752E+04  0.18763365752E+04  0.50400001928E-02 0.  1.
       -1   -1    0    0    0  501  0.00000000000E+00  0.00000000000E+00 -0.17893271566E+04  0.17893271566E+04  0.50400001928E-02 0. -1.
    10030    2    1    2    0    0  0.00000000000E+00  0.00000000000E+00  0.87009418610E+02  0.36656637318E+04  0.36646309440E+04 0.  0.
        4    1    3    3  502    0 -0.14322017517E+04  0.10404171871E+04 -0.42960701829E+03  0.18216019279E+04  0.12699999809E+01 0. -1.
       -4    1    3    3    0  502  0.14322017517E+04 -0.10404171871E+04  0.51661643690E+03  0.18440618039E+04  0.12699999809E+01 0.  1.
</event>
<event>
 5   0  0.3242047E-07  0.3751406E+04  0.7818609E-02  0.8056664E-01
        1   -1    0    0  501    0  0.00000000000E+00  0.00000000000E+00  0.20309982718E+04  0.20309982718E+04  0.50400001928E-02 0.  1.
       -1   -1    0    0    0  501  0.00000000000E+00  0.00000000000E+00 -0.17322819291E+04  0.17322819291E+04  0.50400001928E-02 0. -1.
    10030    2    1    2    0    0  0.00000000000E+00  0.00000000000E+00  0.29871634278E+03  0.37632802009E+04  0.37514059254E+04 0.  0.
        1    1    3    3  502    0  0.12987185070E+04 -0.12065311102E+04 -0.46566848746E+03  0.18328213826E+04  0.50400001928E-02 0.  1.
       -1    1    3    3    0  502 -0.12987185070E+04  0.12065311102E+04  0.76438483024E+03  0.19304588183E+04  0.50400001928E-02 0. -1.
</event>
<event>
 5   0  0.3159875E-07  0.3741263E+04  0.7818609E-02  0.8058879E-01
        1   -1    0    0  501    0  0.00000000000E+00  0.00000000000E+00  0.24674652879E+04  0.24674652879E+04  0.50400001928E-02 0.  1.
       -1   -1    0    0    0  501  0.00000000000E+00  0.00000000000E+00 -0.14181603087E+04  0.14181603087E+04  0.50400001928E-02 0. -1.
    10030    2    1    2    0    0  0.00000000000E+00  0.00000000000E+00  0.10493049792E+04  0.38856255966E+04  0.37412625326E+04 0.  0.
        5    1    3    3  502    0 -0.18574494655E+04  0.11044430241E+03  0.32508491272E+03  0.18889199960E+04  0.46999998093E+01 0. -1.
       -5    1    3    3    0  502  0.18574494655E+04 -0.11044430241E+03  0.72422006651E+03  0.19967056006E+04  0.46999998093E+01 0.  1.
</event>
<event>
 5   0  0.9538919E-07  0.3552009E+04  0.7818609E-02  0.8101574E-01
        2   -1    0    0  501    0  0.00000000000E+00  0.00000000000E+00  0.18212138222E+04  0.18212138222E+04  0.25500000920E-02 0.  1.
       -2   -1    0    0    0  501  0.00000000000E+00  0.00000000000E+00 -0.17319174004E+04  0.17319174004E+04  0.25500000920E-02 0. -1.
    10030    2    1    2    0    0  0.00000000000E+00  0.00000000000E+00  0.89296421846E+02  0.35531312226E+04  0.35520089575E+04 0.  0.
        4    1    3    3  502    0  0.14873111914E+04  0.55184711643E+03  0.84337433208E+03  0.17966390001E+04  0.12699999809E+01 0.  1.
       -4    1    3    3    0  502 -0.14873111914E+04 -0.55184711643E+03 -0.75407791023E+03  0.17564922225E+04  0.12699999809E+01 0. -1.
</event>
<event>
 5   0  0.3159875E-07  0.3486457E+04  0.7818609E-02  0.8117007E-01
        1   -1    0    0  501    0  0.00000000000E+00  0.00000000000E+00  0.23174728886E+04  0.23174728886E+04  0.50400001928E-02 0.  1.
       -1   -1    0    0    0  501  0.00000000000E+00  0.00000000000E+00 -0.13112755054E+04  0.13112755054E+04  0.50400001928E-02 0. -1.
    10030    2    1    2    0    0  0.00000000000E+00  0.00000000000E+00  0.10061973832E+04  0.36287483940E+04  0.34864569025E+04 0.  0.
        2    1    3    3  502    0  0.20353288444E+03 -0.10211273387E+04 -0.95207453508E+03  0.14108765351E+04  0.25500000920E-02 0. -1.
       -2    1    3    3    0  502 -0.20353288444E+03  0.10211273387E+04  0.19582719182E+04  0.22178718589E+04  0.25500000920E-02 0.  1.
</event>
<event>
 5   0  0.1031659E-06  0.3598515E+04  0.7818609E-02  0.8090832E-01
       -2   -1    0    0    0  501  0.00000000000E+00  0.00000000000E+00  0.13838799805E+04  0.13838799805E+04  0.25500000920E-02 0.  1.
        2   -1    0    0  501    0  0.00000000000E+00  0.00000000000E+00 -0.23393117905E+04  0.23393117905E+04  0.25500000920E-02 0. -1.
    10030    2    1    2    0    0  0.00000000000E+00  0.00000000000E+00 -0.95543181000E+03  0.37231917711E+04  0.35985145575E+04 0.  0.
        2    1    3    3  502    0 -0.11563212522E+04  0.28815513681E+03 -0.18724622852E+04  0.22195105836E+04  0.25500000920E-02 0. -1.
       -2    1    3    3    0  502  0.11563212522E+04 -0.28815513681E+03  0.91703047516E+03  0.15036811875E+04  0.25500000920E-02 0.  1.
</event>
<event>
 5   0  0.1006019E-06  0.3775224E+04  0.7818609E-02  0.8051493E-01
        2   -1    0    0  501    0  0.00000000000E+00  0.00000000000E+00  0.12239237963E+04  0.12239237963E+04  0.25500000920E-02 0.  1.
       -2   -1    0    0    0  501  0.00000000000E+00  0.00000000000E+00 -0.29111938396E+04  0.29111938396E+04  0.25500000920E-02 0. -1.
    10030    2    1    2    0    0  0.00000000000E+00  0.00000000000E+00 -0.16872700433E+04  0.41351176359E+04  0.37752241873E+04 0.  0.
        1    1    3    3  502    0 -0.13778316606E+03  0.17727076070E+04 -0.15377694285E+04  0.23507895006E+04  0.50400001928E-02 0. -1.
       -1    1    3    3    0  502  0.13778316606E+03 -0.17727076070E+04 -0.14950061476E+03  0.17843281354E+04  0.50400001928E-02 0.  1.
</event>
<event>
 5   0  0.9878977E-07  0.3594818E+04  0.7818609E-02  0.8091680E-01
       -2   -1    0    0    0  501  0.00000000000E+00  0.00000000000E+00  0.14330468784E+04  0.14330468784E+04  0.25500000920E-02 0. -1.
        2   -1    0    0  501    0  0.00000000000E+00  0.00000000000E+00 -0.22544129979E+04  0.22544129979E+04  0.25500000920E-02 0.  1.
    10030    2    1    2    0    0  0.00000000000E+00  0.00000000000E+00 -0.82136611949E+03  0.36874598764E+04  0.35948182204E+04 0.  0.
        5    1    3    3  502    0 -0.12258256106E+04  0.52075151497E+03 -0.16487791095E+04  0.21195106062E+04  0.46999998093E+01 0.  1.
       -5    1    3    3    0  502  0.12258256106E+04 -0.52075151497E+03  0.82741299000E+03  0.15679492702E+04  0.46999998093E+01 0. -1.
</event>
<event>
 5   0  0.3159875E-07  0.3600727E+04  0.7818609E-02  0.8090325E-01
        1   -1    0    0  501    0  0.00000000000E+00  0.00000000000E+00  0.21605750702E+04  0.21605750702E+04  0.50400001928E-02 0. -1.
       -1   -1    0    0    0  501  0.00000000000E+00  0.00000000000E+00 -0.15002066706E+04  0.15002066706E+04  0.50400001928E-02 0.  1.
    10030    2    1    2    0    0  0.00000000000E+00  0.00000000000E+00  0.66036839961E+03  0.36607817408E+04  0.36007272224E+04 0.  0.
        2    1    3    3  502    0 -0.12156691323E+04 -0.12946957432E+04  0.63044125042E+03  0.18845542382E+04  0.25500000920E-02 0. -1.
       -2    1    3    3    0  502  0.12156691323E+04  0.12946957432E+04  0.29927149195E+02  0.17762275025E+04  0.25500000920E-02 0.  1.
</event>
<event>
 5   0  0.3278988E-07  0.3696037E+04  0.7818609E-02  0.8068841E-01
       -1   -1    0    0    0  501  0.00000000000E+00  0.00000000000E+00  0.12184314431E+04  0.12184314431E+04  0.50400001928E-02 0.  1.
        1   -1    0    0  501    0  0.00000000000E+00  0.00000000000E+00 -0.28029254009E+04  0.28029254009E+04  0.50400001928E-02 0. -1.
    10030    2    1    2    0    0  0.00000000000E+00  0.00000000000E+00 -0.15844939578E+04  0.40213568440E+04  0.36960370351E+04 0.  0.
        4    1    3    3  502    0 -0.59068246638E+03 -0.11222289506E+04 -0.22547589172E+04  0.25869369883E+04  0.12699999809E+01 0. -1.
       -4    1    3    3    0  502  0.59068246638E+03  0.11222289506E+04  0.67026495944E+03  0.14344198557E+04  0.12699999809E+01 0.  1.
</event>
<event>
 5   0  0.9538919E-07  0.3582800E+04  0.7818609E-02  0.8094443E-01
       -2   -1    0    0    0  501  0.00000000000E+00  0.00000000000E+00  0.16638538047E+04  0.16638538047E+04  0.25500000920E-02 0.  1.
        2   -1    0    0  501    0  0.00000000000E+00  0.00000000000E+00 -0.19287235079E+04  0.19287235079E+04  0.25500000920E-02 0. -1.
    10030    2    1    2    0    0  0.00000000000E+00  0.00000000000E+00 -0.26486970324E+03  0.35925773126E+04  0.35827999926E+04 0.  0.
        4    1    3    3  502    0  0.75448275261E+03  0.14967711933E+04 -0.76625482638E+03  0.18430182585E+04  0.12699999809E+01 0.  1.
       -4    1    3    3    0  502 -0.75448275261E+03 -0.14967711933E+04  0.50138512314E+03  0.17495590541E+04  0.12699999809E+01 0. -1.
</event>
<event>
 5   0  0.9878336E-07  0.2885889E+04  0.7818609E-02  0.8277088E-01
        2   -1    0    0  501    0  0.00000000000E+00  0.00000000000E+00  0.68274631830E+03  0.68274631830E+03  0.25500000920E-02 0. -1.
       -2   -1    0    0    0  501  0.00000000000E+00  0.00000000000E+00 -0.30495780716E+04  0.30495780716E+04  0.25500000920E-02 0.  1.
    10030    2    1    2    0    0  0.00000000000E+00  0.00000000000E+00 -0.23668317533E+04  0.37323243899E+04  0.28858885639E+04 0.  0.
        3    1    3    3  502    0  0.47733664631E+03 -0.21378153413E+01 -0.29445077752E+04  0.29829483557E+04  0.10100000352E+00 0.  1.
       -3    1    3    3    0  502 -0.47733664631E+03  0.21378153413E+01  0.57767602192E+03  0.74937603422E+03  0.10100000352E+00 0. -1.
</event>
<event>
 5   0  0.3242047E-07  0.3349260E+04  0.7818609E-02  0.8150473E-01
        1   -1    0    0  501    0  0.00000000000E+00  0.00000000000E+00  0.24187433028E+04  0.24187433028E+04  0.50400001928E-02 0.  1.
       -1   -1    0    0    0  501  0.00000000000E+00  0.00000000000E+00 -0.11594391623E+04  0.11594391623E+04  0.50400001928E-02 0. -1.
    10030    2    1    2    0    0  0.00000000000E+00  0.00000000000E+00  0.12593041404E+04  0.35781824651E+04  0.33492600430E+04 0.  0.
        1    1    3    3  502    0  0.27584106922E+03 -0.47776240932E+03 -0.10595715145E+04  0.11945865434E+04  0.50400001928E-02 0. -1.
       -1    1    3    3    0  502 -0.27584106922E+03  0.47776240932E+03  0.23188756549E+04  0.23835959217E+04  0.50400001928E-02 0.  1.
</event>
<event>
 5   0  0.3365378E-07  0.3634010E+04  0.7818609E-02  0.8082745E-01
       -1   -1    0    0    0  501  0.00000000000E+00  0.00000000000E+00  0.24583793114E+04  0.24583793114E+04  0.50400001928E-02 0.  1.
        1   -1    0    0  501    0  0.00000000000E+00  0.00000000000E+00 -0.13429606193E+04  0.13429606193E+04  0.50400001928E-02 0. -1.
    10030    2    1    2    0    0  0.00000000000E+00  0.00000000000E+00  0.11154186921E+04  0.38013399306E+04  0.36340096876E+04 0.  0.
        3    1    3    3  502    0 -0.77056630098E+03  0.13418257594E+04  0.15540576714E+04  0.21930262308E+04  0.10100000352E+00 0.  1.
       -3    1    3    3    0  502  0.77056630098E+03 -0.13418257594E+04 -0.43863897931E+03  0.16083136998E+04  0.10100000352E+00 0. -1.
</event>
<event>
 5   0  0.3159875E-07  0.3246052E+04  0.7818609E-02  0.8176760E-01
       -1   -1    0    0    0  501  0.00000000000E+00  0.00000000000E+00  0.16610719492E+04  0.16610719492E+04  0.50400001928E-02 0.  1.
        1   -1    0    0  501    0  0.00000000000E+00  0.00000000000E+00 -0.15858514382E+04  0.15858514382E+04  0.50400001928E-02 0. -1.
    10030    2    1    2    0    0  0.00000000000E+00  0.00000000000E+00  0.75220510990E+02  0.32469233874E+04  0.32460519648E+04 0.  0.
        2    1    3    3  502    0 -0.59076786847E+03 -0.12882374712E+03 -0.14689850173E+04  0.15885588479E+04  0.25500000920E-02 0. -1.
       -2    1    3    3    0  502  0.59076786847E+03  0.12882374712E+03  0.15442055283E+04  0.16583645395E+04  0.25500000920E-02 0.  1.
</event>
<event>
 5   0  0.3159875E-07  0.3604019E+04  0.7818609E-02  0.8089572E-01
       -1   -1    0    0    0  501  0.00000000000E+00  0.00000000000E+00  0.15399047876E+04  0.15399047877E+04  0.50400001928E-02 0.  1.
        1   -1    0    0  501    0  0.00000000000E+00  0.00000000000E+00 -0.21087267023E+04  0.21087267023E+04  0.50400001928E-02 0. -1.
    10030    2    1    2    0    0  0.00000000000E+00  0.00000000000E+00 -0.56882191468E+03  0.36486314900E+04  0.36040190592E+04 0.  0.
        2    1    3    3  502    0 -0.14122791084E+03 -0.34345567410E+03 -0.20695679562E+04  0.21026218510E+04  0.25500000920E-02 0. -1.
       -2    1    3    3    0  502  0.14122791084E+03  0.34345567410E+03  0.15007460415E+04  0.15460096390E+04  0.25500000920E-02 0.  1.
</event>
<event>
 5   0  0.9878977E-07  0.3595984E+04  0.7818609E-02  0.8091412E-01
        2   -1    0    0  501    0  0.00000000000E+00  0.00000000000E+00  0.18319958479E+04  0.18319958479E+04  0.25500000920E-02 0.  1.
       -2   -1    0    0    0  501  0.00000000000E+00  0.00000000000E+00 -0.17646190542E+04  0.17646190542E+04  0.25500000920E-02 0. -1.
    10030    2    1    2    0    0  0.00000000000E+00  0.00000000000E+00  0.67376793678E+02  0.35966149021E+04  0.35959837488E+04 0.  0.
        5    1    3    3  502    0 -0.17540532711E+04 -0.12248432477E+03  0.40931709538E+03  0.18053442504E+04  0.46999998093E+01 0.  1.
       -5    1    3    3    0  502  0.17540532711E+04  0.12248432477E+03 -0.34194030170E+03  0.17912706517E+04  0.46999998093E+01 0. -1.
</event>
<event>
 5   0  0.3159875E-07  0.3590480E+04  0.7818609E-02  0.8092676E-01
        1   -1    0    0  501    0  0.00000000000E+00  0.00000000000E+00  0.15609286681E+04  0.15609286681E+04  0.50400001928E-02 0. -1.
       -1   -1    0    0    0  501  0.00000000000E+00  0.00000000000E+00 -0.20647240770E+04  0.20647240770E+04  0.50400001928E-02 0.  1.
    10030    2    1    2    0    0  0.00000000000E+00  0.00000000000E+00 -0.50379540887E+03  0.36256527451E+04  0.35904801927E+04 0.  0.
        5    1    3    3  502    0  0.51491833300E+01  0.12890884510E+04 -0.15135728669E+04  0.19881399503E+04  0.46999998093E+01 0. -1.
       -5    1    3    3    0  502 -0.51491833300E+01 -0.12890884510E+04  0.10097774580E+04  0.16375127948E+04  0.46999998093E+01 0.  1.
</event>
<event>
 5   0  0.3365378E-07  0.3592891E+04  0.7818609E-02  0.8092122E-01
        1   -1    0    0  501    0  0.00000000000E+00  0.00000000000E+00  0.19979838404E+04  0.19979838404E+04  0.50400001928E-02 0.  1.
       -1   -1    0    0    0  501  0.00000000000E+00  0.00000000000E+00 -0.16152362974E+04  0.16152362974E+04  0.50400001928E-02 0. -1.
    10030    2    1    2    0    0  0.00000000000E+00  0.00000000000E+00  0.38274754300E+03  0.36132201377E+04  0.35928907696E+04 0.  0.
        3    1    3    3  502    0 -0.58188053129E+03 -0.14017881237E+04  0.11578637030E+04  0.19089901156E+04  0.10100000352E+00 0.  1.
       -3    1    3    3    0  502  0.58188053129E+03  0.14017881237E+04 -0.77511616003E+03  0.17042300221E+04  0.10100000352E+00 0. -1.
</event>
<event>
 5   0  0.3159875E-07  0.3579193E+04  0.7818609E-02  0.8095274E-01
       -1   -1    0    0    0  501  0.00000000000E+00  0.00000000000E+00  0.16851381631E+04  0.16851381631E+04  0.50400001928E-02 0.  1.
        1   -1    0    0  501    0  0.00000000000E+00  0.00000000000E+00 -0.19005302454E+04  0.19005302454E+04  0.50400001928E-02 0. -1.
    10030    2    1    2    0    0  0.00000000000E+00  0.00000000000E+00 -0.21539208227E+03  0.35856684085E+04  0.35791932312E+04 0.  0.
        5    1    3    3  502    0 -0.49209166077E+03 -0.84862232939E+03 -0.16071736927E+04  0.18829082370E+04  0.46999998093E+01 0. -1.
       -5    1    3    3    0  502  0.49209166077E+03  0.84862232939E+03  0.13917816104E+04  0.17027601715E+04  0.46999998093E+01 0.  1.
</event>
<event>
 5   0  0.3242047E-07  0.3013806E+04  0.7818609E-02  0.8239800E-01
        1   -1    0    0  501    0  0.00000000000E+00  0.00000000000E+00  0.20455723474E+04  0.20455723474E+04  0.50400001928E-02 0.  1.
       -1   -1    0    0    0  501  0.00000000000E+00  0.00000000000E+00 -0.11100834424E+04  0.11100834425E+04  0.50400001928E-02 0. -1.
    10030    2    1    2    0    0  0.00000000000E+00  0.00000000000E+00  0.93548890496E+03  0.31556557899E+04  0.30138055632E+04 0.  0.
        1    1    3    3  502    0 -0.12980422300E+03  0.71149615568E+03 -0.91647632252E+03  0.11674779508E+04  0.50400001928E-02 0. -1.
       -1    1    3    3    0  502  0.12980422300E+03 -0.71149615568E+03  0.18519652275E+04  0.19881778391E+04  0.50400001928E-02 0.  1.
</event>
<event>
 5   0  0.1031659E-06  0.3514616E+04  0.7818609E-02  0.8110335E-01
        2   -1    0    0  501    0  0.00000000000E+00  0.00000000000E+00  0.16437429833E+04  0.16437429833E+04  0.25500000920E-02 0. -1.
       -2   -1    0    0    0  501  0.00000000000E+00  0.00000000000E+00 -0.18787187604E+04  0.18787187604E+04  0.25500000920E-02 0.  1.
    10030    2    1    2    0    0  0.00000000000E+00  0.00000000000E+00 -0.23497577714E+03  0.35224617437E+04  0.35146156433E+04 0.  0.
        2    1    3    3  502    0  0.79386786111E+03  0.82574286431E+03 -0.14531495106E+04  0.18503299595E+04  0.25500000920E-02 0.  1.
       -2    1    3    3    0  502 -0.79386786111E+03 -0.82574286431E+03  0.12181737334E+04  0.16721317842E+04  0.25500000920E-02 0. -1.
</event>
<event>
 5   0  0.1006019E-06  0.3570606E+04  0.7818609E-02  0.8097258E-01
        2   -1    0    0  501    0  0.00000000000E+00  0.00000000000E+00  0.19929378476E+04  0.19929378476E+04  0.25500000920E-02 0.  1.
       -2   -1    0    0    0  501  0.00000000000E+00  0.00000000000E+00 -0.15993005097E+04  0.15993005097E+04  0.25500000920E-02 0. -1.
    10030    2    1    2    0    0  0.00000000000E+00  0.00000000000E+00  0.39363733792E+03  0.35922383574E+04  0.35706058397E+04 0.  0.
        1    1    3    3  502    0  0.11984423945E+04 -0.11921758143E+04  0.77454435370E+03  0.18594263365E+04  0.50400001928E-02 0. -1.
       -1    1    3    3    0  502 -0.11984423945E+04  0.11921758143E+04 -0.38090701578E+03  0.17328120209E+04  0.50400001928E-02 0.  1.
</event>
<event>
 5   0  0.3159875E-07  0.3549190E+04  0.7818609E-02  0.8102231E-01
       -3   -1    0    0    0  501  0.00000000000E+00  0.00000000000E+00  0.19476590455E+04  0.19476590481E+04  0.10100000352E+00 0.  1.
        3   -1    0    0  501    0  0.00000000000E+00  0.00000000000E+00 -0.16169085371E+04  0.16169085402E+04  0.10100000352E+00 0. -1.
    10030    2    1    2    0    0  0.00000000000E+00  0.00000000000E+00  0.33075050841E+03  0.35645675883E+04  0.35491895121E+04 0.  0.
        4    1    3    3  502    0 -0.71059523377E+03  0.16260370289E+04  0.18102898578E+03  0.17837362788E+04  0.12699999809E+01 0.  1.
       -4    1    3    3    0  502  0.71059523377E+03 -0.16260370289E+04  0.14972152263E+03  0.17808313095E+04  0.12699999809E+01 0. -1.
</event>
<event>
 5   0  0.3159875E-07  0.3479970E+04  0.7818609E-02  0.8118553E-01
       -1   -1    0    0    0  501  0.00000000000E+00  0.00000000000E+00  0.19421255146E+04  0.19421255146E+04  0.50400001928E-02 0.  1.
        1   -1    0    0  501    0  0.00000000000E+00  0.00000000000E+00 -0.15588837545E+04  0.15588837545E+04  0.50400001928E-02 0. -1.
    10030    2    1    2    0    0  0.00000000000E+00  0.00000000000E+00  0.38324176016E+03  0.35010092691E+04  0.34799700653E+04 0.  0.
        2    1    3    3  502    0 -0.13861807669E+04  0.46224573699E+03 -0.75874883242E+03  0.16464713877E+04  0.25500000920E-02 0. -1.
       -2    1    3    3    0  502  0.13861807669E+04 -0.46224573699E+03  0.11419905926E+04  0.18545378814E+04  0.25500000920E-02 0.  1.
</event>
<event>
 5   0  0.3365378E-07  0.3621000E+04  0.7818609E-02  0.8085698E-01
        1   -1    0    0  501    0  0.00000000000E+00  0.00000000000E+00  0.27430418454E+04  0.27430418454E+04  0.50400001928E-02 0. -1.
       -1   -1    0    0    0  501  0.00000000000E+00  0.00000000000E+00 -0.11949912453E+04  0.11949912454E+04  0.50400001928E-02 0.  1.
    10030    2    1    2    0    0  0.00000000000E+00  0.00000000000E+00  0.15480506001E+04  0.39380330908E+04  0.36210004092E+04 0.  0.
        3    1    3    3  502    0  0.25089041050E+03 -0.18412686275E+03  0.27137356061E+04  0.27315214899E+04  0.10100000352E+00 0. -1.
       -3    1    3    3    0  502 -0.25089041050E+03  0.18412686275E+03 -0.11656850060E+04  0.12065116009E+04  0.10100000352E+00 0.  1.
</event>
<event>
 5   0  0.1031659E-06  0.3609601E+04  0.7818609E-02  0.8088296E-01
       -2   -1    0    0    0  501  0.00000000000E+00  0.00000000000E+00  0.17533746281E+04  0.17533746281E+04  0.25500000920E-02 0. -1.
        2   -1    0    0  501    0  0.00000000000E+00  0.00000000000E+00 -0.18577351164E+04  0.18577351164E+04  0.25500000920E-02 0.  1.
    10030    2    1    2    0    0  0.00000000000E+00  0.00000000000E+00 -0.10436048828E+03  0.36111097445E+04  0.36096014288E+04 0.  0.
        2    1    3    3  502    0 -0.86707437361E+03  0.13967805185E+04 -0.79713348528E+03  0.18270839006E+04  0.25500000920E-02 0.  1.
       -2    1    3    3    0  502  0.86707437361E+03 -0.13967805185E+04  0.69277299700E+03  0.17840258439E+04  0.25500000920E-02 0. -1.
</event>
<event>
 5   0  0.1006019E-06  0.3358541E+04  0.7818609E-02  0.8148157E-01
        2   -1    0    0  501    0  0.00000000000E+00  0.00000000000E+00  0.14816959665E+04  0.14816959665E+04  0.25500000920E-02 0. -1.
       -2   -1    0    0    0  501  0.00000000000E+00  0.00000000000E+00 -0.19031904676E+04  0.19031904676E+04  0.25500000920E-02 0.  1.
    10030    2    1    2    0    0  0.00000000000E+00  0.00000000000E+00 -0.42149450115E+03  0.33848864341E+04  0.33585411352E+04 0.  0.
        1    1    3    3  502    0  0.85162618692E+03 -0.14459348057E+04 -0.14736502537E+03  0.16845507043E+04  0.50400001928E-02 0. -1.
       -1    1    3    3    0  502 -0.85162618692E+03  0.14459348057E+04 -0.27412947578E+03  0.17003357298E+04  0.50400001928E-02 0.  1.
</event>
<event>
 5   0  0.3242047E-07  0.3493257E+04  0.7818609E-02  0.8115390E-01
        1   -1    0    0  501    0  0.00000000000E+00  0.00000000000E+00  0.14833070434E+04  0.14833070434E+04  0.50400001928E-02 0. -1.
       -1   -1    0    0    0  501  0.00000000000E+00  0.00000000000E+00 -0.20566956736E+04  0.20566956736E+04  0.50400001928E-02 0.  1.
    10030    2    1    2    0    0  0.00000000000E+00  0.00000000000E+00 -0.57338863021E+03  0.35400027171E+04  0.34932570354E+04 0.  0.
        1    1    3    3  502    0 -0.34678377643E+03 -0.12556563007E+04 -0.14657844641E+04  0.19609833830E+04  0.50400001928E-02 0.  1.
       -1    1    3    3    0  502  0.34678377643E+03  0.12556563007E+04  0.89239583392E+03  0.15790193341E+04  0.50400001928E-02 0. -1.
</event>
<event>
 5   0  0.1031659E-06  0.3563996E+04  0.7818609E-02  0.8098789E-01
       -2   -1    0    0    0  501  0.00000000000E+00  0.00000000000E+00  0.11482201955E+04  0.11482201956E+04  0.25500000920E-02 0. -1.
        2   -1    0    0  501    0  0.00000000000E+00  0.00000000000E+00 -0.27655992622E+04  0.27655992622E+04  0.25500000920E-02 0.  1.
    10030    2    1    2    0    0  0.00000000000E+00  0.00000000000E+00 -0.16173790667E+04  0.39138194578E+04  0.35639960301E+04 0.  0.
        2    1    3    3  502    0  0.87577391568E+03  0.85555411910E+03  0.61322554857E+03  0.13693058006E+04  0.25500000920E-02 0. -1.
       -2    1    3    3    0  502 -0.87577391568E+03 -0.85555411910E+03 -0.22306046152E+04  0.25445136572E+04  0.25500000920E-02 0.  1.
</event>
<event>
 5   0  0.3278988E-07  0.3517490E+04  0.7818609E-02  0.8109658E-01
        1   -1    0    0  501    0  0.00000000000E+00  0.00000000000E+00  0.95530473399E+03  0.95530473400E+03  0.50400001928E-02 0. -1.
       -1   -1    0    0    0  501  0.00000000000E+00  0.00000000000E+00 -0.32379026935E+04  0.32379026935E+04  0.50400001928E-02 0.  1.
    10030    2    1    2    0    0  0.00000000000E+00  0.00000000000E+00 -0.22825979595E+04  0.41932074275E+04  0.35174898842E+04 0.  0.
        4    1    3    3  502    0  0.13244785052E+04  0.11495220310E+04 -0.98342779201E+03  0.20106655728E+04  0.12699999809E+01 0. -1.
       -4    1    3    3    0  502 -0.13244785052E+04 -0.11495220310E+04 -0.12991701675E+04  0.21825418547E+04  0.12699999809E+01 0.  1.
</event>
<event>
 5   0  0.3365378E-07  0.3593489E+04  0.7818609E-02  0.8091985E-01
        1   -1    0    0  501    0  0.00000000000E+00  0.00000000000E+00  0.12636280595E+04  0.12636280595E+04  0.50400001928E-02 0.  1.
       -1   -1    0    0    0  501  0.00000000000E+00  0.00000000000E+00 -0.25547792558E+04  0.25547792558E+04  0.50400001928E-02 0. -1.
    10030    2    1    2    0    0  0.00000000000E+00  0.00000000000E+00 -0.12911511963E+04  0.38184073153E+04  0.35934889750E+04 0.  0.
        3    1    3    3  502    0 -0.55496380644E+03  0.56971550544E+03 -0.23575438567E+04  0.24880863389E+04  0.10100000352E+00 0. -1.
       -3    1    3    3    0  502  0.55496380644E+03 -0.56971550544E+03  0.10663926604E+04  0.13303209763E+04  0.10100000352E+00 0.  1.
</event>
<event>
 5   0  0.9878977E-07  0.3587415E+04  0.7818609E-02  0.8093381E-01
        2   -1    0    0  501    0  0.00000000000E+00  0.00000000000E+00  0.20635345294E+04  0.20635345294E+04  0.25500000920E-02 0.  1.
       -2   -1    0    0    0  501  0.00000000000E+00  0.00000000000E+00 -0.15591627419E+04  0.15591627419E+04  0.25500000920E-02 0. -1.
    10030    2    1    2    0    0  0.00000000000E+00  0.00000000000E+00  0.50437178745E+03  0.36226972713E+04  0.35874147543E+04 0.  0.
        5    1    3    3  502    0  0.21308426161E+03  0.14896702133E+04  0.12379224404E+04  0.19485882852E+04  0.46999998093E+01 0.  1.
       -5    1    3    3    0  502 -0.21308426161E+03 -0.14896702133E+04 -0.73355065294E+03  0.16741089861E+04  0.46999998093E+01 0. -1.
</event>
<event>
 5   0  0.1031659E-06  0.3654042E+04  0.7818609E-02  0.8078224E-01
        2   -1    0    0  501    0  0.00000000000E+00  0.00000000000E+00  0.17039672896E+04  0.17039672896E+04  0.25500000920E-02 0. -1.
       -2   -1    0    0    0  501  0.00000000000E+00  0.00000000000E+00 -0.19589611008E+04  0.19589611008E+04  0.25500000920E-02 0.  1.
    10030    2    1    2    0    0  0.00000000000E+00  0.00000000000E+00 -0.25499381123E+03  0.36629283904E+04  0.36540419468E+04 0.  0.
        2    1    3    3  502    0  0.13092955438E+04  0.11288645608E+04 -0.72004834470E+03  0.18727145101E+04  0.25500000920E-02 0.  1.
       -2    1    3    3    0  502 -0.13092955438E+04 -0.11288645608E+04  0.46505453347E+03  0.17902138802E+04  0.25500000920E-02 0. -1.
</event>
<event>
 5   0  0.3159875E-07  0.3597149E+04  0.7818609E-02  0.8091145E-01
       -3   -1    0    0    0  501  0.00000000000E+00  0.00000000000E+00  0.19022017155E+04  0.19022017182E+04  0.10100000352E+00 0.  1.
        3   -1    0    0  501    0  0.00000000000E+00  0.00000000000E+00 -0.17005928270E+04  0.17005928300E+04  0.10100000352E+00 0. -1.
    10030    2    1    2    0    0  0.00000000000E+00  0.00000000000E+00  0.20160888850E+03  0.36027945482E+04  0.35971492064E+04 0.  0.
        2    1    3    3  502    0  0.10412205587E+04 -0.14231348698E+04 -0.25389466967E+03  0.17815486557E+04  0.25500000920E-02 0.  1.
       -2    1    3    3    0  502 -0.10412205587E+04  0.14231348698E+04  0.45550355816E+03  0.18212458925E+04  0.25500000920E-02 0. -1.
</event>
<event>
 5   0  0.3159875E-07  0.3448145E+04  0.7818609E-02  0.8126190E-01
       -1   -1    0    0    0  501  0.00000000000E+00  0.00000000000E+00  0.27614888241E+04  0.27614888241E+04  0.50400001928E-02 0.  1.
        1   -1    0    0  501    0  0.00000000000E+00  0.00000000000E+00 -0.10763853862E+04  0.10763853862E+04  0.50400001928E-02 0. -1.
    10030    2    1    2    0    0  0.00000000000E+00  0.00000000000E+00  0.16851034378E+04  0.38378742103E+04  0.34481451330E+04 0.  0.
        2    1    3    3  502    0 -0.62982476999E+03  0.51209520151E+03  0.25354874266E+04  0.26622579189E+04  0.25500000920E-02 0.  1.
       -2    1    3    3    0  502  0.62982476999E+03 -0.51209520151E+03 -0.85038398876E+03  0.11756162914E+04  0.25500000920E-02 0. -1.
</event>
<event>
 5   0  0.3242047E-07  0.3332276E+04  0.7818609E-02  0.8154731E-01
       -1   -1    0    0    0  501  0.00000000000E+00  0.00000000000E+00  0.94962609549E+03  0.94962609550E+03  0.50400001928E-02 0. -1.
        1   -1    0    0  501    0  0.00000000000E+00  0.00000000000E+00 -0.29232717088E+04  0.29232717088E+04  0.50400001928E-02 0.  1.
    10030    2    1    2    0    0  0.00000000000E+00  0.00000000000E+00 -0.19736456133E+04  0.38728978043E+04  0.33322755582E+04 0.  0.
        1    1    3    3  502    0  0.15538685566E+04  0.49824083403E+03 -0.59567539427E+03  0.17371184748E+04  0.50400001928E-02 0. -1.
       -1    1    3    3    0  502 -0.15538685566E+04 -0.49824083403E+03 -0.13779702190E+04  0.21357793296E+04  0.50400001928E-02 0.  1.
</event>
<event>
 5   0  0.1031659E-06  0.3576763E+04  0.7818609E-02  0.8095835E-01
        2   -1    0    0  501    0  0.00000000000E+00  0.00000000000E+00  0.24740797276E+04  0.24740797276E+04  0.25500000920E-02 0. -1.
       -2   -1    0    0    0  501  0.00000000000E+00  0.00000000000E+00 -0.12927262447E+04  0.12927262447E+04  0.25500000920E-02 0.  1.
    10030    2    1    2    0    0  0.00000000000E+00  0.00000000000E+00  0.11813534829E+04  0.37668059723E+04  0.35767626678E+04 0.  0.
        2    1    3    3  502    0 -0.29336126733E+03  0.15363525734E+04  0.15038513975E+04  0.21697947112E+04  0.25500000920E-02 0. -1.
       -2    1    3    3    0  502  0.29336126733E+03 -0.15363525734E+04 -0.32249791462E+03  0.15970112611E+04  0.25500000920E-02 0.  1.
</event>
<event>
 5   0  0.3242047E-07  0.3565612E+04  0.7818609E-02  0.8098414E-01
       -1   -1    0    0    0  501  0.00000000000E+00  0.00000000000E+00  0.26581092401E+04  0.26581092401E+04  0.50400001928E-02 0.  1.
        1   -1    0    0  501    0  0.00000000000E+00  0.00000000000E+00 -0.11957358947E+04  0.11957358947E+04  0.50400001928E-02 0. -1.
    10030    2    1    2    0    0  0.00000000000E+00  0.00000000000E+00  0.14623733454E+04  0.38538451348E+04  0.35656116616E+04 0.  0.
        1    1    3    3  502    0  0.16395983164E+04  0.29565334893E+02  0.14871855380E+04  0.22137925767E+04  0.50400001928E-02 0.  1.
       -1    1    3    3    0  502 -0.16395983164E+04 -0.29565334893E+02 -0.24812192598E+02  0.16400525581E+04  0.50400001928E-02 0. -1.
</event>
<event>
 5   0  0.9878977E-07  0.3581159E+04  0.7818609E-02  0.8094821E-01
        2   -1    0    0  501    0  0.00000000000E+00  0.00000000000E+00  0.26727824374E+04  0.26727824374E+04  0.25500000920E-02 0.  1.
       -2   -1    0    0    0  501  0.00000000000E+00  0.00000000000E+00 -0.11995646331E+04  0.11995646331E+04  0.25500000920E-02 0. -1.
    10030    2    1    2    0    0  0.00000000000E+00  0.00000000000E+00  0.14732178043E+04  0.38723470705E+04  0.35811591887E+04 0.  0.
        5    1    3    3  502    0 -0.94075715570E+03  0.12350942569E+04 -0.22792502290E+03  0.15692207478E+04  0.46999998093E+01 0. -1.
       -5    1    3    3    0  502  0.94075715570E+03 -0.12350942569E+04  0.17011428272E+04  0.23031263226E+04  0.46999998093E+01 0.  1.
</event>
<event>
 5   0  0.3365378E-07  0.3615676E+04  0.7818609E-02  0.8086910E-01
       -1   -1    0    0    0  501  0.00000000000E+00  0.00000000000E+00  0.14851393383E+04  0.14851393383E+04  0.50400001928E-02 0.  1.
        1   -1    0    0  501    0  0.00000000000E+00  0.00000000000E+00 -0.22006540948E+04  0.22006540948E+04  0.50400001928E-02 0. -1.
    10030    2    1    2    0    0  0.00000000000E+00  0.00000000000E+00 -0.71551475654E+03  0.36857934331E+04  0.36156758518E+04 0.  0.
        3    1    3    3  502    0  0.78847108368E+03  0.91835298041E+03 -0.17266385619E+04  0.21086345298E+04  0.10100000352E+00 0. -1.
       -3    1    3    3    0  502 -0.78847108368E+03 -0.91835298041E+03  0.10111238054E+04  0.15771589034E+04  0.10100000352E+00 0.  1.
</event>
<event>
 5   0  0.3159875E-07  0.3625216E+04  0.7818609E-02  0.8084740E-01
       -3   -1    0    0    0  501  0.00000000000E+00  0.00000000000E+00  0.18096768580E+04  0.18096768608E+04  0.10100000352E+00 0.  1.
        3   -1    0    0  501    0  0.00000000000E+00  0.00000000000E+00 -0.18155439331E+04  0.18155439359E+04  0.10100000352E+00 0. -1.
    10030    2    1    2    0    0  0.00000000000E+00  0.00000000000E+00 -0.58670750730E+01  0.36252207967E+04  0.36252160491E+04 0.  0.
        5    1    3    3  502    0 -0.16405826782E+04 -0.71587963568E+03  0.28260244497E+03  0.18121482855E+04  0.46999998093E+01 0.  1.
       -5    1    3    3    0  502  0.16405826782E+04  0.71587963568E+03 -0.28846952004E+03  0.18130725112E+04  0.46999998093E+01 0. -1.
</event>
<event>
 5   0  0.3159875E-07  0.3636993E+04  0.7818609E-02  0.8082070E-01
        1   -1    0    0  501    0  0.00000000000E+00  0.00000000000E+00  0.24823866112E+04  0.24823866113E+04  0.50400001928E-02 0. -1.
       -1   -1    0    0    0  501  0.00000000000E+00  0.00000000000E+00 -0.13321570800E+04  0.13321570800E+04  0.50400001928E-02 0.  1.
    10030    2    1    2    0    0  0.00000000000E+00  0.00000000000E+00  0.11502295312E+04  0.38145436913E+04  0.36369926585E+04 0.  0.
        5    1    3    3  502    0 -0.95589537606E+03  0.14469880655E+04  0.12316596454E+01  0.17342243335E+04  0.46999998093E+01 0.  1.
       -5    1    3    3    0  502  0.95589537606E+03 -0.14469880655E+04  0.11489978716E+04  0.20803193578E+04  0.46999998093E+01 0. -1.
</event>
<event>
 5   0  0.1031659E-06  0.3596913E+04  0.7818609E-02  0.8091199E-01
       -2   -1    0    0    0  501  0.00000000000E+00  0.00000000000E+00  0.12830434490E+04  0.12830434490E+04  0.25500000920E-02 0.  1.
        2   -1    0    0  501    0  0.00000000000E+00  0.00000000000E+00 -0.25209174616E+04  0.25209174616E+04  0.25500000920E-02 0. -1.
    10030    2    1    2    0    0  0.00000000000E+00  0.00000000000E+00 -0.12378740126E+04  0.38039609106E+04  0.35969134738E+04 0.  0.
        2    1    3    3  502    0 -0.41117956926E+03 -0.13227608739E+04  0.59412071458E+03  0.15072307027E+04  0.25500000920E-02 0.  1.
       -2    1    3    3    0  502  0.41117956926E+03  0.13227608739E+04 -0.18319947272E+04  0.22967302079E+04  0.25500000920E-02 0. -1.
</event>
<event>
 5   0  0.3242047E-07  0.3069806E+04  0.7818609E-02  0.8224074E-01
        1   -1    0    0  501    0  0.00000000000E+00  0.00000000000E+00  0.16370633030E+04  0.16370633030E+04  0.50400001928E-02 0. -1.
       -1   -1    0    0    0  501  0.00000000000E+00  0.00000000000E+00 -0.14391178738E+04  0.14391178738E+04  0.50400001928E-02 0.  1.
    10030    2    1    2    0    0  0.00000000000E+00  0.00000000000E+00  0.19794542923E+03  0.30761811768E+04  0.30698058960E+04 0.  0.
        1    1    3    3  502    0  0.11258138460E+04  0.38135905956E+03  0.10720896216E+04  0.16007085009E+04  0.50400001928E-02 0. -1.
       -1    1    3    3    0  502 -0.11258138460E+04 -0.38135905956E+03 -0.87414419232E+03  0.14754726759E+04  0.50400001928E-02 0.  1.
</event>
<event>
 5   0  0.1031659E-06  0.3601002E+04  0.7818609E-02  0.8090262E-01
       -2   -1    0    0    0  501  0.00000000000E+00  0.00000000000E+00  0.16408247010E+04  0.16408247010E+04  0.25500000920E-02 0. -1.
        2   -1    0    0  501    0  0.00000000000E+00  0.00000000000E+00 -0.19757164524E+04  0.19757164524E+04  0.25500000920E-02 0.  1.
    10030    2    1    2    0    0  0.00000000000E+00  0.00000000000E+00 -0.33489175143E+03  0.36165411534E+04  0.36010022812E+04 0.  0.
        2    1    3    3  502    0  0.14894073804E+04  0.36783889505E+03  0.77904566039E+03  0.17206254498E+04  0.25500000920E-02 0. -1.
       -2    1    3    3    0  502 -0.14894073804E+04 -0.36783889505E+03 -0.11139374118E+04  0.18959157036E+04  0.25500000920E-02 0.  1.
</event>
<event>
 5   0  0.3159875E-07  0.3061973E+04  0.7818609E-02  0.8226252E-01
       -1   -1    0    0    0  501  0.00000000000E+00  0.00000000000E+00  0.32860388237E+04  0.32860388237E+04  0.50400001928E-02 0. -1.
        1   -1    0    0  501    0  0.00000000000E+00  0.00000000000E+00 -0.71329658804E+03  0.71329658806E+03  0.50400001928E-02 0.  1.
    10030    2    1    2    0    0  0.00000000000E+00  0.00000000000E+00  0.25727422356E+04  0.39993354117E+04  0.30619734036E+04 0.  0.
        2    1    3    3  502    0  0.12339677206E+04 -0.87283615463E+03  0.96803694177E+03  0.17948857370E+04  0.25500000920E-02 0.  1.
       -2    1    3    3    0  502 -0.12339677206E+04  0.87283615463E+03  0.16047052939E+04  0.22044496747E+04  0.25500000920E-02 0. -1.
</event>
<event>
 5   0  0.3159875E-07  0.3670094E+04  0.7818609E-02  0.8074622E-01
        1   -1    0    0  501    0  0.00000000000E+00  0.00000000000E+00  0.15089676361E+04  0.15089676361E+04  0.50400001928E-02 0. -1.
       -1   -1    0    0    0  501  0.00000000000E+00  0.00000000000E+00 -0.22315899261E+04  0.22315899261E+04  0.50400001928E-02 0.  1.
    10030    2    1    2    0    0  0.00000000000E+00  0.00000000000E+00 -0.72262228997E+03  0.37405575622E+04  0.36700937184E+04 0.  0.
        2    1    3    3  502    0 -0.47882511892E+02  0.11460509459E+04  0.10985552030E+04  0.15882534557E+04  0.25500000920E-02 0. -1.
       -2    1    3    3    0  502  0.47882511892E+02 -0.11460509459E+04 -0.18211774930E+04  0.21523041064E+04  0.25500000920E-02 0.  1.
</event>
<event>
 5   0  0.3278988E-07  0.3586481E+04  0.7818609E-02  0.8093595E-01
       -1   -1    0    0    0  501  0.00000000000E+00  0.00000000000E+00  0.13013190001E+04  0.13013190001E+04  0.50400001928E-02 0. -1.
        1   -1    0    0  501    0  0.00000000000E+00  0.00000000000E+00 -0.24711174777E+04  0.24711174777E+04  0.50400001928E-02 0.  1.
    10030    2    1    2    0    0  0.00000000000E+00  0.00000000000E+00 -0.11697984776E+04  0.37724364778E+04  0.35864813538E+04 0.  0.
        4    1    3    3  502    0  0.73817848303E+03 -0.12989105047E+04 -0.16281056409E+04  0.22097071215E+04  0.12699999809E+01 0.  1.
       -4    1    3    3    0  502 -0.73817848303E+03  0.12989105047E+04  0.45830716328E+03  0.15627293563E+04  0.12699999809E+01 0. -1.
</event>
<event>
 5   0  0.3278988E-07  0.3160126E+04  0.7818609E-02  0.8199428E-01
       -1   -1    0    0    0  501  0.00000000000E+00  0.00000000000E+00  0.31043105568E+04  0.31043105568E+04  0.50400001928E-02 0.  1.
        1   -1    0    0  501    0  0.00000000000E+00  0.00000000000E+00 -0.80423616985E+03  0.80423616987E+03  0.50400001928E-02 0. -1.
    10030    2    1    2    0    0  0.00000000000E+00  0.00000000000E+00  0.23000743870E+04  0.39085467267E+04  0.31601258407E+04 0.  0.
        4    1    3    3  502    0  0.69618317924E+03 -0.12073441654E+04  0.22924353560E+03  0.14124111173E+04  0.12699999809E+01 0.  1.
       -4    1    3    3    0  502 -0.69618317924E+03  0.12073441654E+04  0.20708308514E+04  0.24961356094E+04  0.12699999809E+01 0. -1.
</event>
<event>
 5   0  0.3159875E-07  0.3169122E+04  0.7818609E-02  0.8197020E-01
        1   -1    0    0  501    0  0.00000000000E+00  0.00000000000E+00  0.28344070987E+04  0.28344070987E+04  0.50400001928E-02 0. -1.
       -1   -1    0    0    0  501  0.00000000000E+00  0.00000000000E+00 -0.88584057084E+03  0.88584057086E+03  0.50400001928E-02 0.  1.
    10030    2    1    2    0    0  0.00000000000E+00  0.00000000000E+00  0.19485665279E+04  0.37202476696E+04  0.31691215202E+04 0.  0.
        5    1    3    3  502    0  0.13809670339E+04 -0.38913123143E+03  0.18477855019E+03  0.14466023181E+04  0.46999998093E+01 0.  1.
       -5    1    3    3    0  502 -0.13809670339E+04  0.38913123143E+03  0.17637879777E+04  0.22736453515E+04  0.46999998093E+01 0. -1.
</event>
<event>
 5   0  0.3365378E-07  0.3584214E+04  0.7818609E-02  0.8094117E-01
        1   -1    0    0  501    0  0.00000000000E+00  0.00000000000E+00  0.11136545590E+04  0.11136545590E+04  0.50400001928E-02 0. -1.
       -1   -1    0    0    0  501  0.00000000000E+00  0.00000000000E+00 -0.28838807916E+04  0.28838807916E+04  0.50400001928E-02 0.  1.
    10030    2    1    2    0    0  0.00000000000E+00  0.00000000000E+00 -0.17702262325E+04  0.39975353506E+04  0.35842137164E+04 0.  0.
        3    1    3    3  502    0 -0.64430079291E+03 -0.53626318983E+03 -0.26517366377E+04  0.27810805322E+04  0.10100000352E+00 0.  1.
       -3    1    3    3    0  502  0.64430079291E+03  0.53626318983E+03  0.88151040520E+03  0.12164548184E+04  0.10100000352E+00 0. -1.
</event>
<event>
 5   0  0.9878977E-07  0.3553454E+04  0.7818609E-02  0.8101238E-01
        2   -1    0    0  501    0  0.00000000000E+00  0.00000000000E+00  0.21617955662E+04  0.21617955662E+04  0.25500000920E-02 0.  1.
       -2   -1    0    0    0  501  0.00000000000E+00  0.00000000000E+00 -0.14602488483E+04  0.14602488483E+04  0.25500000920E-02 0. -1.
    10030    2    1    2    0    0  0.00000000000E+00  0.00000000000E+00  0.70154671785E+03  0.36220444145E+04  0.35534543677E+04 0.  0.
        5    1    3    3  502    0  0.11324650130E+04  0.11981056707E+04  0.10259818853E+04  0.19418020297E+04  0.46999998093E+01 0.  1.
       -5    1    3    3    0  502 -0.11324650130E+04 -0.11981056707E+04 -0.32443516747E+03  0.16802423848E+04  0.46999998093E+01 0. -1.
</event>
<event>
 5   0  0.3159875E-07  0.2713736E+04  0.7818609E-02  0.8330562E-01
        1   -1    0    0  501    0  0.00000000000E+00  0.00000000000E+00  0.11658759628E+04  0.11658759628E+04  0.50400001928E-02 0. -1.
       -1   -1    0    0    0  501  0.00000000000E+00  0.00000000000E+00 -0.15791482867E+04  0.15791482867E+04  0.50400001928E-02 0.  1.
    10030    2    1    2    0    0  0.00000000000E+00  0.00000000000E+00 -0.41327232398E+03  0.27450242495E+04  0.27137361914E+04 0.  0.
        5    1    3    3  502    0  0.56090414264E+03 -0.48643849974E+02 -0.14554099085E+04  0.15605190717E+04  0.46999998093E+01 0.  1.
       -5    1    3    3    0  502 -0.56090414264E+03  0.48643849974E+02  0.10421375845E+04  0.11845051778E+04  0.46999998093E+01 0. -1.
</event>
<event>
 5   0  0.1006019E-06  0.2589273E+04  0.7818609E-02  0.8371854E-01
        2   -1    0    0  501    0  0.00000000000E+00  0.00000000000E+00  0.28330933862E+04  0.28330933862E+04  0.25500000920E-02 0. -1.
       -2   -1    0    0    0  501  0.00000000000E+00  0.00000000000E+00 -0.59160883653E+03  0.59160883654E+03  0.25500000920E-02 0.  1.
    10030    2    1    2    0    0  0.00000000000E+00  0.00000000000E+00  0.22414845497E+04  0.34247022228E+04  0.25892725481E+04 0.  0.
        1    1    3    3  502    0  0.69497335745E+03 -0.80246766060E+03  0.21008795189E+04  0.23538557872E+04  0.50400001928E-02 0. -1.
       -1    1    3    3    0  502 -0.69497335745E+03  0.80246766060E+03  0.14060503079E+03  0.10708464356E+04  0.50400001928E-02 0.  1.
</event>
<event>
 5   0  0.3365378E-07  0.3596616E+04  0.7818609E-02  0.8091267E-01
        1   -1    0    0  501    0  0.00000000000E+00  0.00000000000E+00  0.10186135764E+04  0.10186135764E+04  0.50400001928E-02 0.  1.
       -1   -1    0    0    0  501  0.00000000000E+00  0.00000000000E+00 -0.31748177715E+04  0.31748177716E+04  0.50400001928E-02 0. -1.
    10030    2    1    2    0    0  0.00000000000E+00  0.00000000000E+00 -0.21562041951E+04  0.41934313480E+04  0.35966164570E+04 0.  0.
        3    1    3    3  502    0 -0.11219533111E+04 -0.14847173308E+03 -0.27075349576E+04  0.29345474344E+04  0.10100000352E+00 0. -1.
       -3    1    3    3    0  502  0.11219533111E+04  0.14847173308E+03  0.55133076249E+03  0.12588839135E+04  0.10100000352E+00 0.  1.
</event>
<event>
 5   0  0.3278988E-07  0.3589374E+04  0.7818609E-02  0.8092930E-01
       -1   -1    0    0    0  501  0.00000000000E+00  0.00000000000E+00  0.18305309778E+04  0.18305309778E+04  0.50400001928E-02 0. -1.
        1   -1    0    0  501    0  0.00000000000E+00  0.00000000000E+00 -0.17595447603E+04  0.17595447603E+04  0.50400001928E-02 0.  1.
    10030    2    1    2    0    0  0.00000000000E+00  0.00000000000E+00  0.70986217439E+02  0.35900757381E+04  0.35893738677E+04 0.  0.
        4    1    3    3  502    0 -0.68975748767E+03  0.80590307400E+03 -0.14124274950E+04  0.17664082762E+04  0.12699999809E+01 0.  1.
       -4    1    3    3    0  502  0.68975748767E+03 -0.80590307400E+03  0.14834137125E+04  0.18236674620E+04  0.12699999809E+01 0. -1.
</event>
<event>
 5   0  0.1006019E-06  0.3538248E+04  0.7818609E-02  0.8104785E-01
        2   -1    0    0  501    0  0.00000000000E+00  0.00000000000E+00  0.23054808127E+04  0.23054808127E+04  0.25500000920E-02 0. -1.
       -2   -1    0    0    0  501  0.00000000000E+00  0.00000000000E+00 -0.13575477007E+04  0.13575477007E+04  0.25500000920E-02 0.  1.
    10030    2    1    2    0    0  0.00000000000E+00  0.00000000000E+00  0.94793311199E+03  0.36630285133E+04  0.35382482537E+04 0.  0.
        1    1    3    3  502    0  0.15342099567E+04 -0.11076836917E+03  0.13787028735E+04  0.20656455253E+04  0.50400001928E-02 0. -1.
       -1    1    3    3    0  502 -0.15342099567E+04  0.11076836917E+03 -0.43076976148E+03  0.15973829880E+04  0.50400001928E-02 0.  1.
</event>
<event>
 5   0  0.9878336E-07  0.3572616E+04  0.7818609E-02  0.8096793E-01
        2   -1    0    0  501    0  0.00000000000E+00  0.00000000000E+00  0.25927751285E+04  0.25927751285E+04  0.25500000920E-02 0.  1.
       -2   -1    0    0    0  501  0.00000000000E+00  0.00000000000E+00 -0.12306879372E+04  0.12306879372E+04  0.25500000920E-02 0. -1.
    10030    2    1    2    0    0  0.00000000000E+00  0.00000000000E+00  0.13620871913E+04  0.38234630657E+04  0.35726164499E+04 0.  0.
        3    1    3    3  502    0  0.41538207446E+03  0.14862455837E+04 -0.28180909550E+03  0.15687206824E+04  0.10100000352E+00 0. -1.
       -3    1    3    3    0  502 -0.41538207446E+03 -0.14862455837E+04  0.16438962868E+04  0.22547423832E+04  0.10100000352E+00 0.  1.
</event>
<event>
 5   0  0.1006019E-06  0.3572831E+04  0.7818609E-02  0.8096744E-01
        2   -1    0    0  501    0  0.00000000000E+00  0.00000000000E+00  0.19778982212E+04  0.19778982212E+04  0.25500000920E-02 0. -1.
       -2   -1    0    0    0  501  0.00000000000E+00  0.00000000000E+00 -0.16134707177E+04  0.16134707177E+04  0.25500000920E-02 0.  1.
    10030    2    1    2    0    0  0.00000000000E+00  0.00000000000E+00  0.36442750354E+03  0.35913689389E+04  0.35728312932E+04 0.  0.
        1    1    3    3  502    0  0.74492026979E+02 -0.25426542867E+03  0.19580381767E+04  0.19758829600E+04  0.50400001928E-02 0. -1.
       -1    1    3    3    0  502 -0.74492026979E+02  0.25426542867E+03 -0.15936106731E+04  0.16154859789E+04  0.50400001928E-02 0.  1.
</event>
<event>
 5   0  0.9878336E-07  0.3581488E+04  0.7818609E-02  0.8094745E-01
        2   -1    0    0  501    0  0.00000000000E+00  0.00000000000E+00  0.29367870755E+04  0.29367870755E+04  0.25500000920E-02 0. -1.
       -2   -1    0    0    0  501  0.00000000000E+00  0.00000000000E+00 -0.10919293751E+04  0.10919293751E+04  0.25500000920E-02 0.  1.
    10030    2    1    2    0    0  0.00000000000E+00  0.00000000000E+00  0.18448577004E+04  0.40287164506E+04  0.35814880015E+04 0.  0.
        3    1    3    3  502    0 -0.14494575328E+03  0.55772094851E+03  0.28296437344E+04  0.28877232557E+04  0.10100000352E+00 0. -1.
       -3    1    3    3    0  502  0.14494575328E+03 -0.55772094851E+03 -0.98478603402E+03  0.11409931949E+04  0.10100000352E+00 0.  1.
</event>
<event>
 5   0  0.1031659E-06  0.3754204E+04  0.7818609E-02  0.8056055E-01
        2   -1    0    0  501    0  0.00000000000E+00  0.00000000000E+00  0.12407373496E+04  0.12407373496E+04  0.25500000920E-02 0. -1.
       -2   -1    0    0    0  501  0.00000000000E+00  0.00000000000E+00 -0.28398524934E+04  0.28398524934E+04  0.25500000920E-02 0.  1.
    10030    2    1    2    0    0  0.00000000000E+00  0.00000000000E+00 -0.15991151438E+04  0.40805898430E+04  0.37542035406E+04 0.  0.
        2    1    3    3  502    0  0.26516474860E+02 -0.14949785686E+04 -0.20330522118E+04  0.25236809109E+04  0.25500000920E-02 0.  1.
       -2    1    3    3    0  502 -0.26516474860E+02  0.14949785686E+04  0.43393706799E+03  0.15569089321E+04  0.25500000920E-02 0. -1.
</event>
<event>
 5   0  0.1006019E-06  0.3629697E+04  0.7818609E-02  0.8083723E-01
       -2   -1    0    0    0  501  0.00000000000E+00  0.00000000000E+00  0.12086813179E+04  0.12086813179E+04  0.25500000920E-02 0.  1.
        2   -1    0    0  501    0  0.00000000000E+00  0.00000000000E+00 -0.27250153320E+04  0.27250153320E+04  0.25500000920E-02 0. -1.
    10030    2    1    2    0    0  0.00000000000E+00  0.00000000000E+00 -0.15163340141E+04  0.39336966499E+04  0.36296970247E+04 0.  0.
        1    1    3    3  502    0 -0.11798642200E+04 -0.11882529171E+04  0.18984277790E+00  0.16745222031E+04  0.50400001928E-02 0.  1.
       -1    1    3    3    0  502  0.11798642200E+04  0.11882529171E+04 -0.15165238568E+04  0.22591744468E+04  0.50400001928E-02 0. -1.
</event>
<event>
 5   0  0.3159875E-07  0.3875577E+04  0.7818609E-02  0.8030128E-01
        1   -1    0    0  501    0  0.00000000000E+00  0.00000000000E+00  0.23006630789E+04  0.23006630789E+04  0.50400001928E-02 0. -1.
       -1   -1    0    0    0  501  0.00000000000E+00  0.00000000000E+00 -0.16321485900E+04  0.16321485900E+04  0.50400001928E-02 0.  1.
    10030    2    1    2    0    0  0.00000000000E+00  0.00000000000E+00  0.66851448888E+03  0.39328116689E+04  0.38755768604E+04 0.  0.
        5    1    3    3  502    0  0.57298039348E+03  0.90997011240E+01  0.22127057653E+04  0.22857117556E+04  0.46999998093E+01 0. -1.
       -5    1    3    3    0  502 -0.57298039348E+03 -0.90997011240E+01 -0.15441912765E+04  0.16470999132E+04  0.46999998093E+01 0.  1.
</event>
<event>
 5   0  0.3159875E-07  0.3590724E+04  0.7818609E-02  0.8092620E-01
        1   -1    0    0  501    0  0.00000000000E+00  0.00000000000E+00  0.23695103408E+04  0.23695103408E+04  0.50400001928E-02 0. -1.
       -1   -1    0    0    0  501  0.00000000000E+00  0.00000000000E+00 -0.13603334801E+04  0.13603334801E+04  0.50400001928E-02 0.  1.
    10030    2    1    2    0    0  0.00000000000E+00  0.00000000000E+00  0.10091768607E+04  0.37298438210E+04  0.35907237422E+04 0.  0.
        5    1    3    3  502    0  0.15217466185E+04 -0.61035908857E+03 -0.25522385766E+03  0.16593409220E+04  0.46999998093E+01 0. -1.
       -5    1    3    3    0  502 -0.15217466185E+04  0.61035908857E+03  0.12644007184E+04  0.20705028990E+04  0.46999998093E+01 0.  1.
</event>
<event>
 5   0  0.1031659E-06  0.3517326E+04  0.7818609E-02  0.8109696E-01
       -2   -1    0    0    0  501  0.00000000000E+00  0.00000000000E+00  0.21666019482E+04  0.21666019482E+04  0.25500000920E-02 0. -1.
        2   -1    0    0  501    0  0.00000000000E+00  0.00000000000E+00 -0.14275329126E+04  0.14275329126E+04  0.25500000920E-02 0.  1.
    10030    2    1    2    0    0  0.00000000000E+00  0.00000000000E+00  0.73906903553E+03  0.35941348608E+04  0.35173260239E+04 0.  0.
        2    1    3    3  502    0 -0.68276961349E+03 -0.91492837056E+03  0.17365172992E+04  0.20781627941E+04  0.25500000920E-02 0. -1.
       -2    1    3    3    0  502  0.68276961349E+03  0.91492837056E+03 -0.99744826366E+03  0.15159720667E+04  0.25500000920E-02 0.  1.
</event>
<event>
 5   0  0.3365378E-07  0.3607364E+04  0.7818609E-02  0.8088807E-01
        1   -1    0    0  501    0  0.00000000000E+00  0.00000000000E+00  0.15457951161E+04  0.15457951161E+04  0.50400001928E-02 0.  1.
       -1   -1    0    0    0  501  0.00000000000E+00  0.00000000000E+00 -0.21045929246E+04  0.21045929246E+04  0.50400001928E-02 0. -1.
    10030    2    1    2    0    0  0.00000000000E+00  0.00000000000E+00 -0.55879780847E+03  0.36503880407E+04  0.36073643920E+04 0.  0.
        3    1    3    3  502    0  0.16634712808E+04 -0.69464294657E+03 -0.34014762360E+03  0.18344933745E+04  0.10100000352E+00 0. -1.
       -3    1    3    3    0  502 -0.16634712808E+04  0.69464294657E+03 -0.21865018487E+03  0.18158946662E+04  0.10100000352E+00 0.  1.
</event>
<event>
 5   0  0.3159875E-07  0.3198641E+04  0.7818609E-02  0.8189176E-01
       -1   -1    0    0    0  501  0.00000000000E+00  0.00000000000E+00  0.23570095119E+04  0.23570095119E+04  0.50400001928E-02 0.  1.
        1   -1    0    0  501    0  0.00000000000E+00  0.00000000000E+00 -0.10851996555E+04  0.10851996555E+04  0.50400001928E-02 0. -1.
    10030    2    1    2    0    0  0.00000000000E+00  0.00000000000E+00  0.12718098564E+04  0.34422091674E+04  0.31986409054E+04 0.  0.
        5    1    3    3  502    0 -0.77087290546E+02 -0.14577991621E+04 -0.67045057237E+02  0.14613822146E+04  0.46999998093E+01 0. -1.
       -5    1    3    3    0  502  0.77087290546E+02  0.14577991621E+04  0.13388549136E+04  0.19808269528E+04  0.46999998093E+01 0.  1.
</event>
<event>
 5   0  0.9878977E-07  0.3614467E+04  0.7818609E-02  0.8087186E-01
       -2   -1    0    0    0  501  0.00000000000E+00  0.00000000000E+00  0.14727133731E+04  0.14727133731E+04  0.25500000920E-02 0. -1.
        2   -1    0    0  501    0  0.00000000000E+00  0.00000000000E+00 -0.22177388572E+04  0.22177388572E+04  0.25500000920E-02 0.  1.
    10030    2    1    2    0    0  0.00000000000E+00  0.00000000000E+00 -0.74502548413E+03  0.36904522303E+04  0.36144674148E+04 0.  0.
        5    1    3    3  502    0  0.31276885428E+02  0.16710237504E+04  0.32952682771E+03  0.17034989398E+04  0.46999998093E+01 0. -1.
       -5    1    3    3    0  502 -0.31276885428E+02 -0.16710237504E+04 -0.10745523118E+04  0.19869532905E+04  0.46999998093E+01 0.  1.
</event>
<event>
 5   0  0.9878336E-07  0.3610653E+04  0.7818609E-02  0.8088056E-01
        2   -1    0    0  501    0  0.00000000000E+00  0.00000000000E+00  0.17855055304E+04  0.17855055304E+04  0.25500000920E-02 0. -1.
       -2   -1    0    0    0  501  0.00000000000E+00  0.00000000000E+00 -0.18253678695E+04  0.18253678695E+04  0.25500000920E-02 0.  1.
    10030    2    1    2    0    0  0.00000000000E+00  0.00000000000E+00 -0.39862339055E+02  0.36108733999E+04  0.36106533625E+04 0.  0.
        3    1    3    3  502    0 -0.46327682142E+03  0.62061173749E+03 -0.16508033963E+04  0.18234407601E+04  0.10100000352E+00 0.  1.
       -3    1    3    3    0  502  0.46327682142E+03 -0.62061173749E+03  0.16109410573E+04  0.17874326399E+04  0.10100000352E+00 0. -1.
</event>
<event>
 5   0  0.3159875E-07  0.3655929E+04  0.7818609E-02  0.8077799E-01
        3   -1    0    0  501    0  0.00000000000E+00  0.00000000000E+00  0.18894776821E+04  0.18894776848E+04  0.10100000352E+00 0.  1.
       -3   -1    0    0    0  501  0.00000000000E+00  0.00000000000E+00 -0.17684535273E+04  0.17684535302E+04  0.10100000352E+00 0. -1.
    10030    2    1    2    0    0  0.00000000000E+00  0.00000000000E+00  0.12102415477E+03  0.36579312149E+04  0.36559285998E+04 0.  0.
        2    1    3    3  502    0  0.17185083671E+03 -0.16118699263E+04  0.90583942325E+03  0.18569336095E+04  0.25500000920E-02 0.  1.
       -2    1    3    3    0  502 -0.17185083671E+03  0.16118699263E+04 -0.78481526848E+03  0.18009976055E+04  0.25500000920E-02 0. -1.
</event>
<event>
 5   0  0.1031659E-06  0.3586993E+04  0.7818609E-02  0.8093478E-01
       -2   -1    0    0    0  501  0.00000000000E+00  0.00000000000E+00  0.21919370438E+04  0.21919370438E+04  0.25500000920E-02 0. -1.
        2   -1    0    0  501    0  0.00000000000E+00  0.00000000000E+00 -0.14674824955E+04  0.14674824955E+04  0.25500000920E-02 0.  1.
    10030    2    1    2    0    0  0.00000000000E+00  0.00000000000E+00  0.72445454831E+03  0.36594195393E+04  0.35869927477E+04 0.  0.
        2    1    3    3  502    0  0.11756593999E+03 -0.17874897568E+04  0.45167812799E+03  0.18474183371E+04  0.25500000920E-02 0.  1.
       -2    1    3    3    0  502 -0.11756593999E+03  0.17874897568E+04  0.27277642032E+03  0.18120012021E+04  0.25500000920E-02 0. -1.
</event>
<event>
 5   0  0.3242047E-07  0.3615607E+04  0.7818609E-02  0.8086926E-01
        1   -1    0    0  501    0  0.00000000000E+00  0.00000000000E+00  0.15875839092E+04  0.15875839092E+04  0.50400001928E-02 0.  1.
       -1   -1    0    0    0  501  0.00000000000E+00  0.00000000000E+00 -0.20585707503E+04  0.20585707503E+04  0.50400001928E-02 0. -1.
    10030    2    1    2    0    0  0.00000000000E+00  0.00000000000E+00 -0.47098684111E+03  0.36461546594E+04  0.36156071684E+04 0.  0.
        1    1    3    3  502    0  0.14352913877E+04  0.78149274029E+02 -0.13411070748E+04  0.19658934007E+04  0.50400001928E-02 0. -1.
       -1    1    3    3    0  502 -0.14352913877E+04 -0.78149274029E+02  0.87012023371E+03  0.16802612588E+04  0.50400001928E-02 0.  1.
</event>
<event>
 5   0  0.9878336E-07  0.3638320E+04  0.7818609E-02  0.8081770E-01
        2   -1    0    0  501    0  0.00000000000E+00  0.00000000000E+00  0.19819696488E+04  0.19819696488E+04  0.25500000920E-02 0.  1.
       -2   -1    0    0    0  501  0.00000000000E+00  0.00000000000E+00 -0.16697242166E+04  0.16697242166E+04  0.25500000920E-02 0. -1.
    10030    2    1    2    0    0  0.00000000000E+00  0.00000000000E+00  0.31224543224E+03  0.36516938655E+04  0.36383197876E+04 0.  0.
        3    1    3    3  502    0 -0.27557875193E+03 -0.69624158278E+03  0.18201213120E+04  0.19681304811E+04  0.10100000352E+00 0.  1.
       -3    1    3    3    0  502  0.27557875193E+03  0.69624158278E+03 -0.15078758798E+04  0.16835633843E+04  0.10100000352E+00 0. -1.
</event>
<event>
 5   0  0.3159875E-07  0.3621203E+04  0.7818609E-02  0.8085652E-01
        1   -1    0    0  501    0  0.00000000000E+00  0.00000000000E+00  0.27595303935E+04  0.27595303935E+04  0.50400001928E-02 0.  1.
       -1   -1    0    0    0  501  0.00000000000E+00  0.00000000000E+00 -0.11879837736E+04  0.11879837736E+04  0.50400001928E-02 0. -1.
    10030    2    1    2    0    0  0.00000000000E+00  0.00000000000E+00  0.15715466199E+04  0.39475141671E+04  0.36212027450E+04 0.  0.
        2    1    3    3  502    0  0.10863078857E+03  0.77711233800E+03 -0.99300418479E+03  0.12656071844E+04  0.25500000920E-02 0. -1.
       -2    1    3    3    0  502 -0.10863078857E+03 -0.77711233800E+03  0.25645508047E+04  0.26819069827E+04  0.25500000920E-02 0.  1.
</event>
<event>
 5   0  0.3365378E-07  0.3607932E+04  0.7818609E-02  0.8088677E-01
        1   -1    0    0  501    0  0.00000000000E+00  0.00000000000E+00  0.15992272294E+04  0.15992272294E+04  0.50400001928E-02 0. -1.
       -1   -1    0    0    0  501  0.00000000000E+00  0.00000000000E+00 -0.20349164465E+04  0.20349164465E+04  0.50400001928E-02 0.  1.
    10030    2    1    2    0    0  0.00000000000E+00  0.00000000000E+00 -0.43568921711E+03  0.36341436760E+04  0.36079322560E+04 0.  0.
        3    1    3    3  502    0  0.15865143347E+04  0.30420866121E+03 -0.10266245032E+04  0.19140346195E+04  0.10100000352E+00 0.  1.
       -3    1    3    3    0  502 -0.15865143347E+04 -0.30420866121E+03  0.59093528614E+03  0.17201090565E+04  0.10100000352E+00 0. -1.
</event>
<event>
 5   0  0.3159875E-07  0.3458241E+04  0.7818609E-02  0.8123758E-01
       -1   -1    0    0    0  501  0.00000000000E+00  0.00000000000E+00  0.17860848636E+04  0.17860848636E+04  0.50400001928E-02 0. -1.
        1   -1    0    0  501    0  0.00000000000E+00  0.00000000000E+00 -0.16739733772E+04  0.16739733773E+04  0.50400001928E-02 0.  1.
    10030    2    1    2    0    0  0.00000000000E+00  0.00000000000E+00  0.11211148633E+03  0.34600582408E+04  0.34582414671E+04 0.  0.
        5    1    3    3  502    0  0.11991025095E+04 -0.87454664833E+03  0.94374095232E+03  0.17587915577E+04  0.46999998093E+01 0. -1.
       -5    1    3    3    0  502 -0.11991025095E+04  0.87454664833E+03 -0.83162946599E+03  0.17012666831E+04  0.46999998093E+01 0.  1.
</event>
<event>
 5   0  0.3159875E-07  0.2580662E+04  0.7818609E-02  0.8374800E-01
       -1   -1    0    0    0  501  0.00000000000E+00  0.00000000000E+00  0.15070455182E+04  0.15070455182E+04  0.50400001928E-02 0. -1.
        1   -1    0    0  501    0  0.00000000000E+00  0.00000000000E+00 -0.11047805386E+04  0.11047805386E+04  0.50400001928E-02 0.  1.
    10030    2    1    2    0    0  0.00000000000E+00  0.00000000000E+00  0.40226497959E+03  0.26118260568E+04  0.25806623641E+04 0.  0.
        2    1    3    3  502    0 -0.83558181941E+03  0.94190072088E+03  0.48663945390E+03  0.13498858852E+04  0.25500000920E-02 0. -1.
       -2    1    3    3    0  502  0.83558181941E+03 -0.94190072088E+03 -0.84374474315E+02  0.12619401717E+04  0.25500000920E-02 0.  1.
</event>
<event>
 5   0  0.9538919E-07  0.3360307E+04  0.7818609E-02  0.8147718E-01
       -2   -1    0    0    0  501  0.00000000000E+00  0.00000000000E+00  0.13984999133E+04  0.13984999133E+04  0.25500000920E-02 0. -1.
        2   -1    0    0  501    0  0.00000000000E+00  0.00000000000E+00 -0.20185309604E+04  0.20185309604E+04  0.25500000920E-02 0.  1.
    10030    2    1    2    0    0  0.00000000000E+00  0.00000000000E+00 -0.62003104713E+03  0.34170308738E+04  0.33603067558E+04 0.  0.
        4    1    3    3  502    0  0.10963622631E+04 -0.43148397679E+03  0.90800422471E+03  0.14875019056E+04  0.12699999809E+01 0. -1.
       -4    1    3    3    0  502 -0.10963622631E+04  0.43148397679E+03 -0.15280352718E+04  0.19295289682E+04  0.12699999809E+01 0.  1.
</event>
<event>
 5   0  0.3278988E-07  0.3497758E+04  0.7818609E-02  0.8114322E-01
       -1   -1    0    0    0  501  0.00000000000E+00  0.00000000000E+00  0.14121468952E+04  0.14121468952E+04  0.50400001928E-02 0.  1.
        1   -1    0    0  501    0  0.00000000000E+00  0.00000000000E+00 -0.21659059220E+04  0.21659059220E+04  0.50400001928E-02 0. -1.
    10030    2    1    2    0    0  0.00000000000E+00  0.00000000000E+00 -0.75375902680E+03  0.35780528173E+04  0.34977577521E+04 0.  0.
        4    1    3    3  502    0  0.14850976284E+04  0.79720836185E+03 -0.85397596839E+03  0.18895324039E+04  0.12699999809E+01 0. -1.
       -4    1    3    3    0  502 -0.14850976284E+04 -0.79720836185E+03  0.10021694160E+03  0.16885204133E+04  0.12699999809E+01 0.  1.
</event>
<event>
 5   0  0.3159875E-07  0.3099270E+04  0.7818609E-02  0.8215938E-01
       -1   -1    0    0    0  501  0.00000000000E+00  0.00000000000E+00  0.10677424155E+04  0.10677424156E+04  0.50400001928E-02 0. -1.
        1   -1    0    0  501    0  0.00000000000E+00  0.00000000000E+00 -0.22490150137E+04  0.22490150137E+04  0.50400001928E-02 0.  1.
    10030    2    1    2    0    0  0.00000000000E+00  0.00000000000E+00 -0.11812725982E+04  0.33167574293E+04  0.30992700582E+04 0.  0.
        5    1    3    3  502    0 -0.65911570178E+03 -0.94753527104E+03  0.51588921121E+03  0.12642865049E+04  0.46999998093E+01 0. -1.
       -5    1    3    3    0  502  0.65911570178E+03  0.94753527104E+03 -0.16971618094E+04  0.20524709244E+04  0.46999998093E+01 0.  1.
</event>
<event>
 5   0  0.3159875E-07  0.3588471E+04  0.7818609E-02  0.8093138E-01
        1   -1    0    0  501    0  0.00000000000E+00  0.00000000000E+00  0.25374107750E+04  0.25374107750E+04  0.50400001928E-02 0. -1.
       -1   -1    0    0    0  501  0.00000000000E+00  0.00000000000E+00 -0.12687267595E+04  0.12687267595E+04  0.50400001928E-02 0.  1.
    10030    2    1    2    0    0  0.00000000000E+00  0.00000000000E+00  0.12686840155E+04  0.38061375345E+04  0.35884709558E+04 0.  0.
        2    1    3    3  502    0  0.11951727302E+04  0.68300311394E+03  0.18549505468E+04  0.23099291418E+04  0.25500000920E-02 0. -1.
       -2    1    3    3    0  502 -0.11951727302E+04 -0.68300311394E+03 -0.58626653136E+03  0.14962083928E+04  0.25500000920E-02 0.  1.
</event>
<event>
 5   0  0.1006019E-06  0.3541141E+04  0.7818609E-02  0.8104109E-01
        2   -1    0    0  501    0  0.00000000000E+00  0.00000000000E+00  0.28378233366E+04  0.28378233366E+04  0.25500000920E-02 0.  1.
       -2   -1    0    0    0  501  0.00000000000E+00  0.00000000000E+00 -0.11046916779E+04  0.11046916779E+04  0.25500000920E-02 0. -1.
    10030    2    1    2    0    0  0.00000000000E+00  0.00000000000E+00  0.17331316587E+04  0.39425150145E+04  0.35411409592E+04 0.  0.
        1    1    3    3  502    0 -0.10730413417E+03  0.55960012286E+03 -0.99982623073E+03  0.11507905832E+04  0.50400001928E-02 0. -1.
       -1    1    3    3    0  502  0.10730413417E+03 -0.55960012286E+03  0.27329578894E+04  0.27917244313E+04  0.50400001928E-02 0.  1.
</event>
<event>
 5   0  0.9878336E-07  0.3499256E+04  0.7818609E-02  0.8113966E-01
       -2   -1    0    0    0  501  0.00000000000E+00  0.00000000000E+00  0.10439596286E+04  0.10439596286E+04  0.25500000920E-02 0. -1.
        2   -1    0    0  501    0  0.00000000000E+00  0.00000000000E+00 -0.29322951827E+04  0.29322951827E+04  0.25500000920E-02 0.  1.
    10030    2    1    2    0    0  0.00000000000E+00  0.00000000000E+00 -0.18883355541E+04  0.39762548113E+04  0.34992558008E+04 0.  0.
        3    1    3    3  502    0 -0.54379075547E+03  0.46943125885E+03  0.86864503892E+03  0.11272170627E+04  0.10100000352E+00 0. -1.
       -3    1    3    3    0  502  0.54379075547E+03 -0.46943125885E+03 -0.27569805930E+04  0.28490377486E+04  0.10100000352E+00 0.  1.
</event>
<event>
 5   0  0.9878336E-07  0.3469601E+04  0.7818609E-02  0.8121032E-01
        2   -1    0    0  501    0  0.00000000000E+00  0.00000000000E+00  0.17125933842E+04  0.17125933842E+04  0.25500000920E-02 0. -1.
       -2   -1    0    0    0  501  0.00000000000E+00  0.00000000000E+00 -0.17572952720E+04  0.17572952720E+04  0.25500000920E-02 0.  1.
    10030    2    1    2    0    0  0.00000000000E+00  0.00000000000E+00 -0.44701887725E+02  0.34698886562E+04  0.34696007015E+04 0.  0.
        3    1    3    3  502    0 -0.22186579467E+03  0.17195612378E+04 -0.80810608832E+02  0.17356974524E+04  0.10100000352E+00 0. -1.
       -3    1    3    3    0  502  0.22186579467E+03 -0.17195612378E+04  0.36108721106E+02  0.17341912038E+04  0.10100000352E+00 0.  1.
</event>
<event>
 5   0  0.3278988E-07  0.3598140E+04  0.7818609E-02  0.8090918E-01
       -1   -1    0    0    0  501  0.00000000000E+00  0.00000000000E+00  0.13554265521E+04  0.13554265521E+04  0.50400001928E-02 0. -1.
        1   -1    0    0  501    0  0.00000000000E+00  0.00000000000E+00 -0.23879226253E+04  0.23879226253E+04  0.50400001928E-02 0.  1.
    10030    2    1    2    0    0  0.00000000000E+00  0.00000000000E+00 -0.10324960732E+04  0.37433491774E+04  0.35981404812E+04 0.  0.
        4    1    3    3  502    0  0.11102672375E+04  0.67505390922E+03 -0.18107547626E+04  0.22287273369E+04  0.12699999809E+01 0.  1.
       -4    1    3    3    0  502 -0.11102672375E+04 -0.67505390922E+03  0.77825868941E+03  0.15146218405E+04  0.12699999809E+01 0. -1.
</event>
<event>
 5   0  0.1006019E-06  0.3579937E+04  0.7818609E-02  0.8095103E-01
        2   -1    0    0  501    0  0.00000000000E+00  0.00000000000E+00  0.33389042689E+04  0.33389042689E+04  0.25500000920E-02 0.  1.
       -2   -1    0    0    0  501  0.00000000000E+00  0.00000000000E+00 -0.95959235605E+03  0.95959235606E+03  0.25500000920E-02 0. -1.
    10030    2    1    2    0    0  0.00000000000E+00  0.00000000000E+00  0.23793119128E+04  0.42984966249E+04  0.35799368788E+04 0.  0.
        1    1    3    3  502    0 -0.99122920662E+03 -0.14378006643E+04  0.71818326544E+03  0.18882778644E+04  0.50400001928E-02 0. -1.
       -1    1    3    3    0  502  0.99122920662E+03  0.14378006643E+04  0.16611286474E+04  0.24102187605E+04  0.50400001928E-02 0.  1.
</event>
<event>
 5   0  0.3159875E-07  0.3595154E+04  0.7818609E-02  0.8091603E-01
        1   -1    0    0  501    0  0.00000000000E+00  0.00000000000E+00  0.15046466322E+04  0.15046466322E+04  0.50400001928E-02 0. -1.
       -1   -1    0    0    0  501  0.00000000000E+00  0.00000000000E+00 -0.21475366532E+04  0.21475366532E+04  0.50400001928E-02 0.  1.
    10030    2    1    2    0    0  0.00000000000E+00  0.00000000000E+00 -0.64289002100E+03  0.36521832853E+04  0.35951544015E+04 0.  0.
        2    1    3    3  502    0 -0.84282422682E+03  0.32609826697E+03  0.12570994179E+04  0.15482221105E+04  0.25500000920E-02 0. -1.
       -2    1    3    3    0  502  0.84282422682E+03 -0.32609826697E+03 -0.18999894389E+04  0.21039611748E+04  0.25500000920E-02 0.  1.
</event>
<event>
 5   0  0.3365378E-07  0.3598122E+04  0.7818609E-02  0.8090922E-01
       -1   -1    0    0    0  501  0.00000000000E+00  0.00000000000E+00  0.20380406684E+04  0.20380406684E+04  0.50400001928E-02 0. -1.
        1   -1    0    0  501    0  0.00000000000E+00  0.00000000000E+00 -0.15881043985E+04  0.15881043985E+04  0.50400001928E-02 0.  1.
    10030    2    1    2    0    0  0.00000000000E+00  0.00000000000E+00  0.44993626990E+03  0.36261450670E+04  0.35981224826E+04 0.  0.
        3    1    3    3  502    0  0.22844607094E+03 -0.67343656803E+03 -0.14404507142E+04  0.16064254383E+04  0.10100000352E+00 0.  1.
       -3    1    3    3    0  502 -0.22844607094E+03  0.67343656803E+03  0.18903869841E+04  0.20197196287E+04  0.10100000352E+00 0. -1.
</event>
<event>
 5   0  0.3159875E-07  0.3580757E+04  0.7818609E-02  0.8094914E-01
        1   -1    0    0  501    0  0.00000000000E+00  0.00000000000E+00  0.15403234335E+04  0.15403234335E+04  0.50400001928E-02 0.  1.
       -1   -1    0    0    0  501  0.00000000000E+00  0.00000000000E+00 -0.20810275352E+04  0.20810275352E+04  0.50400001928E-02 0. -1.
    10030    2    1    2    0    0  0.00000000000E+00  0.00000000000E+00 -0.54070410169E+03  0.36213509687E+04  0.35807571703E+04 0.  0.
        5    1    3    3  502    0  0.79560001322E+03 -0.85212800611E+03  0.11038501186E+04  0.16054932869E+04  0.46999998093E+01 0.  1.
       -5    1    3    3    0  502 -0.79560001322E+03  0.85212800611E+03 -0.16445542203E+04  0.20158576818E+04  0.46999998093E+01 0. -1.
</event>
<event>
 5   0  0.1031659E-06  0.3597891E+04  0.7818609E-02  0.8090975E-01
       -2   -1    0    0    0  501  0.00000000000E+00  0.00000000000E+00  0.14039778936E+04  0.14039778936E+04  0.25500000920E-02 0. -1.
        2   -1    0    0  501    0  0.00000000000E+00  0.00000000000E+00 -0.23050255252E+04  0.23050255252E+04  0.25500000920E-02 0.  1.
    10030    2    1    2    0    0  0.00000000000E+00  0.00000000000E+00 -0.90104763165E+03  0.37090034188E+04  0.35978909831E+04 0.  0.
        2    1    3    3  502    0 -0.10583387068E+04 -0.80254434528E+03  0.80022476389E+03  0.15506508044E+04  0.25500000920E-02 0. -1.
       -2    1    3    3    0  502  0.10583387068E+04  0.80254434528E+03 -0.17012723955E+04  0.21583526144E+04  0.25500000920E-02 0.  1.
</event>
<event>
 5   0  0.1006019E-06  0.3484300E+04  0.7818609E-02  0.8117521E-01
       -2   -1    0    0    0  501  0.00000000000E+00  0.00000000000E+00  0.97517577522E+03  0.97517577523E+03  0.25500000920E-02 0.  1.
        2   -1    0    0  501    0  0.00000000000E+00  0.00000000000E+00 -0.31123487532E+04  0.31123487532E+04  0.25500000920E-02 0. -1.
    10030    2    1    2    0    0  0.00000000000E+00  0.00000000000E+00 -0.21371729780E+04  0.40875245285E+04  0.34843002788E+04 0.  0.
        1    1    3    3  502    0 -0.63872738383E+03 -0.59124295606E+03  0.70184201941E+03  0.11180890502E+04  0.50400001928E-02 0.  1.
       -1    1    3    3    0  502  0.63872738383E+03  0.59124295606E+03 -0.28390149974E+04  0.29694354783E+04  0.50400001928E-02 0. -1.
</event>
<event>
 5   0  0.9878977E-07  0.3610936E+04  0.7818609E-02  0.8087991E-01
       -2   -1    0    0    0  501  0.00000000000E+00  0.00000000000E+00  0.23553537493E+04  0.23553537493E+04  0.25500000920E-02 0.  1.
        2   -1    0    0  501    0  0.00000000000E+00  0.00000000000E+00 -0.13839596744E+04  0.13839596744E+04  0.25500000920E-02 0. -1.
    10030    2    1    2    0    0  0.00000000000E+00  0.00000000000E+00  0.97139407496E+03  0.37393134237E+04  0.36109359495E+04 0.  0.
        5    1    3    3  502    0  0.79188041232E+03  0.15830567674E+04  0.11731216451E+03  0.17739581591E+04  0.46999998093E+01 0.  1.
       -5    1    3    3    0  502 -0.79188041232E+03 -0.15830567674E+04  0.85408191045E+03  0.19653552646E+04  0.46999998093E+01 0. -1.
</event>
<event>
 5   0  0.3159875E-07  0.3580637E+04  0.7818609E-02  0.8094941E-01
        1   -1    0    0  501    0  0.00000000000E+00  0.00000000000E+00  0.24825051924E+04  0.24825051924E+04  0.50400001928E-02 0.  1.
       -1   -1    0    0    0  501  0.00000000000E+00  0.00000000000E+00 -0.12911315644E+04  0.12911315644E+04  0.50400001928E-02 0. -1.
    10030    2    1    2    0    0  0.00000000000E+00  0.00000000000E+00  0.11913736281E+04  0.37736367568E+04  0.35806372688E+04 0.  0.
        2    1    3    3  502    0 -0.94510327808E+03  0.19664897066E+03  0.21847197450E+04  0.23884914461E+04  0.25500000920E-02 0.  1.
       -2    1    3    3    0  502  0.94510327808E+03 -0.19664897066E+03 -0.99334611689E+03  0.13851453107E+04  0.25500000920E-02 0. -1.
</event>
<event>
 5   0  0.9538919E-07  0.3594487E+04  0.7818609E-02  0.8091756E-01
        2   -1    0    0  501    0  0.00000000000E+00  0.00000000000E+00  0.20483494496E+04  0.20483494496E+04  0.25500000920E-02 0. -1.
       -2   -1    0    0    0  501  0.00000000000E+00  0.00000000000E+00 -0.15769204268E+04  0.15769204268E+04  0.25500000920E-02 0.  1.
    10030    2    1    2    0    0  0.00000000000E+00  0.00000000000E+00  0.47142902271E+03  0.36252698764E+04  0.35944869388E+04 0.  0.
        4    1    3    3  502    0  0.37090113735E+03 -0.14764784920E+04 -0.72772860081E+03  0.16873490808E+04  0.12699999809E+01 0.  1.
       -4    1    3    3    0  502 -0.37090113735E+03  0.14764784920E+04  0.11991576235E+04  0.19379207956E+04  0.12699999809E+01 0. -1.
</event>
<event>
 5   0  0.1006019E-06  0.3628321E+04  0.7818609E-02  0.8084035E-01
       -2   -1    0    0    0  501  0.00000000000E+00  0.00000000000E+00  0.16262545030E+04  0.16262545030E+04  0.25500000920E-02 0. -1.
        2   -1    0    0  501    0  0.00000000000E+00  0.00000000000E+00 -0.20237780321E+04  0.20237780321E+04  0.25500000920E-02 0.  1.
    10030    2    1    2    0    0  0.00000000000E+00  0.00000000000E+00 -0.39752352911E+03  0.36500325350E+04  0.36283208996E+04 0.  0.
        1    1    3    3  502    0 -0.88201477845E+03 -0.78171963843E+03  0.11886729830E+04  0.16739113248E+04  0.50400001928E-02 0. -1.
       -1    1    3    3    0  502  0.88201477845E+03  0.78171963843E+03 -0.15861965121E+04  0.19761212103E+04  0.50400001928E-02 0.  1.
</event>
<event>
 5   0  0.3242047E-07  0.3279381E+04  0.7818609E-02  0.8168162E-01
       -1   -1    0    0    0  501  0.00000000000E+00  0.00000000000E+00  0.13605330893E+04  0.13605330893E+04  0.50400001928E-02 0.  1.
        1   -1    0    0  501    0  0.00000000000E+00  0.00000000000E+00 -0.19761258149E+04  0.19761258149E+04  0.50400001928E-02 0. -1.
    10030    2    1    2    0    0  0.00000000000E+00  0.00000000000E+00 -0.61559272554E+03  0.33366589042E+04  0.32793807707E+04 0.  0.
        1    1    3    3  502    0  0.26392532435E+03  0.10670932528E+04  0.93010497015E+03  0.14399443887E+04  0.50400001928E-02 0.  1.
       -1    1    3    3    0  502 -0.26392532435E+03 -0.10670932528E+04 -0.15456976957E+04  0.18967145155E+04  0.50400001928E-02 0. -1.
</event>
<event>
 5   0  0.3159875E-07  0.3178614E+04  0.7818609E-02  0.8194488E-01
        1   -1    0    0  501    0  0.00000000000E+00  0.00000000000E+00  0.25389180135E+04  0.25389180135E+04  0.50400001928E-02 0.  1.
       -1   -1    0    0    0  501  0.00000000000E+00  0.00000000000E+00 -0.99487109021E+03  0.99487109022E+03  0.50400001928E-02 0. -1.
    10030    2    1    2    0    0  0.00000000000E+00  0.00000000000E+00  0.15440469233E+04  0.35337891037E+04  0.31786136173E+04 0.  0.
        5    1    3    3  502    0  0.37574972006E+03 -0.81440454902E+03  0.22306622242E+04  0.24042293297E+04  0.46999998093E+01 0.  1.
       -5    1    3    3    0  502 -0.37574972006E+03  0.81440454902E+03 -0.68661530090E+03  0.11295597740E+04  0.46999998093E+01 0. -1.
</event>
<event>
 5   0  0.9878977E-07  0.3562460E+04  0.7818609E-02  0.8099145E-01
        2   -1    0    0  501    0  0.00000000000E+00  0.00000000000E+00  0.21505871656E+04  0.21505871656E+04  0.25500000920E-02 0.  1.
       -2   -1    0    0    0  501  0.00000000000E+00  0.00000000000E+00 -0.14753092398E+04  0.14753092398E+04  0.25500000920E-02 0. -1.
    10030    2    1    2    0    0  0.00000000000E+00  0.00000000000E+00  0.67527792581E+03  0.36258964053E+04  0.35624604510E+04 0.  0.
        5    1    3    3  502    0 -0.13304724123E+04 -0.38112642149E+03 -0.80364191720E+03  0.16003988909E+04  0.46999998093E+01 0. -1.
       -5    1    3    3    0  502  0.13304724123E+04  0.38112642149E+03  0.14789198430E+04  0.20254975144E+04  0.46999998093E+01 0.  1.
</event>
<event>
 5   0  0.9878977E-07  0.3967467E+04  0.7818609E-02  0.8011142E-01
       -2   -1    0    0    0  501  0.00000000000E+00  0.00000000000E+00  0.15058511526E+04  0.15058511526E+04  0.25500000920E-02 0. -1.
        2   -1    0    0  501    0  0.00000000000E+00  0.00000000000E+00 -0.26132721526E+04  0.26132721526E+04  0.25500000920E-02 0.  1.
    10030    2    1    2    0    0  0.00000000000E+00  0.00000000000E+00 -0.11074209999E+04  0.41191233052E+04  0.39674671432E+04 0.  0.
        5    1    3    3  502    0  0.13493237223E+03 -0.17963817018E+04 -0.14161141691E+04  0.22914177693E+04  0.46999998093E+01 0.  1.
       -5    1    3    3    0  502 -0.13493237223E+03  0.17963817018E+04  0.30869316912E+03  0.18277055360E+04  0.46999998093E+01 0. -1.
</event>
<event>
 5   0  0.9878977E-07  0.3482578E+04  0.7818609E-02  0.8117931E-01
       -2   -1    0    0    0  501  0.00000000000E+00  0.00000000000E+00  0.17126770665E+04  0.17126770665E+04  0.25500000920E-02 0. -1.
        2   -1    0    0  501    0  0.00000000000E+00  0.00000000000E+00 -0.17703786221E+04  0.17703786221E+04  0.25500000920E-02 0.  1.
    10030    2    1    2    0    0  0.00000000000E+00  0.00000000000E+00 -0.57701555677E+02  0.34830556886E+04  0.34825777034E+04 0.  0.
        5    1    3    3  502    0  0.43471712570E+03  0.99674598223E+02 -0.17122783901E+04  0.17694161128E+04  0.46999998093E+01 0.  1.
       -5    1    3    3    0  502 -0.43471712570E+03 -0.99674598223E+02  0.16545768344E+04  0.17136395758E+04  0.46999998093E+01 0. -1.
</event>
<event>
 5   0  0.9538919E-07  0.3371446E+04  0.7818609E-02  0.8144950E-01
       -2   -1    0    0    0  501  0.00000000000E+00  0.00000000000E+00  0.31452654848E+04  0.31452654848E+04  0.25500000920E-02 0. -1.
        2   -1    0    0  501    0  0.00000000000E+00  0.00000000000E+00 -0.90347265357E+03  0.90347265357E+03  0.25500000920E-02 0.  1.
    10030    2    1    2    0    0  0.00000000000E+00  0.00000000000E+00  0.22417928312E+04  0.40487381383E+04  0.33714455972E+04 0.  0.
        4    1    3    3  502    0 -0.10582063746E+03  0.10070820341E+04  0.27393157142E+04  0.29204904427E+04  0.12699999809E+01 0. -1.
       -4    1    3    3    0  502  0.10582063746E+03 -0.10070820341E+04 -0.49752288301E+03  0.11282476957E+04  0.12699999809E+01 0.  1.
</event>
<event>
 5   0  0.9538919E-07  0.3533398E+04  0.7818609E-02  0.8105920E-01
        2   -1    0    0  501    0  0.00000000000E+00  0.00000000000E+00  0.16604635365E+04  0.16604635365E+04  0.25500000920E-02 0. -1.
       -2   -1    0    0    0  501  0.00000000000E+00  0.00000000000E+00 -0.18797315575E+04  0.18797315575E+04  0.25500000920E-02 0.  1.
    10030    2    1    2    0    0  0.00000000000E+00  0.00000000000E+00 -0.21926802096E+03  0.35401950939E+04  0.35333981998E+04 0.  0.
        4    1    3    3  502    0  0.12129992369E+04 -0.15774545067E+03 -0.13868305405E+04  0.18492028923E+04  0.12699999809E+01 0.  1.
       -4    1    3    3    0  502 -0.12129992369E+04  0.15774545067E+03  0.11675625196E+04  0.16909922016E+04  0.12699999809E+01 0. -1.
</event>
<event>
 5   0  0.3159875E-07  0.3726518E+04  0.7818609E-02  0.8062110E-01
       -1   -1    0    0    0  501  0.00000000000E+00  0.00000000000E+00  0.15414669044E+04  0.15414669044E+04  0.50400001928E-02 0.  1.
        1   -1    0    0  501    0  0.00000000000E+00  0.00000000000E+00 -0.22522270309E+04  0.22522270309E+04  0.50400001928E-02 0. -1.
    10030    2    1    2    0    0  0.00000000000E+00  0.00000000000E+00 -0.71076012656E+03  0.37936939353E+04  0.37265176395E+04 0.  0.
        5    1    3    3  502    0 -0.23145549648E+03 -0.14724632893E+04 -0.14935645143E+04  0.21100892951E+04  0.46999998093E+01 0. -1.
       -5    1    3    3    0  502  0.23145549648E+03  0.14724632893E+04  0.78280438771E+03  0.16836046402E+04  0.46999998093E+01 0.  1.
</event>
<event>
 5   0  0.9878336E-07  0.3694517E+04  0.7818609E-02  0.8069178E-01
        2   -1    0    0  501    0  0.00000000000E+00  0.00000000000E+00  0.29620060872E+04  0.29620060872E+04  0.25500000920E-02 0.  1.
       -2   -1    0    0    0  501  0.00000000000E+00  0.00000000000E+00 -0.11520445754E+04  0.11520445755E+04  0.25500000920E-02 0. -1.
    10030    2    1    2    0    0  0.00000000000E+00  0.00000000000E+00  0.18099615117E+04  0.41140506626E+04  0.36945165016E+04 0.  0.
        3    1    3    3  502    0 -0.10035761096E+04  0.11143114597E+04  0.21061292781E+04  0.25854662217E+04  0.10100000352E+00 0.  1.
       -3    1    3    3    0  502  0.10035761096E+04 -0.11143114597E+04 -0.29616776641E+03  0.15285844409E+04  0.10100000352E+00 0. -1.
</event>
<event>
 5   0  0.9538919E-07  0.3602603E+04  0.7818609E-02  0.8089896E-01
        2   -1    0    0  501    0  0.00000000000E+00  0.00000000000E+00  0.23495648899E+04  0.23495648899E+04  0.25500000920E-02 0.  1.
       -2   -1    0    0    0  501  0.00000000000E+00  0.00000000000E+00 -0.13809732571E+04  0.13809732571E+04  0.25500000920E-02 0. -1.
    10030    2    1    2    0    0  0.00000000000E+00  0.00000000000E+00  0.96859163286E+03  0.37305381470E+04  0.36026025474E+04 0.  0.
        4    1    3    3  502    0  0.18455780595E+03  0.89832989913E+03  0.20897156460E+04  0.22820980008E+04  0.12699999809E+01 0.  1.
       -4    1    3    3    0  502 -0.18455780595E+03 -0.89832989913E+03 -0.11211240131E+04  0.14484401462E+04  0.12699999809E+01 0. -1.
</event>
<event>
 5   0  0.3365378E-07  0.3623211E+04  0.7818609E-02  0.8085195E-01
        1   -1    0    0  501    0  0.00000000000E+00  0.00000000000E+00  0.12707902447E+04  0.12707902447E+04  0.50400001928E-02 0. -1.
       -1   -1    0    0    0  501  0.00000000000E+00  0.00000000000E+00 -0.25825779859E+04  0.25825779859E+04  0.50400001928E-02 0.  1.
    10030    2    1    2    0    0  0.00000000000E+00  0.00000000000E+00 -0.13117877411E+04  0.38533682306E+04  0.36232112335E+04 0.  0.
        3    1    3    3  502    0 -0.65898380212E+02 -0.16076611092E+04 -0.15412395421E+04  0.22280790324E+04  0.10100000352E+00 0. -1.
       -3    1    3    3    0  502  0.65898380212E+02  0.16076611092E+04  0.22945180094E+03  0.16252891982E+04  0.10100000352E+00 0.  1.
</event>
<event>
 5   0  0.9878977E-07  0.3659379E+04  0.7818609E-02  0.8077024E-01
        2   -1    0    0  501    0  0.00000000000E+00  0.00000000000E+00  0.23685914890E+04  0.23685914890E+04  0.25500000920E-02 0.  1.
       -2   -1    0    0    0  501  0.00000000000E+00  0.00000000000E+00 -0.14133984678E+04  0.14133984678E+04  0.25500000920E-02 0. -1.
    10030    2    1    2    0    0  0.00000000000E+00  0.00000000000E+00  0.95519302121E+03  0.37819899567E+04  0.36593789535E+04 0.  0.
        5    1    3    3  502    0  0.64189461162E+03  0.13074579891E+04 -0.66687609190E+03  0.16019428509E+04  0.46999998093E+01 0. -1.
       -5    1    3    3    0  502 -0.64189461162E+03 -0.13074579891E+04  0.16220691131E+04  0.21800471058E+04  0.46999998093E+01 0.  1.
</event>
<event>
 5   0  0.1031659E-06  0.2951459E+04  0.7818609E-02  0.8257729E-01
        2   -1    0    0  501    0  0.00000000000E+00  0.00000000000E+00  0.25768596924E+04  0.25768596924E+04  0.25500000920E-02 0. -1.
       -2   -1    0    0    0  501  0.00000000000E+00  0.00000000000E+00 -0.84512875025E+03  0.84512875026E+03  0.25500000920E-02 0.  1.
    10030    2    1    2    0    0  0.00000000000E+00  0.00000000000E+00  0.17317309422E+04  0.34219884427E+04  0.29514594434E+04 0.  0.
        2    1    3    3  502    0 -0.49893863410E+03  0.51158965963E+03 -0.63114359063E+03  0.95341804705E+03  0.25500000920E-02 0.  1.
       -2    1    3    3    0  502  0.49893863410E+03 -0.51158965963E+03  0.23628745328E+04  0.24685703956E+04  0.25500000920E-02 0. -1.
</event>
<event>
 5   0  0.3242047E-07  0.3638765E+04  0.7818609E-02  0.8081669E-01
       -1   -1    0    0    0  501  0.00000000000E+00  0.00000000000E+00  0.19667921445E+04  0.19667921445E+04  0.50400001928E-02 0. -1.
        1   -1    0    0  501    0  0.00000000000E+00  0.00000000000E+00 -0.16830208612E+04  0.16830208612E+04  0.50400001928E-02 0.  1.
    10030    2    1    2    0    0  0.00000000000E+00  0.00000000000E+00  0.28377128330E+03  0.36498130057E+04  0.36387647403E+04 0.  0.
        1    1    3    3  502    0  0.13600356989E+04  0.75637661529E+03  0.10872703499E+04  0.18984097293E+04  0.50400001928E-02 0.  1.
       -1    1    3    3    0  502 -0.13600356989E+04 -0.75637661529E+03 -0.80349906657E+03  0.17514032764E+04  0.50400001928E-02 0. -1.
</event>
<event>
 5   0  0.9878977E-07  0.3609399E+04  0.7818609E-02  0.8088342E-01
        2   -1    0    0  501    0  0.00000000000E+00  0.00000000000E+00  0.31820595785E+04  0.31820595785E+04  0.25500000920E-02 0.  1.
       -2   -1    0    0    0  501  0.00000000000E+00  0.00000000000E+00 -0.10235323425E+04  0.10235323425E+04  0.25500000920E-02 0. -1.
    10030    2    1    2    0    0  0.00000000000E+00  0.00000000000E+00  0.21585272360E+04  0.42055919210E+04  0.36093993374E+04 0.  0.
        5    1    3    3  502    0 -0.64378257515E+03  0.14556428637E+04  0.88131688348E+02  0.15940958049E+04  0.46999998093E+01 0. -1.
       -5    1    3    3    0  502  0.64378257515E+03 -0.14556428637E+04  0.20703955477E+04  0.26114961161E+04  0.46999998093E+01 0.  1.
</event>
<event>
 5   0  0.9878977E-07  0.3607539E+04  0.7818609E-02  0.8088767E-01
       -2   -1    0    0    0  501  0.00000000000E+00  0.00000000000E+00  0.16514694631E+04  0.16514694631E+04  0.25500000920E-02 0. -1.
        2   -1    0    0  501    0  0.00000000000E+00  0.00000000000E+00 -0.19701143903E+04  0.19701143903E+04  0.25500000920E-02 0.  1.
    10030    2    1    2    0    0  0.00000000000E+00  0.00000000000E+00 -0.31864492715E+03  0.36215838534E+04  0.36075386370E+04 0.  0.
        5    1    3    3  502    0  0.34114224898E+03 -0.49529807277E+03  0.15478462584E+04  0.16605867471E+04  0.46999998093E+01 0. -1.
       -5    1    3    3    0  502 -0.34114224898E+03  0.49529807277E+03 -0.18664911856E+04  0.19609971063E+04  0.46999998093E+01 0.  1.
</event>
<event>
 5   0  0.9878336E-07  0.3567600E+04  0.7818609E-02  0.8097954E-01
       -2   -1    0    0    0  501  0.00000000000E+00  0.00000000000E+00  0.16934534060E+04  0.16934534060E+04  0.25500000920E-02 0. -1.
        2   -1    0    0  501    0  0.00000000000E+00  0.00000000000E+00 -0.18789665385E+04  0.18789665385E+04  0.25500000920E-02 0.  1.
    10030    2    1    2    0    0  0.00000000000E+00  0.00000000000E+00 -0.18551313257E+03  0.35724199445E+04  0.35675999127E+04 0.  0.
        3    1    3    3  502    0 -0.95053180490E+03 -0.32589523571E+03  0.13830813042E+04  0.17095708003E+04  0.10100000352E+00 0. -1.
       -3    1    3    3    0  502  0.95053180490E+03  0.32589523571E+03 -0.15685944368E+04  0.18628491442E+04  0.10100000352E+00 0.  1.
</event>
<event>
 5   0  0.3159875E-07  0.3619118E+04  0.7818609E-02  0.8086126E-01
        1   -1    0    0  501    0  0.00000000000E+00  0.00000000000E+00  0.28911962700E+04  0.28911962700E+04  0.50400001928E-02 0. -1.
       -1   -1    0    0    0  501  0.00000000000E+00  0.00000000000E+00 -0.11325776741E+04  0.11325776741E+04  0.50400001928E-02 0.  1.
    10030    2    1    2    0    0  0.00000000000E+00  0.00000000000E+00  0.17586185958E+04  0.40237739441E+04  0.36191183163E+04 0.  0.
        2    1    3    3  502    0 -0.86107137912E+03 -0.15826809286E+04  0.69266579199E+03  0.19303131200E+04  0.25500000920E-02 0.  1.
       -2    1    3    3    0  502  0.86107137912E+03  0.15826809286E+04  0.10659528039E+04  0.20934608241E+04  0.25500000920E-02 0. -1.
</event>
<event>
 5   0  0.3159875E-07  0.3509069E+04  0.7818609E-02  0.8111644E-01
       -1   -1    0    0    0  501  0.00000000000E+00  0.00000000000E+00  0.11702182986E+04  0.11702182986E+04  0.50400001928E-02 0. -1.
        1   -1    0    0  501    0  0.00000000000E+00  0.00000000000E+00 -0.26306124546E+04  0.26306124546E+04  0.50400001928E-02 0.  1.
    10030    2    1    2    0    0  0.00000000000E+00  0.00000000000E+00 -0.14603941559E+04  0.38008307532E+04  0.35090687260E+04 0.  0.
        5    1    3    3  502    0 -0.14379188073E+04  0.75498791451E+03 -0.11106574075E+02  0.16241190515E+04  0.46999998093E+01 0. -1.
       -5    1    3    3    0  502  0.14379188073E+04 -0.75498791451E+03 -0.14492875819E+04  0.21767117017E+04  0.46999998093E+01 0.  1.
</event>
<event>
 5   0  0.1031659E-06  0.3605498E+04  0.7818609E-02  0.8089234E-01
        2   -1    0    0  501    0  0.00000000000E+00  0.00000000000E+00  0.10948665710E+04  0.10948665710E+04  0.25500000920E-02 0. -1.
       -2   -1    0    0    0  501  0.00000000000E+00  0.00000000000E+00 -0.29683102295E+04  0.29683102295E+04  0.25500000920E-02 0.  1.
    10030    2    1    2    0    0  0.00000000000E+00  0.00000000000E+00 -0.18734436584E+04  0.40631768005E+04  0.36054978257E+04 0.  0.
        2    1    3    3  502    0 -0.58064201045E+03  0.12822426294E+04 -0.22060237801E+04  0.26168363004E+04  0.25500000920E-02 0.  1.
       -2    1    3    3    0  502  0.58064201045E+03 -0.12822426294E+04  0.33258012163E+03  0.14463405001E+04  0.25500000920E-02 0. -1.
</event>
<event>
 5   0  0.1006019E-06  0.3655816E+04  0.7818609E-02  0.8077825E-01
        2   -1    0    0  501    0  0.00000000000E+00  0.00000000000E+00  0.15927317848E+04  0.15927317848E+04  0.25500000920E-02 0.  1.
       -2   -1    0    0    0  501  0.00000000000E+00  0.00000000000E+00 -0.20978096694E+04  0.20978096694E+04  0.25500000920E-02 0. -1.
    10030    2    1    2    0    0  0.00000000000E+00  0.00000000000E+00 -0.50507788457E+03  0.36905414542E+04  0.36558162640E+04 0.  0.
        1    1    3    3  502    0  0.69134175034E+03  0.52446808401E+03  0.13715394523E+04  0.16230035910E+04  0.50400001928E-02 0.  1.
       -1    1    3    3    0  502 -0.69134175034E+03 -0.52446808401E+03 -0.18766173369E+04  0.20675378633E+04  0.50400001928E-02 0. -1.
</event>
<event>
 5   0  0.3278988E-07  0.3606162E+04  0.7818609E-02  0.8089082E-01
        1   -1    0    0  501    0  0.00000000000E+00  0.00000000000E+00  0.14072094396E+04  0.14072094396E+04  0.50400001928E-02 0. -1.
       -1   -1    0    0    0  501  0.00000000000E+00  0.00000000000E+00 -0.23103177412E+04  0.23103177412E+04  0.50400001928E-02 0.  1.
    10030    2    1    2    0    0  0.00000000000E+00  0.00000000000E+00 -0.90310830156E+03  0.37175271808E+04  0.36061619120E+04 0.  0.
        4    1    3    3  502    0  0.37774341794E+03 -0.10450700368E+04  0.10122393416E+04  0.15031605267E+04  0.12699999809E+01 0. -1.
       -4    1    3    3    0  502 -0.37774341794E+03  0.10450700368E+04 -0.19153476432E+04  0.22143666541E+04  0.12699999809E+01 0.  1.
</event>
<event>
 5   0  0.3365378E-07  0.3627079E+04  0.7818609E-02  0.8084317E-01
        1   -1    0    0  501    0  0.00000000000E+00  0.00000000000E+00  0.14192218681E+04  0.14192218681E+04  0.50400001928E-02 0.  1.
       -1   -1    0    0    0  501  0.00000000000E+00  0.00000000000E+00 -0.23174146500E+04  0.23174146500E+04  0.50400001928E-02 0. -1.
    10030    2    1    2    0    0  0.00000000000E+00  0.00000000000E+00 -0.89819278193E+03  0.37366365182E+04  0.36270790170E+04 0.  0.
        3    1    3    3  502    0 -0.46768951306E+02 -0.14482245816E+04 -0.15726268224E+04  0.21383865194E+04  0.10100000352E+00 0. -1.
       -3    1    3    3    0  502  0.46768951306E+02  0.14482245816E+04  0.67443404046E+03  0.15982499988E+04  0.10100000352E+00 0.  1.
</event>
<event>
 5   0  0.1031659E-06  0.3458118E+04  0.7818609E-02  0.8123788E-01
       -2   -1    0    0    0  501  0.00000000000E+00  0.00000000000E+00  0.12296813742E+04  0.12296813742E+04  0.25500000920E-02 0.  1.
        2   -1    0    0  501    0  0.00000000000E+00  0.00000000000E+00 -0.24312359747E+04  0.24312359747E+04  0.25500000920E-02 0. -1.
    10030    2    1    2    0    0  0.00000000000E+00  0.00000000000E+00 -0.12015546005E+04  0.36609173489E+04  0.34581183290E+04 0.  0.
        2    1    3    3  502    0 -0.16743723031E+04  0.26256155888E+03 -0.23837996259E+03  0.17115157575E+04  0.25500000920E-02 0. -1.
       -2    1    3    3    0  502  0.16743723031E+04 -0.26256155888E+03 -0.96317463795E+03  0.19494015914E+04  0.25500000920E-02 0.  1.
</event>
<event>
 5   0  0.3365378E-07  0.3629103E+04  0.7818609E-02  0.8083858E-01
       -1   -1    0    0    0  501  0.00000000000E+00  0.00000000000E+00  0.14022831379E+04  0.14022831379E+04  0.50400001928E-02 0. -1.
        1   -1    0    0  501    0  0.00000000000E+00  0.00000000000E+00 -0.23480253129E+04  0.23480253129E+04  0.50400001928E-02 0.  1.
    10030    2    1    2    0    0  0.00000000000E+00  0.00000000000E+00 -0.94574217503E+03  0.37503084508E+04  0.36291025357E+04 0.  0.
        3    1    3    3  502    0 -0.77249337325E+03 -0.17126984135E+03 -0.21603560905E+04  0.23006994194E+04  0.10100000352E+00 0.  1.
       -3    1    3    3    0  502  0.77249337325E+03  0.17126984135E+03  0.12146139155E+04  0.14496090315E+04  0.10100000352E+00 0. -1.
</event>
<event>
 5   0  0.3242047E-07  0.3476570E+04  0.7818609E-02  0.8119365E-01
       -1   -1    0    0    0  501  0.00000000000E+00  0.00000000000E+00  0.29514197219E+04  0.29514197219E+04  0.50400001928E-02 0.  1.
        1   -1    0    0  501    0  0.00000000000E+00  0.00000000000E+00 -0.10237904641E+04  0.10237904641E+04  0.50400001928E-02 0. -1.
    10030    2    1    2    0    0  0.00000000000E+00  0.00000000000E+00  0.19276292578E+04  0.39752101860E+04  0.34765703599E+04 0.  0.
        1    1    3    3  502    0 -0.83218525011E+03 -0.96371543693E+03 -0.38928023242E+03  0.13314724305E+04  0.50400001928E-02 0. -1.
       -1    1    3    3    0  502  0.83218525011E+03  0.96371543693E+03  0.23169094902E+04  0.26437377555E+04  0.50400001928E-02 0.  1.
</event>
<event>
 5   0  0.3159875E-07  0.3622314E+04  0.7818609E-02  0.8085399E-01
       -1   -1    0    0    0  501  0.00000000000E+00  0.00000000000E+00  0.13550134225E+04  0.13550134225E+04  0.50400001928E-02 0. -1.
        1   -1    0    0  501    0  0.00000000000E+00  0.00000000000E+00 -0.24208537699E+04  0.24208537699E+04  0.50400001928E-02 0.  1.
    10030    2    1    2    0    0  0.00000000000E+00  0.00000000000E+00 -0.10658403474E+04  0.37758671925E+04  0.36223138198E+04 0.  0.
        2    1    3    3  502    0  0.19383995762E+03 -0.49034416721E+03 -0.23390796382E+04  0.23977708159E+04  0.25500000920E-02 0.  1.
       -2    1    3    3    0  502 -0.19383995762E+03  0.49034416721E+03  0.12732392908E+04  0.13780963766E+04  0.25500000920E-02 0. -1.
</event>
<event>
 5   0  0.9538919E-07  0.3630479E+04  0.7818609E-02  0.8083545E-01
        2   -1    0    0  501    0  0.00000000000E+00  0.00000000000E+00  0.18543457537E+04  0.18543457537E+04  0.25500000920E-02 0.  1.
       -2   -1    0    0    0  501  0.00000000000E+00  0.00000000000E+00 -0.17769584434E+04  0.17769584434E+04  0.25500000920E-02 0. -1.
    10030    2    1    2    0    0  0.00000000000E+00  0.00000000000E+00  0.77387310261E+02  0.36313041971E+04  0.36304794967E+04 0.  0.
        4    1    3    3  502    0  0.42242352250E+03  0.17552666325E+04 -0.15027026919E+03  0.18116250578E+04  0.12699999809E+01 0.  1.
       -4    1    3    3    0  502 -0.42242352250E+03 -0.17552666325E+04  0.22765757945E+03  0.18196791392E+04  0.12699999809E+01 0. -1.
</event>
<event>
 5   0  0.3159875E-07  0.3474250E+04  0.7818609E-02  0.8119919E-01
       -4   -1    0    0    0  501  0.00000000000E+00  0.00000000000E+00  0.15930385015E+04  0.15930390077E+04  0.12699999809E+01 0. -1.
        4   -1    0    0  501    0  0.00000000000E+00  0.00000000000E+00 -0.18942432270E+04  0.18942436528E+04  0.12699999809E+01 0.  1.
    10030    2    1    2    0    0  0.00000000000E+00  0.00000000000E+00 -0.30120472556E+03  0.34872826605E+04  0.34742504324E+04 0.  0.
        3    1    3    3  502    0 -0.35930817719E+02 -0.12683499259E+04 -0.13414765523E+04  0.18464999076E+04  0.10100000352E+00 0. -1.
       -3    1    3    3    0  502  0.35930817719E+02  0.12683499259E+04  0.10402718268E+04  0.16407827528E+04  0.10100000352E+00 0.  1.
</event>
<event>
 5   0  0.9538919E-07  0.3573266E+04  0.7818609E-02  0.8096643E-01
        2   -1    0    0  501    0  0.00000000000E+00  0.00000000000E+00  0.24870910267E+04  0.24870910267E+04  0.25500000920E-02 0.  1.
       -2   -1    0    0    0  501  0.00000000000E+00  0.00000000000E+00 -0.12834499623E+04  0.12834499623E+04  0.25500000920E-02 0. -1.
    10030    2    1    2    0    0  0.00000000000E+00  0.00000000000E+00  0.12036410644E+04  0.37705409890E+04  0.35732656685E+04 0.  0.
        4    1    3    3  502    0 -0.25810829262E+03 -0.90832861107E+03  0.22022540321E+04  0.23961646836E+04  0.12699999809E+01 0.  1.
       -4    1    3    3    0  502  0.25810829262E+03  0.90832861107E+03 -0.99861296773E+03  0.13743763053E+04  0.12699999809E+01 0. -1.
</event>
<event>
 5   0  0.1006019E-06  0.3843097E+04  0.7818609E-02  0.8036969E-01
        2   -1    0    0  501    0  0.00000000000E+00  0.00000000000E+00  0.24359884038E+04  0.24359884038E+04  0.25500000920E-02 0. -1.
       -2   -1    0    0    0  501  0.00000000000E+00  0.00000000000E+00 -0.15157495784E+04  0.15157495784E+04  0.25500000920E-02 0.  1.
    10030    2    1    2    0    0  0.00000000000E+00  0.00000000000E+00  0.92023882542E+03  0.39517379822E+04  0.38430968742E+04 0.  0.
        1    1    3    3  502    0 -0.13919708921E+04 -0.13092652880E+04  0.25295485120E+03  0.19276267054E+04  0.50400001928E-02 0. -1.
       -1    1    3    3    0  502  0.13919708921E+04  0.13092652880E+04  0.66728397422E+03  0.20241112768E+04  0.50400001928E-02 0.  1.
</event>
<event>
 5   0  0.9878977E-07  0.3591138E+04  0.7818609E-02  0.8092525E-01
        2   -1    0    0  501    0  0.00000000000E+00  0.00000000000E+00  0.14294741180E+04  0.14294741180E+04  0.25500000920E-02 0. -1.
       -2   -1    0    0    0  501  0.00000000000E+00  0.00000000000E+00 -0.22554222134E+04  0.22554222134E+04  0.25500000920E-02 0.  1.
    10030    2    1    2    0    0  0.00000000000E+00  0.00000000000E+00 -0.82594809546E+03  0.36848963314E+04  0.35911378026E+04 0.  0.
        5    1    3    3  502    0 -0.13200515090E+04  0.10134927480E+04 -0.11046213247E+04  0.19974768829E+04  0.46999998093E+01 0.  1.
       -5    1    3    3    0  502  0.13200515090E+04 -0.10134927480E+04  0.27867322919E+03  0.16874194486E+04  0.46999998093E+01 0. -1.
</event>
<event>
 5   0  0.9878336E-07  0.3545043E+04  0.7818609E-02  0.8103198E-01
       -2   -1    0    0    0  501  0.00000000000E+00  0.00000000000E+00  0.17477277211E+04  0.17477277211E+04  0.25500000920E-02 0. -1.
        2   -1    0    0  501    0  0.00000000000E+00  0.00000000000E+00 -0.17976670270E+04  0.17976670270E+04  0.25500000920E-02 0.  1.
    10030    2    1    2    0    0  0.00000000000E+00  0.00000000000E+00 -0.49939305904E+02  0.35453947481E+04  0.35450430160E+04 0.  0.
        3    1    3    3  502    0  0.14030798126E+04 -0.63385069867E+03 -0.90336928015E+03  0.17850702326E+04  0.10100000352E+00 0. -1.
       -3    1    3    3    0  502 -0.14030798126E+04  0.63385069867E+03  0.85342997425E+03  0.17603245155E+04  0.10100000352E+00 0.  1.
</event>
<event>
 5   0  0.9538919E-07  0.3596685E+04  0.7818609E-02  0.8091251E-01
       -2   -1    0    0    0  501  0.00000000000E+00  0.00000000000E+00  0.13230195779E+04  0.13230195779E+04  0.25500000920E-02 0. -1.
        2   -1    0    0  501    0  0.00000000000E+00  0.00000000000E+00 -0.24444350253E+04  0.24444350253E+04  0.25500000920E-02 0.  1.
    10030    2    1    2    0    0  0.00000000000E+00  0.00000000000E+00 -0.11214154474E+04  0.37674546032E+04  0.35966848043E+04 0.  0.
        4    1    3    3  502    0 -0.95453647600E+03 -0.11685062500E+04  0.46426450970E+03  0.15786354513E+04  0.12699999809E+01 0. -1.
       -4    1    3    3    0  502  0.95453647600E+03  0.11685062500E+04 -0.15856799571E+04  0.21888191519E+04  0.12699999809E+01 0.  1.
</event>
<event>
 5   0  0.3365378E-07  0.3577270E+04  0.7818609E-02  0.8095718E-01
       -1   -1    0    0    0  501  0.00000000000E+00  0.00000000000E+00  0.16214215598E+04  0.16214215598E+04  0.50400001928E-02 0.  1.
        1   -1    0    0  501    0  0.00000000000E+00  0.00000000000E+00 -0.19730927406E+04  0.19730927406E+04  0.50400001928E-02 0. -1.
    10030    2    1    2    0    0  0.00000000000E+00  0.00000000000E+00 -0.35167118078E+03  0.35945143004E+04  0.35772699697E+04 0.  0.
        3    1    3    3  502    0  0.72441507909E+03 -0.13376715382E+04  0.76948253121E+03  0.17047714589E+04  0.10100000352E+00 0.  1.
       -3    1    3    3    0  502 -0.72441507909E+03  0.13376715382E+04 -0.11211537120E+04  0.18897428415E+04  0.10100000352E+00 0. -1.
</event>
<event>
 5   0  0.3159875E-07  0.3528087E+04  0.7818609E-02  0.8107166E-01
        1   -1    0    0  501    0  0.00000000000E+00  0.00000000000E+00  0.17718121929E+04  0.17718121929E+04  0.50400001928E-02 0.  1.
       -1   -1    0    0    0  501  0.00000000000E+00  0.00000000000E+00 -0.17563086659E+04  0.17563086659E+04  0.50400001928E-02 0. -1.
    10030    2    1    2    0    0  0.00000000000E+00  0.00000000000E+00  0.15503526986E+02  0.35281208589E+04  0.35280867954E+04 0.  0.
        2    1    3    3  502    0  0.73845960921E+03 -0.91123325653E+03  0.13254064953E+04  0.17698505643E+04  0.25500000920E-02 0.  1.
       -2    1    3    3    0  502 -0.73845960921E+03  0.91123325653E+03 -0.13099029683E+04  0.17582702945E+04  0.25500000920E-02 0. -1.
</event>
<event>
 5   0  0.3159875E-07  0.3630931E+04  0.7818609E-02  0.8083443E-01
        1   -1    0    0  501    0  0.00000000000E+00  0.00000000000E+00  0.23106199727E+04  0.23106199727E+04  0.50400001928E-02 0.  1.
       -1   -1    0    0    0  501  0.00000000000E+00  0.00000000000E+00 -0.14264198752E+04  0.14264198752E+04  0.50400001928E-02 0. -1.
    10030    2    1    2    0    0  0.00000000000E+00  0.00000000000E+00  0.88420009743E+03  0.37370398479E+04  0.36309305987E+04 0.  0.
        5    1    3    3  502    0  0.16419937306E+04 -0.70528649609E+03  0.11287760708E+03  0.17906244433E+04  0.46999998093E+01 0. -1.
       -5    1    3    3    0  502 -0.16419937306E+04  0.70528649609E+03  0.77132249035E+03  0.19464154045E+04  0.46999998093E+01 0.  1.
</event>
<event>
 5   0  0.9538919E-07  0.3580740E+04  0.7818609E-02  0.8094918E-01
       -2   -1    0    0    0  501  0.00000000000E+00  0.00000000000E+00  0.13785182305E+04  0.13785182305E+04  0.25500000920E-02 0.  1.
        2   -1    0    0  501    0  0.00000000000E+00  0.00000000000E+00 -0.23252680398E+04  0.23252680398E+04  0.25500000920E-02 0. -1.
    10030    2    1    2    0    0  0.00000000000E+00  0.00000000000E+00 -0.94674980927E+03  0.37037862703E+04  0.35807398027E+04 0.  0.
        4    1    3    3  502    0  0.99762759918E+03  0.74583561905E+03 -0.18036045382E+04  0.21919221109E+04  0.12699999809E+01 0.  1.
       -4    1    3    3    0  502 -0.99762759918E+03 -0.74583561905E+03  0.85685472888E+03  0.15118641594E+04  0.12699999809E+01 0. -1.
</event>
<event>
 5   0  0.3242047E-07  0.3560082E+04  0.7818609E-02  0.8099697E-01
        1   -1    0    0  501    0  0.00000000000E+00  0.00000000000E+00  0.22344408713E+04  0.22344408713E+04  0.50400001928E-02 0. -1.
       -1   -1    0    0    0  501  0.00000000000E+00  0.00000000000E+00 -0.14180484476E+04  0.14180484476E+04  0.50400001928E-02 0.  1.
    10030    2    1    2    0    0  0.00000000000E+00  0.00000000000E+00  0.81639242374E+03  0.36524893189E+04  0.35600816894E+04 0.  0.
        1    1    3    3  502    0 -0.55420942087E+03  0.79153815172E+03  0.19419463233E+04  0.21690634500E+04  0.50400001928E-02 0. -1.
       -1    1    3    3    0  502  0.55420942087E+03 -0.79153815172E+03 -0.11255538995E+04  0.14834258689E+04  0.50400001928E-02 0.  1.
</event>
<event>
 5   0  0.3159875E-07  0.3534988E+04  0.7818609E-02  0.8105548E-01
        1   -1    0    0  501    0  0.00000000000E+00  0.00000000000E+00  0.24723083512E+04  0.24723083512E+04  0.50400001928E-02 0.  1.
       -1   -1    0    0    0  501  0.00000000000E+00  0.00000000000E+00 -0.12636107284E+04  0.12636107284E+04  0.50400001928E-02 0. -1.
    10030    2    1    2    0    0  0.00000000000E+00  0.00000000000E+00  0.12086976228E+04  0.37359190796E+04  0.35349881790E+04 0.  0.
        5    1    3    3  502    0 -0.58040517720E+03 -0.11471209870E+04  0.18862474840E+04  0.22826976124E+04  0.46999998093E+01 0.  1.
       -5    1    3    3    0  502  0.58040517720E+03  0.11471209870E+04 -0.67754986120E+03  0.14532214672E+04  0.46999998093E+01 0. -1.
</event>
<event>
 5   0  0.3242047E-07  0.3290417E+04  0.7818609E-02  0.8165338E-01
       -1   -1    0    0    0  501  0.00000000000E+00  0.00000000000E+00  0.15263399289E+04  0.15263399289E+04  0.50400001928E-02 0. -1.
        1   -1    0    0  501    0  0.00000000000E+00  0.00000000000E+00 -0.17733345645E+04  0.17733345645E+04  0.50400001928E-02 0.  1.
    10030    2    1    2    0    0  0.00000000000E+00  0.00000000000E+00 -0.24699463559E+03  0.32996744935E+04  0.32904172095E+04 0.  0.
        1    1    3    3  502    0 -0.13254451680E+04  0.97454568776E+03 -0.11053181398E+03  0.16488667238E+04  0.50400001928E-02 0.  1.
       -1    1    3    3    0  502  0.13254451680E+04 -0.97454568776E+03 -0.13646282162E+03  0.16508077697E+04  0.50400001928E-02 0. -1.
</event>
<event>
 5   0  0.3159875E-07  0.2762144E+04  0.7818609E-02  0.8315118E-01
       -1   -1    0    0    0  501  0.00000000000E+00  0.00000000000E+00  0.13137029792E+04  0.13137029792E+04  0.50400001928E-02 0.  1.
        1   -1    0    0  501    0  0.00000000000E+00  0.00000000000E+00 -0.14518962471E+04  0.14518962471E+04  0.50400001928E-02 0. -1.
    10030    2    1    2    0    0  0.00000000000E+00  0.00000000000E+00 -0.13819326792E+03  0.27655992263E+04  0.27621444027E+04 0.  0.
        2    1    3    3  502    0 -0.28379006716E+02  0.11982165996E+03  0.13081957163E+04  0.13139781697E+04  0.25500000920E-02 0.  1.
       -2    1    3    3    0  502  0.28379006716E+02 -0.11982165996E+03 -0.14463889843E+04  0.14516210566E+04  0.25500000920E-02 0. -1.
</event>
<event>
 5   0  0.9878977E-07  0.3095838E+04  0.7818609E-02  0.8216881E-01
        2   -1    0    0  501    0  0.00000000000E+00  0.00000000000E+00  0.21650945835E+04  0.21650945835E+04  0.25500000920E-02 0. -1.
       -2   -1    0    0    0  501  0.00000000000E+00  0.00000000000E+00 -0.11066737483E+04  0.11066737483E+04  0.25500000920E-02 0.  1.
    10030    2    1    2    0    0  0.00000000000E+00  0.00000000000E+00  0.10584208352E+04  0.32717683318E+04  0.30958380696E+04 0.  0.
        5    1    3    3  502    0 -0.82324172345E+03  0.72525331162E+02 -0.85400116327E+03  0.11884136215E+04  0.46999998093E+01 0.  1.
       -5    1    3    3    0  502  0.82324172345E+03 -0.72525331162E+02  0.19124219985E+04  0.20833547104E+04  0.46999998093E+01 0. -1.
</event>
<event>
 5   0  0.9538919E-07  0.2982050E+04  0.7818609E-02  0.8248875E-01
       -2   -1    0    0    0  501  0.00000000000E+00  0.00000000000E+00  0.99842084616E+03  0.99842084616E+03  0.25500000920E-02 0. -1.
        2   -1    0    0  501    0  0.00000000000E+00  0.00000000000E+00 -0.22266722819E+04  0.22266722819E+04  0.25500000920E-02 0.  1.
    10030    2    1    2    0    0  0.00000000000E+00  0.00000000000E+00 -0.12282514357E+04  0.32250931281E+04  0.29820503174E+04 0.  0.
        4    1    3    3  502    0 -0.48476104783E+03  0.51964550161E+03 -0.20317308082E+04  0.21524303498E+04  0.12699999809E+01 0.  1.
       -4    1    3    3    0  502  0.48476104783E+03 -0.51964550161E+03  0.80347937251E+03  0.10726627782E+04  0.12699999809E+01 0. -1.
</event>
<event>
 5   0  0.3365378E-07  0.3643799E+04  0.7818609E-02  0.8080532E-01
        1   -1    0    0  501    0  0.00000000000E+00  0.00000000000E+00  0.17130263344E+04  0.17130263344E+04  0.50400001928E-02 0.  1.
       -1   -1    0    0    0  501  0.00000000000E+00  0.00000000000E+00 -0.19376926907E+04  0.19376926907E+04  0.50400001928E-02 0. -1.
    10030    2    1    2    0    0  0.00000000000E+00  0.00000000000E+00 -0.22466635624E+03  0.36507190251E+04  0.36437994496E+04 0.  0.
        3    1    3    3  502    0  0.18650791362E+03  0.72695822240E+03  0.15509595240E+04  0.17229999751E+04  0.10100000352E+00 0.  1.
       -3    1    3    3    0  502 -0.18650791362E+03 -0.72695822240E+03 -0.17756258802E+04  0.19277190500E+04  0.10100000352E+00 0. -1.
</event>
<event>
 5   0  0.3159875E-07  0.2583759E+04  0.7818609E-02  0.8373739E-01
        1   -1    0    0  501    0  0.00000000000E+00  0.00000000000E+00  0.88793684074E+03  0.88793684075E+03  0.50400001928E-02 0. -1.
       -1   -1    0    0    0  501  0.00000000000E+00  0.00000000000E+00 -0.18795852635E+04  0.18795852635E+04  0.50400001928E-02 0.  1.
    10030    2    1    2    0    0  0.00000000000E+00  0.00000000000E+00 -0.99164842280E+03  0.27675221043E+04  0.25837592774E+04 0.  0.
        2    1    3    3  502    0 -0.19053743413E+02 -0.10550025343E+04 -0.12941945267E+04  0.16698301906E+04  0.25500000920E-02 0.  1.
       -2    1    3    3    0  502  0.19053743413E+02  0.10550025343E+04  0.30254610391E+03  0.10976919137E+04  0.25500000920E-02 0. -1.
</event>
<event>
 5   0  0.9538919E-07  0.3606673E+04  0.7818609E-02  0.8088965E-01
        2   -1    0    0  501    0  0.00000000000E+00  0.00000000000E+00  0.22015799957E+04  0.22015799957E+04  0.25500000920E-02 0.  1.
       -2   -1    0    0    0  501  0.00000000000E+00  0.00000000000E+00 -0.14771308850E+04  0.14771308850E+04  0.25500000920E-02 0. -1.
    10030    2    1    2    0    0  0.00000000000E+00  0.00000000000E+00  0.72444911067E+03  0.36787108807E+04  0.36066725981E+04 0.  0.
        4    1    3    3  502    0 -0.63928616457E+03  0.62211227699E+03 -0.12363411772E+04  0.15245496400E+04  0.12699999809E+01 0. -1.
       -4    1    3    3    0  502  0.63928616457E+03 -0.62211227699E+03  0.19607902879E+04  0.21541612408E+04  0.12699999809E+01 0.  1.
</event>
<event>
 5   0  0.3242047E-07  0.3573102E+04  0.7818609E-02  0.8096681E-01
        1   -1    0    0  501    0  0.00000000000E+00  0.00000000000E+00  0.27170258999E+04  0.27170259000E+04  0.50400001928E-02 0. -1.
       -1   -1    0    0    0  501  0.00000000000E+00  0.00000000000E+00 -0.11747271388E+04  0.11747271388E+04  0.50400001928E-02 0.  1.
    10030    2    1    2    0    0  0.00000000000E+00  0.00000000000E+00  0.15422987611E+04  0.38917530388E+04  0.35731017683E+04 0.  0.
        1    1    3    3  502    0  0.11065328894E+04  0.12017906061E+04 -0.16568696237E+02  0.16337044463E+04  0.50400001928E-02 0.  1.
       -1    1    3    3    0  502 -0.11065328894E+04 -0.12017906061E+04  0.15588674573E+04  0.22580485925E+04  0.50400001928E-02 0. -1.
</event>
<event>
 5   0  0.1006019E-06  0.3582380E+04  0.7818609E-02  0.8094540E-01
       -2   -1    0    0    0  501  0.00000000000E+00  0.00000000000E+00  0.13656351177E+04  0.13656351177E+04  0.25500000920E-02 0.  1.
        2   -1    0    0  501    0  0.00000000000E+00  0.00000000000E+00 -0.23493543782E+04  0.23493543782E+04  0.25500000920E-02 0. -1.
    10030    2    1    2    0    0  0.00000000000E+00  0.00000000000E+00 -0.98371926047E+03  0.37149894959E+04  0.35823795683E+04 0.  0.
        1    1    3    3  502    0 -0.58653020604E+03  0.16252013651E+04 -0.20803312613E+01  0.17278025024E+04  0.50400001928E-02 0.  1.
       -1    1    3    3    0  502  0.58653020604E+03 -0.16252013651E+04 -0.98163892921E+03  0.19871869935E+04  0.50400001928E-02 0. -1.
</event>
<event>
 5   0  0.3242047E-07  0.3594227E+04  0.7818609E-02  0.8091815E-01
       -1   -1    0    0    0  501  0.00000000000E+00  0.00000000000E+00  0.26843152910E+04  0.26843152910E+04  0.50400001928E-02 0.  1.
        1   -1    0    0  501    0  0.00000000000E+00  0.00000000000E+00 -0.12031434984E+04  0.12031434984E+04  0.50400001928E-02 0. -1.
    10030    2    1    2    0    0  0.00000000000E+00  0.00000000000E+00  0.14811717925E+04  0.38874587894E+04  0.35942267542E+04 0.  0.
        1    1    3    3  502    0 -0.15836310101E+04  0.32329845221E+03 -0.10913421335E+03  0.16199751053E+04  0.50400001928E-02 0. -1.
       -1    1    3    3    0  502  0.15836310101E+04 -0.32329845221E+03  0.15903060059E+04  0.22674836841E+04  0.50400001928E-02 0.  1.
</event>
<event>
 5   0  0.3242047E-07  0.3626336E+04  0.7818609E-02  0.8084486E-01
       -1   -1    0    0    0  501  0.00000000000E+00  0.00000000000E+00  0.20025804241E+04  0.20025804241E+04  0.50400001928E-02 0. -1.
        1   -1    0    0  501    0  0.00000000000E+00  0.00000000000E+00 -0.16416714170E+04  0.16416714171E+04  0.50400001928E-02 0.  1.
    10030    2    1    2    0    0  0.00000000000E+00  0.00000000000E+00  0.36090900709E+03  0.36442518412E+04  0.36263364668E+04 0.  0.
        1    1    3    3  502    0 -0.13194045856E+04  0.12264380852E+04 -0.26963347941E+02  0.18015842637E+04  0.50400001928E-02 0.  1.
       -1    1    3    3    0  502  0.13194045856E+04 -0.12264380852E+04  0.38787235503E+03  0.18426675775E+04  0.50400001928E-02 0. -1.
</event>
<event>
 5   0  0.9878336E-07  0.2679316E+04  0.7818609E-02  0.8341747E-01
        2   -1    0    0  501    0  0.00000000000E+00  0.00000000000E+00  0.20604208354E+04  0.20604208354E+04  0.25500000920E-02 0.  1.
       -2   -1    0    0    0  501  0.00000000000E+00  0.00000000000E+00 -0.87102774605E+03  0.87102774605E+03  0.25500000920E-02 0. -1.
    10030    2    1    2    0    0  0.00000000000E+00  0.00000000000E+00  0.11893930894E+04  0.29314485815E+04  0.26793161189E+04 0.  0.
        3    1    3    3  502    0 -0.76866496979E+03 -0.10393123931E+04  0.97945336334E+03  0.16218338347E+04  0.10100000352E+00 0.  1.
       -3    1    3    3    0  502  0.76866496979E+03  0.10393123931E+04  0.20993972606E+03  0.13096147468E+04  0.10100000352E+00 0. -1.
</event>
<event>
 5   0  0.3159875E-07  0.3563985E+04  0.7818609E-02  0.8098792E-01
       -3   -1    0    0    0  501  0.00000000000E+00  0.00000000000E+00  0.18498242917E+04  0.18498242945E+04  0.10100000352E+00 0. -1.
        3   -1    0    0  501    0  0.00000000000E+00  0.00000000000E+00 -0.17166478823E+04  0.17166478852E+04  0.10100000352E+00 0.  1.
    10030    2    1    2    0    0  0.00000000000E+00  0.00000000000E+00  0.13317640943E+03  0.35664721797E+04  0.35639848278E+04 0.  0.
        2    1    3    3  502    0 -0.86571803945E+03 -0.74747625559E+03  0.14340368635E+04  0.18342982861E+04  0.25500000920E-02 0. -1.
       -2    1    3    3    0  502  0.86571803945E+03  0.74747625559E+03 -0.13008604541E+04  0.17321738936E+04  0.25500000920E-02 0.  1.
</event>
<event>
 5   0  0.9878336E-07  0.3605248E+04  0.7818609E-02  0.8089291E-01
        2   -1    0    0  501    0  0.00000000000E+00  0.00000000000E+00  0.13818751548E+04  0.13818751548E+04  0.25500000920E-02 0.  1.
       -2   -1    0    0    0  501  0.00000000000E+00  0.00000000000E+00 -0.23514808226E+04  0.23514808226E+04  0.25500000920E-02 0. -1.
    10030    2    1    2    0    0  0.00000000000E+00  0.00000000000E+00 -0.96960566786E+03  0.37333559774E+04  0.36052478005E+04 0.  0.
        3    1    3    3  502    0  0.15976445373E+03 -0.15055869348E+04  0.52829446237E+03  0.16035622059E+04  0.10100000352E+00 0.  1.
       -3    1    3    3    0  502 -0.15976445373E+03  0.15055869348E+04 -0.14979001302E+04  0.21297937715E+04  0.10100000352E+00 0. -1.
</event>
<event>
 5   0  0.9538919E-07  0.3599480E+04  0.7818609E-02  0.8090611E-01
       -2   -1    0    0    0  501  0.00000000000E+00  0.00000000000E+00  0.98030542428E+03  0.98030542428E+03  0.25500000920E-02 0.  1.
        2   -1    0    0  501    0  0.00000000000E+00  0.00000000000E+00 -0.33041378116E+04  0.33041378116E+04  0.25500000920E-02 0. -1.
    10030    2    1    2    0    0  0.00000000000E+00  0.00000000000E+00 -0.23238323873E+04  0.42844432359E+04  0.35994800843E+04 0.  0.
        4    1    3    3  502    0  0.79833927450E+03 -0.83002086451E+03  0.48430200660E+03  0.12493319332E+04  0.12699999809E+01 0.  1.
       -4    1    3    3    0  502 -0.79833927450E+03  0.83002086451E+03 -0.28081343939E+04  0.30351113027E+04  0.12699999809E+01 0. -1.
</event>
<event>
 5   0  0.9878336E-07  0.3633312E+04  0.7818609E-02  0.8082904E-01
        2   -1    0    0  501    0  0.00000000000E+00  0.00000000000E+00  0.15288642222E+04  0.15288642222E+04  0.25500000920E-02 0. -1.
       -2   -1    0    0    0  501  0.00000000000E+00  0.00000000000E+00 -0.21586208757E+04  0.21586208757E+04  0.25500000920E-02 0.  1.
    10030    2    1    2    0    0  0.00000000000E+00  0.00000000000E+00 -0.62975665349E+03  0.36874850979E+04  0.36333115618E+04 0.  0.
        3    1    3    3  502    0 -0.10957325003E+04 -0.31467892797E+03  0.11206316347E+04  0.15985830635E+04  0.10100000352E+00 0. -1.
       -3    1    3    3    0  502  0.10957325003E+04  0.31467892797E+03 -0.17503882882E+04  0.20889020345E+04  0.10100000352E+00 0.  1.
</event>
<event>
 5   0  0.1006019E-06  0.3069612E+04  0.7818609E-02  0.8224127E-01
        2   -1    0    0  501    0  0.00000000000E+00  0.00000000000E+00  0.23256497267E+04  0.23256497267E+04  0.25500000920E-02 0. -1.
       -2   -1    0    0    0  501  0.00000000000E+00  0.00000000000E+00 -0.10128909258E+04  0.10128909258E+04  0.25500000920E-02 0.  1.
    10030    2    1    2    0    0  0.00000000000E+00  0.00000000000E+00  0.13127588008E+04  0.33385406525E+04  0.30696120307E+04 0.  0.
        1    1    3    3  502    0 -0.71823367846E+03  0.13463505672E+04  0.47730304610E+03  0.15988551106E+04  0.50400001928E-02 0.  1.
       -1    1    3    3    0  502  0.71823367846E+03 -0.13463505672E+04  0.83545575474E+03  0.17396855420E+04  0.50400001928E-02 0. -1.
</event>
<event>
 5   0  0.3159875E-07  0.2845455E+04  0.7818609E-02  0.8289294E-01
       -1   -1    0    0    0  501  0.00000000000E+00  0.00000000000E+00  0.11995848897E+04  0.11995848897E+04  0.50400001928E-02 0. -1.
        1   -1    0    0  501    0  0.00000000000E+00  0.00000000000E+00 -0.16873787806E+04  0.16873787806E+04  0.50400001928E-02 0.  1.
    10030    2    1    2    0    0  0.00000000000E+00  0.00000000000E+00 -0.48779389095E+03  0.28869636703E+04  0.28454553860E+04 0.  0.
        2    1    3    3  502    0  0.45563451490E+03 -0.11132516057E+04  0.52693734908E+03  0.13132383327E+04  0.25500000920E-02 0. -1.
       -2    1    3    3    0  502 -0.45563451490E+03  0.11132516057E+04 -0.10147312400E+04  0.15737253376E+04  0.25500000920E-02 0.  1.
</event>
<event>
 5   0  0.3278988E-07  0.3600254E+04  0.7818609E-02  0.8090433E-01
        1   -1    0    0  501    0  0.00000000000E+00  0.00000000000E+00  0.20382979246E+04  0.20382979246E+04  0.50400001928E-02 0. -1.
       -1   -1    0    0    0  501  0.00000000000E+00  0.00000000000E+00 -0.15897860419E+04  0.15897860419E+04  0.50400001928E-02 0.  1.
    10030    2    1    2    0    0  0.00000000000E+00  0.00000000000E+00  0.44851188269E+03  0.36280839665E+04  0.36002542076E+04 0.  0.
        4    1    3    3  502    0 -0.73647314032E+03 -0.48664689395E+03  0.18052162869E+04  0.20094838494E+04  0.12699999809E+01 0. -1.
       -4    1    3    3    0  502  0.73647314032E+03  0.48664689395E+03 -0.13567044042E+04  0.16186001171E+04  0.12699999809E+01 0.  1.
</event>
<event>
 5   0  0.9878977E-07  0.3630485E+04  0.7818609E-02  0.8083544E-01
       -2   -1    0    0    0  501  0.00000000000E+00  0.00000000000E+00  0.11879004103E+04  0.11879004103E+04  0.25500000920E-02 0. -1.
        2   -1    0    0  501    0  0.00000000000E+00  0.00000000000E+00 -0.27738905951E+04  0.27738905951E+04  0.25500000920E-02 0.  1.
    10030    2    1    2    0    0  0.00000000000E+00  0.00000000000E+00 -0.15859901849E+04  0.39617910054E+04  0.36304852436E+04 0.  0.
        5    1    3    3  502    0  0.52967283026E+03 -0.17167586076E+04 -0.10760289859E+04  0.20942000603E+04  0.46999998093E+01 0. -1.
       -5    1    3    3    0  502 -0.52967283026E+03  0.17167586076E+04 -0.50996119892E+03  0.18675909451E+04  0.46999998093E+01 0.  1.
</event>
<event>
 5   0  0.3242047E-07  0.2672618E+04  0.7818609E-02  0.8343944E-01
        1   -1    0    0  501    0  0.00000000000E+00  0.00000000000E+00  0.14911159024E+04  0.14911159024E+04  0.50400001928E-02 0.  1.
       -1   -1    0    0    0  501  0.00000000000E+00  0.00000000000E+00 -0.11975742230E+04  0.11975742230E+04  0.50400001928E-02 0. -1.
    10030    2    1    2    0    0  0.00000000000E+00  0.00000000000E+00  0.29354167942E+03  0.26886901253E+04  0.26726181681E+04 0.  0.
        1    1    3    3  502    0 -0.12460374023E+02  0.10944094007E+04 -0.62454361717E+03  0.12601356780E+04  0.50400001928E-02 0. -1.
       -1    1    3    3    0  502  0.12460374023E+02 -0.10944094007E+04  0.91808529659E+03  0.14285544473E+04  0.50400001928E-02 0.  1.
</event>
<event>
 5   0  0.3278988E-07  0.3584400E+04  0.7818609E-02  0.8094074E-01
        1   -1    0    0  501    0  0.00000000000E+00  0.00000000000E+00  0.12659089873E+04  0.12659089873E+04  0.50400001928E-02 0. -1.
       -1   -1    0    0    0  501  0.00000000000E+00  0.00000000000E+00 -0.25372919346E+04  0.25372919346E+04  0.50400001928E-02 0.  1.
    10030    2    1    2    0    0  0.00000000000E+00  0.00000000000E+00 -0.12713829474E+04  0.38032009219E+04  0.35843999014E+04 0.  0.
        4    1    3    3  502    0  0.10896817579E+04  0.10424668000E+04 -0.16632254485E+04  0.22450977413E+04  0.12699999809E+01 0.  1.
       -4    1    3    3    0  502 -0.10896817579E+04 -0.10424668000E+04  0.39184250110E+03  0.15581031806E+04  0.12699999809E+01 0. -1.
</event>
<event>
 5   0  0.3159875E-07  0.3584925E+04  0.7818609E-02  0.8093953E-01
       -1   -1    0    0    0  501  0.00000000000E+00  0.00000000000E+00  0.18533291238E+04  0.18533291238E+04  0.50400001928E-02 0.  1.
        1   -1    0    0  501    0  0.00000000000E+00  0.00000000000E+00 -0.17335951103E+04  0.17335951103E+04  0.50400001928E-02 0. -1.
    10030    2    1    2    0    0  0.00000000000E+00  0.00000000000E+00  0.11973401354E+03  0.35869242341E+04  0.35849252750E+04 0.  0.
        5    1    3    3  502    0  0.71367020664E+03  0.91521853109E+03 -0.13068925134E+04  0.17478387383E+04  0.46999998093E+01 0. -1.
       -5    1    3    3    0  502 -0.71367020664E+03 -0.91521853109E+03  0.14266265269E+04  0.18390854958E+04  0.46999998093E+01 0.  1.
</event>
<event>
 5   0  0.9538919E-07  0.3484001E+04  0.7818609E-02  0.8117592E-01
        2   -1    0    0  501    0  0.00000000000E+00  0.00000000000E+00  0.12886886375E+04  0.12886886375E+04  0.25500000920E-02 0. -1.
       -2   -1    0    0    0  501  0.00000000000E+00  0.00000000000E+00 -0.23547705651E+04  0.23547705651E+04  0.25500000920E-02 0.  1.
    10030    2    1    2    0    0  0.00000000000E+00  0.00000000000E+00 -0.10660819276E+04  0.36434592026E+04  0.34840011890E+04 0.  0.
        4    1    3    3  502    0  0.24781799098E+03 -0.93537468202E+03 -0.20478630734E+04  0.22649689474E+04  0.12699999809E+01 0.  1.
       -4    1    3    3    0  502 -0.24781799098E+03  0.93537468202E+03  0.98178114581E+03  0.13784902552E+04  0.12699999809E+01 0. -1.
</event>
<event>
 5   0  0.3242047E-07  0.3576273E+04  0.7818609E-02  0.8095948E-01
       -1   -1    0    0    0  501  0.00000000000E+00  0.00000000000E+00  0.20688361624E+04  0.20688361624E+04  0.50400001928E-02 0. -1.
        1   -1    0    0  501    0  0.00000000000E+00  0.00000000000E+00 -0.15455217360E+04  0.15455217360E+04  0.50400001928E-02 0.  1.
    10030    2    1    2    0    0  0.00000000000E+00  0.00000000000E+00  0.52331442643E+03  0.36143578984E+04  0.35762725048E+04 0.  0.
        1    1    3    3  502    0  0.25332868795E+03 -0.41986224085E+03 -0.14762401436E+04  0.15555528557E+04  0.50400001928E-02 0.  1.
       -1    1    3    3    0  502 -0.25332868795E+03  0.41986224085E+03  0.19995545700E+04  0.20588050427E+04  0.50400001928E-02 0. -1.
</event>
<event>
 5   0  0.1031659E-06  0.3387833E+04  0.7818609E-02  0.8140899E-01
       -2   -1    0    0    0  501  0.00000000000E+00  0.00000000000E+00  0.28316956146E+04  0.28316956146E+04  0.25500000920E-02 0.  1.
        2   -1    0    0  501    0  0.00000000000E+00  0.00000000000E+00 -0.10132988600E+04  0.10132988600E+04  0.25500000920E-02 0. -1.
    10030    2    1    2    0    0  0.00000000000E+00  0.00000000000E+00  0.18183967546E+04  0.38449944745E+04  0.33878334894E+04 0.  0.
        2    1    3    3  502    0  0.94189107790E+03 -0.12382758237E+04  0.16695825069E+04  0.22821024442E+04  0.25500000920E-02 0. -1.
       -2    1    3    3    0  502 -0.94189107790E+03  0.12382758237E+04  0.14881424767E+03  0.15628920303E+04  0.25500000920E-02 0.  1.
</event>
<event>
 5   0  0.9878977E-07  0.3434765E+04  0.7818609E-02  0.8129426E-01
       -2   -1    0    0    0  501  0.00000000000E+00  0.00000000000E+00  0.17157478129E+04  0.17157478129E+04  0.25500000920E-02 0. -1.
        2   -1    0    0  501    0  0.00000000000E+00  0.00000000000E+00 -0.17190188323E+04  0.17190188323E+04  0.25500000920E-02 0.  1.
    10030    2    1    2    0    0  0.00000000000E+00  0.00000000000E+00 -0.32710194293E+01  0.34347666452E+04  0.34347650877E+04 0.  0.
        5    1    3    3  502    0  0.10836416385E+04  0.87512400976E+03 -0.10062550368E+04  0.17183400484E+04  0.46999998093E+01 0.  1.
       -5    1    3    3    0  502 -0.10836416385E+04 -0.87512400976E+03  0.10029840173E+04  0.17164265968E+04  0.46999998093E+01 0. -1.
</event>
<event>
 5   0  0.3365378E-07  0.3632565E+04  0.7818609E-02  0.8083073E-01
        1   -1    0    0  501    0  0.00000000000E+00  0.00000000000E+00  0.28522139494E+04  0.28522139494E+04  0.50400001928E-02 0.  1.
       -1   -1    0    0    0  501  0.00000000000E+00  0.00000000000E+00 -0.11566040960E+04  0.11566040960E+04  0.50400001928E-02 0. -1.
    10030    2    1    2    0    0  0.00000000000E+00  0.00000000000E+00  0.16956098534E+04  0.40088180454E+04  0.36325651193E+04 0.  0.
        3    1    3    3  502    0  0.98808489034E+03 -0.12474992933E+04  0.18138711723E+04  0.24130260830E+04  0.10100000352E+00 0.  1.
       -3    1    3    3    0  502 -0.98808489034E+03  0.12474992933E+04 -0.11826131886E+03  0.15957919624E+04  0.10100000352E+00 0. -1.
</event>
<event>
 5   0  0.3159875E-07  0.3138280E+04  0.7818609E-02  0.8205310E-01
        1   -1    0    0  501    0  0.00000000000E+00  0.00000000000E+00  0.23343729239E+04  0.23343729239E+04  0.50400001928E-02 0. -1.
       -1   -1    0    0    0  501  0.00000000000E+00  0.00000000000E+00 -0.10547587443E+04  0.10547587443E+04  0.50400001928E-02 0.  1.
    10030    2    1    2    0    0  0.00000000000E+00  0.00000000000E+00  0.12796141795E+04  0.33891316682E+04  0.31382799454E+04 0.  0.
        5    1    3    3  502    0 -0.15223134606E+04 -0.81567453120E+02  0.10411102639E+04  0.18460834741E+04  0.46999998093E+01 0. -1.
       -5    1    3    3    0  502  0.15223134606E+04  0.81567453120E+02  0.23850391559E+03  0.15430481941E+04  0.46999998093E+01 0.  1.
</event>
<event>
 5   0  0.1031659E-06  0.3654316E+04  0.7818609E-02  0.8078162E-01
        2   -1    0    0  501    0  0.00000000000E+00  0.00000000000E+00  0.27329192940E+04  0.27329192940E+04  0.25500000920E-02 0.  1.
       -2   -1    0    0    0  501  0.00000000000E+00  0.00000000000E+00 -0.12215895049E+04  0.12215895050E+04  0.25500000920E-02 0. -1.
    10030    2    1    2    0    0  0.00000000000E+00  0.00000000000E+00  0.15113297890E+04  0.39545087989E+04  0.36543155460E+04 0.  0.
        2    1    3    3  502    0  0.11884596463E+04  0.13838555595E+04  0.86922847159E+03  0.20206560015E+04  0.25500000920E-02 0.  1.
       -2    1    3    3    0  502 -0.11884596463E+04 -0.13838555595E+04  0.64210131744E+03  0.19338527975E+04  0.25500000920E-02 0. -1.
</event>
<event>
 5   0  0.3278988E-07  0.3538205E+04  0.7818609E-02  0.8104795E-01
        1   -1    0    0  501    0  0.00000000000E+00  0.00000000000E+00  0.15143159046E+04  0.15143159046E+04  0.50400001928E-02 0.  1.
       -1   -1    0    0    0  501  0.00000000000E+00  0.00000000000E+00 -0.20667579365E+04  0.20667579365E+04  0.50400001928E-02 0. -1.
    10030    2    1    2    0    0  0.00000000000E+00  0.00000000000E+00 -0.55244203193E+03  0.35810738411E+04  0.35382054289E+04 0.  0.
        4    1    3    3  502    0 -0.31772732166E+03  0.52288145912E+02  0.14844062674E+04  0.15189299789E+04  0.12699999809E+01 0.  1.
       -4    1    3    3    0  502  0.31772732166E+03 -0.52288145912E+02 -0.20368482993E+04  0.20621438622E+04  0.12699999809E+01 0. -1.
</event>
<event>
 5   0  0.9878336E-07  0.3511593E+04  0.7818609E-02  0.8111048E-01
        2   -1    0    0  501    0  0.00000000000E+00  0.00000000000E+00  0.23732274734E+04  0.23732274734E+04  0.25500000920E-02 0.  1.
       -2   -1    0    0    0  501  0.00000000000E+00  0.00000000000E+00 -0.12989997578E+04  0.12989997578E+04  0.25500000920E-02 0. -1.
    10030    2    1    2    0    0  0.00000000000E+00  0.00000000000E+00  0.10742277155E+04  0.36722272312E+04  0.35115933211E+04 0.  0.
        3    1    3    3  502    0  0.13577326576E+04  0.10364852722E+04  0.96200284529E+03  0.19604053595E+04  0.10100000352E+00 0.  1.
       -3    1    3    3    0  502 -0.13577326576E+04 -0.10364852722E+04  0.11222487026E+03  0.17118218717E+04  0.10100000352E+00 0. -1.
</event>
<event>
 5   0  0.9878977E-07  0.3573898E+04  0.7818609E-02  0.8096497E-01
       -2   -1    0    0    0  501  0.00000000000E+00  0.00000000000E+00  0.16059485670E+04  0.16059485670E+04  0.25500000920E-02 0. -1.
        2   -1    0    0  501    0  0.00000000000E+00  0.00000000000E+00 -0.19883489790E+04  0.19883489790E+04  0.25500000920E-02 0.  1.
    10030    2    1    2    0    0  0.00000000000E+00  0.00000000000E+00 -0.38240041196E+03  0.35942975461E+04  0.35738977006E+04 0.  0.
        5    1    3    3  502    0  0.66793058278E+03  0.97271081084E+02  0.14728047642E+04  0.16201138509E+04  0.46999998093E+01 0. -1.
       -5    1    3    3    0  502 -0.66793058278E+03 -0.97271081084E+02 -0.18552051761E+04  0.19741836951E+04  0.46999998093E+01 0.  1.
</event>
<event>
 5   0  0.1006019E-06  0.3576771E+04  0.7818609E-02  0.8095833E-01
        2   -1    0    0  501    0  0.00000000000E+00  0.00000000000E+00  0.19164587088E+04  0.19164587088E+04  0.25500000920E-02 0. -1.
       -2   -1    0    0    0  501  0.00000000000E+00  0.00000000000E+00 -0.16688707854E+04  0.16688707854E+04  0.25500000920E-02 0.  1.
    10030    2    1    2    0    0  0.00000000000E+00  0.00000000000E+00  0.24758792338E+03  0.35853294942E+04  0.35767705829E+04 0.  0.
        1    1    3    3  502    0 -0.47274217846E+03 -0.11609629227E+04  0.14023860582E+04  0.18809589925E+04  0.50400001928E-02 0.  1.
       -1    1    3    3    0  502  0.47274217846E+03  0.11609629227E+04 -0.11547981348E+04  0.17043705018E+04  0.50400001928E-02 0. -1.
</event>
<event>
 5   0  0.3242047E-07  0.3613284E+04  0.7818609E-02  0.8087455E-01
        1   -1    0    0  501    0  0.00000000000E+00  0.00000000000E+00  0.15165402644E+04  0.15165402645E+04  0.50400001928E-02 0.  1.
       -1   -1    0    0    0  501  0.00000000000E+00  0.00000000000E+00 -0.21522383784E+04  0.21522383784E+04  0.50400001928E-02 0. -1.
    10030    2    1    2    0    0  0.00000000000E+00  0.00000000000E+00 -0.63569811391E+03  0.36687786428E+04  0.36132844668E+04 0.  0.
        1    1    3    3  502    0 -0.15552020754E+04 -0.49505584795E+03  0.46878988922E+03  0.16980864961E+04  0.50400001928E-02 0.  1.
       -1    1    3    3    0  502  0.15552020754E+04  0.49505584795E+03 -0.11044880031E+04  0.19706921467E+04  0.50400001928E-02 0. -1.
</event>
<event>
 5   0  0.1006019E-06  0.3423376E+04  0.7818609E-02  0.8132193E-01
       -2   -1    0    0    0  501  0.00000000000E+00  0.00000000000E+00  0.98401233924E+03  0.98401233925E+03  0.25500000920E-02 0.  1.
        2   -1    0    0  501    0  0.00000000000E+00  0.00000000000E+00 -0.29774787188E+04  0.29774787188E+04  0.25500000920E-02 0. -1.
    10030    2    1    2    0    0  0.00000000000E+00  0.00000000000E+00 -0.19934663796E+04  0.39614910581E+04  0.34233759941E+04 0.  0.
        1    1    3    3  502    0 -0.12933715365E+04 -0.75578409253E+03 -0.19550754433E+04  0.24629940144E+04  0.50400001928E-02 0.  1.
       -1    1    3    3    0  502  0.12933715365E+04  0.75578409253E+03 -0.38390936322E+02  0.14984970437E+04  0.50400001928E-02 0. -1.
</event>
<event>
 5   0  0.3242047E-07  0.3622396E+04  0.7818609E-02  0.8085381E-01
        1   -1    0    0  501    0  0.00000000000E+00  0.00000000000E+00  0.16613799963E+04  0.16613799963E+04  0.50400001928E-02 0.  1.
       -1   -1    0    0    0  501  0.00000000000E+00  0.00000000000E+00 -0.19745259596E+04  0.19745259597E+04  0.50400001928E-02 0. -1.
    10030    2    1    2    0    0  0.00000000000E+00  0.00000000000E+00 -0.31314596338E+03  0.36359059559E+04  0.36223958544E+04 0.  0.
        1    1    3    3  502    0 -0.70440844121E+03 -0.10750168494E+03  0.15147769835E+04  0.16740063244E+04  0.50400001928E-02 0.  1.
       -1    1    3    3    0  502  0.70440844121E+03  0.10750168494E+03 -0.18279229469E+04  0.19618996315E+04  0.50400001928E-02 0. -1.
</event>
<event>
 5   0  0.9538919E-07  0.3581666E+04  0.7818609E-02  0.8094704E-01
        2   -1    0    0  501    0  0.00000000000E+00  0.00000000000E+00  0.23336332070E+04  0.23336332070E+04  0.25500000920E-02 0.  1.
       -2   -1    0    0    0  501  0.00000000000E+00  0.00000000000E+00 -0.13742874581E+04  0.13742874581E+04  0.25500000920E-02 0. -1.
    10030    2    1    2    0    0  0.00000000000E+00  0.00000000000E+00  0.95934574882E+03  0.37079206651E+04  0.35816660080E+04 0.  0.
        4    1    3    3  502    0 -0.12537327760E+04  0.11002710590E+04  0.11542867446E+04  0.20285023487E+04  0.12699999809E+01 0.  1.
       -4    1    3    3    0  502  0.12537327760E+04 -0.11002710590E+04 -0.19494099577E+03  0.16794183164E+04  0.12699999809E+01 0. -1.
</event>
<event>
 5   0  0.3242047E-07  0.3585896E+04  0.7818609E-02  0.8093730E-01
       -1   -1    0    0    0  501  0.00000000000E+00  0.00000000000E+00  0.13767943275E+04  0.13767943275E+04  0.50400001928E-02 0. -1.
        1   -1    0    0  501    0  0.00000000000E+00  0.00000000000E+00 -0.23348895426E+04  0.23348895426E+04  0.50400001928E-02 0.  1.
    10030    2    1    2    0    0  0.00000000000E+00  0.00000000000E+00 -0.95809521507E+03  0.37116838701E+04  0.35858960820E+04 0.  0.
        1    1    3    3  502    0  0.53260981282E+03 -0.13518170858E+03 -0.22455828404E+04  0.23118368455E+04  0.50400001928E-02 0.  1.
       -1    1    3    3    0  502 -0.53260981282E+03  0.13518170858E+03  0.12874876253E+04  0.13998470247E+04  0.50400001928E-02 0. -1.
</event>
<event>
 5   0  0.9878977E-07  0.3552352E+04  0.7818609E-02  0.8101494E-01
       -2   -1    0    0    0  501  0.00000000000E+00  0.00000000000E+00  0.14477507690E+04  0.14477507690E+04  0.25500000920E-02 0.  1.
        2   -1    0    0  501    0  0.00000000000E+00  0.00000000000E+00 -0.21791056014E+04  0.21791056014E+04  0.25500000920E-02 0. -1.
    10030    2    1    2    0    0  0.00000000000E+00  0.00000000000E+00 -0.73135483232E+03  0.36268563704E+04  0.35523523531E+04 0.  0.
        5    1    3    3  502    0 -0.10510548605E+04  0.52574421005E+03 -0.17253961123E+04  0.20876151773E+04  0.46999998093E+01 0. -1.
       -5    1    3    3    0  502  0.10510548605E+04 -0.52574421005E+03  0.99404127998E+03  0.15392411931E+04  0.46999998093E+01 0.  1.
</event>
<event>
 5   0  0.9878977E-07  0.3596557E+04  0.7818609E-02  0.8091281E-01
        2   -1    0    0  501    0  0.00000000000E+00  0.00000000000E+00  0.16018647312E+04  0.16018647312E+04  0.25500000920E-02 0.  1.
       -2   -1    0    0    0  501  0.00000000000E+00  0.00000000000E+00 -0.20187757381E+04  0.20187757381E+04  0.25500000920E-02 0. -1.
    10030    2    1    2    0    0  0.00000000000E+00  0.00000000000E+00 -0.41691100693E+03  0.36206404693E+04  0.35965570508E+04 0.  0.
        5    1    3    3  502    0 -0.71942522194E+03 -0.19252892241E+03 -0.18562249202E+04  0.20000582693E+04  0.46999998093E+01 0. -1.
       -5    1    3    3    0  502  0.71942522194E+03  0.19252892241E+03  0.14393139133E+04  0.16205822000E+04  0.46999998093E+01 0.  1.
</event>
<event>
 5   0  0.1031659E-06  0.3597313E+04  0.7818609E-02  0.8091108E-01
        2   -1    0    0  501    0  0.00000000000E+00  0.00000000000E+00  0.17447474662E+04  0.17447474662E+04  0.25500000920E-02 0.  1.
       -2   -1    0    0    0  501  0.00000000000E+00  0.00000000000E+00 -0.18542308648E+04  0.18542308648E+04  0.25500000920E-02 0. -1.
    10030    2    1    2    0    0  0.00000000000E+00  0.00000000000E+00 -0.10948339855E+03  0.35989783310E+04  0.35973126653E+04 0.  0.
        2    1    3    3  502    0 -0.10923258980E+04  0.65457215194E+03  0.12160921220E+04  0.17608295257E+04  0.25500000920E-02 0.  1.
       -2    1    3    3    0  502  0.10923258980E+04 -0.65457215194E+03 -0.13255755206E+04  0.18381488052E+04  0.25500000920E-02 0. -1.
</event>
<event>
 5   0  0.1031659E-06  0.3761290E+04  0.7818609E-02  0.8054513E-01
        2   -1    0    0  501    0  0.00000000000E+00  0.00000000000E+00  0.25880448510E+04  0.25880448510E+04  0.25500000920E-02 0. -1.
       -2   -1    0    0    0  501  0.00000000000E+00  0.00000000000E+00 -0.13666015319E+04  0.13666015319E+04  0.25500000920E-02 0.  1.
    10030    2    1    2    0    0  0.00000000000E+00  0.00000000000E+00  0.12214433191E+04  0.39546463830E+04  0.37612902351E+04 0.  0.
        2    1    3    3  502    0  0.11109822804E+04 -0.25733495765E+03 -0.96158802374E+03  0.14916951549E+04  0.25500000920E-02 0.  1.
       -2    1    3    3    0  502 -0.11109822804E+04  0.25733495765E+03  0.21830313429E+04  0.24629512280E+04  0.25500000920E-02 0. -1.
</event>
<event>
 5   0  0.1006019E-06  0.2684803E+04  0.7818609E-02  0.8339953E-01
        2   -1    0    0  501    0  0.00000000000E+00  0.00000000000E+00  0.19609165879E+04  0.19609165879E+04  0.25500000920E-02 0. -1.
       -2   -1    0    0    0  501  0.00000000000E+00  0.00000000000E+00 -0.91897963732E+03  0.91897963733E+03  0.25500000920E-02 0.  1.
    10030    2    1    2    0    0  0.00000000000E+00  0.00000000000E+00  0.10419369506E+04  0.28798962252E+04  0.26848034675E+04 0.  0.
        1    1    3    3  502    0  0.32918507001E+03 -0.20082936456E+03 -0.85829224059E+03  0.94093613720E+03  0.50400001928E-02 0.  1.
       -1    1    3    3    0  502 -0.32918507001E+03  0.20082936456E+03  0.19002291912E+04  0.19389600880E+04  0.50400001928E-02 0. -1.
</event>
<event>
 5   0  0.3159875E-07  0.3513862E+04  0.7818609E-02  0.8110513E-01
        1   -1    0    0  501    0  0.00000000000E+00  0.00000000000E+00  0.19702084023E+04  0.19702084023E+04  0.50400001928E-02 0. -1.
       -1   -1    0    0    0  501  0.00000000000E+00  0.00000000000E+00 -0.15667414411E+04  0.15667414411E+04  0.50400001928E-02 0.  1.
    10030    2    1    2    0    0  0.00000000000E+00  0.00000000000E+00  0.40346696120E+03  0.35369498433E+04  0.35138623487E+04 0.  0.
        5    1    3    3  502    0 -0.60048372509E+03 -0.73215378328E+03 -0.12879074669E+04  0.15985485916E+04  0.46999998093E+01 0.  1.
       -5    1    3    3    0  502  0.60048372509E+03  0.73215378328E+03  0.16913744281E+04  0.19384012517E+04  0.46999998093E+01 0. -1.
</event>
<event>
 5   0  0.3365378E-07  0.3568711E+04  0.7818609E-02  0.8097697E-01
        1   -1    0    0  501    0  0.00000000000E+00  0.00000000000E+00  0.13750807842E+04  0.13750807842E+04  0.50400001928E-02 0. -1.
       -1   -1    0    0    0  501  0.00000000000E+00  0.00000000000E+00 -0.23154449699E+04  0.23154449699E+04  0.50400001928E-02 0.  1.
    10030    2    1    2    0    0  0.00000000000E+00  0.00000000000E+00 -0.94036418569E+03  0.36905257541E+04  0.35687106271E+04 0.  0.
        3    1    3    3  502    0  0.16677966621E+04 -0.46746747274E+03 -0.26765974287E+02  0.17322782605E+04  0.10100000352E+00 0. -1.
       -3    1    3    3    0  502 -0.16677966621E+04  0.46746747274E+03 -0.91359821140E+03  0.19582474936E+04  0.10100000352E+00 0.  1.
</event>
<event>
 5   0  0.9878336E-07  0.3602321E+04  0.7818609E-02  0.8089960E-01
        2   -1    0    0  501    0  0.00000000000E+00  0.00000000000E+00  0.23871311997E+04  0.23871311997E+04  0.25500000920E-02 0. -1.
       -2   -1    0    0    0  501  0.00000000000E+00  0.00000000000E+00 -0.13590280972E+04  0.13590280972E+04  0.25500000920E-02 0.  1.
    10030    2    1    2    0    0  0.00000000000E+00  0.00000000000E+00  0.10281031025E+04  0.37461592969E+04  0.36023205699E+04 0.  0.
        3    1    3    3  502    0  0.50829701098E+03 -0.51975305848E+03 -0.11996781420E+04  0.14027604028E+04  0.10100000352E+00 0.  1.
       -3    1    3    3    0  502 -0.50829701098E+03  0.51975305848E+03  0.22277812445E+04  0.23433988941E+04  0.10100000352E+00 0. -1.
</event>
<event>
 5   0  0.3242047E-07  0.3250618E+04  0.7818609E-02  0.8175576E-01
       -1   -1    0    0    0  501  0.00000000000E+00  0.00000000000E+00  0.20316448045E+04  0.20316448045E+04  0.50400001928E-02 0. -1.
        1   -1    0    0  501    0  0.00000000000E+00  0.00000000000E+00 -0.13002418570E+04  0.13002418570E+04  0.50400001928E-02 0.  1.
    10030    2    1    2    0    0  0.00000000000E+00  0.00000000000E+00  0.73140294750E+03  0.33318866615E+04  0.32506181648E+04 0.  0.
        1    1    3    3  502    0 -0.13227266108E+04  0.73847579488E+02  0.13308205297E+04  0.18778025546E+04  0.50400001928E-02 0. -1.
       -1    1    3    3    0  502  0.13227266108E+04 -0.73847579488E+02 -0.59941758217E+03  0.14540841069E+04  0.50400001928E-02 0.  1.
</event>
<event>
 5   0  0.1031659E-06  0.3844630E+04  0.7818609E-02  0.8036645E-01
       -2   -1    0    0    0  501  0.00000000000E+00  0.00000000000E+00  0.17960659800E+04  0.17960659800E+04  0.25500000920E-02 0.  1.
        2   -1    0    0  501    0  0.00000000000E+00  0.00000000000E+00 -0.20574381522E+04  0.20574381522E+04  0.25500000920E-02 0. -1.
    10030    2    1    2    0    0  0.00000000000E+00  0.00000000000E+00 -0.26137217224E+03  0.38535041322E+04  0.38446298502E+04 0.  0.
        2    1    3    3  502    0  0.76941966318E+03  0.50293036722E+03 -0.18228807546E+04  0.20415287943E+04  0.25500000920E-02 0. -1.
       -2    1    3    3    0  502 -0.76941966318E+03 -0.50293036722E+03  0.15615085824E+04  0.18119753379E+04  0.25500000920E-02 0.  1.
</event>
<event>
 5   0  0.3278988E-07  0.3623312E+04  0.7818609E-02  0.8085173E-01
        1   -1    0    0  501    0  0.00000000000E+00  0.00000000000E+00  0.26528111882E+04  0.26528111882E+04  0.50400001928E-02 0.  1.
       -1   -1    0    0    0  501  0.00000000000E+00  0.00000000000E+00 -0.12372151029E+04  0.12372151029E+04  0.50400001928E-02 0. -1.
    10030    2    1    2    0    0  0.00000000000E+00  0.00000000000E+00  0.14155960853E+04  0.38900262911E+04  0.36233123339E+04 0.  0.
        4    1    3    3  502    0 -0.50823799604E+03  0.15977232104E+04 -0.29070491713E+02  0.16768637464E+04  0.12699999809E+01 0. -1.
       -4    1    3    3    0  502  0.50823799604E+03 -0.15977232104E+04  0.14446665770E+04  0.22131625447E+04  0.12699999809E+01 0.  1.
</event>
<event>
 5   0  0.3242047E-07  0.3591381E+04  0.7818609E-02  0.8092469E-01
       -1   -1    0    0    0  501  0.00000000000E+00  0.00000000000E+00  0.15546952930E+04  0.15546952930E+04  0.50400001928E-02 0. -1.
        1   -1    0    0  501    0  0.00000000000E+00  0.00000000000E+00 -0.20740429134E+04  0.20740429134E+04  0.50400001928E-02 0.  1.
    10030    2    1    2    0    0  0.00000000000E+00  0.00000000000E+00 -0.51934762038E+03  0.36287382064E+04  0.35913812134E+04 0.  0.
        1    1    3    3  502    0 -0.35859726038E+03 -0.78923417057E+03  0.13292685270E+04  0.15869585338E+04  0.50400001928E-02 0. -1.
       -1    1    3    3    0  502  0.35859726038E+03  0.78923417057E+03 -0.18486161474E+04  0.20417796726E+04  0.50400001928E-02 0.  1.
</event>
<event>
 5   0  0.3159875E-07  0.3562471E+04  0.7818609E-02  0.8099143E-01
        1   -1    0    0  501    0  0.00000000000E+00  0.00000000000E+00  0.20985034525E+04  0.20985034525E+04  0.50400001928E-02 0. -1.
       -1   -1    0    0    0  501  0.00000000000E+00  0.00000000000E+00 -0.15119342497E+04  0.15119342497E+04  0.50400001928E-02 0.  1.
    10030    2    1    2    0    0  0.00000000000E+00  0.00000000000E+00  0.58656920277E+03  0.36104377023E+04  0.35624706276E+04 0.  0.
        2    1    3    3  502    0  0.86205641197E+03  0.10381382731E+04  0.14716640782E+04  0.19966640905E+04  0.25500000920E-02 0. -1.
       -2    1    3    3    0  502 -0.86205641197E+03 -0.10381382731E+04 -0.88509487539E+03  0.16137736117E+04  0.25500000920E-02 0.  1.
</event>
<event>
 5   0  0.3159875E-07  0.3619610E+04  0.7818609E-02  0.8086015E-01
        1   -1    0    0  501    0  0.00000000000E+00  0.00000000000E+00  0.16729883716E+04  0.16729883716E+04  0.50400001928E-02 0.  1.
       -1   -1    0    0    0  501  0.00000000000E+00  0.00000000000E+00 -0.19578102941E+04  0.19578102941E+04  0.50400001928E-02 0. -1.
    10030    2    1    2    0    0  0.00000000000E+00  0.00000000000E+00 -0.28482192247E+03  0.36307986657E+04  0.36196098441E+04 0.  0.
        5    1    3    3  502    0 -0.13943471934E+04 -0.91303061274E+03 -0.84995848681E+03  0.18709036626E+04  0.46999998093E+01 0. -1.
       -5    1    3    3    0  502  0.13943471934E+04  0.91303061274E+03  0.56513656434E+03  0.17598950031E+04  0.46999998093E+01 0.  1.
</event>
<event>
 5   0  0.9538919E-07  0.3602486E+04  0.7818609E-02  0.8089923E-01
       -2   -1    0    0    0  501  0.00000000000E+00  0.00000000000E+00  0.21795015860E+04  0.21795015860E+04  0.25500000920E-02 0. -1.
        2   -1    0    0  501    0  0.00000000000E+00  0.00000000000E+00 -0.14886318532E+04  0.14886318532E+04  0.25500000920E-02 0.  1.
    10030    2    1    2    0    0  0.00000000000E+00  0.00000000000E+00  0.69086973280E+03  0.36681334393E+04  0.36024855226E+04 0.  0.
        4    1    3    3  502    0 -0.54686386362E+03  0.13281579380E+04  0.14521688722E+04  0.20425130697E+04  0.12699999809E+01 0. -1.
       -4    1    3    3    0  502  0.54686386362E+03 -0.13281579380E+04 -0.76129913938E+03  0.16256203696E+04  0.12699999809E+01 0.  1.
</event>
<event>
 5   0  0.9538919E-07  0.3520244E+04  0.7818609E-02  0.8109009E-01
       -2   -1    0    0    0  501  0.00000000000E+00  0.00000000000E+00  0.22233610275E+04  0.22233610275E+04  0.25500000920E-02 0. -1.
        2   -1    0    0  501    0  0.00000000000E+00  0.00000000000E+00 -0.13933993993E+04  0.13933993993E+04  0.25500000920E-02 0.  1.
    10030    2    1    2    0    0  0.00000000000E+00  0.00000000000E+00  0.82996162821E+03  0.36167604269E+04  0.35202442644E+04 0.  0.
        4    1    3    3  502    0 -0.63409345556E+03  0.60192013018E+03  0.19844920415E+04  0.21685462018E+04  0.12699999809E+01 0. -1.
       -4    1    3    3    0  502  0.63409345556E+03 -0.60192013018E+03 -0.11545304133E+04  0.14482142251E+04  0.12699999809E+01 0.  1.
</event>
<event>
 5   0  0.3159875E-07  0.3488414E+04  0.7818609E-02  0.8116541E-01
        1   -1    0    0  501    0  0.00000000000E+00  0.00000000000E+00  0.25255836866E+04  0.25255836866E+04  0.50400001928E-02 0. -1.
       -1   -1    0    0    0  501  0.00000000000E+00  0.00000000000E+00 -0.12045763063E+04  0.12045763063E+04  0.50400001928E-02 0.  1.
    10030    2    1    2    0    0  0.00000000000E+00  0.00000000000E+00  0.13210073803E+04  0.37301599929E+04  0.34884141201E+04 0.  0.
        2    1    3    3  502    0  0.14189798785E+04 -0.59814684003E+03 -0.21539223609E+03  0.15548882124E+04  0.25500000920E-02 0.  1.
       -2    1    3    3    0  502 -0.14189798785E+04  0.59814684003E+03  0.15363996164E+04  0.21752717805E+04  0.25500000920E-02 0. -1.
</event>
<event>
 5   0  0.9538919E-07  0.3171319E+04  0.7818609E-02  0.8196433E-01
        2   -1    0    0  501    0  0.00000000000E+00  0.00000000000E+00  0.23597682793E+04  0.23597682793E+04  0.25500000920E-02 0. -1.
       -2   -1    0    0    0  501  0.00000000000E+00  0.00000000000E+00 -0.10654926697E+04  0.10654926697E+04  0.25500000920E-02 0.  1.
    10030    2    1    2    0    0  0.00000000000E+00  0.00000000000E+00  0.12942756095E+04  0.34252609490E+04  0.31713188448E+04 0.  0.
        4    1    3    3  502    0  0.88864329359E+03  0.13073501282E+04  0.78144511382E+03  0.17633800895E+04  0.12699999809E+01 0. -1.
       -4    1    3    3    0  502 -0.88864329359E+03 -0.13073501282E+04  0.51283049571E+03  0.16618808595E+04  0.12699999809E+01 0.  1.
</event>
<event>
 5   0  0.1006019E-06  0.3575119E+04  0.7818609E-02  0.8096215E-01
        2   -1    0    0  501    0  0.00000000000E+00  0.00000000000E+00  0.19611012275E+04  0.19611012275E+04  0.25500000920E-02 0.  1.
       -2   -1    0    0    0  501  0.00000000000E+00  0.00000000000E+00 -0.16293747580E+04  0.16293747580E+04  0.25500000920E-02 0. -1.
    10030    2    1    2    0    0  0.00000000000E+00  0.00000000000E+00  0.33172646943E+03  0.35904759855E+04  0.35751189284E+04 0.  0.
        1    1    3    3  502    0 -0.27263831717E+03 -0.62421617537E+03  0.18256545886E+04  0.19485872222E+04  0.50400001928E-02 0.  1.
       -1    1    3    3    0  502  0.27263831717E+03  0.62421617537E+03 -0.14939281192E+04  0.16418887633E+04  0.50400001928E-02 0. -1.
</event>
<event>
 5   0  0.9538919E-07  0.3554553E+04  0.7818609E-02  0.8100982E-01
        2   -1    0    0  501    0  0.00000000000E+00  0.00000000000E+00  0.14660237558E+04  0.14660237558E+04  0.25500000920E-02 0.  1.
       -2   -1    0    0    0  501  0.00000000000E+00  0.00000000000E+00 -0.21546111942E+04  0.21546111942E+04  0.25500000920E-02 0. -1.
    10030    2    1    2    0    0  0.00000000000E+00  0.00000000000E+00 -0.68858743839E+03  0.36206349500E+04  0.35545526836E+04 0.  0.
        4    1    3    3  502    0  0.13172815194E+04 -0.10722660060E+04 -0.87720718404E+03  0.19116691779E+04  0.12699999809E+01 0. -1.
       -4    1    3    3    0  502 -0.13172815194E+04  0.10722660060E+04  0.18861974565E+03  0.17089657721E+04  0.12699999809E+01 0.  1.
</event>
<event>
 5   0  0.3159875E-07  0.3611978E+04  0.7818609E-02  0.8087753E-01
       -1   -1    0    0    0  501  0.00000000000E+00  0.00000000000E+00  0.13424800245E+04  0.13424800245E+04  0.50400001928E-02 0.  1.
        1   -1    0    0  501    0  0.00000000000E+00  0.00000000000E+00 -0.24295311334E+04  0.24295311334E+04  0.50400001928E-02 0. -1.
    10030    2    1    2    0    0  0.00000000000E+00  0.00000000000E+00 -0.10870511089E+04  0.37720111579E+04  0.36119784138E+04 0.  0.
        5    1    3    3  502    0  0.10707750730E+04 -0.13619201367E+04 -0.10838106343E+02  0.17324910592E+04  0.46999998093E+01 0.  1.
       -5    1    3    3    0  502 -0.10707750730E+04  0.13619201367E+04 -0.10762130025E+04  0.20395200986E+04  0.46999998093E+01 0. -1.
</event>
<event>
 5   0  0.9878977E-07  0.3587534E+04  0.7818609E-02  0.8093353E-01
       -2   -1    0    0    0  501  0.00000000000E+00  0.00000000000E+00  0.14864932568E+04  0.14864932568E+04  0.25500000920E-02 0. -1.
        2   -1    0    0  501    0  0.00000000000E+00  0.00000000000E+00 -0.21645574182E+04  0.21645574182E+04  0.25500000920E-02 0.  1.
    10030    2    1    2    0    0  0.00000000000E+00  0.00000000000E+00 -0.67806416137E+03  0.36510506750E+04  0.35875339754E+04 0.  0.
        5    1    3    3  502    0  0.63014281688E+03 -0.84806757634E+03  0.11362114967E+04  0.15515467247E+04  0.46999998093E+01 0. -1.
       -5    1    3    3    0  502 -0.63014281688E+03  0.84806757634E+03 -0.18142756581E+04  0.20995039503E+04  0.46999998093E+01 0.  1.
</event>
<event>
 5   0  0.3159875E-07  0.3602910E+04  0.7818609E-02  0.8089825E-01
       -1   -1    0    0    0  501  0.00000000000E+00  0.00000000000E+00  0.17134139050E+04  0.17134139050E+04  0.50400001928E-02 0.  1.
        1   -1    0    0  501    0  0.00000000000E+00  0.00000000000E+00 -0.18940198886E+04  0.18940198886E+04  0.50400001928E-02 0. -1.
    10030    2    1    2    0    0  0.00000000000E+00  0.00000000000E+00 -0.18060598360E+03  0.36074337936E+04  0.36029099425E+04 0.  0.
        5    1    3    3  502    0  0.13506228727E+04  0.25774641548E+03  0.10750323273E+04  0.17453744452E+04  0.46999998093E+01 0.  1.
       -5    1    3    3    0  502 -0.13506228727E+04 -0.25774641548E+03 -0.12556383109E+04  0.18620593484E+04  0.46999998093E+01 0. -1.
</event>
<event>
 5   0  0.3365378E-07  0.2630500E+04  0.7818609E-02  0.8357914E-01
       -1   -1    0    0    0  501  0.00000000000E+00  0.00000000000E+00  0.75066949569E+03  0.75066949571E+03  0.50400001928E-02 0. -1.
        1   -1    0    0  501    0  0.00000000000E+00  0.00000000000E+00 -0.23044526843E+04  0.23044526843E+04  0.50400001928E-02 0.  1.
    10030    2    1    2    0    0  0.00000000000E+00  0.00000000000E+00 -0.15537831886E+04  0.30551221800E+04  0.26304998266E+04 0.  0.
        3    1    3    3  502    0 -0.75134947473E+03 -0.41804902510E+03  0.37905444476E+03  0.93966659133E+03  0.10100000352E+00 0. -1.
       -3    1    3    3    0  502  0.75134947473E+03  0.41804902510E+03 -0.19328376334E+04  0.21154555887E+04  0.10100000352E+00 0.  1.
</event>
<event>
 5   0  0.9878336E-07  0.3597249E+04  0.7818609E-02  0.8091122E-01
        2   -1    0    0  501    0  0.00000000000E+00  0.00000000000E+00  0.17119271393E+04  0.17119271393E+04  0.25500000920E-02 0. -1.
       -2   -1    0    0    0  501  0.00000000000E+00  0.00000000000E+00 -0.18897126537E+04  0.18897126537E+04  0.25500000920E-02 0.  1.
    10030    2    1    2    0    0  0.00000000000E+00  0.00000000000E+00 -0.17778551441E+03  0.36016397930E+04  0.35972491587E+04 0.  0.
        3    1    3    3  502    0 -0.17951574552E+04 -0.10101941053E+03 -0.13643921211E+03  0.18031669027E+04  0.10100000352E+00 0.  1.
       -3    1    3    3    0  502  0.17951574552E+04  0.10101941053E+03 -0.41346302299E+02  0.17984728903E+04  0.10100000352E+00 0. -1.
</event>
<event>
 5   0  0.3242047E-07  0.3659609E+04  0.7818609E-02  0.8076972E-01
        1   -1    0    0  501    0  0.00000000000E+00  0.00000000000E+00  0.17519101467E+04  0.17519101467E+04  0.50400001928E-02 0.  1.
       -1   -1    0    0    0  501  0.00000000000E+00  0.00000000000E+00 -0.19111624065E+04  0.19111624065E+04  0.50400001928E-02 0. -1.
    10030    2    1    2    0    0  0.00000000000E+00  0.00000000000E+00 -0.15925225977E+03  0.36630725532E+04  0.36596091660E+04 0.  0.
        1    1    3    3  502    0 -0.14370025200E+04 -0.16160750362E+03  0.10426359104E+04  0.17827458791E+04  0.50400001928E-02 0.  1.
       -1    1    3    3    0  502  0.14370025200E+04  0.16160750362E+03 -0.12018881702E+04  0.18803266741E+04  0.50400001928E-02 0. -1.
</event>
<event>
 5   0  0.3278988E-07  0.3280931E+04  0.7818609E-02  0.8167764E-01
        1   -1    0    0  501    0  0.00000000000E+00  0.00000000000E+00  0.27653228563E+04  0.27653228563E+04  0.50400001928E-02 0. -1.
       -1   -1    0    0    0  501  0.00000000000E+00  0.00000000000E+00 -0.97316923163E+03  0.97316923164E+03  0.50400001928E-02 0.  1.
    10030    2    1    2    0    0  0.00000000000E+00  0.00000000000E+00  0.17921536247E+04  0.37384920880E+04  0.32809310382E+04 0.  0.
        4    1    3    3  502    0  0.68694975649E+03  0.36305585845E+03  0.25423574333E+04  0.26584379729E+04  0.12699999809E+01 0. -1.
       -4    1    3    3    0  502 -0.68694975649E+03 -0.36305585845E+03 -0.75020380854E+03  0.10800541151E+04  0.12699999809E+01 0.  1.
</event>
<event>
 5   0  0.3159875E-07  0.3593888E+04  0.7818609E-02  0.8091893E-01
       -1   -1    0    0    0  501  0.00000000000E+00  0.00000000000E+00  0.13861371649E+04  0.13861371649E+04  0.50400001928E-02 0. -1.
        1   -1    0    0  501    0  0.00000000000E+00  0.00000000000E+00 -0.23295013287E+04  0.23295013287E+04  0.50400001928E-02 0.  1.
    10030    2    1    2    0    0  0.00000000000E+00  0.00000000000E+00 -0.94336416380E+03  0.37156384936E+04  0.35938883497E+04 0.  0.
        5    1    3    3  502    0  0.54650331556E+03 -0.77612560975E+02  0.12963070428E+04  0.14089441517E+04  0.46999998093E+01 0. -1.
       -5    1    3    3    0  502 -0.54650331556E+03  0.77612560975E+02 -0.22396712066E+04  0.23066943419E+04  0.46999998093E+01 0.  1.
</event>
<event>
 5   0  0.3242047E-07  0.3851037E+04  0.7818609E-02  0.8035290E-01
        1   -1    0    0  501    0  0.00000000000E+00  0.00000000000E+00  0.11868471095E+04  0.11868471095E+04  0.50400001928E-02 0. -1.
       -1   -1    0    0    0  501  0.00000000000E+00  0.00000000000E+00 -0.31239254641E+04  0.31239254641E+04  0.50400001928E-02 0.  1.
    10030    2    1    2    0    0  0.00000000000E+00  0.00000000000E+00 -0.19370783546E+04  0.43107725735E+04  0.38510372147E+04 0.  0.
        1    1    3    3  502    0 -0.65992208061E+03 -0.17709452572E+04 -0.13811602561E+04  0.23408006984E+04  0.50400001928E-02 0.  1.
       -1    1    3    3    0  502  0.65992208061E+03  0.17709452572E+04 -0.55591809850E+03  0.19699718751E+04  0.50400001928E-02 0. -1.
</event>
<event>
 5   0  0.3242047E-07  0.3284446E+04  0.7818609E-02  0.8166864E-01
        1   -1    0    0  501    0  0.00000000000E+00  0.00000000000E+00  0.23202561056E+04  0.23202561056E+04  0.50400001928E-02 0.  1.
       -1   -1    0    0    0  501  0.00000000000E+00  0.00000000000E+00 -0.11623270564E+04  0.11623270564E+04  0.50400001928E-02 0. -1.
    10030    2    1    2    0    0  0.00000000000E+00  0.00000000000E+00  0.11579290492E+04  0.34825831620E+04  0.32844460412E+04 0.  0.
        1    1    3    3  502    0 -0.52931775788E+03 -0.11237735171E+04 -0.56001118917E+03  0.13625919193E+04  0.50400001928E-02 0. -1.
       -1    1    3    3    0  502  0.52931775788E+03  0.11237735171E+04  0.17179402384E+04  0.21199912427E+04  0.50400001928E-02 0.  1.
</event>
<event>
 5   0  0.9538919E-07  0.3154180E+04  0.7818609E-02  0.8201024E-01
        2   -1    0    0  501    0  0.00000000000E+00  0.00000000000E+00  0.14894591963E+04  0.14894591963E+04  0.25500000920E-02 0.  1.
       -2   -1    0    0    0  501  0.00000000000E+00  0.00000000000E+00 -0.16698759992E+04  0.16698759992E+04  0.25500000920E-02 0. -1.
    10030    2    1    2    0    0  0.00000000000E+00  0.00000000000E+00 -0.18041680294E+03  0.31593351955E+04  0.31541795534E+04 0.  0.
        4    1    3    3  502    0  0.13828041031E+04 -0.57243595407E+03 -0.58839492341E+03  0.16081170069E+04  0.12699999809E+01 0. -1.
       -4    1    3    3    0  502 -0.13828041031E+04  0.57243595407E+03  0.40797812046E+03  0.15512181886E+04  0.12699999809E+01 0.  1.
</event>
<event>
 5   0  0.3278988E-07  0.3633221E+04  0.7818609E-02  0.8082924E-01
       -1   -1    0    0    0  501  0.00000000000E+00  0.00000000000E+00  0.16021818068E+04  0.16021818068E+04  0.50400001928E-02 0. -1.
        1   -1    0    0  501    0  0.00000000000E+00  0.00000000000E+00 -0.20597374163E+04  0.20597374163E+04  0.50400001928E-02 0.  1.
    10030    2    1    2    0    0  0.00000000000E+00  0.00000000000E+00 -0.45755560948E+03  0.36619192231E+04  0.36332210586E+04 0.  0.
        4    1    3    3  502    0  0.16558310251E+04 -0.72584607323E+02  0.52075426616E+03  0.17373058244E+04  0.12699999809E+01 0. -1.
       -4    1    3    3    0  502 -0.16558310251E+04  0.72584607323E+02 -0.97830987564E+03  0.19246133987E+04  0.12699999809E+01 0.  1.
</event>
<event>
 5   0  0.3242047E-07  0.3576538E+04  0.7818609E-02  0.8095887E-01
        1   -1    0    0  501    0  0.00000000000E+00  0.00000000000E+00  0.16309668555E+04  0.16309668555E+04  0.50400001928E-02 0.  1.
       -1   -1    0    0    0  501  0.00000000000E+00  0.00000000000E+00 -0.19607427767E+04  0.19607427767E+04  0.50400001928E-02 0. -1.
    10030    2    1    2    0    0  0.00000000000E+00  0.00000000000E+00 -0.32977592116E+03  0.35917096322E+04  0.35765382598E+04 0.  0.
        1    1    3    3  502    0 -0.68083585725E+03  0.14436394909E+04 -0.97470433008E+03  0.18702088053E+04  0.50400001928E-02 0. -1.
       -1    1    3    3    0  502  0.68083585725E+03 -0.14436394909E+04  0.64492840892E+03  0.17215008269E+04  0.50400001928E-02 0.  1.
</event>
<event>
 5   0  0.3365378E-07  0.3572494E+04  0.7818609E-02  0.8096821E-01
       -1   -1    0    0    0  501  0.00000000000E+00  0.00000000000E+00  0.13872173956E+04  0.13872173956E+04  0.50400001928E-02 0. -1.
        1   -1    0    0  501    0  0.00000000000E+00  0.00000000000E+00 -0.23000566117E+04  0.23000566117E+04  0.50400001928E-02 0.  1.
    10030    2    1    2    0    0  0.00000000000E+00  0.00000000000E+00 -0.91283921610E+03  0.36872740073E+04  0.35724941106E+04 0.  0.
        3    1    3    3  502    0 -0.89301234752E+03 -0.69232207492E+02  0.11386833821E+04  0.14487456665E+04  0.10100000352E+00 0. -1.
       -3    1    3    3    0  502  0.89301234752E+03  0.69232207492E+02 -0.20515225982E+04  0.22385283408E+04  0.10100000352E+00 0.  1.
</event>
<event>
 5   0  0.3159875E-07  0.3565967E+04  0.7818609E-02  0.8098332E-01
       -1   -1    0    0    0  501  0.00000000000E+00  0.00000000000E+00  0.11658911927E+04  0.11658911927E+04  0.50400001928E-02 0. -1.
        1   -1    0    0  501    0  0.00000000000E+00  0.00000000000E+00 -0.27266958055E+04  0.27266958055E+04  0.50400001928E-02 0.  1.
    10030    2    1    2    0    0  0.00000000000E+00  0.00000000000E+00 -0.15608046128E+04  0.38925869982E+04  0.35659672600E+04 0.  0.
        5    1    3    3  502    0  0.21262374738E+03  0.70327768556E+03 -0.25537632599E+04  0.26573553091E+04  0.46999998093E+01 0.  1.
       -5    1    3    3    0  502 -0.21262374738E+03 -0.70327768556E+03  0.99295864714E+03  0.12352316892E+04  0.46999998093E+01 0. -1.
</event>
<event>
 5   0  0.9538919E-07  0.3578327E+04  0.7818609E-02  0.8095474E-01
        2   -1    0    0  501    0  0.00000000000E+00  0.00000000000E+00  0.24872005047E+04  0.24872005047E+04  0.25500000920E-02 0. -1.
       -2   -1    0    0    0  501  0.00000000000E+00  0.00000000000E+00 -0.12870320448E+04  0.12870320448E+04  0.25500000920E-02 0.  1.
    10030    2    1    2    0    0  0.00000000000E+00  0.00000000000E+00  0.12001684599E+04  0.37742325496E+04  0.35783274034E+04 0.  0.
        4    1    3    3  502    0  0.11853790679E+04 -0.12233649322E+04  0.22991829654E+02  0.17036066240E+04  0.12699999809E+01 0. -1.
       -4    1    3    3    0  502 -0.11853790679E+04  0.12233649322E+04  0.11771766302E+04  0.20706259256E+04  0.12699999809E+01 0.  1.
</event>
<event>
 5   0  0.3159875E-07  0.3538386E+04  0.7818609E-02  0.8104753E-01
       -1   -1    0    0    0  501  0.00000000000E+00  0.00000000000E+00  0.18575159861E+04  0.18575159861E+04  0.50400001928E-02 0. -1.
        1   -1    0    0  501    0  0.00000000000E+00  0.00000000000E+00 -0.16850699398E+04  0.16850699398E+04  0.50400001928E-02 0.  1.
    10030    2    1    2    0    0  0.00000000000E+00  0.00000000000E+00  0.17244604628E+03  0.35425859259E+04  0.35383862711E+04 0.  0.
        2    1    3    3  502    0 -0.14688821395E+04 -0.56138975229E+02 -0.89946467265E+03  0.17233116438E+04  0.25500000920E-02 0.  1.
       -2    1    3    3    0  502  0.14688821395E+04  0.56138975229E+02  0.10719107189E+04  0.18192742821E+04  0.25500000920E-02 0. -1.
</event>
<event>
 5   0  0.3278988E-07  0.3550345E+04  0.7818609E-02  0.8101961E-01
       -1   -1    0    0    0  501  0.00000000000E+00  0.00000000000E+00  0.19883546100E+04  0.19883546100E+04  0.50400001928E-02 0.  1.
        1   -1    0    0  501    0  0.00000000000E+00  0.00000000000E+00 -0.15848466259E+04  0.15848466259E+04  0.50400001928E-02 0. -1.
    10030    2    1    2    0    0  0.00000000000E+00  0.00000000000E+00  0.40350798406E+03  0.35732012359E+04  0.35503448254E+04 0.  0.
        4    1    3    3  502    0 -0.10461664966E+03 -0.74535145026E+03 -0.14163094447E+04  0.16038788869E+04  0.12699999809E+01 0. -1.
       -4    1    3    3    0  502  0.10461664966E+03  0.74535145026E+03  0.18198174287E+04  0.19693223491E+04  0.12699999809E+01 0.  1.
</event>
<event>
 5   0  0.9538919E-07  0.3657371E+04  0.7818609E-02  0.8077475E-01
        2   -1    0    0  501    0  0.00000000000E+00  0.00000000000E+00  0.22544632947E+04  0.22544632947E+04  0.25500000920E-02 0.  1.
       -2   -1    0    0    0  501  0.00000000000E+00  0.00000000000E+00 -0.14833201569E+04  0.14833201569E+04  0.25500000920E-02 0. -1.
    10030    2    1    2    0    0  0.00000000000E+00  0.00000000000E+00  0.77114313775E+03  0.37377834516E+04  0.36573711039E+04 0.  0.
        4    1    3    3  502    0  0.10147344034E+04 -0.10447341334E+04  0.15157489270E+04  0.21020589291E+04  0.12699999809E+01 0.  1.
       -4    1    3    3    0  502 -0.10147344034E+04  0.10447341334E+04 -0.74460578928E+03  0.16357245224E+04  0.12699999809E+01 0. -1.
</event>
<event>
 5   0  0.9878977E-07  0.3518729E+04  0.7818609E-02  0.8109366E-01
        2   -1    0    0  501    0  0.00000000000E+00  0.00000000000E+00  0.16741062619E+04  0.16741062619E+04  0.25500000920E-02 0. -1.
       -2   -1    0    0    0  501  0.00000000000E+00  0.00000000000E+00 -0.18489648291E+04  0.18489648291E+04  0.25500000920E-02 0.  1.
    10030    2    1    2    0    0  0.00000000000E+00  0.00000000000E+00 -0.17485856718E+03  0.35230710910E+04  0.35187290879E+04 0.  0.
        5    1    3    3  502    0 -0.42288770183E+03 -0.10619802839E+04  0.12516459625E+04  0.16950739917E+04  0.46999998093E+01 0. -1.
       -5    1    3    3    0  502  0.42288770183E+03  0.10619802839E+04 -0.14265045297E+04  0.18279970993E+04  0.46999998093E+01 0.  1.
</event>
<event>
 5   0  0.3278988E-07  0.3171984E+04  0.7818609E-02  0.8196256E-01
        1   -1    0    0  501    0  0.00000000000E+00  0.00000000000E+00  0.25348561883E+04  0.25348561883E+04  0.50400001928E-02 0. -1.
       -1   -1    0    0    0  501  0.00000000000E+00  0.00000000000E+00 -0.99231275218E+03  0.99231275219E+03  0.50400001928E-02 0.  1.
    10030    2    1    2    0    0  0.00000000000E+00  0.00000000000E+00  0.15425434361E+04  0.35271689405E+04  0.31719836826E+04 0.  0.
        4    1    3    3  502    0 -0.57202851385E+03  0.12884157201E+04 -0.36834669842E+02  0.14101737816E+04  0.12699999809E+01 0.  1.
       -4    1    3    3    0  502  0.57202851385E+03 -0.12884157201E+04  0.15793781059E+04  0.21169951589E+04  0.12699999809E+01 0. -1.
</event>
<event>
 5   0  0.9538919E-07  0.3661547E+04  0.7818609E-02  0.8076537E-01
        2   -1    0    0  501    0  0.00000000000E+00  0.00000000000E+00  0.18302407106E+04  0.18302407106E+04  0.25500000920E-02 0.  1.
       -2   -1    0    0    0  501  0.00000000000E+00  0.00000000000E+00 -0.18313065182E+04  0.18313065182E+04  0.25500000920E-02 0. -1.
    10030    2    1    2    0    0  0.00000000000E+00  0.00000000000E+00 -0.10658075784E+01  0.36615472288E+04  0.36615470737E+04 0.  0.
        4    1    3    3  502    0  0.14947607861E+04  0.74220447773E+03  0.75216416941E+03  0.18305545184E+04  0.12699999809E+01 0.  1.
       -4    1    3    3    0  502 -0.14947607861E+04 -0.74220447773E+03 -0.75322997699E+03  0.18309927104E+04  0.12699999809E+01 0. -1.
</event>
<event>
 5   0  0.9878336E-07  0.3507489E+04  0.7818609E-02  0.8112018E-01
       -2   -1    0    0    0  501  0.00000000000E+00  0.00000000000E+00  0.13081577733E+04  0.13081577733E+04  0.25500000920E-02 0.  1.
        2   -1    0    0  501    0  0.00000000000E+00  0.00000000000E+00 -0.23511071099E+04  0.23511071099E+04  0.25500000920E-02 0. -1.
    10030    2    1    2    0    0  0.00000000000E+00  0.00000000000E+00 -0.10429493366E+04  0.36592648831E+04  0.35074885839E+04 0.  0.
        3    1    3    3  502    0 -0.13026165038E+04  0.66774648297E+03 -0.15291501545E+04  0.21168361596E+04  0.10100000352E+00 0. -1.
       -3    1    3    3    0  502  0.13026165038E+04 -0.66774648297E+03  0.48620081792E+03  0.15424287235E+04  0.10100000352E+00 0.  1.
</event>
<event>
 5   0  0.3159875E-07  0.3609389E+04  0.7818609E-02  0.8088344E-01
        1   -1    0    0  501    0  0.00000000000E+00  0.00000000000E+00  0.24005178239E+04  0.24005178240E+04  0.50400001928E-02 0. -1.
       -1   -1    0    0    0  501  0.00000000000E+00  0.00000000000E+00 -0.13567585078E+04  0.13567585078E+04  0.50400001928E-02 0.  1.
    10030    2    1    2    0    0  0.00000000000E+00  0.00000000000E+00  0.10437593162E+04  0.37572763317E+04  0.36093894113E+04 0.  0.
        5    1    3    3  502    0 -0.11107729360E+04  0.13934656567E+04  0.22499639715E+03  0.17961649480E+04  0.46999998093E+01 0. -1.
       -5    1    3    3    0  502  0.11107729360E+04 -0.13934656567E+04  0.81876291905E+03  0.19611113837E+04  0.46999998093E+01 0.  1.
</event>
<event>
 5   0  0.1031659E-06  0.3547301E+04  0.7818609E-02  0.8102671E-01
       -2   -1    0    0    0  501  0.00000000000E+00  0.00000000000E+00  0.11735819498E+04  0.11735819498E+04  0.25500000920E-02 0. -1.
        2   -1    0    0  501    0  0.00000000000E+00  0.00000000000E+00 -0.26805419495E+04  0.26805419495E+04  0.25500000920E-02 0.  1.
    10030    2    1    2    0    0  0.00000000000E+00  0.00000000000E+00 -0.15069599997E+04  0.38541238993E+04  0.35473007471E+04 0.  0.
        2    1    3    3  502    0 -0.15123348405E+04 -0.23875046413E+03  0.21932865550E+03  0.15466943825E+04  0.25500000920E-02 0. -1.
       -2    1    3    3    0  502  0.15123348405E+04  0.23875046413E+03 -0.17262886552E+04  0.23074295168E+04  0.25500000920E-02 0.  1.
</event>
<event>
 5   0  0.3159875E-07  0.3547166E+04  0.7818609E-02  0.8102702E-01
        3   -1    0    0  501    0  0.00000000000E+00  0.00000000000E+00  0.15938081791E+04  0.15938081823E+04  0.10100000352E+00 0. -1.
       -3   -1    0    0    0  501  0.00000000000E+00  0.00000000000E+00 -0.19736355987E+04  0.19736356013E+04  0.10100000352E+00 0.  1.
    10030    2    1    2    0    0  0.00000000000E+00  0.00000000000E+00 -0.37982741959E+03  0.35674437836E+04  0.35471659505E+04 0.  0.
        1    1    3    3  502    0  0.19154792632E+03  0.13534584135E+04  0.94661562721E+03  0.16627150781E+04  0.50400001928E-02 0. -1.
       -1    1    3    3    0  502 -0.19154792632E+03 -0.13534584135E+04 -0.13264430468E+04  0.19047287055E+04  0.50400001928E-02 0.  1.
</event>
<event>
 5   0  0.1031659E-06  0.3601346E+04  0.7818609E-02  0.8090183E-01
       -2   -1    0    0    0  501  0.00000000000E+00  0.00000000000E+00  0.13597944525E+04  0.13597944525E+04  0.25500000920E-02 0.  1.
        2   -1    0    0  501    0  0.00000000000E+00  0.00000000000E+00 -0.23844949034E+04  0.23844949034E+04  0.25500000920E-02 0. -1.
    10030    2    1    2    0    0  0.00000000000E+00  0.00000000000E+00 -0.10247004509E+04  0.37442893559E+04  0.36013458272E+04 0.  0.
        2    1    3    3  502    0 -0.73901111004E+03 -0.16340895424E+04 -0.34458609290E+03  0.18262326327E+04  0.25500000920E-02 0. -1.
       -2    1    3    3    0  502  0.73901111004E+03  0.16340895424E+04 -0.68011435795E+03  0.19180567232E+04  0.25500000920E-02 0.  1.
</event>
<event>
 5   0  0.3365378E-07  0.3628299E+04  0.7818609E-02  0.8084040E-01
       -1   -1    0    0    0  501  0.00000000000E+00  0.00000000000E+00  0.15380048438E+04  0.15380048439E+04  0.50400001928E-02 0.  1.
        1   -1    0    0  501    0  0.00000000000E+00  0.00000000000E+00 -0.21398746458E+04  0.21398746458E+04  0.50400001928E-02 0. -1.
    10030    2    1    2    0    0  0.00000000000E+00  0.00000000000E+00 -0.60186980193E+03  0.36778794896E+04  0.36282985381E+04 0.  0.
        3    1    3    3  502    0  0.27821109337E+03 -0.11935610499E+04 -0.16568036006E+04  0.20608220626E+04  0.10100000352E+00 0. -1.
       -3    1    3    3    0  502 -0.27821109337E+03  0.11935610499E+04  0.10549337987E+04  0.16170574270E+04  0.10100000352E+00 0.  1.
</event>
<event>
 5   0  0.9878336E-07  0.3436944E+04  0.7818609E-02  0.8128898E-01
        2   -1    0    0  501    0  0.00000000000E+00  0.00000000000E+00  0.24149910327E+04  0.24149910327E+04  0.25500000920E-02 0. -1.
       -2   -1    0    0    0  501  0.00000000000E+00  0.00000000000E+00 -0.12228391724E+04  0.12228391724E+04  0.25500000920E-02 0.  1.
    10030    2    1    2    0    0  0.00000000000E+00  0.00000000000E+00  0.11921518603E+04  0.36378302050E+04  0.34369437794E+04 0.  0.
        3    1    3    3  502    0  0.13296888997E+04 -0.96313010169E+03  0.59020187138E+02  0.16429167829E+04  0.10100000352E+00 0.  1.
       -3    1    3    3    0  502 -0.13296888997E+04  0.96313010169E+03  0.11331316732E+04  0.19949134221E+04  0.10100000352E+00 0. -1.
</event>
<event>
 5   0  0.3278988E-07  0.3602490E+04  0.7818609E-02  0.8089922E-01
        1   -1    0    0  501    0  0.00000000000E+00  0.00000000000E+00  0.22008827738E+04  0.22008827738E+04  0.50400001928E-02 0. -1.
       -1   -1    0    0    0  501  0.00000000000E+00  0.00000000000E+00 -0.14741736169E+04  0.14741736169E+04  0.50400001928E-02 0.  1.
    10030    2    1    2    0    0  0.00000000000E+00  0.00000000000E+00  0.72670915690E+03  0.36750563908E+04  0.36024898718E+04 0.  0.
        4    1    3    3  502    0 -0.11287207527E+04 -0.13936148239E+04  0.19171293261E+03  0.18035876126E+04  0.12699999809E+01 0.  1.
       -4    1    3    3    0  502  0.11287207527E+04  0.13936148239E+04  0.53499622430E+03  0.18714687782E+04  0.12699999809E+01 0. -1.
</event>
<event>
 5   0  0.3242047E-07  0.3618941E+04  0.7818609E-02  0.8086167E-01
        1   -1    0    0  501    0  0.00000000000E+00  0.00000000000E+00  0.15330229675E+04  0.15330229675E+04  0.50400001928E-02 0.  1.
       -1   -1    0    0    0  501  0.00000000000E+00  0.00000000000E+00 -0.21357698334E+04  0.21357698334E+04  0.50400001928E-02 0. -1.
    10030    2    1    2    0    0  0.00000000000E+00  0.00000000000E+00 -0.60274686587E+03  0.36687928009E+04  0.36189413966E+04 0.  0.
        1    1    3    3  502    0  0.77265143903E+03 -0.15840169173E+04 -0.71700191108E+03  0.19026801047E+04  0.50400001928E-02 0. -1.
       -1    1    3    3    0  502 -0.77265143903E+03  0.15840169173E+04  0.11425504521E+03  0.17661126962E+04  0.50400001928E-02 0.  1.
</event>
<event>
 5   0  0.1031659E-06  0.3541228E+04  0.7818609E-02  0.8104088E-01
       -2   -1    0    0    0  501  0.00000000000E+00  0.00000000000E+00  0.15600416075E+04  0.15600416075E+04  0.25500000920E-02 0.  1.
        2   -1    0    0  501    0  0.00000000000E+00  0.00000000000E+00 -0.20096089393E+04  0.20096089393E+04  0.25500000920E-02 0. -1.
    10030    2    1    2    0    0  0.00000000000E+00  0.00000000000E+00 -0.44956733186E+03  0.35696505468E+04  0.35412277871E+04 0.  0.
        2    1    3    3  502    0 -0.16157948261E+04  0.20958567201E+03 -0.92342256833E+03  0.18728129414E+04  0.25500000920E-02 0. -1.
       -2    1    3    3    0  502  0.16157948261E+04 -0.20958567201E+03  0.47385523647E+03  0.16968376054E+04  0.25500000920E-02 0.  1.
</event>
<event>
 5   0  0.3159875E-07  0.3600573E+04  0.7818609E-02  0.8090360E-01
       -1   -1    0    0    0  501  0.00000000000E+00  0.00000000000E+00  0.24239876121E+04  0.24239876121E+04  0.50400001928E-02 0. -1.
        1   -1    0    0  501    0  0.00000000000E+00  0.00000000000E+00 -0.13370659702E+04  0.13370659702E+04  0.50400001928E-02 0.  1.
    10030    2    1    2    0    0  0.00000000000E+00  0.00000000000E+00  0.10869216419E+04  0.37610535823E+04  0.36005729258E+04 0.  0.
        5    1    3    3  502    0 -0.11965406852E+03  0.13595692982E+04 -0.68285980949E+03  0.15261275772E+04  0.46999998093E+01 0.  1.
       -5    1    3    3    0  502  0.11965406852E+03 -0.13595692982E+04  0.17697814514E+04  0.22349260051E+04  0.46999998093E+01 0. -1.
</event>
<event>
 5   0  0.9538919E-07  0.3580701E+04  0.7818609E-02  0.8094927E-01
       -2   -1    0    0    0  501  0.00000000000E+00  0.00000000000E+00  0.12437369747E+04  0.12437369747E+04  0.25500000920E-02 0. -1.
        2   -1    0    0  501    0  0.00000000000E+00  0.00000000000E+00 -0.25771969881E+04  0.25771969881E+04  0.25500000920E-02 0.  1.
    10030    2    1    2    0    0  0.00000000000E+00  0.00000000000E+00 -0.13334600134E+04  0.38209339628E+04  0.35807011521E+04 0.  0.
        4    1    3    3  502    0 -0.65113541452E+03  0.58768523158E+03  0.99875337641E+03  0.13292333050E+04  0.12699999809E+01 0. -1.
       -4    1    3    3    0  502  0.65113541452E+03 -0.58768523158E+03 -0.23322133898E+04  0.24917006577E+04  0.12699999809E+01 0.  1.
</event>
<event>
 5   0  0.9878336E-07  0.3473652E+04  0.7818609E-02  0.8120063E-01
        2   -1    0    0  501    0  0.00000000000E+00  0.00000000000E+00  0.26343191126E+04  0.26343191126E+04  0.25500000920E-02 0.  1.
       -2   -1    0    0    0  501  0.00000000000E+00  0.00000000000E+00 -0.11451019838E+04  0.11451019838E+04  0.25500000920E-02 0. -1.
    10030    2    1    2    0    0  0.00000000000E+00  0.00000000000E+00  0.14892171288E+04  0.37794210963E+04  0.34736517049E+04 0.  0.
        3    1    3    3  502    0  0.75325257052E+03  0.12361211953E+04 -0.29965716046E+03  0.14782352548E+04  0.10100000352E+00 0. -1.
       -3    1    3    3    0  502 -0.75325257052E+03 -0.12361211953E+04  0.17888742893E+04  0.23011858416E+04  0.10100000352E+00 0.  1.
</event>
<event>
 5   0  0.9878977E-07  0.3519518E+04  0.7818609E-02  0.8109180E-01
        2   -1    0    0  501    0  0.00000000000E+00  0.00000000000E+00  0.10889629933E+04  0.10889629933E+04  0.25500000920E-02 0. -1.
       -2   -1    0    0    0  501  0.00000000000E+00  0.00000000000E+00 -0.28437627063E+04  0.28437627063E+04  0.25500000920E-02 0.  1.
    10030    2    1    2    0    0  0.00000000000E+00  0.00000000000E+00 -0.17547997130E+04  0.39327256995E+04  0.35195183470E+04 0.  0.
        5    1    3    3  502    0 -0.66023152794E+03  0.10197573118E+04  0.54522751845E+03  0.13315801825E+04  0.46999998093E+01 0. -1.
       -5    1    3    3    0  502  0.66023152794E+03 -0.10197573118E+04 -0.23000272314E+04  0.26011455171E+04  0.46999998093E+01 0.  1.
</event>
<event>
 5   0  0.3278988E-07  0.3650949E+04  0.7818609E-02  0.8078920E-01
        1   -1    0    0  501    0  0.00000000000E+00  0.00000000000E+00  0.24022190720E+04  0.24022190720E+04  0.50400001928E-02 0. -1.
       -1   -1    0    0    0  501  0.00000000000E+00  0.00000000000E+00 -0.13871997665E+04  0.13871997665E+04  0.50400001928E-02 0.  1.
    10030    2    1    2    0    0  0.00000000000E+00  0.00000000000E+00  0.10150193055E+04  0.37894188386E+04  0.36509493209E+04 0.  0.
        4    1    3    3  502    0 -0.99578770500E+03 -0.17534248063E+03  0.20850282427E+04  0.23172575439E+04  0.12699999809E+01 0. -1.
       -4    1    3    3    0  502  0.99578770500E+03  0.17534248063E+03 -0.10700089372E+04  0.14721612947E+04  0.12699999809E+01 0.  1.
</event>
<event>
 5   0  0.3365378E-07  0.3616538E+04  0.7818609E-02  0.8086714E-01
       -1   -1    0    0    0  501  0.00000000000E+00  0.00000000000E+00  0.23472786876E+04  0.23472786876E+04  0.50400001928E-02 0.  1.
        1   -1    0    0  501    0  0.00000000000E+00  0.00000000000E+00 -0.13930329630E+04  0.13930329630E+04  0.50400001928E-02 0. -1.
    10030    2    1    2    0    0  0.00000000000E+00  0.00000000000E+00  0.95424572454E+03  0.37403116506E+04  0.36165378943E+04 0.  0.
        3    1    3    3  502    0 -0.63872174313E+03  0.61366458027E+03 -0.11533104299E+04  0.14541920919E+04  0.10100000352E+00 0. -1.
       -3    1    3    3    0  502  0.63872174313E+03 -0.61366458027E+03  0.21075561545E+04  0.22861195587E+04  0.10100000352E+00 0.  1.
</event>
<event>
 5   0  0.3159875E-07  0.3604740E+04  0.7818609E-02  0.8089407E-01
       -1   -1    0    0    0  501  0.00000000000E+00  0.00000000000E+00  0.19116470020E+04  0.19116470020E+04  0.50400001928E-02 0.  1.
        1   -1    0    0  501    0  0.00000000000E+00  0.00000000000E+00 -0.16993394933E+04  0.16993394933E+04  0.50400001928E-02 0. -1.
    10030    2    1    2    0    0  0.00000000000E+00  0.00000000000E+00  0.21230750868E+03  0.36109864953E+04  0.36047397952E+04 0.  0.
        5    1    3    3  502    0  0.85303289946E+03  0.15421701501E+04 -0.27207339841E+03  0.17832554285E+04  0.46999998093E+01 0. -1.
       -5    1    3    3    0  502 -0.85303289946E+03 -0.15421701501E+04  0.48438090709E+03  0.18277310668E+04  0.46999998093E+01 0.  1.
</event>
<event>
 5   0  0.9538919E-07  0.3580173E+04  0.7818609E-02  0.8095048E-01
        2   -1    0    0  501    0  0.00000000000E+00  0.00000000000E+00  0.25435433333E+04  0.25435433333E+04  0.25500000920E-02 0.  1.
       -2   -1    0    0    0  501  0.00000000000E+00  0.00000000000E+00 -0.12598214789E+04  0.12598214789E+04  0.25500000920E-02 0. -1.
    10030    2    1    2    0    0  0.00000000000E+00  0.00000000000E+00  0.12837218544E+04  0.38033648123E+04  0.35801734729E+04 0.  0.
        4    1    3    3  502    0 -0.72324467893E+03  0.14964819648E+03 -0.10904166559E+04  0.13169994475E+04  0.12699999809E+01 0. -1.
       -4    1    3    3    0  502  0.72324467893E+03 -0.14964819648E+03  0.23741385103E+04  0.24863653648E+04  0.12699999809E+01 0.  1.
</event>
<event>
 5   0  0.1006019E-06  0.3542295E+04  0.7818609E-02  0.8103839E-01
        2   -1    0    0  501    0  0.00000000000E+00  0.00000000000E+00  0.15516094297E+04  0.15516094297E+04  0.25500000920E-02 0.  1.
       -2   -1    0    0    0  501  0.00000000000E+00  0.00000000000E+00 -0.20217483050E+04  0.20217483050E+04  0.25500000920E-02 0. -1.
    10030    2    1    2    0    0  0.00000000000E+00  0.00000000000E+00 -0.47013887534E+03  0.35733577347E+04  0.35422951511E+04 0.  0.
        1    1    3    3  502    0 -0.25298134913E+03  0.59070783261E+03 -0.19000055355E+04  0.20057308746E+04  0.50400001928E-02 0.  1.
       -1    1    3    3    0  502  0.25298134913E+03 -0.59070783261E+03  0.14298666601E+04  0.15676268600E+04  0.50400001928E-02 0. -1.
</event>
<event>
 5   0  0.9878977E-07  0.3674853E+04  0.7818609E-02  0.8073558E-01
       -2   -1    0    0    0  501  0.00000000000E+00  0.00000000000E+00  0.14610450325E+04  0.14610450325E+04  0.25500000920E-02 0. -1.
        2   -1    0    0  501    0  0.00000000000E+00  0.00000000000E+00 -0.23107678409E+04  0.23107678409E+04  0.25500000920E-02 0.  1.
    10030    2    1    2    0    0  0.00000000000E+00  0.00000000000E+00 -0.84972280839E+03  0.37718128734E+04  0.36748528543E+04 0.  0.
        5    1    3    3  502    0 -0.16871747207E+04 -0.46671551415E+03 -0.99792232177E+03  0.20150069379E+04  0.46999998093E+01 0.  1.
       -5    1    3    3    0  502  0.16871747207E+04  0.46671551415E+03  0.14819951339E+03  0.17568059355E+04  0.46999998093E+01 0. -1.
</event>
<event>
 5   0  0.9538919E-07  0.3685582E+04  0.7818609E-02  0.8071165E-01
       -2   -1    0    0    0  501  0.00000000000E+00  0.00000000000E+00  0.19930645305E+04  0.19930645305E+04  0.25500000920E-02 0.  1.
        2   -1    0    0  501    0  0.00000000000E+00  0.00000000000E+00 -0.17038480283E+04  0.17038480283E+04  0.25500000920E-02 0. -1.
    10030    2    1    2    0    0  0.00000000000E+00  0.00000000000E+00  0.28921650225E+03  0.36969125588E+04  0.36855822176E+04 0.  0.
        4    1    3    3  502    0 -0.59208083854E+03 -0.15667040667E+04 -0.62636122541E+03  0.17881418706E+04  0.12699999809E+01 0. -1.
       -4    1    3    3    0  502  0.59208083854E+03  0.15667040667E+04  0.91557772766E+03  0.19087706882E+04  0.12699999809E+01 0.  1.
</event>
<event>
 5   0  0.1031659E-06  0.3381381E+04  0.7818609E-02  0.8142491E-01
       -2   -1    0    0    0  501  0.00000000000E+00  0.00000000000E+00  0.11380940107E+04  0.11380940107E+04  0.25500000920E-02 0.  1.
        2   -1    0    0  501    0  0.00000000000E+00  0.00000000000E+00 -0.25115971133E+04  0.25115971133E+04  0.25500000920E-02 0. -1.
    10030    2    1    2    0    0  0.00000000000E+00  0.00000000000E+00 -0.13735031026E+04  0.36496911240E+04  0.33813805654E+04 0.  0.
        2    1    3    3  502    0  0.78109853955E+03  0.14603115842E+03  0.92397398516E+03  0.12186746707E+04  0.25500000920E-02 0.  1.
       -2    1    3    3    0  502 -0.78109853955E+03 -0.14603115842E+03 -0.22974770877E+04  0.24310164533E+04  0.25500000920E-02 0. -1.
</event>
<event>
 5   0  0.9878977E-07  0.3393455E+04  0.7818609E-02  0.8139515E-01
        2   -1    0    0  501    0  0.00000000000E+00  0.00000000000E+00  0.23212077980E+04  0.23212077980E+04  0.25500000920E-02 0.  1.
       -2   -1    0    0    0  501  0.00000000000E+00  0.00000000000E+00 -0.12402525247E+04  0.12402525247E+04  0.25500000920E-02 0. -1.
    10030    2    1    2    0    0  0.00000000000E+00  0.00000000000E+00  0.10809552732E+04  0.35614603227E+04  0.33934547776E+04 0.  0.
        5    1    3    3  502    0  0.36769682165E+03 -0.73320648459E+02 -0.11962245772E+04  0.12536156505E+04  0.46999998093E+01 0. -1.
       -5    1    3    3    0  502 -0.36769682165E+03  0.73320648459E+02  0.22771798504E+04  0.23078446722E+04  0.46999998093E+01 0.  1.
</event>
<event>
 5   0  0.9878977E-07  0.3626929E+04  0.7818609E-02  0.8084351E-01
        2   -1    0    0  501    0  0.00000000000E+00  0.00000000000E+00  0.11806899047E+04  0.11806899047E+04  0.25500000920E-02 0. -1.
       -2   -1    0    0    0  501  0.00000000000E+00  0.00000000000E+00 -0.27853654363E+04  0.27853654363E+04  0.25500000920E-02 0.  1.
    10030    2    1    2    0    0  0.00000000000E+00  0.00000000000E+00 -0.16046755316E+04  0.39660553410E+04  0.36269286464E+04 0.  0.
        5    1    3    3  502    0 -0.13331901442E+04  0.11653053328E+04 -0.37419520457E+03  0.18098001603E+04  0.46999998093E+01 0. -1.
       -5    1    3    3    0  502  0.13331901442E+04 -0.11653053328E+04 -0.12304803270E+04  0.21562551807E+04  0.46999998093E+01 0.  1.
</event>
<event>
 5   0  0.3159875E-07  0.3517469E+04  0.7818609E-02  0.8109663E-01
       -1   -1    0    0    0  501  0.00000000000E+00  0.00000000000E+00  0.24619653320E+04  0.24619653320E+04  0.50400001928E-02 0. -1.
        1   -1    0    0  501    0  0.00000000000E+00  0.00000000000E+00 -0.12563729722E+04  0.12563729723E+04  0.50400001928E-02 0.  1.
    10030    2    1    2    0    0  0.00000000000E+00  0.00000000000E+00  0.12055923597E+04  0.37183383042E+04  0.35174688068E+04 0.  0.
        2    1    3    3  502    0 -0.97724918883E+03  0.91792255543E+02 -0.93989274413E+03  0.13589849763E+04  0.25500000920E-02 0.  1.
       -2    1    3    3    0  502  0.97724918883E+03 -0.91792255543E+02  0.21454851039E+04  0.23593533280E+04  0.25500000920E-02 0. -1.
</event>
<event>
 5   0  0.3159875E-07  0.3574761E+04  0.7818609E-02  0.8096298E-01
       -1   -1    0    0    0  501  0.00000000000E+00  0.00000000000E+00  0.10137577993E+04  0.10137577993E+04  0.50400001928E-02 0.  1.
        1   -1    0    0  501    0  0.00000000000E+00  0.00000000000E+00 -0.31513730436E+04  0.31513730436E+04  0.50400001928E-02 0. -1.
    10030    2    1    2    0    0  0.00000000000E+00  0.00000000000E+00 -0.21376152443E+04  0.41651308430E+04  0.35747609719E+04 0.  0.
        2    1    3    3  502    0 -0.12083991761E+04 -0.10921605087E+04 -0.21126564349E+03  0.16424604463E+04  0.25500000920E-02 0.  1.
       -2    1    3    3    0  502  0.12083991761E+04  0.10921605087E+04 -0.19263496009E+04  0.25226703967E+04  0.25500000920E-02 0. -1.
</event>
<event>
 5   0  0.3159875E-07  0.3659740E+04  0.7818609E-02  0.8076943E-01
       -1   -1    0    0    0  501  0.00000000000E+00  0.00000000000E+00  0.15114823887E+04  0.15114823887E+04  0.50400001928E-02 0.  1.
        1   -1    0    0  501    0  0.00000000000E+00  0.00000000000E+00 -0.22153244849E+04  0.22153244849E+04  0.50400001928E-02 0. -1.
    10030    2    1    2    0    0  0.00000000000E+00  0.00000000000E+00 -0.70384209618E+03  0.37268068736E+04  0.36597398509E+04 0.  0.
        2    1    3    3  502    0  0.29452393506E+03  0.18013300634E+04 -0.48426263445E+03  0.18883973747E+04  0.25500000920E-02 0. -1.
       -2    1    3    3    0  502 -0.29452393506E+03 -0.18013300634E+04 -0.21957946174E+03  0.18384094989E+04  0.25500000920E-02 0.  1.
</event>
<event>
 5   0  0.3159875E-07  0.2770820E+04  0.7818609E-02  0.8312385E-01
        1   -1    0    0  501    0  0.00000000000E+00  0.00000000000E+00  0.20940960998E+04  0.20940960998E+04  0.50400001928E-02 0.  1.
       -1   -1    0    0    0  501  0.00000000000E+00  0.00000000000E+00 -0.91655832306E+03  0.91655832308E+03  0.50400001928E-02 0. -1.
    10030    2    1    2    0    0  0.00000000000E+00  0.00000000000E+00  0.11775377768E+04  0.30106544229E+04  0.27708202465E+04 0.  0.
        5    1    3    3  502    0  0.11399185586E+04 -0.72866897093E+03  0.26467906526E+03  0.13785680567E+04  0.46999998093E+01 0. -1.
       -5    1    3    3    0  502 -0.11399185586E+04  0.72866897093E+03  0.91285871150E+03  0.16320863662E+04  0.46999998093E+01 0.  1.
</event>
<event>
 5   0  0.9878336E-07  0.3613662E+04  0.7818609E-02  0.8087369E-01
       -2   -1    0    0    0  501  0.00000000000E+00  0.00000000000E+00  0.11287697608E+04  0.11287697608E+04  0.25500000920E-02 0.  1.
        2   -1    0    0  501    0  0.00000000000E+00  0.00000000000E+00 -0.28922085701E+04  0.28922085701E+04  0.25500000920E-02 0. -1.
    10030    2    1    2    0    0  0.00000000000E+00  0.00000000000E+00 -0.17634388093E+04  0.40209783308E+04  0.36136616199E+04 0.  0.
        3    1    3    3  502    0  0.13097426726E+04 -0.80122954566E+03  0.17813459124E+03  0.15456799785E+04  0.10100000352E+00 0.  1.
       -3    1    3    3    0  502 -0.13097426726E+04  0.80122954566E+03 -0.19415734005E+04  0.24752983523E+04  0.10100000352E+00 0. -1.
</event>
<event>
 5   0  0.3365378E-07  0.3531337E+04  0.7818609E-02  0.8106403E-01
       -1   -1    0    0    0  501  0.00000000000E+00  0.00000000000E+00  0.15284403242E+04  0.15284403242E+04  0.50400001928E-02 0. -1.
        1   -1    0    0  501    0  0.00000000000E+00  0.00000000000E+00 -0.20397161807E+04  0.20397161807E+04  0.50400001928E-02 0.  1.
    10030    2    1    2    0    0  0.00000000000E+00  0.00000000000E+00 -0.51127585651E+03  0.35681565049E+04  0.35313365518E+04 0.  0.
        3    1    3    3  502    0  0.52377984268E+03  0.88159813797E+03  0.11967159561E+04  0.15759726172E+04  0.10100000352E+00 0. -1.
       -3    1    3    3    0  502 -0.52377984268E+03 -0.88159813797E+03 -0.17079918126E+04  0.19921838877E+04  0.10100000352E+00 0.  1.
</event>
<event>
 5   0  0.3159875E-07  0.3623913E+04  0.7818609E-02  0.8085036E-01
        1   -1    0    0  501    0  0.00000000000E+00  0.00000000000E+00  0.17266580186E+04  0.17266580186E+04  0.50400001928E-02 0.  1.
       -1   -1    0    0    0  501  0.00000000000E+00  0.00000000000E+00 -0.19014685487E+04  0.19014685487E+04  0.50400001928E-02 0. -1.
    10030    2    1    2    0    0  0.00000000000E+00  0.00000000000E+00 -0.17481053009E+03  0.36281265673E+04  0.36239127565E+04 0.  0.
        2    1    3    3  502    0  0.17369949915E+04  0.51271805147E+03 -0.14363564911E+03  0.18167725781E+04  0.25500000920E-02 0. -1.
       -2    1    3    3    0  502 -0.17369949915E+04 -0.51271805147E+03 -0.31174880972E+02  0.18113539892E+04  0.25500000920E-02 0.  1.
</event>
<event>
 5   0  0.3159875E-07  0.3428444E+04  0.7818609E-02  0.8130960E-01
       -1   -1    0    0    0  501  0.00000000000E+00  0.00000000000E+00  0.15072521417E+04  0.15072521418E+04  0.50400001928E-02 0. -1.
        1   -1    0    0  501    0  0.00000000000E+00  0.00000000000E+00 -0.19496125263E+04  0.19496125263E+04  0.50400001928E-02 0.  1.
    10030    2    1    2    0    0  0.00000000000E+00  0.00000000000E+00 -0.44236038459E+03  0.34568646681E+04  0.34284443445E+04 0.  0.
        5    1    3    3  502    0 -0.13562255892E+04  0.25802371635E+03  0.80341838451E+03  0.15973187777E+04  0.46999998093E+01 0. -1.
       -5    1    3    3    0  502  0.13562255892E+04 -0.25802371635E+03 -0.12457787691E+04  0.18595458904E+04  0.46999998093E+01 0.  1.
</event>
<event>
 5   0  0.1031659E-06  0.3629898E+04  0.7818609E-02  0.8083677E-01
        2   -1    0    0  501    0  0.00000000000E+00  0.00000000000E+00  0.22859286426E+04  0.22859286426E+04  0.25500000920E-02 0.  1.
       -2   -1    0    0    0  501  0.00000000000E+00  0.00000000000E+00 -0.14410072009E+04  0.14410072009E+04  0.25500000920E-02 0. -1.
    10030    2    1    2    0    0  0.00000000000E+00  0.00000000000E+00  0.84492144178E+03  0.37269358435E+04  0.36298978689E+04 0.  0.
        2    1    3    3  502    0  0.15844084878E+04 -0.31331511902E+03 -0.42763637149E+03  0.16707451889E+04  0.25500000920E-02 0. -1.
       -2    1    3    3    0  502 -0.15844084878E+04  0.31331511902E+03  0.12725578133E+04  0.20561906546E+04  0.25500000920E-02 0.  1.
</event>
<event>
 5   0  0.9538919E-07  0.3013746E+04  0.7818609E-02  0.8239816E-01
       -2   -1    0    0    0  501  0.00000000000E+00  0.00000000000E+00  0.89270736526E+03  0.89270736526E+03  0.25500000920E-02 0. -1.
        2   -1    0    0  501    0  0.00000000000E+00  0.00000000000E+00 -0.25435736308E+04  0.25435736308E+04  0.25500000920E-02 0.  1.
    10030    2    1    2    0    0  0.00000000000E+00  0.00000000000E+00 -0.16508662656E+04  0.34362809961E+04  0.30137464488E+04 0.  0.
        4    1    3    3  502    0 -0.32172687431E+03  0.28552809946E+03 -0.24720807767E+04  0.25092268643E+04  0.12699999809E+01 0.  1.
       -4    1    3    3    0  502  0.32172687431E+03 -0.28552809946E+03  0.82121451107E+03  0.92705413182E+03  0.12699999809E+01 0. -1.
</event>
<event>
 5   0  0.3365378E-07  0.3451050E+04  0.7818609E-02  0.8125489E-01
        1   -1    0    0  501    0  0.00000000000E+00  0.00000000000E+00  0.26735521395E+04  0.26735521395E+04  0.50400001928E-02 0.  1.
       -1   -1    0    0    0  501  0.00000000000E+00  0.00000000000E+00 -0.11136633330E+04  0.11136633330E+04  0.50400001928E-02 0. -1.
    10030    2    1    2    0    0  0.00000000000E+00  0.00000000000E+00  0.15598888065E+04  0.37872154725E+04  0.34510502672E+04 0.  0.
        3    1    3    3  502    0 -0.36656570635E+03  0.59106804988E+03  0.25129153355E+04  0.26073886074E+04  0.10100000352E+00 0.  1.
       -3    1    3    3    0  502  0.36656570635E+03 -0.59106804988E+03 -0.95302652891E+03  0.11798268651E+04  0.10100000352E+00 0. -1.
</event>
<event>
 5   0  0.1031659E-06  0.3626277E+04  0.7818609E-02  0.8084499E-01
       -2   -1    0    0    0  501  0.00000000000E+00  0.00000000000E+00  0.20708929089E+04  0.20708929089E+04  0.25500000920E-02 0. -1.
        2   -1    0    0  501    0  0.00000000000E+00  0.00000000000E+00 -0.15874655190E+04  0.15874655190E+04  0.25500000920E-02 0.  1.
    10030    2    1    2    0    0  0.00000000000E+00  0.00000000000E+00  0.48342738993E+03  0.36583584278E+04  0.36262769262E+04 0.  0.
        2    1    3    3  502    0 -0.90073459344E+03  0.91566461331E+03 -0.10493371182E+04  0.16585755573E+04  0.25500000920E-02 0.  1.
       -2    1    3    3    0  502  0.90073459344E+03 -0.91566461331E+03  0.15327645081E+04  0.19997828705E+04  0.25500000920E-02 0. -1.
</event>
<event>
 5   0  0.3159875E-07  0.2570619E+04  0.7818609E-02  0.8378250E-01
        1   -1    0    0  501    0  0.00000000000E+00  0.00000000000E+00  0.12072725393E+04  0.12072725394E+04  0.50400001928E-02 0. -1.
       -1   -1    0    0    0  501  0.00000000000E+00  0.00000000000E+00 -0.13683909891E+04  0.13683909891E+04  0.50400001928E-02 0.  1.
    10030    2    1    2    0    0  0.00000000000E+00  0.00000000000E+00 -0.16111844971E+03  0.25756635284E+04  0.25706192750E+04 0.  0.
        5    1    3    3  502    0  0.10444327943E+04  0.47929724596E+03 -0.65739114314E+03  0.13239149961E+04  0.46999998093E+01 0.  1.
       -5    1    3    3    0  502 -0.10444327943E+04 -0.47929724596E+03  0.49627269343E+03  0.12517485323E+04  0.46999998093E+01 0. -1.
</event>
<event>
 5   0  0.3278988E-07  0.2941004E+04  0.7818609E-02  0.8260781E-01
        1   -1    0    0  501    0  0.00000000000E+00  0.00000000000E+00  0.12611580435E+04  0.12611580435E+04  0.50400001928E-02 0. -1.
       -1   -1    0    0    0  501  0.00000000000E+00  0.00000000000E+00 -0.17145951464E+04  0.17145951464E+04  0.50400001928E-02 0.  1.
    10030    2    1    2    0    0  0.00000000000E+00  0.00000000000E+00 -0.45343710291E+03  0.29757531899E+04  0.29410035431E+04 0.  0.
        4    1    3    3  502    0  0.16766588423E+03  0.27138026019E+02 -0.17046363580E+04  0.17130776536E+04  0.12699999809E+01 0.  1.
       -4    1    3    3    0  502 -0.16766588423E+03 -0.27138026019E+02  0.12511992551E+04  0.12626755363E+04  0.12699999809E+01 0. -1.
</event>
<event>
 5   0  0.3159875E-07  0.3615558E+04  0.7818609E-02  0.8086937E-01
       -1   -1    0    0    0  501  0.00000000000E+00  0.00000000000E+00  0.15302689117E+04  0.15302689117E+04  0.50400001928E-02 0.  1.
        1   -1    0    0  501    0  0.00000000000E+00  0.00000000000E+00 -0.21356145140E+04  0.21356145140E+04  0.50400001928E-02 0. -1.
    10030    2    1    2    0    0  0.00000000000E+00  0.00000000000E+00 -0.60534560228E+03  0.36658834258E+04  0.36155577707E+04 0.  0.
        2    1    3    3  502    0 -0.29053284170E+02  0.11768356836E+04 -0.16937308353E+04  0.20626464704E+04  0.25500000920E-02 0. -1.
       -2    1    3    3    0  502  0.29053284170E+02 -0.11768356836E+04  0.10883852331E+04  0.16032369553E+04  0.25500000920E-02 0.  1.
</event>
<event>
 5   0  0.3159875E-07  0.3206545E+04  0.7818609E-02  0.8187091E-01
        1   -1    0    0  501    0  0.00000000000E+00  0.00000000000E+00  0.16190709077E+04  0.16190709077E+04  0.50400001928E-02 0. -1.
       -1   -1    0    0    0  501  0.00000000000E+00  0.00000000000E+00 -0.15876285540E+04  0.15876285540E+04  0.50400001928E-02 0.  1.
    10030    2    1    2    0    0  0.00000000000E+00  0.00000000000E+00  0.31442353654E+02  0.32066994617E+04  0.32065453086E+04 0.  0.
        5    1    3    3  502    0 -0.98752988261E+03  0.12500730288E+04  0.19618280340E+03  0.16051191945E+04  0.46999998093E+01 0.  1.
       -5    1    3    3    0  502  0.98752988261E+03 -0.12500730288E+04 -0.16474044975E+03  0.16015802671E+04  0.46999998093E+01 0. -1.
</event>
<event>
 5   0  0.3242047E-07  0.3608742E+04  0.7818609E-02  0.8088492E-01
        1   -1    0    0  501    0  0.00000000000E+00  0.00000000000E+00  0.10222979250E+04  0.10222979250E+04  0.50400001928E-02 0. -1.
       -1   -1    0    0    0  501  0.00000000000E+00  0.00000000000E+00 -0.31847424562E+04  0.31847424562E+04  0.50400001928E-02 0.  1.
    10030    2    1    2    0    0  0.00000000000E+00  0.00000000000E+00 -0.21624445312E+04  0.42070403812E+04  0.36087424982E+04 0.  0.
        1    1    3    3  502    0 -0.14884640325E+03 -0.31890166919E+03 -0.31443440938E+04  0.31639774504E+04  0.50400001928E-02 0.  1.
       -1    1    3    3    0  502  0.14884640325E+03  0.31890166919E+03  0.98189956265E+03  0.10430629308E+04  0.50400001928E-02 0. -1.
</event>
<event>
 5   0  0.9878336E-07  0.3580539E+04  0.7818609E-02  0.8094964E-01
       -2   -1    0    0    0  501  0.00000000000E+00  0.00000000000E+00  0.19946797302E+04  0.19946797302E+04  0.25500000920E-02 0.  1.
        2   -1    0    0  501    0  0.00000000000E+00  0.00000000000E+00 -0.16068071857E+04  0.16068071857E+04  0.25500000920E-02 0. -1.
    10030    2    1    2    0    0  0.00000000000E+00  0.00000000000E+00  0.38787254448E+03  0.36014869160E+04  0.35805394699E+04 0.  0.
        3    1    3    3  502    0  0.61813487158E+02  0.12563682012E+04  0.14752742571E+04  0.19387408563E+04  0.10100000352E+00 0.  1.
       -3    1    3    3    0  502 -0.61813487158E+02 -0.12563682012E+04 -0.10874017126E+04  0.16627460597E+04  0.10100000352E+00 0. -1.
</event>
<event>
 5   0  0.9878336E-07  0.3463872E+04  0.7818609E-02  0.8122406E-01
        2   -1    0    0  501    0  0.00000000000E+00  0.00000000000E+00  0.21337860428E+04  0.21337860428E+04  0.25500000920E-02 0.  1.
       -2   -1    0    0    0  501  0.00000000000E+00  0.00000000000E+00 -0.14057652345E+04  0.14057652345E+04  0.25500000920E-02 0. -1.
    10030    2    1    2    0    0  0.00000000000E+00  0.00000000000E+00  0.72802080836E+03  0.35395512773E+04  0.34638719588E+04 0.  0.
        3    1    3    3  502    0  0.15271754352E+04 -0.74794285867E+03  0.28322937333E+02  0.17007308808E+04  0.10100000352E+00 0. -1.
       -3    1    3    3    0  502 -0.15271754352E+04  0.74794285867E+03  0.69969787103E+03  0.18388203965E+04  0.10100000352E+00 0.  1.
</event>
<event>
 5   0  0.3159875E-07  0.3594818E+04  0.7818609E-02  0.8091680E-01
        1   -1    0    0  501    0  0.00000000000E+00  0.00000000000E+00  0.26956886877E+04  0.26956886877E+04  0.50400001928E-02 0. -1.
       -1   -1    0    0    0  501  0.00000000000E+00  0.00000000000E+00 -0.11984617805E+04  0.11984617805E+04  0.50400001928E-02 0.  1.
    10030    2    1    2    0    0  0.00000000000E+00  0.00000000000E+00  0.14972269072E+04  0.38941504682E+04  0.35948184179E+04 0.  0.
        5    1    3    3  502    0  0.10596215228E+04  0.45601787937E+03 -0.74453167386E+03  0.13729892867E+04  0.46999998093E+01 0.  1.
       -5    1    3    3    0  502 -0.10596215228E+04 -0.45601787937E+03  0.22417585810E+04  0.25211611816E+04  0.46999998093E+01 0. -1.
</event>
<event>
 5   0  0.3365378E-07  0.3620406E+04  0.7818609E-02  0.8085833E-01
       -1   -1    0    0    0  501  0.00000000000E+00  0.00000000000E+00  0.16888592840E+04  0.16888592840E+04  0.50400001928E-02 0.  1.
        1   -1    0    0  501    0  0.00000000000E+00  0.00000000000E+00 -0.19402655826E+04  0.19402655826E+04  0.50400001928E-02 0. -1.
    10030    2    1    2    0    0  0.00000000000E+00  0.00000000000E+00 -0.25140629868E+03  0.36291248666E+04  0.36204063543E+04 0.  0.
        3    1    3    3  502    0 -0.44915699588E+03 -0.76343349845E+03  0.14567888095E+04  0.17049358813E+04  0.10100000352E+00 0.  1.
       -3    1    3    3    0  502  0.44915699588E+03  0.76343349845E+03 -0.17081951082E+04  0.19241889854E+04  0.10100000352E+00 0. -1.
</event>
<event>
 5   0  0.3365378E-07  0.3627355E+04  0.7818609E-02  0.8084254E-01
        1   -1    0    0  501    0  0.00000000000E+00  0.00000000000E+00  0.25474294892E+04  0.25474294892E+04  0.50400001928E-02 0.  1.
       -1   -1    0    0    0  501  0.00000000000E+00  0.00000000000E+00 -0.12912727434E+04  0.12912727434E+04  0.50400001928E-02 0. -1.
    10030    2    1    2    0    0  0.00000000000E+00  0.00000000000E+00  0.12561567457E+04  0.38387022326E+04  0.36273551054E+04 0.  0.
        3    1    3    3  502    0  0.11881543982E+04 -0.12895121886E+04  0.11186314219E+04  0.20798771181E+04  0.10100000352E+00 0. -1.
       -3    1    3    3    0  502 -0.11881543982E+04  0.12895121886E+04  0.13752532386E+03  0.17588251144E+04  0.10100000352E+00 0.  1.
</event>
<event>
 5   0  0.1031659E-06  0.3552829E+04  0.7818609E-02  0.8101383E-01
        2   -1    0    0  501    0  0.00000000000E+00  0.00000000000E+00  0.31236709401E+04  0.31236709401E+04  0.25500000920E-02 0.  1.
       -2   -1    0    0    0  501  0.00000000000E+00  0.00000000000E+00 -0.10102369126E+04  0.10102369126E+04  0.25500000920E-02 0. -1.
    10030    2    1    2    0    0  0.00000000000E+00  0.00000000000E+00  0.21134340275E+04  0.41339078527E+04  0.35528285556E+04 0.  0.
        2    1    3    3  502    0  0.55831789917E+03 -0.98739760691E+02  0.30155625869E+04  0.30684012339E+04  0.25500000920E-02 0.  1.
       -2    1    3    3    0  502 -0.55831789917E+03  0.98739760691E+02 -0.90212855939E+03  0.10655066187E+04  0.25500000920E-02 0. -1.
</event>
<event>
 5   0  0.1031659E-06  0.3414145E+04  0.7818609E-02  0.8134443E-01
        2   -1    0    0  501    0  0.00000000000E+00  0.00000000000E+00  0.19658775599E+04  0.19658775599E+04  0.25500000920E-02 0. -1.
       -2   -1    0    0    0  501  0.00000000000E+00  0.00000000000E+00 -0.14823386152E+04  0.14823386152E+04  0.25500000920E-02 0.  1.
    10030    2    1    2    0    0  0.00000000000E+00  0.00000000000E+00  0.48353894470E+03  0.34482161752E+04  0.34141448241E+04 0.  0.
        2    1    3    3  502    0 -0.50975197754E+03 -0.21641877181E+03  0.18726320974E+04  0.19528018680E+04  0.25500000920E-02 0. -1.
       -2    1    3    3    0  502  0.50975197754E+03  0.21641877181E+03 -0.13890931527E+04  0.14954143072E+04  0.25500000920E-02 0.  1.
</event>
<event>
 5   0  0.3278988E-07  0.3628448E+04  0.7818609E-02  0.8084006E-01
        1   -1    0    0  501    0  0.00000000000E+00  0.00000000000E+00  0.16085664037E+04  0.16085664037E+04  0.50400001928E-02 0.  1.
       -1   -1    0    0    0  501  0.00000000000E+00  0.00000000000E+00 -0.20461751759E+04  0.20461751759E+04  0.50400001928E-02 0. -1.
    10030    2    1    2    0    0  0.00000000000E+00  0.00000000000E+00 -0.43760877216E+03  0.36547415796E+04  0.36284479569E+04 0.  0.
        4    1    3    3  502    0 -0.86876594828E+03 -0.96010024023E+03  0.10611758181E+04  0.16741094570E+04  0.12699999809E+01 0.  1.
       -4    1    3    3    0  502  0.86876594828E+03  0.96010024023E+03 -0.14987845902E+04  0.19806321226E+04  0.12699999809E+01 0. -1.
</event>
<event>
 5   0  0.1006019E-06  0.3615163E+04  0.7818609E-02  0.8087027E-01
        2   -1    0    0  501    0  0.00000000000E+00  0.00000000000E+00  0.26096806919E+04  0.26096806919E+04  0.25500000920E-02 0.  1.
       -2   -1    0    0    0  501  0.00000000000E+00  0.00000000000E+00 -0.12520115939E+04  0.12520115939E+04  0.25500000920E-02 0. -1.
    10030    2    1    2    0    0  0.00000000000E+00  0.00000000000E+00  0.13576690980E+04  0.38616922858E+04  0.36151627807E+04 0.  0.
        1    1    3    3  502    0  0.49352155209E+03 -0.16959317218E+04  0.26844457193E+03  0.17865638571E+04  0.50400001928E-02 0.  1.
       -1    1    3    3    0  502 -0.49352155209E+03  0.16959317218E+04  0.10892245261E+04  0.20751284287E+04  0.50400001928E-02 0. -1.
</event>
<event>
 5   0  0.9878977E-07  0.3580115E+04  0.7818609E-02  0.8095062E-01
        2   -1    0    0  501    0  0.00000000000E+00  0.00000000000E+00  0.19582028498E+04  0.19582028498E+04  0.25500000920E-02 0.  1.
       -2   -1    0    0    0  501  0.00000000000E+00  0.00000000000E+00 -0.16363506932E+04  0.16363506932E+04  0.25500000920E-02 0. -1.
    10030    2    1    2    0    0  0.00000000000E+00  0.00000000000E+00  0.32185215655E+03  0.35945535430E+04  0.35801154120E+04 0.  0.
        5    1    3    3  502    0  0.42920289076E+03 -0.36823307578E+03  0.18661492588E+04  0.19499604780E+04  0.46999998093E+01 0.  1.
       -5    1    3    3    0  502 -0.42920289076E+03  0.36823307578E+03 -0.15442971023E+04  0.16445930650E+04  0.46999998093E+01 0. -1.
</event>
<event>
 5   0  0.9878977E-07  0.3587690E+04  0.7818609E-02  0.8093317E-01
       -2   -1    0    0    0  501  0.00000000000E+00  0.00000000000E+00  0.13148456509E+04  0.13148456509E+04  0.25500000920E-02 0.  1.
        2   -1    0    0  501    0  0.00000000000E+00  0.00000000000E+00 -0.24473447233E+04  0.24473447233E+04  0.25500000920E-02 0. -1.
    10030    2    1    2    0    0  0.00000000000E+00  0.00000000000E+00 -0.11324990723E+04  0.37621903742E+04  0.35876903800E+04 0.  0.
        5    1    3    3  502    0 -0.15234905018E+04  0.80545160864E+03 -0.10885545599E+04  0.20383200737E+04  0.46999998093E+01 0. -1.
       -5    1    3    3    0  502  0.15234905018E+04 -0.80545160864E+03 -0.43944512426E+02  0.17238703005E+04  0.46999998093E+01 0.  1.
</event>
<event>
 5   0  0.1031659E-06  0.3598857E+04  0.7818609E-02  0.8090754E-01
       -2   -1    0    0    0  501  0.00000000000E+00  0.00000000000E+00  0.18330770904E+04  0.18330770904E+04  0.25500000920E-02 0. -1.
        2   -1    0    0  501    0  0.00000000000E+00  0.00000000000E+00 -0.17663977469E+04  0.17663977469E+04  0.25500000920E-02 0.  1.
    10030    2    1    2    0    0  0.00000000000E+00  0.00000000000E+00  0.66679343562E+02  0.35994748373E+04  0.35988571755E+04 0.  0.
        2    1    3    3  502    0  0.14983627409E+03  0.36251702943E+03  0.17897941829E+04  0.18322752857E+04  0.25500000920E-02 0. -1.
       -2    1    3    3    0  502 -0.14983627409E+03 -0.36251702943E+03 -0.17231148393E+04  0.17671995516E+04  0.25500000920E-02 0.  1.
</event>
<event>
 5   0  0.3159875E-07  0.3636079E+04  0.7818609E-02  0.8082277E-01
        3   -1    0    0  501    0  0.00000000000E+00  0.00000000000E+00  0.32860733858E+04  0.32860733874E+04  0.10100000352E+00 0. -1.
       -3   -1    0    0    0  501  0.00000000000E+00  0.00000000000E+00 -0.10058410048E+04  0.10058410099E+04  0.10100000352E+00 0.  1.
    10030    2    1    2    0    0  0.00000000000E+00  0.00000000000E+00  0.22802323810E+04  0.42919143972E+04  0.36360788608E+04 0.  0.
        2    1    3    3  502    0 -0.78940264232E+03 -0.37990281329E+03  0.30204941157E+04  0.31449749415E+04  0.25500000920E-02 0. -1.
       -2    1    3    3    0  502  0.78940264232E+03  0.37990281329E+03 -0.74026173472E+03  0.11469394557E+04  0.25500000920E-02 0.  1.
</event>
<event>
 5   0  0.9878336E-07  0.3618138E+04  0.7818609E-02  0.8086350E-01
       -2   -1    0    0    0  501  0.00000000000E+00  0.00000000000E+00  0.17010348715E+04  0.17010348715E+04  0.25500000920E-02 0.  1.
        2   -1    0    0  501    0  0.00000000000E+00  0.00000000000E+00 -0.19239641136E+04  0.19239641136E+04  0.25500000920E-02 0. -1.
    10030    2    1    2    0    0  0.00000000000E+00  0.00000000000E+00 -0.22292924207E+03  0.36249989851E+04  0.36181376694E+04 0.  0.
        3    1    3    3  502    0 -0.13962672272E+03  0.43274693321E+03  0.16428454770E+04  0.17046133877E+04  0.10100000352E+00 0.  1.
       -3    1    3    3    0  502  0.13962672272E+03 -0.43274693321E+03 -0.18657747191E+04  0.19203855974E+04  0.10100000352E+00 0. -1.
</event>
<event>
 5   0  0.3365378E-07  0.3628205E+04  0.7818609E-02  0.8084061E-01
        1   -1    0    0  501    0  0.00000000000E+00  0.00000000000E+00  0.19460981130E+04  0.19460981130E+04  0.50400001928E-02 0.  1.
       -1   -1    0    0    0  501  0.00000000000E+00  0.00000000000E+00 -0.16910598179E+04  0.16910598179E+04  0.50400001928E-02 0. -1.
    10030    2    1    2    0    0  0.00000000000E+00  0.00000000000E+00  0.25503829512E+03  0.36371579309E+04  0.36282052426E+04 0.  0.
        3    1    3    3  502    0  0.10951590854E+04 -0.66964854547E+03  0.14125424253E+04  0.19086850736E+04  0.10100000352E+00 0.  1.
       -3    1    3    3    0  502 -0.10951590854E+04  0.66964854547E+03 -0.11575041302E+04  0.17284728573E+04  0.10100000352E+00 0. -1.
</event>
<event>
 5   0  0.9538919E-07  0.3536018E+04  0.7818609E-02  0.8105307E-01
       -2   -1    0    0    0  501  0.00000000000E+00  0.00000000000E+00  0.10803777515E+04  0.10803777515E+04  0.25500000920E-02 0.  1.
        2   -1    0    0  501    0  0.00000000000E+00  0.00000000000E+00 -0.28932990024E+04  0.28932990024E+04  0.25500000920E-02 0. -1.
    10030    2    1    2    0    0  0.00000000000E+00  0.00000000000E+00 -0.18129212509E+04  0.39736767539E+04  0.35360180263E+04 0.  0.
        4    1    3    3  502    0  0.44850704488E+03 -0.65764009500E+02  0.10139631005E+04  0.11106782866E+04  0.12699999809E+01 0.  1.
       -4    1    3    3    0  502 -0.44850704488E+03  0.65764009500E+02 -0.28268843514E+04  0.28629984672E+04  0.12699999809E+01 0. -1.
</event>
<event>
 5   0  0.3159875E-07  0.3500655E+04  0.7818609E-02  0.8113635E-01
       -1   -1    0    0    0  501  0.00000000000E+00  0.00000000000E+00  0.15498169060E+04  0.15498169060E+04  0.50400001928E-02 0.  1.
        1   -1    0    0  501    0  0.00000000000E+00  0.00000000000E+00 -0.19767796658E+04  0.19767796658E+04  0.50400001928E-02 0. -1.
    10030    2    1    2    0    0  0.00000000000E+00  0.00000000000E+00 -0.42696275972E+03  0.35265965718E+04  0.35006551076E+04 0.  0.
        2    1    3    3  502    0 -0.45320048184E+03  0.13587427224E+04 -0.12269553705E+04  0.18859989246E+04  0.25500000920E-02 0.  1.
       -2    1    3    3    0  502  0.45320048184E+03 -0.13587427224E+04  0.79999261082E+03  0.16405976472E+04  0.25500000920E-02 0. -1.
</event>
<event>
 5   0  0.3242047E-07  0.3623024E+04  0.7818609E-02  0.8085238E-01
        1   -1    0    0  501    0  0.00000000000E+00  0.00000000000E+00  0.13514208624E+04  0.13514208624E+04  0.50400001928E-02 0.  1.
       -1   -1    0    0    0  501  0.00000000000E+00  0.00000000000E+00 -0.24282410174E+04  0.24282410174E+04  0.50400001928E-02 0. -1.
    10030    2    1    2    0    0  0.00000000000E+00  0.00000000000E+00 -0.10768201550E+04  0.37796618799E+04  0.36230239138E+04 0.  0.
        1    1    3    3  502    0 -0.28847125045E+03 -0.63609905712E+03 -0.22821213674E+04  0.23866117423E+04  0.50400001928E-02 0. -1.
       -1    1    3    3    0  502  0.28847125045E+03  0.63609905712E+03  0.12053012125E+04  0.13930501375E+04  0.50400001928E-02 0.  1.
</event>
<event>
 5   0  0.9878977E-07  0.3529520E+04  0.7818609E-02  0.8106829E-01
        2   -1    0    0  501    0  0.00000000000E+00  0.00000000000E+00  0.16938255402E+04  0.16938255402E+04  0.25500000920E-02 0. -1.
       -2   -1    0    0    0  501  0.00000000000E+00  0.00000000000E+00 -0.18386654040E+04  0.18386654040E+04  0.25500000920E-02 0.  1.
    10030    2    1    2    0    0  0.00000000000E+00  0.00000000000E+00 -0.14483986373E+03  0.35324909442E+04  0.35295203194E+04 0.  0.
        5    1    3    3  502    0  0.83004111943E+03  0.15539003417E+04 -0.17634276930E+03  0.17705065360E+04  0.46999998093E+01 0.  1.
       -5    1    3    3    0  502 -0.83004111943E+03 -0.15539003417E+04  0.31502905575E+02  0.17619844082E+04  0.46999998093E+01 0. -1.
</event>
<event>
 5   0  0.3159875E-07  0.3548574E+04  0.7818609E-02  0.8102374E-01
       -1   -1    0    0    0  501  0.00000000000E+00  0.00000000000E+00  0.11413837419E+04  0.11413837420E+04  0.50400001928E-02 0. -1.
        1   -1    0    0  501    0  0.00000000000E+00  0.00000000000E+00 -0.27581379660E+04  0.27581379660E+04  0.50400001928E-02 0.  1.
    10030    2    1    2    0    0  0.00000000000E+00  0.00000000000E+00 -0.16167542240E+04  0.38995217079E+04  0.35485737036E+04 0.  0.
        5    1    3    3  502    0 -0.14812726636E+04  0.17893142245E+02 -0.18814685599E+04  0.23946680147E+04  0.46999998093E+01 0.  1.
       -5    1    3    3    0  502  0.14812726636E+04 -0.17893142245E+02  0.26471433589E+03  0.15048536933E+04  0.46999998093E+01 0. -1.
</event>
<event>
 5   0  0.9878336E-07  0.3575093E+04  0.7818609E-02  0.8096221E-01
        2   -1    0    0  501    0  0.00000000000E+00  0.00000000000E+00  0.21367212954E+04  0.21367212954E+04  0.25500000920E-02 0. -1.
       -2   -1    0    0    0  501  0.00000000000E+00  0.00000000000E+00 -0.14954323797E+04  0.14954323797E+04  0.25500000920E-02 0.  1.
    10030    2    1    2    0    0  0.00000000000E+00  0.00000000000E+00  0.64128891571E+03  0.36321536751E+04  0.35750928444E+04 0.  0.
        3    1    3    3  502    0 -0.25545751400E+03  0.62637920747E+03 -0.13603676030E+04  0.15192792628E+04  0.10100000352E+00 0.  1.
       -3    1    3    3    0  502  0.25545751400E+03 -0.62637920747E+03  0.20016565187E+04  0.21128744123E+04  0.10100000352E+00 0. -1.
</event>
<event>
 5   0  0.1006019E-06  0.3285589E+04  0.7818609E-02  0.8166572E-01
        2   -1    0    0  501    0  0.00000000000E+00  0.00000000000E+00  0.12465434238E+04  0.12465434238E+04  0.25500000920E-02 0. -1.
       -2   -1    0    0    0  501  0.00000000000E+00  0.00000000000E+00 -0.21650058529E+04  0.21650058529E+04  0.25500000920E-02 0.  1.
    10030    2    1    2    0    0  0.00000000000E+00  0.00000000000E+00 -0.91846242910E+03  0.34115492766E+04  0.32855890238E+04 0.  0.
        1    1    3    3  502    0 -0.14789691765E+04  0.32486787537E+03  0.20228398680E+03  0.15276805205E+04  0.50400001928E-02 0. -1.
       -1    1    3    3    0  502  0.14789691765E+04 -0.32486787537E+03 -0.11207464159E+04  0.18838687561E+04  0.50400001928E-02 0.  1.
</event>
<event>
 5   0  0.3159875E-07  0.3477057E+04  0.7818609E-02  0.8119249E-01
       -1   -1    0    0    0  501  0.00000000000E+00  0.00000000000E+00  0.17086821156E+04  0.17086821156E+04  0.50400001928E-02 0. -1.
        1   -1    0    0  501    0  0.00000000000E+00  0.00000000000E+00 -0.17688958685E+04  0.17688958685E+04  0.50400001928E-02 0.  1.
    10030    2    1    2    0    0  0.00000000000E+00  0.00000000000E+00 -0.60213752874E+02  0.34775779842E+04  0.34770566489E+04 0.  0.
        2    1    3    3  502    0 -0.17309287284E+04 -0.39329045171E+02 -0.18767318532E+03  0.17415172296E+04  0.25500000920E-02 0.  1.
       -2    1    3    3    0  502  0.17309287284E+04  0.39329045171E+02  0.12745943245E+03  0.17360607545E+04  0.25500000920E-02 0. -1.
</event>
<event>
 5   0  0.3159875E-07  0.3478018E+04  0.7818609E-02  0.8119019E-01
        1   -1    0    0  501    0  0.00000000000E+00  0.00000000000E+00  0.17558594203E+04  0.17558594203E+04  0.50400001928E-02 0. -1.
       -1   -1    0    0    0  501  0.00000000000E+00  0.00000000000E+00 -0.17223202258E+04  0.17223202258E+04  0.50400001928E-02 0.  1.
    10030    2    1    2    0    0  0.00000000000E+00  0.00000000000E+00  0.33539194486E+02  0.34781796460E+04  0.34780179374E+04 0.  0.
        2    1    3    3  502    0  0.63050546198E+03  0.10267750548E+04  0.12707609277E+04  0.17511817399E+04  0.25500000920E-02 0. -1.
       -2    1    3    3    0  502 -0.63050546198E+03 -0.10267750548E+04 -0.12372217332E+04  0.17269979062E+04  0.25500000920E-02 0.  1.
</event>
<event>
 5   0  0.9878336E-07  0.3578407E+04  0.7818609E-02  0.8095456E-01
        2   -1    0    0  501    0  0.00000000000E+00  0.00000000000E+00  0.15457528222E+04  0.15457528223E+04  0.25500000920E-02 0.  1.
       -2   -1    0    0    0  501  0.00000000000E+00  0.00000000000E+00 -0.20709971001E+04  0.20709971001E+04  0.25500000920E-02 0. -1.
    10030    2    1    2    0    0  0.00000000000E+00  0.00000000000E+00 -0.52524427785E+03  0.36167499224E+04  0.35784072504E+04 0.  0.
        3    1    3    3  502    0 -0.11998950563E+04 -0.11239019107E+04  0.45087819832E+03  0.17047565254E+04  0.10100000352E+00 0. -1.
       -3    1    3    3    0  502  0.11998950563E+04  0.11239019107E+04 -0.97612247618E+03  0.19119933969E+04  0.10100000352E+00 0.  1.
</event>
<event>
 5   0  0.9878336E-07  0.3581495E+04  0.7818609E-02  0.8094744E-01
       -2   -1    0    0    0  501  0.00000000000E+00  0.00000000000E+00  0.14603359261E+04  0.14603359261E+04  0.25500000920E-02 0. -1.
        2   -1    0    0  501    0  0.00000000000E+00  0.00000000000E+00 -0.21959165994E+04  0.21959165994E+04  0.25500000920E-02 0.  1.
    10030    2    1    2    0    0  0.00000000000E+00  0.00000000000E+00 -0.73558067333E+03  0.36562525255E+04  0.35814946046E+04 0.  0.
        3    1    3    3  502    0 -0.34605172719E+03  0.65748813156E+03 -0.20311353600E+04  0.21627651980E+04  0.10100000352E+00 0.  1.
       -3    1    3    3    0  502  0.34605172719E+03 -0.65748813156E+03  0.12955546866E+04  0.14934873275E+04  0.10100000352E+00 0. -1.
</event>
<event>
 5   0  0.3278988E-07  0.4228133E+04  0.7818609E-02  0.7960042E-01
       -1   -1    0    0    0  501  0.00000000000E+00  0.00000000000E+00  0.22577972810E+04  0.22577972810E+04  0.50400001928E-02 0. -1.
        1   -1    0    0  501    0  0.00000000000E+00  0.00000000000E+00 -0.19794853281E+04  0.19794853281E+04  0.50400001928E-02 0.  1.
    10030    2    1    2    0    0  0.00000000000E+00  0.00000000000E+00  0.27831195291E+03  0.42372826092E+04  0.42281327281E+04 0.  0.
        4    1    3    3  502    0  0.20192683144E+03  0.16012114344E+04  0.15076228091E+04  0.22085245415E+04  0.12699999809E+01 0. -1.
       -4    1    3    3    0  502 -0.20192683144E+03 -0.16012114344E+04 -0.12293108562E+04  0.20287580677E+04  0.12699999809E+01 0.  1.
</event>
<event>
 5   0  0.3278988E-07  0.3704683E+04  0.7818609E-02  0.8066925E-01
       -1   -1    0    0    0  501  0.00000000000E+00  0.00000000000E+00  0.13701186696E+04  0.13701186696E+04  0.50400001928E-02 0.  1.
        1   -1    0    0  501    0  0.00000000000E+00  0.00000000000E+00 -0.25042857971E+04  0.25042857971E+04  0.50400001928E-02 0. -1.
    10030    2    1    2    0    0  0.00000000000E+00  0.00000000000E+00 -0.11341671276E+04  0.38744044667E+04  0.37046828337E+04 0.  0.
        4    1    3    3  502    0 -0.86994555618E+02 -0.13175895101E+04  0.79148994416E+03  0.15395025543E+04  0.12699999809E+01 0.  1.
       -4    1    3    3    0  502  0.86994555618E+02  0.13175895101E+04 -0.19256570717E+04  0.23349019124E+04  0.12699999809E+01 0. -1.
</event>
<event>
 5   0  0.3242047E-07  0.3624105E+04  0.7818609E-02  0.8084992E-01
       -1   -1    0    0    0  501  0.00000000000E+00  0.00000000000E+00  0.15966591646E+04  0.15966591646E+04  0.50400001928E-02 0. -1.
        1   -1    0    0  501    0  0.00000000000E+00  0.00000000000E+00 -0.20565027282E+04  0.20565027282E+04  0.50400001928E-02 0.  1.
    10030    2    1    2    0    0  0.00000000000E+00  0.00000000000E+00 -0.45984356357E+03  0.36531618928E+04  0.36241048152E+04 0.  0.
        1    1    3    3  502    0  0.11883275845E+04 -0.71146914585E+03 -0.14077175471E+04  0.19748365720E+04  0.50400001928E-02 0.  1.
       -1    1    3    3    0  502 -0.11883275845E+04  0.71146914585E+03  0.94787398352E+03  0.16783253208E+04  0.50400001928E-02 0. -1.
</event>
<event>
 5   0  0.3242047E-07  0.3190962E+04  0.7818609E-02  0.8191208E-01
        1   -1    0    0  501    0  0.00000000000E+00  0.00000000000E+00  0.18566587865E+04  0.18566587865E+04  0.50400001928E-02 0. -1.
       -1   -1    0    0    0  501  0.00000000000E+00  0.00000000000E+00 -0.13710436194E+04  0.13710436194E+04  0.50400001928E-02 0.  1.
    10030    2    1    2    0    0  0.00000000000E+00  0.00000000000E+00  0.48561516708E+03  0.32277024060E+04  0.31909623518E+04 0.  0.
        1    1    3    3  502    0  0.21311749809E+02  0.12564751451E+03  0.18515021045E+04  0.18558829520E+04  0.50400001928E-02 0. -1.
       -1    1    3    3    0  502 -0.21311749809E+02 -0.12564751451E+03 -0.13658869374E+04  0.13718194540E+04  0.50400001928E-02 0.  1.
</event>
<event>
 5   0  0.3159875E-07  0.3615428E+04  0.7818609E-02  0.8086967E-01
       -1   -1    0    0    0  501  0.00000000000E+00  0.00000000000E+00  0.29181935381E+04  0.29181935381E+04  0.50400001928E-02 0. -1.
        1   -1    0    0  501    0  0.00000000000E+00  0.00000000000E+00 -0.11198126354E+04  0.11198126354E+04  0.50400001928E-02 0.  1.
    10030    2    1    2    0    0  0.00000000000E+00  0.00000000000E+00  0.17983809027E+04  0.40380061735E+04  0.36154280502E+04 0.  0.
        2    1    3    3  502    0 -0.10630628212E+04  0.14092027310E+04  0.46392866471E+03  0.18251533373E+04  0.25500000920E-02 0. -1.
       -2    1    3    3    0  502  0.10630628212E+04 -0.14092027310E+04  0.13344522380E+04  0.22128528362E+04  0.25500000920E-02 0.  1.
</event>
<event>
 5   0  0.3159875E-07  0.3569218E+04  0.7818609E-02  0.8097579E-01
        1   -1    0    0  501    0  0.00000000000E+00  0.00000000000E+00  0.16392642007E+04  0.16392642007E+04  0.50400001928E-02 0.  1.
       -1   -1    0    0    0  501  0.00000000000E+00  0.00000000000E+00 -0.19428411236E+04  0.19428411236E+04  0.50400001928E-02 0. -1.
    10030    2    1    2    0    0  0.00000000000E+00  0.00000000000E+00 -0.30357692285E+03  0.35821053243E+04  0.35692183467E+04 0.  0.
        5    1    3    3  502    0 -0.16099232196E+04  0.10894967200E+03  0.61325317149E+03  0.17262167727E+04  0.46999998093E+01 0.  1.
       -5    1    3    3    0  502  0.16099232196E+04 -0.10894967200E+03 -0.91683009434E+03  0.18558885516E+04  0.46999998093E+01 0. -1.
</event>
<event>
 5   0  0.3159875E-07  0.3602889E+04  0.7818609E-02  0.8089830E-01
       -1   -1    0    0    0  501  0.00000000000E+00  0.00000000000E+00  0.22503079815E+04  0.22503079815E+04  0.50400001928E-02 0. -1.
        1   -1    0    0  501    0  0.00000000000E+00  0.00000000000E+00 -0.14421150346E+04  0.14421150346E+04  0.50400001928E-02 0.  1.
    10030    2    1    2    0    0  0.00000000000E+00  0.00000000000E+00  0.80819294691E+03  0.36924230161E+04  0.36028893808E+04 0.  0.
        2    1    3    3  502    0  0.36047366242E+03 -0.45795255937E+03 -0.13428276318E+04  0.14638469376E+04  0.25500000920E-02 0.  1.
       -2    1    3    3    0  502 -0.36047366242E+03  0.45795255937E+03  0.21510205787E+04  0.22285760785E+04  0.25500000920E-02 0. -1.
</event>
<event>
 5   0  0.1006019E-06  0.3547562E+04  0.7818609E-02  0.8102610E-01
       -2   -1    0    0    0  501  0.00000000000E+00  0.00000000000E+00  0.16076697237E+04  0.16076697237E+04  0.25500000920E-02 0.  1.
        2   -1    0    0  501    0  0.00000000000E+00  0.00000000000E+00 -0.19570553105E+04  0.19570553105E+04  0.25500000920E-02 0. -1.
    10030    2    1    2    0    0  0.00000000000E+00  0.00000000000E+00 -0.34938558678E+03  0.35647250342E+04  0.35475617375E+04 0.  0.
        1    1    3    3  502    0  0.16551115307E+01 -0.14501312347E+03 -0.19510881889E+04  0.19564704614E+04  0.50400001928E-02 0. -1.
       -1    1    3    3    0  502 -0.16551115307E+01  0.14501312347E+03  0.16017026021E+04  0.16082545728E+04  0.50400001928E-02 0.  1.
</event>
<event>
 5   0  0.1006019E-06  0.2952355E+04  0.7818609E-02  0.8257468E-01
       -2   -1    0    0    0  501  0.00000000000E+00  0.00000000000E+00  0.10050097836E+04  0.10050097836E+04  0.25500000920E-02 0.  1.
        2   -1    0    0  501    0  0.00000000000E+00  0.00000000000E+00 -0.21682382808E+04  0.21682382808E+04  0.25500000920E-02 0. -1.
    10030    2    1    2    0    0  0.00000000000E+00  0.00000000000E+00 -0.11632284972E+04  0.31732480645E+04  0.29523554566E+04 0.  0.
        1    1    3    3  502    0  0.55731014045E+03 -0.57419687718E+02 -0.20495232684E+04  0.21247205089E+04  0.50400001928E-02 0. -1.
       -1    1    3    3    0  502 -0.55731014045E+03  0.57419687718E+02  0.88629477124E+03  0.10485275555E+04  0.50400001928E-02 0.  1.
</event>
<event>
 5   0  0.1031659E-06  0.3791527E+04  0.7818609E-02  0.8047976E-01
        2   -1    0    0  501    0  0.00000000000E+00  0.00000000000E+00  0.20052564979E+04  0.20052564979E+04  0.25500000920E-02 0.  1.
       -2   -1    0    0    0  501  0.00000000000E+00  0.00000000000E+00 -0.17922492224E+04  0.17922492224E+04  0.25500000920E-02 0. -1.
    10030    2    1    2    0    0  0.00000000000E+00  0.00000000000E+00  0.21300727551E+03  0.37975057202E+04  0.37915270796E+04 0.  0.
        2    1    3    3  502    0  0.18006044003E+04  0.30229914395E+03 -0.40455424155E+03  0.18700869266E+04  0.25500000920E-02 0.  1.
       -2    1    3    3    0  502 -0.18006044003E+04 -0.30229914395E+03  0.61756151707E+03  0.19274187936E+04  0.25500000920E-02 0. -1.
</event>
<event>
 5   0  0.3278988E-07  0.3542671E+04  0.7818609E-02  0.8103751E-01
       -1   -1    0    0    0  501  0.00000000000E+00  0.00000000000E+00  0.14628459106E+04  0.14628459106E+04  0.50400001928E-02 0. -1.
        1   -1    0    0  501    0  0.00000000000E+00  0.00000000000E+00 -0.21448804291E+04  0.21448804291E+04  0.50400001928E-02 0.  1.
    10030    2    1    2    0    0  0.00000000000E+00  0.00000000000E+00 -0.68203451850E+03  0.36077263397E+04  0.35426710626E+04 0.  0.
        4    1    3    3  502    0 -0.11557158839E+04 -0.12523339806E+04 -0.83322329690E+03  0.18969138827E+04  0.12699999809E+01 0.  1.
       -4    1    3    3    0  502  0.11557158839E+04  0.12523339806E+04  0.15118877839E+03  0.17108124569E+04  0.12699999809E+01 0. -1.
</event>
<event>
 5   0  0.3278988E-07  0.3560074E+04  0.7818609E-02  0.8099699E-01
       -1   -1    0    0    0  501  0.00000000000E+00  0.00000000000E+00  0.33292506560E+04  0.33292506560E+04  0.50400001928E-02 0.  1.
        1   -1    0    0  501    0  0.00000000000E+00  0.00000000000E+00 -0.95172522419E+03  0.95172522420E+03  0.50400001928E-02 0. -1.
    10030    2    1    2    0    0  0.00000000000E+00  0.00000000000E+00  0.23775254318E+04  0.42809758802E+04  0.35600740593E+04 0.  0.
        4    1    3    3  502    0 -0.13115217312E+04 -0.10801583481E+04  0.18269914138E+04  0.24949409908E+04  0.12699999809E+01 0.  1.
       -4    1    3    3    0  502  0.13115217312E+04  0.10801583481E+04  0.55053401793E+03  0.17860348894E+04  0.12699999809E+01 0. -1.
</event>
<event>
 5   0  0.3242047E-07  0.3606658E+04  0.7818609E-02  0.8088968E-01
        1   -1    0    0  501    0  0.00000000000E+00  0.00000000000E+00  0.12167198199E+04  0.12167198199E+04  0.50400001928E-02 0.  1.
       -1   -1    0    0    0  501  0.00000000000E+00  0.00000000000E+00 -0.26727561203E+04  0.26727561203E+04  0.50400001928E-02 0. -1.
    10030    2    1    2    0    0  0.00000000000E+00  0.00000000000E+00 -0.14560363005E+04  0.38894759402E+04  0.36066579240E+04 0.  0.
        1    1    3    3  502    0 -0.29830199443E+03 -0.78794789964E+03 -0.24474567371E+04  0.25884146601E+04  0.50400001928E-02 0. -1.
       -1    1    3    3    0  502  0.29830199443E+03  0.78794789964E+03  0.99142043664E+03  0.13010612801E+04  0.50400001928E-02 0.  1.
</event>
<event>
 5   0  0.3159875E-07  0.3623013E+04  0.7818609E-02  0.8085240E-01
       -1   -1    0    0    0  501  0.00000000000E+00  0.00000000000E+00  0.16137746921E+04  0.16137746921E+04  0.50400001928E-02 0. -1.
        1   -1    0    0  501    0  0.00000000000E+00  0.00000000000E+00 -0.20334662108E+04  0.20334662108E+04  0.50400001928E-02 0.  1.
    10030    2    1    2    0    0  0.00000000000E+00  0.00000000000E+00 -0.41969151869E+03  0.36472409030E+04  0.36230132809E+04 0.  0.
        2    1    3    3  502    0 -0.81523525059E+03  0.16042303125E+04 -0.41954837930E+03  0.18477511337E+04  0.25500000920E-02 0. -1.
       -2    1    3    3    0  502  0.81523525059E+03 -0.16042303125E+04 -0.14313938978E+00  0.17994897693E+04  0.25500000920E-02 0.  1.
</event>
<event>
 5   0  0.3159875E-07  0.3553090E+04  0.7818609E-02  0.8101322E-01
       -1   -1    0    0    0  501  0.00000000000E+00  0.00000000000E+00  0.19206099731E+04  0.19206099732E+04  0.50400001928E-02 0.  1.
        1   -1    0    0  501    0  0.00000000000E+00  0.00000000000E+00 -0.16432862838E+04  0.16432862838E+04  0.50400001928E-02 0. -1.
    10030    2    1    2    0    0  0.00000000000E+00  0.00000000000E+00  0.27732368938E+03  0.35638962569E+04  0.35530899371E+04 0.  0.
        2    1    3    3  502    0  0.14255823779E+04 -0.34061403633E+03  0.11456119840E+04  0.18603036999E+04  0.25500000920E-02 0.  1.
       -2    1    3    3    0  502 -0.14255823779E+04  0.34061403633E+03 -0.86828829457E+03  0.17035925571E+04  0.25500000920E-02 0. -1.
</event>
<event>
 5   0  0.9878336E-07  0.3493430E+04  0.7818609E-02  0.8115349E-01
       -2   -1    0    0    0  501  0.00000000000E+00  0.00000000000E+00  0.10284820068E+04  0.10284820068E+04  0.25500000920E-02 0. -1.
        2   -1    0    0  501    0  0.00000000000E+00  0.00000000000E+00 -0.29665208574E+04  0.29665208574E+04  0.25500000920E-02 0.  1.
    10030    2    1    2    0    0  0.00000000000E+00  0.00000000000E+00 -0.19380388505E+04  0.39950028642E+04  0.34934300191E+04 0.  0.
        3    1    3    3  502    0 -0.53731155221E+03 -0.15890521614E+04 -0.41203468557E+03  0.17272993568E+04  0.10100000352E+00 0. -1.
       -3    1    3    3    0  502  0.53731155221E+03  0.15890521614E+04 -0.15260041650E+04  0.22677035074E+04  0.10100000352E+00 0.  1.
</event>
<event>
 5   0  0.1006019E-06  0.2875442E+04  0.7818609E-02  0.8280222E-01
       -2   -1    0    0    0  501  0.00000000000E+00  0.00000000000E+00  0.77605441468E+03  0.77605441468E+03  0.25500000920E-02 0.  1.
        2   -1    0    0  501    0  0.00000000000E+00  0.00000000000E+00 -0.26635261795E+04  0.26635261795E+04  0.25500000920E-02 0. -1.
    10030    2    1    2    0    0  0.00000000000E+00  0.00000000000E+00 -0.18874717649E+04  0.34395805942E+04  0.28754417054E+04 0.  0.
        1    1    3    3  502    0 -0.14154850058E+04  0.16024888218E+03 -0.11761906444E+04  0.18473499771E+04  0.50400001928E-02 0.  1.
       -1    1    3    3    0  502  0.14154850058E+04 -0.16024888218E+03 -0.71128112047E+03  0.15922306171E+04  0.50400001928E-02 0. -1.
</event>
<event>
 5   0  0.9878336E-07  0.3580185E+04  0.7818609E-02  0.8095046E-01
       -2   -1    0    0    0  501  0.00000000000E+00  0.00000000000E+00  0.11518813387E+04  0.11518813387E+04  0.25500000920E-02 0.  1.
        2   -1    0    0  501    0  0.00000000000E+00  0.00000000000E+00 -0.27819108991E+04  0.27819108991E+04  0.25500000920E-02 0. -1.
    10030    2    1    2    0    0  0.00000000000E+00  0.00000000000E+00 -0.16300295604E+04  0.39337922378E+04  0.35801850515E+04 0.  0.
        3    1    3    3  502    0  0.16867778645E+03  0.17375251620E+04 -0.37966782083E+03  0.17865031622E+04  0.10100000352E+00 0. -1.
       -3    1    3    3    0  502 -0.16867778645E+03 -0.17375251620E+04 -0.12503617395E+04  0.21472890756E+04  0.10100000352E+00 0.  1.
</event>
<event>
 5   0  0.3242047E-07  0.2729550E+04  0.7818609E-02  0.8325480E-01
       -1   -1    0    0    0  501  0.00000000000E+00  0.00000000000E+00  0.12017045151E+04  0.12017045152E+04  0.50400001928E-02 0.  1.
        1   -1    0    0  501    0  0.00000000000E+00  0.00000000000E+00 -0.15499741966E+04  0.15499741966E+04  0.50400001928E-02 0. -1.
    10030    2    1    2    0    0  0.00000000000E+00  0.00000000000E+00 -0.34826968143E+03  0.27516787117E+04  0.27295501391E+04 0.  0.
        1    1    3    3  502    0  0.49762145395E+02  0.13419821963E+04 -0.41945620072E+03  0.14068887627E+04  0.50400001928E-02 0.  1.
       -1    1    3    3    0  502 -0.49762145395E+02 -0.13419821963E+04  0.71186519288E+02  0.13447899490E+04  0.50400001928E-02 0. -1.
</event>
<event>
 5   0  0.1031659E-06  0.3803717E+04  0.7818609E-02  0.8045358E-01
        2   -1    0    0  501    0  0.00000000000E+00  0.00000000000E+00  0.25702423317E+04  0.25702423317E+04  0.25500000920E-02 0. -1.
       -2   -1    0    0    0  501  0.00000000000E+00  0.00000000000E+00 -0.14072856643E+04  0.14072856643E+04  0.25500000920E-02 0.  1.
    10030    2    1    2    0    0  0.00000000000E+00  0.00000000000E+00  0.11629566674E+04  0.39775279959E+04  0.38037167019E+04 0.  0.
        2    1    3    3  502    0 -0.14952092306E+04 -0.91508210103E+03  0.13527727992E+04  0.22142764374E+04  0.25500000920E-02 0. -1.
       -2    1    3    3    0  502  0.14952092306E+04  0.91508210103E+03 -0.18981613184E+03  0.17632515586E+04  0.25500000920E-02 0.  1.
</event>
<event>
 5   0  0.1031659E-06  0.3585881E+04  0.7818609E-02  0.8093734E-01
       -2   -1    0    0    0  501  0.00000000000E+00  0.00000000000E+00  0.11453596599E+04  0.11453596599E+04  0.25500000920E-02 0.  1.
        2   -1    0    0  501    0  0.00000000000E+00  0.00000000000E+00 -0.28066600303E+04  0.28066600303E+04  0.25500000920E-02 0. -1.
    10030    2    1    2    0    0  0.00000000000E+00  0.00000000000E+00 -0.16613003704E+04  0.39520196901E+04  0.35858807441E+04 0.  0.
        2    1    3    3  502    0 -0.39214637225E+03 -0.61130045711E+03 -0.26372862660E+04  0.27354608159E+04  0.25500000920E-02 0. -1.
       -2    1    3    3    0  502  0.39214637225E+03  0.61130045711E+03  0.97598589562E+03  0.12165588743E+04  0.25500000920E-02 0.  1.
</event>
<event>
 5   0  0.3242047E-07  0.3555596E+04  0.7818609E-02  0.8100739E-01
       -1   -1    0    0    0  501  0.00000000000E+00  0.00000000000E+00  0.14942054917E+04  0.14942054917E+04  0.50400001928E-02 0. -1.
        1   -1    0    0  501    0  0.00000000000E+00  0.00000000000E+00 -0.21152152445E+04  0.21152152445E+04  0.50400001928E-02 0.  1.
    10030    2    1    2    0    0  0.00000000000E+00  0.00000000000E+00 -0.62100975281E+03  0.36094207363E+04  0.35555962845E+04 0.  0.
        1    1    3    3  502    0 -0.49208218493E+03  0.17083381540E+04 -0.30903045061E+03  0.18044566895E+04  0.50400001928E-02 0. -1.
       -1    1    3    3    0  502  0.49208218493E+03 -0.17083381540E+04 -0.31197930220E+03  0.18049640467E+04  0.50400001928E-02 0.  1.
</event>
<event>
 5   0  0.3278988E-07  0.3417340E+04  0.7818609E-02  0.8133664E-01
        1   -1    0    0  501    0  0.00000000000E+00  0.00000000000E+00  0.93909117371E+03  0.93909117372E+03  0.50400001928E-02 0.  1.
       -1   -1    0    0    0  501  0.00000000000E+00  0.00000000000E+00 -0.31089140928E+04  0.31089140928E+04  0.50400001928E-02 0. -1.
    10030    2    1    2    0    0  0.00000000000E+00  0.00000000000E+00 -0.21698229191E+04  0.40480052666E+04  0.34173403602E+04 0.  0.
        4    1    3    3  502    0 -0.58499871023E+03  0.16052390491E+04 -0.11123427972E+04  0.20387064543E+04  0.12699999809E+01 0. -1.
       -4    1    3    3    0  502  0.58499871023E+03 -0.16052390491E+04 -0.10574801219E+04  0.20092988122E+04  0.12699999809E+01 0.  1.
</event>
<event>
 5   0  0.3159875E-07  0.3548672E+04  0.7818609E-02  0.8102351E-01
        1   -1    0    0  501    0  0.00000000000E+00  0.00000000000E+00  0.10283320328E+04  0.10283320328E+04  0.50400001928E-02 0.  1.
       -1   -1    0    0    0  501  0.00000000000E+00  0.00000000000E+00 -0.30615295520E+04  0.30615295520E+04  0.50400001928E-02 0. -1.
    10030    2    1    2    0    0  0.00000000000E+00  0.00000000000E+00 -0.20331975192E+04  0.40898615848E+04  0.35486723758E+04 0.  0.
        5    1    3    3  502    0  0.12246712761E+04  0.12245777081E+02 -0.24962447446E+04  0.27805088758E+04  0.46999998093E+01 0. -1.
       -5    1    3    3    0  502 -0.12246712761E+04 -0.12245777081E+02  0.46304722534E+03  0.13093527090E+04  0.46999998093E+01 0.  1.
</event>
<event>
 5   0  0.9538919E-07  0.3605899E+04  0.7818609E-02  0.8089142E-01
        2   -1    0    0  501    0  0.00000000000E+00  0.00000000000E+00  0.21705076414E+04  0.21705076414E+04  0.25500000920E-02 0. -1.
       -2   -1    0    0    0  501  0.00000000000E+00  0.00000000000E+00 -0.14976341852E+04  0.14976341852E+04  0.25500000920E-02 0.  1.
    10030    2    1    2    0    0  0.00000000000E+00  0.00000000000E+00  0.67287345617E+03  0.36681418266E+04  0.36058987467E+04 0.  0.
        4    1    3    3  502    0 -0.96188869127E+03  0.15172611169E+04  0.49176052360E+03  0.18625630665E+04  0.12699999809E+01 0. -1.
       -4    1    3    3    0  502  0.96188869127E+03 -0.15172611169E+04  0.18111293258E+03  0.18055787600E+04  0.12699999809E+01 0.  1.
</event>
<event>
 5   0  0.3159875E-07  0.3585841E+04  0.7818609E-02  0.8093743E-01
        1   -1    0    0  501    0  0.00000000000E+00  0.00000000000E+00  0.21430792847E+04  0.21430792847E+04  0.50400001928E-02 0. -1.
       -1   -1    0    0    0  501  0.00000000000E+00  0.00000000000E+00 -0.14999744660E+04  0.14999744660E+04  0.50400001928E-02 0.  1.
    10030    2    1    2    0    0  0.00000000000E+00  0.00000000000E+00  0.64310481875E+03  0.36430537507E+04  0.35858411597E+04 0.  0.
        5    1    3    3  502    0  0.16068510406E+04  0.65604227965E+03 -0.13526645667E+03  0.17408850748E+04  0.46999998093E+01 0.  1.
       -5    1    3    3    0  502 -0.16068510406E+04 -0.65604227965E+03  0.77837127542E+03  0.19021686759E+04  0.46999998093E+01 0. -1.
</event>
<event>
 5   0  0.1006019E-06  0.3616592E+04  0.7818609E-02  0.8086702E-01
        2   -1    0    0  501    0  0.00000000000E+00  0.00000000000E+00  0.25347129536E+04  0.25347129536E+04  0.25500000920E-02 0. -1.
       -2   -1    0    0    0  501  0.00000000000E+00  0.00000000000E+00 -0.12900611675E+04  0.12900611675E+04  0.25500000920E-02 0.  1.
    10030    2    1    2    0    0  0.00000000000E+00  0.00000000000E+00  0.12446517861E+04  0.38247741211E+04  0.36165921817E+04 0.  0.
        1    1    3    3  502    0  0.46678122595E+03  0.12507932387E+04 -0.66753958832E+03  0.14926411293E+04  0.50400001928E-02 0.  1.
       -1    1    3    3    0  502 -0.46678122595E+03 -0.12507932387E+04  0.19121913744E+04  0.23321329918E+04  0.50400001928E-02 0. -1.
</event>
<event>
 5   0  0.3159875E-07  0.3631096E+04  0.7818609E-02  0.8083406E-01
       -1   -1    0    0    0  501  0.00000000000E+00  0.00000000000E+00  0.23968723666E+04  0.23968723666E+04  0.50400001928E-02 0. -1.
        1   -1    0    0  501    0  0.00000000000E+00  0.00000000000E+00 -0.13752145883E+04  0.13752145883E+04  0.50400001928E-02 0.  1.
    10030    2    1    2    0    0  0.00000000000E+00  0.00000000000E+00  0.10216577782E+04  0.37720869549E+04  0.36310956169E+04 0.  0.
        5    1    3    3  502    0  0.21280638405E+03  0.53368320956E+03 -0.12782767498E+04  0.14014698942E+04  0.46999998093E+01 0.  1.
       -5    1    3    3    0  502 -0.21280638405E+03 -0.53368320956E+03  0.22999345280E+04  0.23706170607E+04  0.46999998093E+01 0. -1.
</event>
<event>
 5   0  0.3365378E-07  0.3603415E+04  0.7818609E-02  0.8089710E-01
        1   -1    0    0  501    0  0.00000000000E+00  0.00000000000E+00  0.15272362297E+04  0.15272362297E+04  0.50400001928E-02 0. -1.
       -1   -1    0    0    0  501  0.00000000000E+00  0.00000000000E+00 -0.21255059753E+04  0.21255059753E+04  0.50400001928E-02 0.  1.
    10030    2    1    2    0    0  0.00000000000E+00  0.00000000000E+00 -0.59826974561E+03  0.36527422050E+04  0.36034148980E+04 0.  0.
        3    1    3    3  502    0  0.10802553370E+03 -0.44846308150E+03  0.14663614090E+04  0.15372067016E+04  0.10100000352E+00 0. -1.
       -3    1    3    3    0  502 -0.10802553370E+03  0.44846308150E+03 -0.20646311546E+04  0.21155355034E+04  0.10100000352E+00 0.  1.
</event>
<event>
 5   0  0.3365378E-07  0.3533511E+04  0.7818609E-02  0.8105894E-01
        1   -1    0    0  501    0  0.00000000000E+00  0.00000000000E+00  0.23813000644E+04  0.23813000644E+04  0.50400001928E-02 0. -1.
       -1   -1    0    0    0  501  0.00000000000E+00  0.00000000000E+00 -0.13108071037E+04  0.13108071037E+04  0.50400001928E-02 0.  1.
    10030    2    1    2    0    0  0.00000000000E+00  0.00000000000E+00  0.10704929607E+04  0.36921071680E+04  0.35335110247E+04 0.  0.
        3    1    3    3  502    0 -0.12895919538E+04  0.11476748071E+04  0.92790605997E+03  0.19599016650E+04  0.10100000352E+00 0.  1.
       -3    1    3    3    0  502  0.12895919538E+04 -0.11476748071E+04  0.14258690072E+03  0.17322055030E+04  0.10100000352E+00 0. -1.
</event>
<event>
 5   0  0.3159875E-07  0.3610883E+04  0.7818609E-02  0.8088003E-01
        1   -1    0    0  501    0  0.00000000000E+00  0.00000000000E+00  0.19356232402E+04  0.19356232402E+04  0.50400001928E-02 0.  1.
       -1   -1    0    0    0  501  0.00000000000E+00  0.00000000000E+00 -0.16840152525E+04  0.16840152525E+04  0.50400001928E-02 0. -1.
    10030    2    1    2    0    0  0.00000000000E+00  0.00000000000E+00  0.25160798763E+03  0.36196384927E+04  0.36108830275E+04 0.  0.
        5    1    3    3  502    0  0.61613816265E+03  0.11639277806E+03 -0.15713527436E+04  0.16918466388E+04  0.46999998093E+01 0. -1.
       -5    1    3    3    0  502 -0.61613816265E+03 -0.11639277806E+03  0.18229607313E+04  0.19277918539E+04  0.46999998093E+01 0.  1.
</event>
<event>
 5   0  0.9538919E-07  0.3607454E+04  0.7818609E-02  0.8088786E-01
        2   -1    0    0  501    0  0.00000000000E+00  0.00000000000E+00  0.16951137460E+04  0.16951137460E+04  0.25500000920E-02 0. -1.
       -2   -1    0    0    0  501  0.00000000000E+00  0.00000000000E+00 -0.19192999845E+04  0.19192999845E+04  0.25500000920E-02 0.  1.
    10030    2    1    2    0    0  0.00000000000E+00  0.00000000000E+00 -0.22418623846E+03  0.36144137305E+04  0.36074543858E+04 0.  0.
        4    1    3    3  502    0 -0.65579286651E+03 -0.13552491372E+04 -0.11073198286E+04  0.18689364151E+04  0.12699999809E+01 0. -1.
       -4    1    3    3    0  502  0.65579286651E+03  0.13552491372E+04  0.88313359018E+03  0.17454773154E+04  0.12699999809E+01 0.  1.
</event>
<event>
 5   0  0.9878336E-07  0.3639604E+04  0.7818609E-02  0.8081480E-01
        2   -1    0    0  501    0  0.00000000000E+00  0.00000000000E+00  0.20889077217E+04  0.20889077217E+04  0.25500000920E-02 0. -1.
       -2   -1    0    0    0  501  0.00000000000E+00  0.00000000000E+00 -0.15853641615E+04  0.15853641615E+04  0.25500000920E-02 0.  1.
    10030    2    1    2    0    0  0.00000000000E+00  0.00000000000E+00  0.50354356028E+03  0.36742718832E+04  0.36396040656E+04 0.  0.
        3    1    3    3  502    0 -0.11487828037E+04 -0.43290626570E+03  0.16079100569E+04  0.20229890080E+04  0.10100000352E+00 0. -1.
       -3    1    3    3    0  502  0.11487828037E+04  0.43290626570E+03 -0.11043664967E+04  0.16512828752E+04  0.10100000352E+00 0.  1.
</event>
<event>
 5   0  0.1031659E-06  0.3559689E+04  0.7818609E-02  0.8099788E-01
       -2   -1    0    0    0  501  0.00000000000E+00  0.00000000000E+00  0.14530836264E+04  0.14530836264E+04  0.25500000920E-02 0.  1.
        2   -1    0    0  501    0  0.00000000000E+00  0.00000000000E+00 -0.21800859316E+04  0.21800859316E+04  0.25500000920E-02 0. -1.
    10030    2    1    2    0    0  0.00000000000E+00  0.00000000000E+00 -0.72700230521E+03  0.36331695581E+04  0.35596894086E+04 0.  0.
        2    1    3    3  502    0  0.43874116310E+03  0.15134535407E+04 -0.12081168718E+04  0.19855935646E+04  0.25500000920E-02 0. -1.
       -2    1    3    3    0  502 -0.43874116310E+03 -0.15134535407E+04  0.48111456657E+03  0.16475759934E+04  0.25500000920E-02 0.  1.
</event>
<event>
 5   0  0.1006019E-06  0.3606686E+04  0.7818609E-02  0.8088962E-01
       -2   -1    0    0    0  501  0.00000000000E+00  0.00000000000E+00  0.18018893123E+04  0.18018893123E+04  0.25500000920E-02 0.  1.
        2   -1    0    0  501    0  0.00000000000E+00  0.00000000000E+00 -0.18047978867E+04  0.18047978867E+04  0.25500000920E-02 0. -1.
    10030    2    1    2    0    0  0.00000000000E+00  0.00000000000E+00 -0.29085744392E+01  0.36066871990E+04  0.36066860262E+04 0.  0.
        1    1    3    3  502    0  0.77697170736E+03 -0.14578618320E+04  0.72173324582E+03  0.18027603926E+04  0.50400001928E-02 0.  1.
       -1    1    3    3    0  502 -0.77697170736E+03  0.14578618320E+04 -0.72464182026E+03  0.18039268064E+04  0.50400001928E-02 0. -1.
</event>
<event>
 5   0  0.9878977E-07  0.3423210E+04  0.7818609E-02  0.8132233E-01
        2   -1    0    0  501    0  0.00000000000E+00  0.00000000000E+00  0.16921991069E+04  0.16921991069E+04  0.25500000920E-02 0. -1.
       -2   -1    0    0    0  501  0.00000000000E+00  0.00000000000E+00 -0.17312337996E+04  0.17312337996E+04  0.25500000920E-02 0.  1.
    10030    2    1    2    0    0  0.00000000000E+00  0.00000000000E+00 -0.39034692700E+02  0.34234329065E+04  0.34232103584E+04 0.  0.
        5    1    3    3  502    0 -0.33036130239E+03  0.72416209560E+03  0.14958438033E+04  0.16944379908E+04  0.46999998093E+01 0. -1.
       -5    1    3    3    0  502  0.33036130239E+03 -0.72416209560E+03 -0.15348784960E+04  0.17289949156E+04  0.46999998093E+01 0.  1.
</event>
<event>
 5   0  0.9878336E-07  0.3574641E+04  0.7818609E-02  0.8096325E-01
        2   -1    0    0  501    0  0.00000000000E+00  0.00000000000E+00  0.25431476394E+04  0.25431476394E+04  0.25500000920E-02 0. -1.
       -2   -1    0    0    0  501  0.00000000000E+00  0.00000000000E+00 -0.12561260430E+04  0.12561260430E+04  0.25500000920E-02 0.  1.
    10030    2    1    2    0    0  0.00000000000E+00  0.00000000000E+00  0.12870215964E+04  0.37992736825E+04  0.35746406707E+04 0.  0.
        3    1    3    3  502    0  0.53318356997E+03  0.16457232788E+04  0.11209903127E+04  0.20613852433E+04  0.10100000352E+00 0. -1.
       -3    1    3    3    0  502 -0.53318356997E+03 -0.16457232788E+04  0.16603128371E+03  0.17378884392E+04  0.10100000352E+00 0.  1.
</event>
<event>
 5   0  0.3365378E-07  0.3588075E+04  0.7818609E-02  0.8093229E-01
       -1   -1    0    0    0  501  0.00000000000E+00  0.00000000000E+00  0.20718946356E+04  0.20718946356E+04  0.50400001928E-02 0. -1.
        1   -1    0    0  501    0  0.00000000000E+00  0.00000000000E+00 -0.15534432520E+04  0.15534432520E+04  0.50400001928E-02 0.  1.
    10030    2    1    2    0    0  0.00000000000E+00  0.00000000000E+00  0.51845138360E+03  0.36253378877E+04  0.35880751055E+04 0.  0.
        3    1    3    3  502    0 -0.14849799083E+04 -0.19286231566E+03 -0.73906836615E+03  0.16699051652E+04  0.10100000352E+00 0.  1.
       -3    1    3    3    0  502  0.14849799083E+04  0.19286231566E+03  0.12575197498E+04  0.19554327224E+04  0.10100000352E+00 0. -1.
</event>
<event>
 5   0  0.3365378E-07  0.3303973E+04  0.7818609E-02  0.8161885E-01
       -1   -1    0    0    0  501  0.00000000000E+00  0.00000000000E+00  0.21074867554E+04  0.21074867554E+04  0.50400001928E-02 0. -1.
        1   -1    0    0  501    0  0.00000000000E+00  0.00000000000E+00 -0.12949351887E+04  0.12949351887E+04  0.50400001928E-02 0.  1.
    10030    2    1    2    0    0  0.00000000000E+00  0.00000000000E+00  0.81255156665E+03  0.34024219441E+04  0.33039726145E+04 0.  0.
        3    1    3    3  502    0  0.88054593242E+03  0.62505410896E+03 -0.88117878142E+03  0.13937466891E+04  0.10100000352E+00 0.  1.
       -3    1    3    3    0  502 -0.88054593242E+03 -0.62505410896E+03  0.16937303481E+04  0.20086752551E+04  0.10100000352E+00 0. -1.
</event>
<event>
 5   0  0.3159875E-07  0.3202270E+04  0.7818609E-02  0.8188218E-01
       -1   -1    0    0    0  501  0.00000000000E+00  0.00000000000E+00  0.11923708460E+04  0.11923708460E+04  0.50400001928E-02 0. -1.
        1   -1    0    0  501    0  0.00000000000E+00  0.00000000000E+00 -0.21500296117E+04  0.21500296117E+04  0.50400001928E-02 0.  1.
    10030    2    1    2    0    0  0.00000000000E+00  0.00000000000E+00 -0.95765876571E+03  0.33424004576E+04  0.32022695870E+04 0.  0.
        5    1    3    3  502    0 -0.12786498367E+04  0.67582483209E+03 -0.11958596870E+04  0.18766425044E+04  0.46999998093E+01 0. -1.
       -5    1    3    3    0  502  0.12786498367E+04 -0.67582483209E+03  0.23820092127E+03  0.14657579532E+04  0.46999998093E+01 0.  1.
</event>
<event>
 5   0  0.3365378E-07  0.3588965E+04  0.7818609E-02  0.8093024E-01
        1   -1    0    0  501    0  0.00000000000E+00  0.00000000000E+00  0.21102665440E+04  0.21102665440E+04  0.50400001928E-02 0. -1.
       -1   -1    0    0    0  501  0.00000000000E+00  0.00000000000E+00 -0.15259527428E+04  0.15259527428E+04  0.50400001928E-02 0.  1.
    10030    2    1    2    0    0  0.00000000000E+00  0.00000000000E+00  0.58431380114E+03  0.36362192868E+04  0.35889647649E+04 0.  0.
        3    1    3    3  502    0 -0.32191488257E+02  0.10209586130E+04  0.17869723061E+04  0.20583155283E+04  0.10100000352E+00 0. -1.
       -3    1    3    3    0  502  0.32191488257E+02 -0.10209586130E+04 -0.12026585049E+04  0.15779037585E+04  0.10100000352E+00 0.  1.
</event>
<event>
 5   0  0.1031659E-06  0.3540410E+04  0.7818609E-02  0.8104279E-01
       -2   -1    0    0    0  501  0.00000000000E+00  0.00000000000E+00  0.13982507040E+04  0.13982507040E+04  0.25500000920E-02 0. -1.
        2   -1    0    0  501    0  0.00000000000E+00  0.00000000000E+00 -0.22411044977E+04  0.22411044977E+04  0.25500000920E-02 0.  1.
    10030    2    1    2    0    0  0.00000000000E+00  0.00000000000E+00 -0.84285379364E+03  0.36393552017E+04  0.35404101128E+04 0.  0.
        2    1    3    3  502    0 -0.58669938686E+02 -0.41889264489E+03 -0.21883941629E+04  0.22288970864E+04  0.25500000920E-02 0.  1.
       -2    1    3    3    0  502  0.58669938686E+02  0.41889264489E+03  0.13455403693E+04  0.14104581153E+04  0.25500000920E-02 0. -1.
</event>
<event>
 5   0  0.9878336E-07  0.3637303E+04  0.7818609E-02  0.8082000E-01
       -2   -1    0    0    0  501  0.00000000000E+00  0.00000000000E+00  0.30364879646E+04  0.30364879646E+04  0.25500000920E-02 0.  1.
        2   -1    0    0  501    0  0.00000000000E+00  0.00000000000E+00 -0.10892497937E+04  0.10892497937E+04  0.25500000920E-02 0. -1.
    10030    2    1    2    0    0  0.00000000000E+00  0.00000000000E+00  0.19472381709E+04  0.41257377583E+04  0.36373033357E+04 0.  0.
        3    1    3    3  502    0 -0.16855785042E+04  0.34880294176E+03  0.30771036714E+03  0.17485777267E+04  0.10100000352E+00 0. -1.
       -3    1    3    3    0  502  0.16855785042E+04 -0.34880294176E+03  0.16395278038E+04  0.23771600316E+04  0.10100000352E+00 0.  1.
</event>
<event>
 5   0  0.3365378E-07  0.3534234E+04  0.7818609E-02  0.8105725E-01
        1   -1    0    0  501    0  0.00000000000E+00  0.00000000000E+00  0.20619444778E+04  0.20619444778E+04  0.50400001928E-02 0.  1.
       -1   -1    0    0    0  501  0.00000000000E+00  0.00000000000E+00 -0.15144455535E+04  0.15144455535E+04  0.50400001928E-02 0. -1.
    10030    2    1    2    0    0  0.00000000000E+00  0.00000000000E+00  0.54749892437E+03  0.35763900313E+04  0.35342340873E+04 0.  0.
        3    1    3    3  502    0 -0.27271400446E+03  0.17166350169E+04  0.59613057547E+03  0.18375473825E+04  0.10100000352E+00 0. -1.
       -3    1    3    3    0  502  0.27271400446E+03 -0.17166350169E+04 -0.48631651099E+02  0.17388426488E+04  0.10100000352E+00 0.  1.
</event>
<event>
 5   0  0.3159875E-07  0.3586713E+04  0.7818609E-02  0.8093542E-01
        1   -1    0    0  501    0  0.00000000000E+00  0.00000000000E+00  0.26358581217E+04  0.26358581217E+04  0.50400001928E-02 0.  1.
       -1   -1    0    0    0  501  0.00000000000E+00  0.00000000000E+00 -0.12201444870E+04  0.12201444871E+04  0.50400001928E-02 0. -1.
    10030    2    1    2    0    0  0.00000000000E+00  0.00000000000E+00  0.14157136346E+04  0.38560026087E+04  0.35867131225E+04 0.  0.
        2    1    3    3  502    0  0.10587121681E+04  0.24062999811E+02  0.22638197176E+04  0.24992659316E+04  0.25500000920E-02 0.  1.
       -2    1    3    3    0  502 -0.10587121681E+04 -0.24062999811E+02 -0.84810608304E+03  0.13567366771E+04  0.25500000920E-02 0. -1.
</event>
<event>
 5   0  0.1031659E-06  0.3635660E+04  0.7818609E-02  0.8082372E-01
        2   -1    0    0  501    0  0.00000000000E+00  0.00000000000E+00  0.14249611039E+04  0.14249611039E+04  0.25500000920E-02 0.  1.
       -2   -1    0    0    0  501  0.00000000000E+00  0.00000000000E+00 -0.23190152230E+04  0.23190152230E+04  0.25500000920E-02 0. -1.
    10030    2    1    2    0    0  0.00000000000E+00  0.00000000000E+00 -0.89405411909E+03  0.37439763269E+04  0.36356603208E+04 0.  0.
        2    1    3    3  502    0  0.14180436060E+04 -0.14977537858E+03 -0.16081045466E+04  0.21492511639E+04  0.25500000920E-02 0. -1.
       -2    1    3    3    0  502 -0.14180436060E+04  0.14977537858E+03  0.71405042750E+03  0.15947251630E+04  0.25500000920E-02 0.  1.
</event>
<event>
 5   0  0.3278988E-07  0.3588923E+04  0.7818609E-02  0.8093034E-01
       -1   -1    0    0    0  501  0.00000000000E+00  0.00000000000E+00  0.14203114824E+04  0.14203114824E+04  0.50400001928E-02 0. -1.
        1   -1    0    0  501    0  0.00000000000E+00  0.00000000000E+00 -0.22671727273E+04  0.22671727273E+04  0.50400001928E-02 0.  1.
    10030    2    1    2    0    0  0.00000000000E+00  0.00000000000E+00 -0.84686124486E+03  0.36874842098E+04  0.35889226558E+04 0.  0.
        4    1    3    3  502    0  0.15552276642E+03  0.79254508182E+03  0.12230041776E+04  0.14656247368E+04  0.12699999809E+01 0. -1.
       -4    1    3    3    0  502 -0.15552276642E+03 -0.79254508182E+03 -0.20698654225E+04  0.22218594730E+04  0.12699999809E+01 0.  1.
</event>
<event>
 5   0  0.1006019E-06  0.3635869E+04  0.7818609E-02  0.8082325E-01
       -2   -1    0    0    0  501  0.00000000000E+00  0.00000000000E+00  0.17770860519E+04  0.17770860519E+04  0.25500000920E-02 0. -1.
        2   -1    0    0  501    0  0.00000000000E+00  0.00000000000E+00 -0.18597217414E+04  0.18597217414E+04  0.25500000920E-02 0.  1.
    10030    2    1    2    0    0  0.00000000000E+00  0.00000000000E+00 -0.82635689532E+02  0.36368077933E+04  0.36358688464E+04 0.  0.
        1    1    3    3  502    0  0.97064932535E+03  0.15301256024E+04  0.10514775122E+03  0.18150758996E+04  0.50400001928E-02 0.  1.
       -1    1    3    3    0  502 -0.97064932535E+03 -0.15301256024E+04 -0.18778344075E+03  0.18217318937E+04  0.50400001928E-02 0. -1.
</event>
<event>
 5   0  0.3278988E-07  0.3646153E+04  0.7818609E-02  0.8080001E-01
       -1   -1    0    0    0  501  0.00000000000E+00  0.00000000000E+00  0.29107825565E+04  0.29107825565E+04  0.50400001928E-02 0.  1.
        1   -1    0    0  501    0  0.00000000000E+00  0.00000000000E+00 -0.11418264115E+04  0.11418264115E+04  0.50400001928E-02 0. -1.
    10030    2    1    2    0    0  0.00000000000E+00  0.00000000000E+00  0.17689561450E+04  0.40526089680E+04  0.36461532612E+04 0.  0.
        4    1    3    3  502    0  0.17664443877E+04  0.12538040014E+03  0.40311720254E+03  0.18161913752E+04  0.12699999809E+01 0. -1.
       -4    1    3    3    0  502 -0.17664443877E+04 -0.12538040014E+03  0.13658389425E+04  0.22364175927E+04  0.12699999809E+01 0.  1.
</event>
<event>
 5   0  0.3365378E-07  0.3124368E+04  0.7818609E-02  0.8209082E-01
       -1   -1    0    0    0  501  0.00000000000E+00  0.00000000000E+00  0.14308080154E+04  0.14308080154E+04  0.50400001928E-02 0. -1.
        1   -1    0    0  501    0  0.00000000000E+00  0.00000000000E+00 -0.17056227104E+04  0.17056227104E+04  0.50400001928E-02 0.  1.
    10030    2    1    2    0    0  0.00000000000E+00  0.00000000000E+00 -0.27481469506E+03  0.31364307258E+04  0.31243678690E+04 0.  0.
        3    1    3    3  502    0 -0.64167746835E+03  0.12565861546E+04 -0.81056318389E+03  0.16271974135E+04  0.10100000352E+00 0.  1.
       -3    1    3    3    0  502  0.64167746835E+03 -0.12565861546E+04  0.53574848883E+03  0.15092333123E+04  0.10100000352E+00 0. -1.
</event>
<event>
 5   0  0.3159875E-07  0.3618720E+04  0.7818609E-02  0.8086217E-01
       -1   -1    0    0    0  501  0.00000000000E+00  0.00000000000E+00  0.12697444028E+04  0.12697444028E+04  0.50400001928E-02 0.  1.
        1   -1    0    0  501    0  0.00000000000E+00  0.00000000000E+00 -0.25783015800E+04  0.25783015801E+04  0.50400001928E-02 0. -1.
    10030    2    1    2    0    0  0.00000000000E+00  0.00000000000E+00 -0.13085571772E+04  0.38480459829E+04  0.36187202158E+04 0.  0.
        2    1    3    3  502    0 -0.13879918729E+03 -0.84844455020E+03  0.10386754046E+04  0.13483211655E+04  0.25500000920E-02 0.  1.
       -2    1    3    3    0  502  0.13879918729E+03  0.84844455020E+03 -0.23472325819E+04  0.24997248174E+04  0.25500000920E-02 0. -1.
</event>
<event>
 5   0  0.1006019E-06  0.3523174E+04  0.7818609E-02  0.8108320E-01
        2   -1    0    0  501    0  0.00000000000E+00  0.00000000000E+00  0.18530802274E+04  0.18530802274E+04  0.25500000920E-02 0.  1.
       -2   -1    0    0    0  501  0.00000000000E+00  0.00000000000E+00 -0.16746113641E+04  0.16746113641E+04  0.25500000920E-02 0. -1.
    10030    2    1    2    0    0  0.00000000000E+00  0.00000000000E+00  0.17846886337E+03  0.35276915915E+04  0.35231742548E+04 0.  0.
        1    1    3    3  502    0 -0.32664317764E+03 -0.51319543449E+03 -0.15661015113E+04  0.16801009681E+04  0.50400001928E-02 0. -1.
       -1    1    3    3    0  502  0.32664317764E+03  0.51319543449E+03  0.17445703746E+04  0.18475906234E+04  0.50400001928E-02 0.  1.
</event>
<event>
 5   0  0.9878977E-07  0.3609541E+04  0.7818609E-02  0.8088310E-01
        2   -1    0    0  501    0  0.00000000000E+00  0.00000000000E+00  0.18323380023E+04  0.18323380023E+04  0.25500000920E-02 0.  1.
       -2   -1    0    0    0  501  0.00000000000E+00  0.00000000000E+00 -0.17776179204E+04  0.17776179204E+04  0.25500000920E-02 0. -1.
    10030    2    1    2    0    0  0.00000000000E+00  0.00000000000E+00  0.54720081956E+02  0.36099559227E+04  0.36095411725E+04 0.  0.
        5    1    3    3  502    0 -0.12790961115E+03  0.14080322487E+04 -0.10944903373E+04  0.17879728383E+04  0.46999998093E+01 0. -1.
       -5    1    3    3    0  502  0.12790961115E+03 -0.14080322487E+04  0.11492104193E+04  0.18219830844E+04  0.46999998093E+01 0.  1.
</event>
<event>
 5   0  0.3159875E-07  0.3654888E+04  0.7818609E-02  0.8078033E-01
       -1   -1    0    0    0  501  0.00000000000E+00  0.00000000000E+00  0.19117241579E+04  0.19117241579E+04  0.50400001928E-02 0.  1.
        1   -1    0    0  501    0  0.00000000000E+00  0.00000000000E+00 -0.17468793323E+04  0.17468793323E+04  0.50400001928E-02 0. -1.
    10030    2    1    2    0    0  0.00000000000E+00  0.00000000000E+00  0.16484482562E+03  0.36586034902E+04  0.36548879164E+04 0.  0.
        5    1    3    3  502    0  0.17042848396E+04  0.30819145625E+03 -0.50123168360E+03  0.18030041815E+04  0.46999998093E+01 0. -1.
       -5    1    3    3    0  502 -0.17042848396E+04 -0.30819145625E+03  0.66607650922E+03  0.18555993086E+04  0.46999998093E+01 0.  1.
</event>
<event>
 5   0  0.9538919E-07  0.3594584E+04  0.7818609E-02  0.8091733E-01
       -2   -1    0    0    0  501  0.00000000000E+00  0.00000000000E+00  0.15354450435E+04  0.15354450435E+04  0.25500000920E-02 0. -1.
        2   -1    0    0  501    0  0.00000000000E+00  0.00000000000E+00 -0.21037927455E+04  0.21037927455E+04  0.25500000920E-02 0.  1.
    10030    2    1    2    0    0  0.00000000000E+00  0.00000000000E+00 -0.56834770204E+03  0.36392377891E+04  0.35945837833E+04 0.  0.
        4    1    3    3  502    0  0.19603592982E+03 -0.68831979336E+03 -0.19533029516E+04  0.20802904262E+04  0.12699999809E+01 0.  1.
       -4    1    3    3    0  502 -0.19603592982E+03  0.68831979336E+03  0.13849552496E+04  0.15589473628E+04  0.12699999809E+01 0. -1.
</event>
<event>
 5   0  0.3242047E-07  0.3563706E+04  0.7818609E-02  0.8098856E-01
       -1   -1    0    0    0  501  0.00000000000E+00  0.00000000000E+00  0.19210589667E+04  0.19210589667E+04  0.50400001928E-02 0.  1.
        1   -1    0    0  501    0  0.00000000000E+00  0.00000000000E+00 -0.16527341779E+04  0.16527341779E+04  0.50400001928E-02 0. -1.
    10030    2    1    2    0    0  0.00000000000E+00  0.00000000000E+00  0.26832478876E+03  0.35737931446E+04  0.35637058307E+04 0.  0.
        1    1    3    3  502    0 -0.19884115904E+03 -0.13038824323E+04  0.13356156130E+04  0.18771031590E+04  0.50400001928E-02 0.  1.
       -1    1    3    3    0  502  0.19884115904E+03  0.13038824323E+04 -0.10672908243E+04  0.16966899856E+04  0.50400001928E-02 0. -1.
</event>
<event>
 5   0  0.3159875E-07  0.3530969E+04  0.7818609E-02  0.8106490E-01
        1   -1    0    0  501    0  0.00000000000E+00  0.00000000000E+00  0.17552762443E+04  0.17552762443E+04  0.50400001928E-02 0. -1.
       -1   -1    0    0    0  501  0.00000000000E+00  0.00000000000E+00 -0.17757525604E+04  0.17757525604E+04  0.50400001928E-02 0.  1.
    10030    2    1    2    0    0  0.00000000000E+00  0.00000000000E+00 -0.20476316092E+02  0.35310288047E+04  0.35309694335E+04 0.  0.
        5    1    3    3  502    0 -0.81126943764E+03  0.12552381511E+03 -0.15732743132E+04  0.17745783959E+04  0.46999998093E+01 0.  1.
       -5    1    3    3    0  502  0.81126943764E+03 -0.12552381511E+03  0.15527979971E+04  0.17564504088E+04  0.46999998093E+01 0. -1.
</event>
<event>
 5   0  0.3159875E-07  0.3571615E+04  0.7818609E-02  0.8097025E-01
       -1   -1    0    0    0  501  0.00000000000E+00  0.00000000000E+00  0.14086591547E+04  0.14086591547E+04  0.50400001928E-02 0. -1.
        1   -1    0    0  501    0  0.00000000000E+00  0.00000000000E+00 -0.22639324084E+04  0.22639324084E+04  0.50400001928E-02 0.  1.
    10030    2    1    2    0    0  0.00000000000E+00  0.00000000000E+00 -0.85527325368E+03  0.36725915631E+04  0.35716153840E+04 0.  0.
        2    1    3    3  502    0  0.77830715398E+03 -0.15696389664E+04 -0.72055816671E+02  0.17534881099E+04  0.25500000920E-02 0. -1.
       -2    1    3    3    0  502 -0.77830715398E+03  0.15696389664E+04 -0.78321743701E+03  0.19191034533E+04  0.25500000920E-02 0.  1.
</event>
<event>
 5   0  0.3159875E-07  0.3522152E+04  0.7818609E-02  0.8108560E-01
       -1   -1    0    0    0  501  0.00000000000E+00  0.00000000000E+00  0.25349235576E+04  0.25349235576E+04  0.50400001928E-02 0.  1.
        1   -1    0    0  501    0  0.00000000000E+00  0.00000000000E+00 -0.12234644913E+04  0.12234644913E+04  0.50400001928E-02 0. -1.
    10030    2    1    2    0    0  0.00000000000E+00  0.00000000000E+00  0.13114590663E+04  0.37583880489E+04  0.35221521607E+04 0.  0.
        2    1    3    3  502    0  0.79876774514E+03  0.90122336278E+03 -0.71542843640E+03  0.14007395575E+04  0.25500000920E-02 0. -1.
       -2    1    3    3    0  502 -0.79876774514E+03 -0.90122336278E+03  0.20268875027E+04  0.23576484914E+04  0.25500000920E-02 0.  1.
</event>
<event>
 5   0  0.3159875E-07  0.3573814E+04  0.7818609E-02  0.8096516E-01
        3   -1    0    0  501    0  0.00000000000E+00  0.00000000000E+00  0.14102592570E+04  0.14102592606E+04  0.10100000352E+00 0. -1.
       -3   -1    0    0    0  501  0.00000000000E+00  0.00000000000E+00 -0.22641489770E+04  0.22641489792E+04  0.10100000352E+00 0.  1.
    10030    2    1    2    0    0  0.00000000000E+00  0.00000000000E+00 -0.85388972001E+03  0.36744082398E+04  0.35738142451E+04 0.  0.
        2    1    3    3  502    0 -0.17717107434E+04  0.89273604309E+02 -0.20617228318E+03  0.17858991419E+04  0.25500000920E-02 0. -1.
       -2    1    3    3    0  502  0.17717107434E+04 -0.89273604309E+02 -0.64771743683E+03  0.18885090979E+04  0.25500000920E-02 0.  1.
</event>
<event>
 5   0  0.3159875E-07  0.3347722E+04  0.7818609E-02  0.8150858E-01
        1   -1    0    0  501    0  0.00000000000E+00  0.00000000000E+00  0.22967103492E+04  0.22967103493E+04  0.50400001928E-02 0. -1.
       -1   -1    0    0    0  501  0.00000000000E+00  0.00000000000E+00 -0.12199233969E+04  0.12199233969E+04  0.50400001928E-02 0.  1.
    10030    2    1    2    0    0  0.00000000000E+00  0.00000000000E+00  0.10767869523E+04  0.35166337462E+04  0.33477220261E+04 0.  0.
        5    1    3    3  502    0  0.20234474246E+03 -0.15239959002E+02 -0.12069484048E+04  0.12238963163E+04  0.46999998093E+01 0.  1.
       -5    1    3    3    0  502 -0.20234474246E+03  0.15239959002E+02  0.22837353571E+04  0.22927374299E+04  0.46999998093E+01 0. -1.
</event>
<event>
 5   0  0.3159875E-07  0.3604006E+04  0.7818609E-02  0.8089575E-01
        1   -1    0    0  501    0  0.00000000000E+00  0.00000000000E+00  0.16844434848E+04  0.16844434848E+04  0.50400001928E-02 0.  1.
       -1   -1    0    0    0  501  0.00000000000E+00  0.00000000000E+00 -0.19277671829E+04  0.19277671829E+04  0.50400001928E-02 0. -1.
    10030    2    1    2    0    0  0.00000000000E+00  0.00000000000E+00 -0.24332369812E+03  0.36122106678E+04  0.36040060331E+04 0.  0.
        2    1    3    3  502    0 -0.14638806498E+04 -0.61634402021E+03 -0.97470950552E+03  0.18635678491E+04  0.25500000920E-02 0.  1.
       -2    1    3    3    0  502  0.14638806498E+04  0.61634402021E+03  0.73138580741E+03  0.17486428187E+04  0.25500000920E-02 0. -1.
</event>
<event>
 5   0  0.3159875E-07  0.3611935E+04  0.7818609E-02  0.8087763E-01
       -1   -1    0    0    0  501  0.00000000000E+00  0.00000000000E+00  0.20221250342E+04  0.20221250342E+04  0.50400001928E-02 0.  1.
        1   -1    0    0  501    0  0.00000000000E+00  0.00000000000E+00 -0.16129163930E+04  0.16129163930E+04  0.50400001928E-02 0. -1.
    10030    2    1    2    0    0  0.00000000000E+00  0.00000000000E+00  0.40920864115E+03  0.36350414272E+04  0.36119350029E+04 0.  0.
        2    1    3    3  502    0 -0.66240240893E+03  0.16462069344E+04 -0.13331802921E+03  0.17794796766E+04  0.25500000920E-02 0.  1.
       -2    1    3    3    0  502  0.66240240893E+03 -0.16462069344E+04  0.54252667036E+03  0.18555617506E+04  0.25500000920E-02 0. -1.
</event>
<event>
 5   0  0.3159875E-07  0.3621284E+04  0.7818609E-02  0.8085634E-01
        1   -1    0    0  501    0  0.00000000000E+00  0.00000000000E+00  0.23976029219E+04  0.23976029219E+04  0.50400001928E-02 0.  1.
       -1   -1    0    0    0  501  0.00000000000E+00  0.00000000000E+00 -0.13673759289E+04  0.13673759289E+04  0.50400001928E-02 0. -1.
    10030    2    1    2    0    0  0.00000000000E+00  0.00000000000E+00  0.10302269929E+04  0.37649788508E+04  0.36212840389E+04 0.  0.
        2    1    3    3  502    0  0.31131766781E+03 -0.96672856829E+03 -0.10433471973E+04  0.14560412732E+04  0.25500000920E-02 0. -1.
       -2    1    3    3    0  502 -0.31131766781E+03  0.96672856829E+03  0.20735741902E+04  0.23089375776E+04  0.25500000920E-02 0.  1.
</event>
<event>
 5   0  0.1006019E-06  0.2853758E+04  0.7818609E-02  0.8286770E-01
       -2   -1    0    0    0  501  0.00000000000E+00  0.00000000000E+00  0.15832285408E+04  0.15832285408E+04  0.25500000920E-02 0. -1.
        2   -1    0    0  501    0  0.00000000000E+00  0.00000000000E+00 -0.12859694539E+04  0.12859694539E+04  0.25500000920E-02 0.  1.
    10030    2    1    2    0    0  0.00000000000E+00  0.00000000000E+00  0.29725908693E+03  0.28691979947E+04  0.28537579028E+04 0.  0.
        1    1    3    3  502    0  0.58690621143E+03 -0.46958883253E+03 -0.10707849346E+04  0.13082633331E+04  0.50400001928E-02 0.  1.
       -1    1    3    3    0  502 -0.58690621143E+03  0.46958883253E+03  0.13680440215E+04  0.15609346615E+04  0.50400001928E-02 0. -1.
</event>
<event>
 5   0  0.3159875E-07  0.3000804E+04  0.7818609E-02  0.8243501E-01
       -1   -1    0    0    0  501  0.00000000000E+00  0.00000000000E+00  0.19343495527E+04  0.19343495527E+04  0.50400001928E-02 0.  1.
        1   -1    0    0  501    0  0.00000000000E+00  0.00000000000E+00 -0.11638049975E+04  0.11638049975E+04  0.50400001928E-02 0. -1.
    10030    2    1    2    0    0  0.00000000000E+00  0.00000000000E+00  0.77054455521E+03  0.30981545503E+04  0.30008036767E+04 0.  0.
        5    1    3    3  502    0 -0.97279452023E+03  0.75110799925E+03  0.12738268015E+04  0.17700703984E+04  0.46999998093E+01 0.  1.
       -5    1    3    3    0  502  0.97279452023E+03 -0.75110799925E+03 -0.50328224625E+03  0.13280841519E+04  0.46999998093E+01 0. -1.
</event>
<event>
 5   0  0.3159875E-07  0.3588160E+04  0.7818609E-02  0.8093209E-01
       -1   -1    0    0    0  501  0.00000000000E+00  0.00000000000E+00  0.20975350045E+04  0.20975350045E+04  0.50400001928E-02 0.  1.
        1   -1    0    0  501    0  0.00000000000E+00  0.00000000000E+00 -0.15345264729E+04  0.15345264729E+04  0.50400001928E-02 0. -1.
    10030    2    1    2    0    0  0.00000000000E+00  0.00000000000E+00  0.56300853163E+03  0.36320614774E+04  0.35881599698E+04 0.  0.
        2    1    3    3  502    0 -0.17226325553E+04 -0.45715191428E+03  0.48962186840E+03  0.18482912019E+04  0.25500000920E-02 0.  1.
       -2    1    3    3    0  502  0.17226325553E+04  0.45715191428E+03  0.73386663225E+02  0.17837702754E+04  0.25500000920E-02 0. -1.
</event>
<event>
 5   0  0.3242047E-07  0.3653733E+04  0.7818609E-02  0.8078293E-01
        1   -1    0    0  501    0  0.00000000000E+00  0.00000000000E+00  0.21830759344E+04  0.21830759344E+04  0.50400001928E-02 0. -1.
       -1   -1    0    0    0  501  0.00000000000E+00  0.00000000000E+00 -0.15287793509E+04  0.15287793509E+04  0.50400001928E-02 0.  1.
    10030    2    1    2    0    0  0.00000000000E+00  0.00000000000E+00  0.65429658351E+03  0.37118552853E+04  0.36537331101E+04 0.  0.
        1    1    3    3  502    0  0.50838821766E+03 -0.32848856624E+03  0.20782495039E+04  0.21645979577E+04  0.50400001928E-02 0. -1.
       -1    1    3    3    0  502 -0.50838821766E+03  0.32848856624E+03 -0.14239529204E+04  0.15472573275E+04  0.50400001928E-02 0.  1.
</event>
<event>
 5   0  0.9878977E-07  0.3624252E+04  0.7818609E-02  0.8084959E-01
        2   -1    0    0  501    0  0.00000000000E+00  0.00000000000E+00  0.27840259657E+04  0.27840259657E+04  0.25500000920E-02 0.  1.
       -2   -1    0    0    0  501  0.00000000000E+00  0.00000000000E+00 -0.11795152423E+04  0.11795152423E+04  0.25500000920E-02 0. -1.
    10030    2    1    2    0    0  0.00000000000E+00  0.00000000000E+00  0.16045107234E+04  0.39635412080E+04  0.36242522327E+04 0.  0.
        5    1    3    3  502    0 -0.10226924093E+03 -0.46206588911E+03  0.27152447177E+04  0.27561821149E+04  0.46999998093E+01 0.  1.
       -5    1    3    3    0  502  0.10226924093E+03  0.46206588911E+03 -0.11107339943E+04  0.12073590931E+04  0.46999998093E+01 0. -1.
</event>
<event>
 5   0  0.9878977E-07  0.3566677E+04  0.7818609E-02  0.8098168E-01
       -2   -1    0    0    0  501  0.00000000000E+00  0.00000000000E+00  0.21003067229E+04  0.21003067229E+04  0.25500000920E-02 0.  1.
        2   -1    0    0  501    0  0.00000000000E+00  0.00000000000E+00 -0.15142053392E+04  0.15142053392E+04  0.25500000920E-02 0. -1.
    10030    2    1    2    0    0  0.00000000000E+00  0.00000000000E+00  0.58610138372E+03  0.36145120622E+04  0.35666766906E+04 0.  0.
        5    1    3    3  502    0 -0.11462532048E+04 -0.64353457125E+03 -0.92820104248E+03  0.16092272739E+04  0.46999998093E+01 0. -1.
       -5    1    3    3    0  502  0.11462532048E+04  0.64353457125E+03  0.15143024262E+04  0.20052847882E+04  0.46999998093E+01 0.  1.
</event>
<event>
 5   0  0.9538919E-07  0.3585505E+04  0.7818609E-02  0.8093820E-01
        2   -1    0    0  501    0  0.00000000000E+00  0.00000000000E+00  0.17743305938E+04  0.17743305938E+04  0.25500000920E-02 0.  1.
       -2   -1    0    0    0  501  0.00000000000E+00  0.00000000000E+00 -0.18113655638E+04  0.18113655638E+04  0.25500000920E-02 0. -1.
    10030    2    1    2    0    0  0.00000000000E+00  0.00000000000E+00 -0.37034970015E+02  0.35856961575E+04  0.35855048940E+04 0.  0.
        4    1    3    3  502    0  0.52284181646E+03  0.37353722831E+03  0.16552103731E+04  0.17755609305E+04  0.12699999809E+01 0.  1.
       -4    1    3    3    0  502 -0.52284181646E+03 -0.37353722831E+03 -0.16922453431E+04  0.18101352270E+04  0.12699999809E+01 0. -1.
</event>
<event>
 5   0  0.3159875E-07  0.3585216E+04  0.7818609E-02  0.8093887E-01
       -1   -1    0    0    0  501  0.00000000000E+00  0.00000000000E+00  0.22479960417E+04  0.22479960417E+04  0.50400001928E-02 0.  1.
        1   -1    0    0  501    0  0.00000000000E+00  0.00000000000E+00 -0.14294703728E+04  0.14294703729E+04  0.50400001928E-02 0. -1.
    10030    2    1    2    0    0  0.00000000000E+00  0.00000000000E+00  0.81852566881E+03  0.36774664145E+04  0.35852161663E+04 0.  0.
        5    1    3    3  502    0  0.12327548253E+04  0.11597396035E+04  0.10150011205E+04  0.19735576434E+04  0.46999998093E+01 0.  1.
       -5    1    3    3    0  502 -0.12327548253E+04 -0.11597396035E+04 -0.19647545166E+03  0.17039087711E+04  0.46999998093E+01 0. -1.
</event>
<event>
 5   0  0.1031659E-06  0.3378990E+04  0.7818609E-02  0.8143082E-01
        2   -1    0    0  501    0  0.00000000000E+00  0.00000000000E+00  0.16515424276E+04  0.16515424276E+04  0.25500000920E-02 0.  1.
       -2   -1    0    0    0  501  0.00000000000E+00  0.00000000000E+00 -0.17283198970E+04  0.17283198970E+04  0.25500000920E-02 0. -1.
    10030    2    1    2    0    0  0.00000000000E+00  0.00000000000E+00 -0.76777469465E+02  0.33798623246E+04  0.33789901677E+04 0.  0.
        2    1    3    3  502    0  0.45300049034E+03 -0.25773708624E+03  0.15691215263E+04  0.16534147133E+04  0.25500000920E-02 0.  1.
       -2    1    3    3    0  502 -0.45300049034E+03  0.25773708624E+03 -0.16458989958E+04  0.17264476112E+04  0.25500000920E-02 0. -1.
</event>
<event>
 5   0  0.3159875E-07  0.3602347E+04  0.7818609E-02  0.8089954E-01
        1   -1    0    0  501    0  0.00000000000E+00  0.00000000000E+00  0.18517921798E+04  0.18517921798E+04  0.50400001928E-02 0.  1.
       -1   -1    0    0    0  501  0.00000000000E+00  0.00000000000E+00 -0.17519380559E+04  0.17519380559E+04  0.50400001928E-02 0. -1.
    10030    2    1    2    0    0  0.00000000000E+00  0.00000000000E+00  0.99854123893E+02  0.36037302357E+04  0.36023465638E+04 0.  0.
        2    1    3    3  502    0  0.39676634700E+02 -0.96529440347E+03  0.15706614983E+04  0.18440024574E+04  0.25500000920E-02 0.  1.
       -2    1    3    3    0  502 -0.39676634700E+02  0.96529440347E+03 -0.14708073744E+04  0.17597277782E+04  0.25500000920E-02 0. -1.
</event>
<event>
 5   0  0.1031659E-06  0.3588780E+04  0.7818609E-02  0.8093067E-01
        2   -1    0    0  501    0  0.00000000000E+00  0.00000000000E+00  0.21957162443E+04  0.21957162443E+04  0.25500000920E-02 0. -1.
       -2   -1    0    0    0  501  0.00000000000E+00  0.00000000000E+00 -0.14664171699E+04  0.14664171699E+04  0.25500000920E-02 0.  1.
    10030    2    1    2    0    0  0.00000000000E+00  0.00000000000E+00  0.72929907437E+03  0.36621334141E+04  0.35887802946E+04 0.  0.
        2    1    3    3  502    0 -0.78870492726E+03  0.15316062221E+04  0.87686844507E+03  0.19330730332E+04  0.25500000920E-02 0. -1.
       -2    1    3    3    0  502  0.78870492726E+03 -0.15316062221E+04 -0.14756937070E+03  0.17290603809E+04  0.25500000920E-02 0.  1.
</event>
<event>
 5   0  0.3159875E-07  0.3647777E+04  0.7818609E-02  0.8079635E-01
       -1   -1    0    0    0  501  0.00000000000E+00  0.00000000000E+00  0.22336012322E+04  0.22336012322E+04  0.50400001928E-02 0.  1.
        1   -1    0    0  501    0  0.00000000000E+00  0.00000000000E+00 -0.14893302841E+04  0.14893302841E+04  0.50400001928E-02 0. -1.
    10030    2    1    2    0    0  0.00000000000E+00  0.00000000000E+00  0.74427094810E+03  0.37229315163E+04  0.36477773823E+04 0.  0.
        5    1    3    3  502    0  0.13426116452E+04 -0.11541628864E+04  0.81916630351E+03  0.19508340578E+04  0.46999998093E+01 0. -1.
       -5    1    3    3    0  502 -0.13426116452E+04  0.11541628864E+04 -0.74895355411E+02  0.17720974585E+04  0.46999998093E+01 0.  1.
</event>
<event>
 5   0  0.9538919E-07  0.3579985E+04  0.7818609E-02  0.8095092E-01
        2   -1    0    0  501    0  0.00000000000E+00  0.00000000000E+00  0.19206032684E+04  0.19206032684E+04  0.25500000920E-02 0.  1.
       -2   -1    0    0    0  501  0.00000000000E+00  0.00000000000E+00 -0.16682636492E+04  0.16682636492E+04  0.25500000920E-02 0. -1.
    10030    2    1    2    0    0  0.00000000000E+00  0.00000000000E+00  0.25233961916E+03  0.35888669176E+04  0.35799847023E+04 0.  0.
        4    1    3    3  502    0  0.12127861212E+04  0.10224814896E+04  0.95753579286E+03  0.18528882805E+04  0.12699999809E+01 0.  1.
       -4    1    3    3    0  502 -0.12127861212E+04 -0.10224814896E+04 -0.70519617370E+03  0.17359786371E+04  0.12699999809E+01 0. -1.
</event>
<event>
 5   0  0.3242047E-07  0.3618315E+04  0.7818609E-02  0.8086309E-01
       -1   -1    0    0    0  501  0.00000000000E+00  0.00000000000E+00  0.13600919550E+04  0.13600919550E+04  0.50400001928E-02 0.  1.
        1   -1    0    0  501    0  0.00000000000E+00  0.00000000000E+00 -0.24064920325E+04  0.24064920325E+04  0.50400001928E-02 0. -1.
    10030    2    1    2    0    0  0.00000000000E+00  0.00000000000E+00 -0.10464000775E+04  0.37665839875E+04  0.36183147753E+04 0.  0.
        1    1    3    3  502    0 -0.20125661622E+02 -0.66552690756E+03 -0.22743082810E+04  0.23697698757E+04  0.50400001928E-02 0. -1.
       -1    1    3    3    0  502  0.20125661622E+02  0.66552690756E+03  0.12279082034E+04  0.13968141118E+04  0.50400001928E-02 0.  1.
</event>
<event>
 5   0  0.3159875E-07  0.3579205E+04  0.7818609E-02  0.8095272E-01
        1   -1    0    0  501    0  0.00000000000E+00  0.00000000000E+00  0.23974604680E+04  0.23974604680E+04  0.50400001928E-02 0.  1.
       -1   -1    0    0    0  501  0.00000000000E+00  0.00000000000E+00 -0.13358621325E+04  0.13358621325E+04  0.50400001928E-02 0. -1.
    10030    2    1    2    0    0  0.00000000000E+00  0.00000000000E+00  0.10615983355E+04  0.37333226006E+04  0.35792047460E+04 0.  0.
        5    1    3    3  502    0  0.53345656863E+03  0.34312325367E+03 -0.12146803344E+04  0.13703210874E+04  0.46999998093E+01 0. -1.
       -5    1    3    3    0  502 -0.53345656863E+03 -0.34312325367E+03  0.22762786699E+04  0.23630015131E+04  0.46999998093E+01 0.  1.
</event>
<event>
 5   0  0.3242047E-07  0.2965715E+04  0.7818609E-02  0.8253589E-01
       -1   -1    0    0    0  501  0.00000000000E+00  0.00000000000E+00  0.14042276788E+04  0.14042276788E+04  0.50400001928E-02 0. -1.
        1   -1    0    0  501    0  0.00000000000E+00  0.00000000000E+00 -0.15658907105E+04  0.15658907105E+04  0.50400001928E-02 0.  1.
    10030    2    1    2    0    0  0.00000000000E+00  0.00000000000E+00 -0.16166303168E+03  0.29701183893E+04  0.29657154804E+04 0.  0.
        1    1    3    3  502    0 -0.30672834030E+03  0.98013341185E+03  0.99039346351E+03  0.14267526038E+04  0.50400001928E-02 0. -1.
       -1    1    3    3    0  502  0.30672834030E+03 -0.98013341185E+03 -0.11520564952E+04  0.15433657855E+04  0.50400001928E-02 0.  1.
</event>
<event>
 5   0  0.1031659E-06  0.3582979E+04  0.7818609E-02  0.8094402E-01
        2   -1    0    0  501    0  0.00000000000E+00  0.00000000000E+00  0.23370912022E+04  0.23370912022E+04  0.25500000920E-02 0. -1.
       -2   -1    0    0    0  501  0.00000000000E+00  0.00000000000E+00 -0.13732602574E+04  0.13732602574E+04  0.25500000920E-02 0.  1.
    10030    2    1    2    0    0  0.00000000000E+00  0.00000000000E+00  0.96383094482E+03  0.37103514596E+04  0.35829789092E+04 0.  0.
        2    1    3    3  502    0 -0.11078414459E+04 -0.54535723055E+02  0.19387488923E+04  0.22336145777E+04  0.25500000920E-02 0. -1.
       -2    1    3    3    0  502  0.11078414459E+04  0.54535723055E+02 -0.97491794747E+03  0.14767368820E+04  0.25500000920E-02 0.  1.
</event>
<event>
 5   0  0.9878336E-07  0.3563034E+04  0.7818609E-02  0.8099012E-01
        2   -1    0    0  501    0  0.00000000000E+00  0.00000000000E+00  0.19360758615E+04  0.19360758615E+04  0.25500000920E-02 0.  1.
       -2   -1    0    0    0  501  0.00000000000E+00  0.00000000000E+00 -0.16392969791E+04  0.16392969791E+04  0.25500000920E-02 0. -1.
    10030    2    1    2    0    0  0.00000000000E+00  0.00000000000E+00  0.29677888240E+03  0.35753728405E+04  0.35630342748E+04 0.  0.
        3    1    3    3  502    0  0.16291317708E+04 -0.65460468521E+03 -0.15469238262E+03  0.17625286846E+04  0.10100000352E+00 0. -1.
       -3    1    3    3    0  502 -0.16291317708E+04  0.65460468521E+03  0.45147126502E+03  0.18128441560E+04  0.10100000352E+00 0.  1.
</event>
<event>
 5   0  0.3159875E-07  0.3315017E+04  0.7818609E-02  0.8159085E-01
        1   -1    0    0  501    0  0.00000000000E+00  0.00000000000E+00  0.19951544534E+04  0.19951544534E+04  0.50400001928E-02 0. -1.
       -1   -1    0    0    0  501  0.00000000000E+00  0.00000000000E+00 -0.13770032139E+04  0.13770032139E+04  0.50400001928E-02 0.  1.
    10030    2    1    2    0    0  0.00000000000E+00  0.00000000000E+00  0.61815123954E+03  0.33721576673E+04  0.33150167991E+04 0.  0.
        5    1    3    3  502    0 -0.14083992213E+04  0.79848751759E+03 -0.52210126607E+02  0.16198514345E+04  0.46999998093E+01 0.  1.
       -5    1    3    3    0  502  0.14083992213E+04 -0.79848751759E+03  0.67036136615E+03  0.17523062328E+04  0.46999998093E+01 0. -1.
</event>
<event>
 5   0  0.9878977E-07  0.3575401E+04  0.7818609E-02  0.8096150E-01
       -2   -1    0    0    0  501  0.00000000000E+00  0.00000000000E+00  0.20281935026E+04  0.20281935026E+04  0.25500000920E-02 0.  1.
        2   -1    0    0  501    0  0.00000000000E+00  0.00000000000E+00 -0.15757238115E+04  0.15757238115E+04  0.25500000920E-02 0. -1.
    10030    2    1    2    0    0  0.00000000000E+00  0.00000000000E+00  0.45246969104E+03  0.36039173141E+04  0.35754008426E+04 0.  0.
        5    1    3    3  502    0  0.12666028112E+04  0.22949093880E+03 -0.10241841220E+04  0.16449692939E+04  0.46999998093E+01 0. -1.
       -5    1    3    3    0  502 -0.12666028112E+04 -0.22949093880E+03  0.14766538130E+04  0.19589480202E+04  0.46999998093E+01 0.  1.
</event>
<event>
 5   0  0.9878977E-07  0.3597034E+04  0.7818609E-02  0.8091171E-01
       -2   -1    0    0    0  501  0.00000000000E+00  0.00000000000E+00  0.19171341705E+04  0.19171341705E+04  0.25500000920E-02 0.  1.
        2   -1    0    0  501    0  0.00000000000E+00  0.00000000000E+00 -0.16872393083E+04  0.16872393083E+04  0.25500000920E-02 0. -1.
    10030    2    1    2    0    0  0.00000000000E+00  0.00000000000E+00  0.22989486221E+03  0.36043734788E+04  0.35970344073E+04 0.  0.
        5    1    3    3  502    0 -0.13691597699E+04 -0.11627064959E+04  0.24446099768E+02  0.17964143656E+04  0.46999998093E+01 0.  1.
       -5    1    3    3    0  502  0.13691597699E+04  0.11627064959E+04  0.20544876245E+03  0.18079591132E+04  0.46999998093E+01 0. -1.
</event>
<event>
 5   0  0.9878977E-07  0.3610678E+04  0.7818609E-02  0.8088050E-01
       -2   -1    0    0    0  501  0.00000000000E+00  0.00000000000E+00  0.17618408666E+04  0.17618408666E+04  0.25500000920E-02 0. -1.
        2   -1    0    0  501    0  0.00000000000E+00  0.00000000000E+00 -0.18499106369E+04  0.18499106369E+04  0.25500000920E-02 0.  1.
    10030    2    1    2    0    0  0.00000000000E+00  0.00000000000E+00 -0.88069770290E+02  0.36117515034E+04  0.36106775871E+04 0.  0.
        5    1    3    3  502    0  0.32929521521E+03  0.11060441202E+04 -0.14327767131E+04  0.18397391484E+04  0.46999998093E+01 0.  1.
       -5    1    3    3    0  502 -0.32929521521E+03 -0.11060441202E+04  0.13447069428E+04  0.17720123551E+04  0.46999998093E+01 0. -1.
</event>
<event>
 5   0  0.3242047E-07  0.3587200E+04  0.7818609E-02  0.8093430E-01
       -1   -1    0    0    0  501  0.00000000000E+00  0.00000000000E+00  0.17505603043E+04  0.17505603043E+04  0.50400001928E-02 0.  1.
        1   -1    0    0  501    0  0.00000000000E+00  0.00000000000E+00 -0.18376978828E+04  0.18376978828E+04  0.50400001928E-02 0. -1.
    10030    2    1    2    0    0  0.00000000000E+00  0.00000000000E+00 -0.87137578560E+02  0.35882581871E+04  0.35872000028E+04 0.  0.
        1    1    3    3  502    0 -0.90465002595E+03 -0.94053822829E+03  0.11872400883E+04  0.17642400221E+04  0.50400001928E-02 0.  1.
       -1    1    3    3    0  502  0.90465002595E+03  0.94053822829E+03 -0.12743776669E+04  0.18240181650E+04  0.50400001928E-02 0. -1.
</event>
<event>
 5   0  0.9538919E-07  0.3561303E+04  0.7818609E-02  0.8099414E-01
       -2   -1    0    0    0  501  0.00000000000E+00  0.00000000000E+00  0.14286135584E+04  0.14286135584E+04  0.25500000920E-02 0. -1.
        2   -1    0    0  501    0  0.00000000000E+00  0.00000000000E+00 -0.22194377806E+04  0.22194377806E+04  0.25500000920E-02 0.  1.
    10030    2    1    2    0    0  0.00000000000E+00  0.00000000000E+00 -0.79082422220E+03  0.36480513391E+04  0.35613025176E+04 0.  0.
        4    1    3    3  502    0 -0.66125249874E+03 -0.69034339414E+03  0.11434762650E+04  0.14904255938E+04  0.12699999809E+01 0. -1.
       -4    1    3    3    0  502  0.66125249874E+03  0.69034339414E+03 -0.19343004872E+04  0.21576257453E+04  0.12699999809E+01 0.  1.
</event>
<event>
 5   0  0.3242047E-07  0.3613206E+04  0.7818609E-02  0.8087473E-01
       -1   -1    0    0    0  501  0.00000000000E+00  0.00000000000E+00  0.14977685075E+04  0.14977685075E+04  0.50400001928E-02 0.  1.
        1   -1    0    0  501    0  0.00000000000E+00  0.00000000000E+00 -0.21791182507E+04  0.21791182507E+04  0.50400001928E-02 0. -1.
    10030    2    1    2    0    0  0.00000000000E+00  0.00000000000E+00 -0.68134974316E+03  0.36768867582E+04  0.36132061608E+04 0.  0.
        1    1    3    3  502    0 -0.10994989764E+04 -0.48643260331E+03 -0.17128839348E+04  0.20927221628E+04  0.50400001928E-02 0. -1.
       -1    1    3    3    0  502  0.10994989764E+04  0.48643260331E+03  0.10315341917E+04  0.15841645954E+04  0.50400001928E-02 0.  1.
</event>
<event>
 5   0  0.3365378E-07  0.3580491E+04  0.7818609E-02  0.8094975E-01
       -1   -1    0    0    0  501  0.00000000000E+00  0.00000000000E+00  0.19819068969E+04  0.19819068969E+04  0.50400001928E-02 0.  1.
        1   -1    0    0  501    0  0.00000000000E+00  0.00000000000E+00 -0.16171190487E+04  0.16171190487E+04  0.50400001928E-02 0. -1.
    10030    2    1    2    0    0  0.00000000000E+00  0.00000000000E+00  0.36478784818E+03  0.35990259456E+04  0.35804912489E+04 0.  0.
        3    1    3    3  502    0 -0.14799805816E+03 -0.17095183272E+04 -0.33076132061E+03  0.17475009006E+04  0.10100000352E+00 0. -1.
       -3    1    3    3    0  502  0.14799805816E+03  0.17095183272E+04  0.69554916879E+03  0.18515250451E+04  0.10100000352E+00 0.  1.
</event>
<event>
 5   0  0.3159875E-07  0.3562421E+04  0.7818609E-02  0.8099154E-01
        1   -1    0    0  501    0  0.00000000000E+00  0.00000000000E+00  0.99643276190E+03  0.99643276192E+03  0.50400001928E-02 0. -1.
       -1   -1    0    0    0  501  0.00000000000E+00  0.00000000000E+00 -0.31840696750E+04  0.31840696750E+04  0.50400001928E-02 0.  1.
    10030    2    1    2    0    0  0.00000000000E+00  0.00000000000E+00 -0.21876369131E+04  0.41805024369E+04  0.35624212779E+04 0.  0.
        2    1    3    3  502    0 -0.68210688016E+03  0.16443532992E+04 -0.11636764464E+04  0.21268075702E+04  0.25500000920E-02 0. -1.
       -2    1    3    3    0  502  0.68210688016E+03 -0.16443532992E+04 -0.10239604667E+04  0.20536948668E+04  0.25500000920E-02 0.  1.
</event>
<event>
 5   0  0.9538919E-07  0.3540981E+04  0.7818609E-02  0.8104146E-01
       -2   -1    0    0    0  501  0.00000000000E+00  0.00000000000E+00  0.13786833108E+04  0.13786833108E+04  0.25500000920E-02 0.  1.
        2   -1    0    0  501    0  0.00000000000E+00  0.00000000000E+00 -0.22736449526E+04  0.22736449526E+04  0.25500000920E-02 0. -1.
    10030    2    1    2    0    0  0.00000000000E+00  0.00000000000E+00 -0.89496164182E+03  0.36523282634E+04  0.35409808532E+04 0.  0.
        4    1    3    3  502    0  0.54739857726E+03 -0.14373419532E+04 -0.13520046765E+04  0.20478074497E+04  0.12699999809E+01 0. -1.
       -4    1    3    3    0  502 -0.54739857726E+03  0.14373419532E+04  0.45704303472E+03  0.16045208136E+04  0.12699999809E+01 0.  1.
</event>
<event>
 5   0  0.3278988E-07  0.3572055E+04  0.7818609E-02  0.8096923E-01
       -1   -1    0    0    0  501  0.00000000000E+00  0.00000000000E+00  0.10923129176E+04  0.10923129176E+04  0.50400001928E-02 0. -1.
        1   -1    0    0  501    0  0.00000000000E+00  0.00000000000E+00 -0.29203111300E+04  0.29203111300E+04  0.50400001928E-02 0.  1.
    10030    2    1    2    0    0  0.00000000000E+00  0.00000000000E+00 -0.18279982124E+04  0.40126240477E+04  0.35720546305E+04 0.  0.
        4    1    3    3  502    0  0.11532519881E+04  0.12552963249E+04 -0.15127844707E+04  0.22790957591E+04  0.12699999809E+01 0. -1.
       -4    1    3    3    0  502 -0.11532519881E+04 -0.12552963249E+04 -0.31521374173E+03  0.17335282886E+04  0.12699999809E+01 0.  1.
</event>
<event>
 5   0  0.3365378E-07  0.3516581E+04  0.7818609E-02  0.8109872E-01
       -1   -1    0    0    0  501  0.00000000000E+00  0.00000000000E+00  0.14660885382E+04  0.14660885382E+04  0.50400001928E-02 0. -1.
        1   -1    0    0  501    0  0.00000000000E+00  0.00000000000E+00 -0.21087307363E+04  0.21087307363E+04  0.50400001928E-02 0.  1.
    10030    2    1    2    0    0  0.00000000000E+00  0.00000000000E+00 -0.64264219807E+03  0.35748192745E+04  0.35165812732E+04 0.  0.
        3    1    3    3  502    0 -0.34507588581E+03 -0.10744262394E+04  0.10493849418E+04  0.15409989867E+04  0.10100000352E+00 0. -1.
       -3    1    3    3    0  502  0.34507588581E+03  0.10744262394E+04 -0.16920271399E+04  0.20338202878E+04  0.10100000352E+00 0.  1.
</event>
<event>
 5   0  0.1006019E-06  0.3580789E+04  0.7818609E-02  0.8094906E-01
        2   -1    0    0  501    0  0.00000000000E+00  0.00000000000E+00  0.22505593570E+04  0.22505593570E+04  0.25500000920E-02 0.  1.
       -2   -1    0    0    0  501  0.00000000000E+00  0.00000000000E+00 -0.14243184843E+04  0.14243184843E+04  0.25500000920E-02 0. -1.
    10030    2    1    2    0    0  0.00000000000E+00  0.00000000000E+00  0.82624087271E+03  0.36748778413E+04  0.35807894617E+04 0.  0.
        1    1    3    3  502    0  0.14102637423E+03  0.11508336860E+04 -0.98698719175E+03  0.15226458313E+04  0.50400001928E-02 0. -1.
       -1    1    3    3    0  502 -0.14102637423E+03 -0.11508336860E+04  0.18132280645E+04  0.21522320100E+04  0.50400001928E-02 0.  1.
</event>
<event>
 5   0  0.9878977E-07  0.3649838E+04  0.7818609E-02  0.8079170E-01
       -2   -1    0    0    0  501  0.00000000000E+00  0.00000000000E+00  0.15387115245E+04  0.15387115245E+04  0.25500000920E-02 0. -1.
        2   -1    0    0  501    0  0.00000000000E+00  0.00000000000E+00 -0.21643625654E+04  0.21643625654E+04  0.25500000920E-02 0.  1.
    10030    2    1    2    0    0  0.00000000000E+00  0.00000000000E+00 -0.62565104092E+03  0.37030740899E+04  0.36498381458E+04 0.  0.
        5    1    3    3  502    0  0.17415750698E+04 -0.12968774372E+03  0.22443087415E+03  0.17607651580E+04  0.46999998093E+01 0. -1.
       -5    1    3    3    0  502 -0.17415750698E+04  0.12968774372E+03 -0.85008191507E+03  0.19423089319E+04  0.46999998093E+01 0.  1.
</event>
<event>
 5   0  0.3278988E-07  0.3270538E+04  0.7818609E-02  0.8170433E-01
        1   -1    0    0  501    0  0.00000000000E+00  0.00000000000E+00  0.18905470057E+04  0.18905470057E+04  0.50400001928E-02 0.  1.
       -1   -1    0    0    0  501  0.00000000000E+00  0.00000000000E+00 -0.14144609725E+04  0.14144609725E+04  0.50400001928E-02 0. -1.
    10030    2    1    2    0    0  0.00000000000E+00  0.00000000000E+00  0.47608603323E+03  0.33050079782E+04  0.32705381553E+04 0.  0.
        4    1    3    3  502    0  0.12312819118E+04 -0.90533589062E+03  0.82590878640E+03  0.17371859882E+04  0.12699999809E+01 0.  1.
       -4    1    3    3    0  502 -0.12312819118E+04  0.90533589062E+03 -0.34982275316E+03  0.15678219901E+04  0.12699999809E+01 0. -1.
</event>
<event>
 5   0  0.9538919E-07  0.3581879E+04  0.7818609E-02  0.8094655E-01
        2   -1    0    0  501    0  0.00000000000E+00  0.00000000000E+00  0.18804192048E+04  0.18804192048E+04  0.25500000920E-02 0.  1.
       -2   -1    0    0    0  501  0.00000000000E+00  0.00000000000E+00 -0.17057180190E+04  0.17057180190E+04  0.25500000920E-02 0. -1.
    10030    2    1    2    0    0  0.00000000000E+00  0.00000000000E+00  0.17470118583E+03  0.35861372238E+04  0.35818793508E+04 0.  0.
        4    1    3    3  502    0  0.14203791845E+04 -0.98179761112E+03  0.56337317280E+03  0.18162583852E+04  0.12699999809E+01 0.  1.
       -4    1    3    3    0  502 -0.14203791845E+04  0.98179761112E+03 -0.38867198697E+03  0.17698788386E+04  0.12699999809E+01 0. -1.
</event>
<event>
 5   0  0.1031659E-06  0.3548984E+04  0.7818609E-02  0.8102278E-01
        2   -1    0    0  501    0  0.00000000000E+00  0.00000000000E+00  0.14687688340E+04  0.14687688340E+04  0.25500000920E-02 0. -1.
       -2   -1    0    0    0  501  0.00000000000E+00  0.00000000000E+00 -0.21438513729E+04  0.21438513729E+04  0.25500000920E-02 0.  1.
    10030    2    1    2    0    0  0.00000000000E+00  0.00000000000E+00 -0.67508253894E+03  0.36126202069E+04  0.35489841257E+04 0.  0.
        2    1    3    3  502    0 -0.78451872987E+03 -0.14436960271E+04 -0.10197024244E+04  0.19337840858E+04  0.25500000920E-02 0.  1.
       -2    1    3    3    0  502  0.78451872987E+03  0.14436960271E+04  0.34461988545E+03  0.16788361211E+04  0.25500000920E-02 0. -1.
</event>
<event>
 5   0  0.3242047E-07  0.3326103E+04  0.7818609E-02  0.8156285E-01
       -1   -1    0    0    0  501  0.00000000000E+00  0.00000000000E+00  0.13564774669E+04  0.13564774669E+04  0.50400001928E-02 0. -1.
        1   -1    0    0  501    0  0.00000000000E+00  0.00000000000E+00 -0.20389136880E+04  0.20389136880E+04  0.50400001928E-02 0.  1.
    10030    2    1    2    0    0  0.00000000000E+00  0.00000000000E+00 -0.68243622105E+03  0.33953911549E+04  0.33261031101E+04 0.  0.
        1    1    3    3  502    0  0.13610718088E+04 -0.94996589558E+03 -0.44725103614E+03  0.17190070275E+04  0.50400001928E-02 0.  1.
       -1    1    3    3    0  502 -0.13610718088E+04  0.94996589558E+03 -0.23518518492E+03  0.16763841274E+04  0.50400001928E-02 0. -1.
</event>
<event>
 5   0  0.1031659E-06  0.3568090E+04  0.7818609E-02  0.8097840E-01
       -2   -1    0    0    0  501  0.00000000000E+00  0.00000000000E+00  0.16302012443E+04  0.16302012443E+04  0.25500000920E-02 0. -1.
        2   -1    0    0  501    0  0.00000000000E+00  0.00000000000E+00 -0.19524070779E+04  0.19524070779E+04  0.25500000920E-02 0.  1.
    10030    2    1    2    0    0  0.00000000000E+00  0.00000000000E+00 -0.32220583369E+03  0.35826083222E+04  0.35680899360E+04 0.  0.
        2    1    3    3  502    0 -0.12147228696E+04 -0.11172143782E+03  0.11460325618E+04  0.16737454891E+04  0.25500000920E-02 0. -1.
       -2    1    3    3    0  502  0.12147228696E+04  0.11172143782E+03 -0.14682383955E+04  0.19088628331E+04  0.25500000920E-02 0.  1.
</event>
<event>
 5   0  0.3159875E-07  0.3633286E+04  0.7818609E-02  0.8082909E-01
       -1   -1    0    0    0  501  0.00000000000E+00  0.00000000000E+00  0.14213067307E+04  0.14213067307E+04  0.50400001928E-02 0. -1.
        1   -1    0    0  501    0  0.00000000000E+00  0.00000000000E+00 -0.23219424309E+04  0.23219424309E+04  0.50400001928E-02 0.  1.
    10030    2    1    2    0    0  0.00000000000E+00  0.00000000000E+00 -0.90063570015E+03  0.37432491616E+04  0.36332863390E+04 0.  0.
        2    1    3    3  502    0  0.71906604653E+03  0.94312640320E+02 -0.21663335075E+04  0.22845025102E+04  0.25500000920E-02 0.  1.
       -2    1    3    3    0  502 -0.71906604653E+03 -0.94312640320E+02  0.12656978074E+04  0.14587466514E+04  0.25500000920E-02 0. -1.
</event>
<event>
 5   0  0.3242047E-07  0.3610040E+04  0.7818609E-02  0.8088196E-01
       -1   -1    0    0    0  501  0.00000000000E+00  0.00000000000E+00  0.18547947557E+04  0.18547947557E+04  0.50400001928E-02 0. -1.
        1   -1    0    0  501    0  0.00000000000E+00  0.00000000000E+00 -0.17565810707E+04  0.17565810707E+04  0.50400001928E-02 0.  1.
    10030    2    1    2    0    0  0.00000000000E+00  0.00000000000E+00  0.98213684945E+02  0.36113758264E+04  0.36100400872E+04 0.  0.
        1    1    3    3  502    0 -0.13907895281E+04  0.10123964739E+04  0.59598564423E+03  0.18205606334E+04  0.50400001928E-02 0. -1.
       -1    1    3    3    0  502  0.13907895281E+04 -0.10123964739E+04 -0.49777195929E+03  0.17908151929E+04  0.50400001928E-02 0.  1.
</event>
<event>
 5   0  0.1006019E-06  0.3712769E+04  0.7818609E-02  0.8065138E-01
        2   -1    0    0  501    0  0.00000000000E+00  0.00000000000E+00  0.23926386382E+04  0.23926386382E+04  0.25500000920E-02 0.  1.
       -2   -1    0    0    0  501  0.00000000000E+00  0.00000000000E+00 -0.14403188711E+04  0.14403188711E+04  0.25500000920E-02 0. -1.
    10030    2    1    2    0    0  0.00000000000E+00  0.00000000000E+00  0.95231976714E+03  0.38329575093E+04  0.37127685532E+04 0.  0.
        1    1    3    3  502    0 -0.16031780126E+04  0.26793476625E+03 -0.44963865101E+03  0.16864589220E+04  0.50400001928E-02 0.  1.
       -1    1    3    3    0  502  0.16031780126E+04 -0.26793476625E+03  0.14019584182E+04  0.21464985873E+04  0.50400001928E-02 0. -1.
</event>
<event>
 5   0  0.1031659E-06  0.3576953E+04  0.7818609E-02  0.8095791E-01
       -2   -1    0    0    0  501  0.00000000000E+00  0.00000000000E+00  0.23581346826E+04  0.23581346826E+04  0.25500000920E-02 0.  1.
        2   -1    0    0  501    0  0.00000000000E+00  0.00000000000E+00 -0.13564315155E+04  0.13564315155E+04  0.25500000920E-02 0. -1.
    10030    2    1    2    0    0  0.00000000000E+00  0.00000000000E+00  0.10017031672E+04  0.37145661981E+04  0.35769530057E+04 0.  0.
        2    1    3    3  502    0 -0.76396127137E+03  0.15763585695E+04  0.87542928833E+03  0.19582950755E+04  0.25500000920E-02 0.  1.
       -2    1    3    3    0  502  0.76396127137E+03 -0.15763585695E+04  0.12627387884E+03  0.17562711226E+04  0.25500000920E-02 0. -1.
</event>
<event>
 5   0  0.3242047E-07  0.3583073E+04  0.7818609E-02  0.8094380E-01
        1   -1    0    0  501    0  0.00000000000E+00  0.00000000000E+00  0.12409737577E+04  0.12409737578E+04  0.50400001928E-02 0.  1.
       -1   -1    0    0    0  501  0.00000000000E+00  0.00000000000E+00 -0.25863579312E+04  0.25863579312E+04  0.50400001928E-02 0. -1.
    10030    2    1    2    0    0  0.00000000000E+00  0.00000000000E+00 -0.13453841734E+04  0.38273316890E+04  0.35830726037E+04 0.  0.
        1    1    3    3  502    0  0.14474055843E+04 -0.91982643559E+03 -0.11915853127E+03  0.17190876512E+04  0.50400001928E-02 0.  1.
       -1    1    3    3    0  502 -0.14474055843E+04  0.91982643559E+03 -0.12262256422E+04  0.21082440377E+04  0.50400001928E-02 0. -1.
</event>
<event>
 5   0  0.3159875E-07  0.3544564E+04  0.7818609E-02  0.8103309E-01
       -1   -1    0    0    0  501  0.00000000000E+00  0.00000000000E+00  0.23678710522E+04  0.23678710522E+04  0.50400001928E-02 0. -1.
        1   -1    0    0  501    0  0.00000000000E+00  0.00000000000E+00 -0.13265014453E+04  0.13265014453E+04  0.50400001928E-02 0.  1.
    10030    2    1    2    0    0  0.00000000000E+00  0.00000000000E+00  0.10413696069E+04  0.36943724975E+04  0.35445644996E+04 0.  0.
        2    1    3    3  502    0  0.10631346856E+04  0.59091283692E+03 -0.82280582483E+03  0.14684831514E+04  0.25500000920E-02 0.  1.
       -2    1    3    3    0  502 -0.10631346856E+04 -0.59091283692E+03  0.18641754317E+04  0.22258893461E+04  0.25500000920E-02 0. -1.
</event>
<event>
 5   0  0.1006019E-06  0.3456783E+04  0.7818609E-02  0.8124109E-01
       -2   -1    0    0    0  501  0.00000000000E+00  0.00000000000E+00  0.94341746518E+03  0.94341746518E+03  0.25500000920E-02 0. -1.
        2   -1    0    0  501    0  0.00000000000E+00  0.00000000000E+00 -0.31665070073E+04  0.31665070073E+04  0.25500000920E-02 0.  1.
    10030    2    1    2    0    0  0.00000000000E+00  0.00000000000E+00 -0.22230895421E+04  0.41099244725E+04  0.34567834843E+04 0.  0.
        1    1    3    3  502    0 -0.96429166399E+03 -0.14336973819E+04 -0.11646017975E+04  0.20836611871E+04  0.50400001928E-02 0.  1.
       -1    1    3    3    0  502  0.96429166399E+03  0.14336973819E+04 -0.10584877446E+04  0.20262632854E+04  0.50400001928E-02 0. -1.
</event>
<event>
 5   0  0.3159875E-07  0.3605676E+04  0.7818609E-02  0.8089193E-01
        1   -1    0    0  501    0  0.00000000000E+00  0.00000000000E+00  0.14826805110E+04  0.14826805110E+04  0.50400001928E-02 0. -1.
       -1   -1    0    0    0  501  0.00000000000E+00  0.00000000000E+00 -0.21921280709E+04  0.21921280710E+04  0.50400001928E-02 0.  1.
    10030    2    1    2    0    0  0.00000000000E+00  0.00000000000E+00 -0.70944755998E+03  0.36748085819E+04  0.36056763961E+04 0.  0.
        2    1    3    3  502    0 -0.47520147610E+02 -0.20323121919E+03 -0.21797736465E+04  0.21897429627E+04  0.25500000920E-02 0.  1.
       -2    1    3    3    0  502  0.47520147610E+02  0.20323121919E+03  0.14703260865E+04  0.14850656192E+04  0.25500000920E-02 0. -1.
</event>
<event>
 5   0  0.3365378E-07  0.3448676E+04  0.7818609E-02  0.8126062E-01
       -1   -1    0    0    0  501  0.00000000000E+00  0.00000000000E+00  0.16352230245E+04  0.16352230245E+04  0.50400001928E-02 0. -1.
        1   -1    0    0  501    0  0.00000000000E+00  0.00000000000E+00 -0.18183092253E+04  0.18183092253E+04  0.50400001928E-02 0.  1.
    10030    2    1    2    0    0  0.00000000000E+00  0.00000000000E+00 -0.18308620080E+03  0.34535322498E+04  0.34486757521E+04 0.  0.
        3    1    3    3  502    0 -0.13978217165E+04 -0.85654309409E+03 -0.62687000742E+03  0.17551460451E+04  0.10100000352E+00 0.  1.
       -3    1    3    3    0  502  0.13978217165E+04  0.85654309409E+03  0.44378380663E+03  0.16983862047E+04  0.10100000352E+00 0. -1.
</event>
<event>
 5   0  0.9538919E-07  0.3662241E+04  0.7818609E-02  0.8076381E-01
       -2   -1    0    0    0  501  0.00000000000E+00  0.00000000000E+00  0.16581790583E+04  0.16581790583E+04  0.25500000920E-02 0.  1.
        2   -1    0    0  501    0  0.00000000000E+00  0.00000000000E+00 -0.20220994240E+04  0.20220994240E+04  0.25500000920E-02 0. -1.
    10030    2    1    2    0    0  0.00000000000E+00  0.00000000000E+00 -0.36392036571E+03  0.36802784823E+04  0.36622413458E+04 0.  0.
        4    1    3    3  502    0 -0.58022562818E+03  0.83410469999E+02 -0.19252612516E+04  0.20125236858E+04  0.12699999809E+01 0. -1.
       -4    1    3    3    0  502  0.58022562818E+03 -0.83410469999E+02  0.15613408859E+04  0.16677547965E+04  0.12699999809E+01 0.  1.
</event>
<event>
 5   0  0.9538919E-07  0.3542799E+04  0.7818609E-02  0.8103721E-01
        2   -1    0    0  501    0  0.00000000000E+00  0.00000000000E+00  0.18028730253E+04  0.18028730253E+04  0.25500000920E-02 0.  1.
       -2   -1    0    0    0  501  0.00000000000E+00  0.00000000000E+00 -0.17404753209E+04  0.17404753209E+04  0.25500000920E-02 0. -1.
    10030    2    1    2    0    0  0.00000000000E+00  0.00000000000E+00  0.62397704475E+02  0.35433483462E+04  0.35427988976E+04 0.  0.
        4    1    3    3  502    0  0.88781941635E+02  0.26689229721E+03 -0.17179979605E+04  0.17408711430E+04  0.12699999809E+01 0. -1.
       -4    1    3    3    0  502 -0.88781941635E+02 -0.26689229721E+03  0.17803956649E+04  0.18024772032E+04  0.12699999809E+01 0.  1.
</event>
<event>
 5   0  0.9538919E-07  0.3596276E+04  0.7818609E-02  0.8091345E-01
        2   -1    0    0  501    0  0.00000000000E+00  0.00000000000E+00  0.14498676111E+04  0.14498676111E+04  0.25500000920E-02 0.  1.
       -2   -1    0    0    0  501  0.00000000000E+00  0.00000000000E+00 -0.22300661733E+04  0.22300661733E+04  0.25500000920E-02 0. -1.
    10030    2    1    2    0    0  0.00000000000E+00  0.00000000000E+00 -0.78019856226E+03  0.36799337844E+04  0.35962762493E+04 0.  0.
        4    1    3    3  502    0  0.58559198766E+03  0.58573596849E+03  0.12430524607E+04  0.14937153791E+04  0.12699999809E+01 0.  1.
       -4    1    3    3    0  502 -0.58559198766E+03 -0.58573596849E+03 -0.20232510230E+04  0.21862184053E+04  0.12699999809E+01 0. -1.
</event>
<event>
 5   0  0.9878336E-07  0.3642289E+04  0.7818609E-02  0.8080873E-01
       -2   -1    0    0    0  501  0.00000000000E+00  0.00000000000E+00  0.13777260923E+04  0.13777260923E+04  0.25500000920E-02 0.  1.
        2   -1    0    0  501    0  0.00000000000E+00  0.00000000000E+00 -0.24072761505E+04  0.24072761505E+04  0.25500000920E-02 0. -1.
    10030    2    1    2    0    0  0.00000000000E+00  0.00000000000E+00 -0.10295500582E+04  0.37850022428E+04  0.36422889309E+04 0.  0.
        3    1    3    3  502    0 -0.14314686656E+01 -0.14211961018E+04  0.66860075951E+03  0.15706137000E+04  0.10100000352E+00 0.  1.
       -3    1    3    3    0  502  0.14314686656E+01  0.14211961018E+04 -0.16981508177E+04  0.22143885428E+04  0.10100000352E+00 0. -1.
</event>
<event>
 5   0  0.3242047E-07  0.3613949E+04  0.7818609E-02  0.8087304E-01
        1   -1    0    0  501    0  0.00000000000E+00  0.00000000000E+00  0.19838450899E+04  0.19838450899E+04  0.50400001928E-02 0. -1.
       -1   -1    0    0    0  501  0.00000000000E+00  0.00000000000E+00 -0.16458728133E+04  0.16458728133E+04  0.50400001928E-02 0.  1.
    10030    2    1    2    0    0  0.00000000000E+00  0.00000000000E+00  0.33797227664E+03  0.36297179032E+04  0.36139489201E+04 0.  0.
        1    1    3    3  502    0 -0.13371141362E+04  0.16419076951E+03  0.13785348471E+04  0.19274831119E+04  0.50400001928E-02 0. -1.
       -1    1    3    3    0  502  0.13371141362E+04 -0.16419076951E+03 -0.10405625704E+04  0.17022347914E+04  0.50400001928E-02 0.  1.
</event>
<event>
 5   0  0.1031659E-06  0.3591748E+04  0.7818609E-02  0.8092385E-01
        2   -1    0    0  501    0  0.00000000000E+00  0.00000000000E+00  0.19359847578E+04  0.19359847578E+04  0.25500000920E-02 0. -1.
       -2   -1    0    0    0  501  0.00000000000E+00  0.00000000000E+00 -0.16659030766E+04  0.16659030766E+04  0.25500000920E-02 0.  1.
    10030    2    1    2    0    0  0.00000000000E+00  0.00000000000E+00  0.27008168123E+03  0.36018878344E+04  0.35917477441E+04 0.  0.
        2    1    3    3  502    0 -0.64111731296E+03  0.16444026989E+04 -0.19766577972E+03  0.17759964542E+04  0.25500000920E-02 0. -1.
       -2    1    3    3    0  502  0.64111731296E+03 -0.16444026989E+04  0.46774746095E+03  0.18258913802E+04  0.25500000920E-02 0.  1.
</event>
<event>
 5   0  0.1006019E-06  0.3131902E+04  0.7818609E-02  0.8207037E-01
       -2   -1    0    0    0  501  0.00000000000E+00  0.00000000000E+00  0.20738213505E+04  0.20738213505E+04  0.25500000920E-02 0. -1.
        2   -1    0    0  501    0  0.00000000000E+00  0.00000000000E+00 -0.11824558343E+04  0.11824558343E+04  0.25500000920E-02 0.  1.
    10030    2    1    2    0    0  0.00000000000E+00  0.00000000000E+00  0.89136551621E+03  0.32562771848E+04  0.31319017578E+04 0.  0.
        1    1    3    3  502    0 -0.14590947503E+04  0.17962153136E+03 -0.11516550662E+03  0.14746133319E+04  0.50400001928E-02 0.  1.
       -1    1    3    3    0  502  0.14590947503E+04 -0.17962153136E+03  0.10065310228E+04  0.17816638529E+04  0.50400001928E-02 0. -1.
</event>
<event>
 5   0  0.3159875E-07  0.3609527E+04  0.7818609E-02  0.8088313E-01
        1   -1    0    0  501    0  0.00000000000E+00  0.00000000000E+00  0.16582158171E+04  0.16582158171E+04  0.50400001928E-02 0. -1.
       -1   -1    0    0    0  501  0.00000000000E+00  0.00000000000E+00 -0.19642623424E+04  0.19642623424E+04  0.50400001928E-02 0.  1.
    10030    2    1    2    0    0  0.00000000000E+00  0.00000000000E+00 -0.30604652530E+03  0.36224781594E+04  0.36095267751E+04 0.  0.
        2    1    3    3  502    0 -0.78969721160E+02  0.17672845520E+04 -0.51157255734E+03  0.18415312612E+04  0.25500000920E-02 0. -1.
       -2    1    3    3    0  502  0.78969721160E+02 -0.17672845520E+04  0.20552603204E+03  0.17809468983E+04  0.25500000920E-02 0.  1.
</event>
<event>
 5   0  0.3159875E-07  0.3555658E+04  0.7818609E-02  0.8100725E-01
       -1   -1    0    0    0  501  0.00000000000E+00  0.00000000000E+00  0.16037570605E+04  0.16037570605E+04  0.50400001928E-02 0. -1.
        1   -1    0    0  501    0  0.00000000000E+00  0.00000000000E+00 -0.19707949389E+04  0.19707949390E+04  0.50400001928E-02 0.  1.
    10030    2    1    2    0    0  0.00000000000E+00  0.00000000000E+00 -0.36703787848E+03  0.35745519994E+04  0.35556581940E+04 0.  0.
        2    1    3    3  502    0  0.15964671314E+04 -0.11766584139E+03 -0.96101309999E+03  0.18671097264E+04  0.25500000920E-02 0.  1.
       -2    1    3    3    0  502 -0.15964671314E+04  0.11766584139E+03  0.59397522151E+03  0.17074422730E+04  0.25500000920E-02 0. -1.
</event>
<event>
 5   0  0.1006019E-06  0.3341317E+04  0.7818609E-02  0.8152461E-01
       -2   -1    0    0    0  501  0.00000000000E+00  0.00000000000E+00  0.12147626368E+04  0.12147626368E+04  0.25500000920E-02 0.  1.
        2   -1    0    0  501    0  0.00000000000E+00  0.00000000000E+00 -0.22976510233E+04  0.22976510233E+04  0.25500000920E-02 0. -1.
    10030    2    1    2    0    0  0.00000000000E+00  0.00000000000E+00 -0.10828883865E+04  0.35124136601E+04  0.33413174740E+04 0.  0.
        1    1    3    3  502    0 -0.12451128786E+04  0.13665538920E+03  0.62065931633E+03  0.13979265943E+04  0.50400001928E-02 0.  1.
       -1    1    3    3    0  502  0.12451128786E+04 -0.13665538920E+03 -0.17035477028E+04  0.21144870658E+04  0.50400001928E-02 0. -1.
</event>
<event>
 5   0  0.9538919E-07  0.2574543E+04  0.7818609E-02  0.8376900E-01
       -2   -1    0    0    0  501  0.00000000000E+00  0.00000000000E+00  0.11249125484E+04  0.11249125484E+04  0.25500000920E-02 0.  1.
        2   -1    0    0  501    0  0.00000000000E+00  0.00000000000E+00 -0.14730640005E+04  0.14730640005E+04  0.25500000920E-02 0. -1.
    10030    2    1    2    0    0  0.00000000000E+00  0.00000000000E+00 -0.34815145208E+03  0.25979765489E+04  0.25745432051E+04 0.  0.
        4    1    3    3  502    0 -0.50877773899E+02  0.90069827946E+03 -0.11007042251E+04  0.14231645522E+04  0.12699999809E+01 0. -1.
       -4    1    3    3    0  502  0.50877773899E+02 -0.90069827946E+03  0.75255277304E+03  0.11748119967E+04  0.12699999809E+01 0.  1.
</event>
<event>
 5   0  0.9538919E-07  0.3763879E+04  0.7818609E-02  0.8053951E-01
       -2   -1    0    0    0  501  0.00000000000E+00  0.00000000000E+00  0.31700447433E+04  0.31700447433E+04  0.25500000920E-02 0.  1.
        2   -1    0    0  501    0  0.00000000000E+00  0.00000000000E+00 -0.11172387835E+04  0.11172387835E+04  0.25500000920E-02 0. -1.
    10030    2    1    2    0    0  0.00000000000E+00  0.00000000000E+00  0.20528059599E+04  0.42872835268E+04  0.37638793459E+04 0.  0.
        4    1    3    3  502    0 -0.23816157047E+02  0.14185871049E+04 -0.38195528571E+03  0.14693018875E+04  0.12699999809E+01 0. -1.
       -4    1    3    3    0  502  0.23816157047E+02 -0.14185871049E+04  0.24347612456E+04  0.28179816393E+04  0.12699999809E+01 0.  1.
</event>
<event>
 5   0  0.3365378E-07  0.3586328E+04  0.7818609E-02  0.8093631E-01
        1   -1    0    0  501    0  0.00000000000E+00  0.00000000000E+00  0.16919748449E+04  0.16919748449E+04  0.50400001928E-02 0. -1.
       -1   -1    0    0    0  501  0.00000000000E+00  0.00000000000E+00 -0.19004043832E+04  0.19004043832E+04  0.50400001928E-02 0.  1.
    10030    2    1    2    0    0  0.00000000000E+00  0.00000000000E+00 -0.20842953821E+03  0.35923792281E+04  0.35863275988E+04 0.  0.
        3    1    3    3  502    0 -0.84895307720E+02 -0.12312366082E+04  0.11988591365E+04  0.17205853765E+04  0.10100000352E+00 0. -1.
       -3    1    3    3    0  502  0.84895307720E+02  0.12312366082E+04 -0.14072886747E+04  0.18717938516E+04  0.10100000352E+00 0.  1.
</event>
<event>
 5   0  0.3159875E-07  0.3611892E+04  0.7818609E-02  0.8087773E-01
        1   -1    0    0  501    0  0.00000000000E+00  0.00000000000E+00  0.14999744564E+04  0.14999744564E+04  0.50400001928E-02 0. -1.
       -1   -1    0    0    0  501  0.00000000000E+00  0.00000000000E+00 -0.21743307408E+04  0.21743307408E+04  0.50400001928E-02 0.  1.
    10030    2    1    2    0    0  0.00000000000E+00  0.00000000000E+00 -0.67435628439E+03  0.36743051973E+04  0.36118917875E+04 0.  0.
        5    1    3    3  502    0 -0.15031580395E+03  0.16217426329E+04 -0.11309006819E+04  0.19828268837E+04  0.46999998093E+01 0.  1.
       -5    1    3    3    0  502  0.15031580395E+03 -0.16217426329E+04  0.45654439756E+03  0.16914783136E+04  0.46999998093E+01 0. -1.
</event>
<event>
 5   0  0.1031659E-06  0.3672639E+04  0.7818609E-02  0.8074053E-01
        2   -1    0    0  501    0  0.00000000000E+00  0.00000000000E+00  0.18456062911E+04  0.18456062911E+04  0.25500000920E-02 0.  1.
       -2   -1    0    0    0  501  0.00000000000E+00  0.00000000000E+00 -0.18270791456E+04  0.18270791456E+04  0.25500000920E-02 0. -1.
    10030    2    1    2    0    0  0.00000000000E+00  0.00000000000E+00  0.18527145474E+02  0.36726854368E+04  0.36726387057E+04 0.  0.
        2    1    3    3  502    0  0.87804844772E+03 -0.13617369648E+04 -0.85490720425E+03  0.18319833421E+04  0.25500000920E-02 0. -1.
       -2    1    3    3    0  502 -0.87804844772E+03  0.13617369648E+04  0.87343434973E+03  0.18407020946E+04  0.25500000920E-02 0.  1.
</event>
<event>
 5   0  0.3159875E-07  0.3612582E+04  0.7818609E-02  0.8087616E-01
        1   -1    0    0  501    0  0.00000000000E+00  0.00000000000E+00  0.26992472577E+04  0.26992472577E+04  0.50400001928E-02 0.  1.
       -1   -1    0    0    0  501  0.00000000000E+00  0.00000000000E+00 -0.12087398034E+04  0.12087398034E+04  0.50400001928E-02 0. -1.
    10030    2    1    2    0    0  0.00000000000E+00  0.00000000000E+00  0.14905074544E+04  0.39079870611E+04  0.36125822342E+04 0.  0.
        2    1    3    3  502    0  0.37123277939E+03  0.96067008125E+03 -0.85999647290E+03  0.13417506158E+04  0.25500000920E-02 0. -1.
       -2    1    3    3    0  502 -0.37123277939E+03 -0.96067008125E+03  0.23505039273E+04  0.25662364454E+04  0.25500000920E-02 0.  1.
</event>
<event>
 5   0  0.3159875E-07  0.3537303E+04  0.7818609E-02  0.8105006E-01
        1   -1    0    0  501    0  0.00000000000E+00  0.00000000000E+00  0.27799598429E+04  0.27799598429E+04  0.50400001928E-02 0. -1.
       -1   -1    0    0    0  501  0.00000000000E+00  0.00000000000E+00 -0.11252422930E+04  0.11252422930E+04  0.50400001928E-02 0.  1.
    10030    2    1    2    0    0  0.00000000000E+00  0.00000000000E+00  0.16547175499E+04  0.39052021359E+04  0.35373031468E+04 0.  0.
        2    1    3    3  502    0 -0.37253131808E+03  0.14236935986E+04 -0.25571808039E+03  0.14936782726E+04  0.25500000920E-02 0.  1.
       -2    1    3    3    0  502  0.37253131808E+03 -0.14236935986E+04  0.19104356303E+04  0.24115238633E+04  0.25500000920E-02 0. -1.
</event>
<event>
 5   0  0.3242047E-07  0.3624035E+04  0.7818609E-02  0.8085008E-01
       -1   -1    0    0    0  501  0.00000000000E+00  0.00000000000E+00  0.17398052288E+04  0.17398052288E+04  0.50400001928E-02 0.  1.
        1   -1    0    0  501    0  0.00000000000E+00  0.00000000000E+00 -0.18872268252E+04  0.18872268252E+04  0.50400001928E-02 0. -1.
    10030    2    1    2    0    0  0.00000000000E+00  0.00000000000E+00 -0.14742159631E+03  0.36270320540E+04  0.36240348224E+04 0.  0.
        1    1    3    3  502    0 -0.48695158754E+03  0.53525713589E+03 -0.17363448097E+04  0.18810941891E+04  0.50400001928E-02 0. -1.
       -1    1    3    3    0  502  0.48695158754E+03 -0.53525713589E+03  0.15889232134E+04  0.17459378649E+04  0.50400001928E-02 0.  1.
</event>
<event>
 5   0  0.1031659E-06  0.3265392E+04  0.7818609E-02  0.8171758E-01
        2   -1    0    0  501    0  0.00000000000E+00  0.00000000000E+00  0.14538437499E+04  0.14538437499E+04  0.25500000920E-02 0.  1.
       -2   -1    0    0    0  501  0.00000000000E+00  0.00000000000E+00 -0.18335505303E+04  0.18335505303E+04  0.25500000920E-02 0. -1.
    10030    2    1    2    0    0  0.00000000000E+00  0.00000000000E+00 -0.37970678040E+03  0.32873942801E+04  0.32653918469E+04 0.  0.
        2    1    3    3  502    0  0.12336123575E+04 -0.10695250293E+04 -0.19344700225E+03  0.16441122162E+04  0.25500000920E-02 0. -1.
       -2    1    3    3    0  502 -0.12336123575E+04  0.10695250293E+04 -0.18625977815E+03  0.16432820640E+04  0.25500000920E-02 0.  1.
</event>
<event>
 5   0  0.9538919E-07  0.3602488E+04  0.7818609E-02  0.8089922E-01
       -2   -1    0    0    0  501  0.00000000000E+00  0.00000000000E+00  0.19116835494E+04  0.19116835494E+04  0.25500000920E-02 0.  1.
        2   -1    0    0  501    0  0.00000000000E+00  0.00000000000E+00 -0.16971843926E+04  0.16971843926E+04  0.25500000920E-02 0. -1.
    10030    2    1    2    0    0  0.00000000000E+00  0.00000000000E+00  0.21449915684E+03  0.36088679420E+04  0.36024877424E+04 0.  0.
        4    1    3    3  502    0  0.69932120312E+03  0.16040884013E+04  0.53500479372E+03  0.18298583241E+04  0.12699999809E+01 0. -1.
       -4    1    3    3    0  502 -0.69932120312E+03 -0.16040884013E+04 -0.32050563687E+03  0.17790096178E+04  0.12699999809E+01 0.  1.
</event>
<event>
 5   0  0.3365378E-07  0.3707775E+04  0.7818609E-02  0.8066241E-01
       -1   -1    0    0    0  501  0.00000000000E+00  0.00000000000E+00  0.20517852762E+04  0.20517852762E+04  0.50400001928E-02 0. -1.
        1   -1    0    0  501    0  0.00000000000E+00  0.00000000000E+00 -0.16750769235E+04  0.16750769235E+04  0.50400001928E-02 0.  1.
    10030    2    1    2    0    0  0.00000000000E+00  0.00000000000E+00  0.37670835266E+03  0.37268621997E+04  0.37077746254E+04 0.  0.
        3    1    3    3  502    0 -0.14991582962E+04  0.20877828473E+03 -0.88759286398E+03  0.17546752040E+04  0.10100000352E+00 0.  1.
       -3    1    3    3    0  502  0.14991582962E+04 -0.20877828473E+03  0.12643012166E+04  0.19721869957E+04  0.10100000352E+00 0. -1.
</event>
<event>
 5   0  0.1006019E-06  0.3602121E+04  0.7818609E-02  0.8090006E-01
        2   -1    0    0  501    0  0.00000000000E+00  0.00000000000E+00  0.19005758828E+04  0.19005758828E+04  0.25500000920E-02 0.  1.
       -2   -1    0    0    0  501  0.00000000000E+00  0.00000000000E+00 -0.17067553520E+04  0.17067553520E+04  0.25500000920E-02 0. -1.
    10030    2    1    2    0    0  0.00000000000E+00  0.00000000000E+00  0.19382053080E+03  0.36073312348E+04  0.36021205198E+04 0.  0.
        1    1    3    3  502    0 -0.85678134573E+03  0.11631282394E+03 -0.14853167188E+04  0.17186531653E+04  0.50400001928E-02 0. -1.
       -1    1    3    3    0  502  0.85678134573E+03 -0.11631282394E+03  0.16791372496E+04  0.18886780695E+04  0.50400001928E-02 0.  1.
</event>
<event>
 5   0  0.3159875E-07  0.3617080E+04  0.7818609E-02  0.8086590E-01
       -1   -1    0    0    0  501  0.00000000000E+00  0.00000000000E+00  0.17821181218E+04  0.17821181218E+04  0.50400001928E-02 0.  1.
        1   -1    0    0  501    0  0.00000000000E+00  0.00000000000E+00 -0.18353537150E+04  0.18353537150E+04  0.50400001928E-02 0. -1.
    10030    2    1    2    0    0  0.00000000000E+00  0.00000000000E+00 -0.53235593219E+02  0.36174718369E+04  0.36170801017E+04 0.  0.
        2    1    3    3  502    0  0.98560590475E+03 -0.10646868054E+04 -0.11064755004E+04  0.18246273664E+04  0.25500000920E-02 0. -1.
       -2    1    3    3    0  502 -0.98560590475E+03  0.10646868054E+04  0.10532399072E+04  0.17928444705E+04  0.25500000920E-02 0.  1.
</event>
<event>
 5   0  0.3242047E-07  0.3593383E+04  0.7818609E-02  0.8092009E-01
        1   -1    0    0  501    0  0.00000000000E+00  0.00000000000E+00  0.20620811170E+04  0.20620811170E+04  0.50400001928E-02 0. -1.
       -1   -1    0    0    0  501  0.00000000000E+00  0.00000000000E+00 -0.15654575447E+04  0.15654575447E+04  0.50400001928E-02 0.  1.
    10030    2    1    2    0    0  0.00000000000E+00  0.00000000000E+00  0.49662357234E+03  0.36275386617E+04  0.35933830535E+04 0.  0.
        1    1    3    3  502    0  0.35189412971E+02 -0.15662607749E+04 -0.63964501690E+03  0.16922047327E+04  0.50400001928E-02 0.  1.
       -1    1    3    3    0  502 -0.35189412971E+02  0.15662607749E+04  0.11362685892E+04  0.19353339290E+04  0.50400001928E-02 0. -1.
</event>
<event>
 5   0  0.3365378E-07  0.3484180E+04  0.7818609E-02  0.8117549E-01
        1   -1    0    0  501    0  0.00000000000E+00  0.00000000000E+00  0.11042277046E+04  0.11042277046E+04  0.50400001928E-02 0.  1.
       -1   -1    0    0    0  501  0.00000000000E+00  0.00000000000E+00 -0.27484160152E+04  0.27484160152E+04  0.50400001928E-02 0. -1.
    10030    2    1    2    0    0  0.00000000000E+00  0.00000000000E+00 -0.16441883106E+04  0.38526437199E+04  0.34841797358E+04 0.  0.
        3    1    3    3  502    0 -0.13210831876E+04  0.66793078799E+03  0.19344558086E+03  0.14929211396E+04  0.10100000352E+00 0.  1.
       -3    1    3    3    0  502  0.13210831876E+04 -0.66793078799E+03 -0.18376338915E+04  0.23597225802E+04  0.10100000352E+00 0. -1.
</event>
<event>
 5   0  0.3242047E-07  0.3562909E+04  0.7818609E-02  0.8099041E-01
        1   -1    0    0  501    0  0.00000000000E+00  0.00000000000E+00  0.12096078549E+04  0.12096078550E+04  0.50400001928E-02 0. -1.
       -1   -1    0    0    0  501  0.00000000000E+00  0.00000000000E+00 -0.26236436888E+04  0.26236436888E+04  0.50400001928E-02 0.  1.
    10030    2    1    2    0    0  0.00000000000E+00  0.00000000000E+00 -0.14140358339E+04  0.38332515438E+04  0.35629089321E+04 0.  0.
        1    1    3    3  502    0 -0.99785941473E+03  0.91487645428E+03 -0.19528340158E+04  0.23761908659E+04  0.50400001928E-02 0.  1.
       -1    1    3    3    0  502  0.99785941473E+03 -0.91487645428E+03  0.53879818189E+03  0.14570606779E+04  0.50400001928E-02 0. -1.
</event>
<event>
 5   0  0.3242047E-07  0.3793505E+04  0.7818609E-02  0.8047550E-01
       -1   -1    0    0    0  501  0.00000000000E+00  0.00000000000E+00  0.20767936199E+04  0.20767936199E+04  0.50400001928E-02 0.  1.
        1   -1    0    0  501    0  0.00000000000E+00  0.00000000000E+00 -0.17323198575E+04  0.17323198576E+04  0.50400001928E-02 0. -1.
    10030    2    1    2    0    0  0.00000000000E+00  0.00000000000E+00  0.34447376238E+03  0.38091134775E+04  0.37935054121E+04 0.  0.
        1    1    3    3  502    0 -0.31424229134E+03  0.21961418319E+03 -0.16930099693E+04  0.17358748121E+04  0.50400001928E-02 0. -1.
       -1    1    3    3    0  502  0.31424229134E+03 -0.21961418319E+03  0.20374837316E+04  0.20732386654E+04  0.50400001928E-02 0.  1.
</event>
<event>
 5   0  0.3159875E-07  0.3606007E+04  0.7818609E-02  0.8089117E-01
       -1   -1    0    0    0  501  0.00000000000E+00  0.00000000000E+00  0.15849788595E+04  0.15849788595E+04  0.50400001928E-02 0.  1.
        1   -1    0    0  501    0  0.00000000000E+00  0.00000000000E+00 -0.20510193048E+04  0.20510193048E+04  0.50400001928E-02 0. -1.
    10030    2    1    2    0    0  0.00000000000E+00  0.00000000000E+00 -0.46604044523E+03  0.36359981643E+04  0.36060073425E+04 0.  0.
        2    1    3    3  502    0 -0.17324846917E+04  0.46247532028E+03 -0.43211134205E+02  0.17936704912E+04  0.25500000920E-02 0. -1.
       -2    1    3    3    0  502  0.17324846917E+04 -0.46247532028E+03 -0.42282931103E+03  0.18423276731E+04  0.25500000920E-02 0.  1.
</event>
<event>
 5   0  0.3242047E-07  0.3616408E+04  0.7818609E-02  0.8086743E-01
        1   -1    0    0  501    0  0.00000000000E+00  0.00000000000E+00  0.18997981723E+04  0.18997981723E+04  0.50400001928E-02 0. -1.
       -1   -1    0    0    0  501  0.00000000000E+00  0.00000000000E+00 -0.17210260756E+04  0.17210260756E+04  0.50400001928E-02 0.  1.
    10030    2    1    2    0    0  0.00000000000E+00  0.00000000000E+00  0.17877209665E+03  0.36208242479E+04  0.36164082695E+04 0.  0.
        1    1    3    3  502    0  0.32105613740E+03 -0.17661831919E+04  0.30672733160E+03  0.18211429836E+04  0.50400001928E-02 0. -1.
       -1    1    3    3    0  502 -0.32105613740E+03  0.17661831919E+04 -0.12795523495E+03  0.17996812643E+04  0.50400001928E-02 0.  1.
</event>
<event>
 5   0  0.1031659E-06  0.3316508E+04  0.7818609E-02  0.8158708E-01
        2   -1    0    0  501    0  0.00000000000E+00  0.00000000000E+00  0.19167541779E+04  0.19167541779E+04  0.25500000920E-02 0.  1.
       -2   -1    0    0    0  501  0.00000000000E+00  0.00000000000E+00 -0.14346157203E+04  0.14346157203E+04  0.25500000920E-02 0. -1.
    10030    2    1    2    0    0  0.00000000000E+00  0.00000000000E+00  0.48213845765E+03  0.33513698982E+04  0.33165076062E+04 0.  0.
        2    1    3    3  502    0  0.13617072655E+04 -0.62582907121E+03 -0.47624961735E+03  0.15724892373E+04  0.25500000920E-02 0. -1.
       -2    1    3    3    0  502 -0.13617072655E+04  0.62582907121E+03  0.95838807500E+03  0.17788806609E+04  0.25500000920E-02 0.  1.
</event>
<event>
 5   0  0.3159875E-07  0.3677651E+04  0.7818609E-02  0.8072933E-01
        1   -1    0    0  501    0  0.00000000000E+00  0.00000000000E+00  0.13919056749E+04  0.13919056750E+04  0.50400001928E-02 0. -1.
       -1   -1    0    0    0  501  0.00000000000E+00  0.00000000000E+00 -0.24292450413E+04  0.24292450413E+04  0.50400001928E-02 0.  1.
    10030    2    1    2    0    0  0.00000000000E+00  0.00000000000E+00 -0.10373393663E+04  0.38211507162E+04  0.36776514021E+04 0.  0.
        2    1    3    3  502    0  0.93384419825E+03 -0.22922209696E+03  0.11098657519E+04  0.14684719077E+04  0.25500000920E-02 0. -1.
       -2    1    3    3    0  502 -0.93384419825E+03  0.22922209696E+03 -0.21472051183E+04  0.23526788086E+04  0.25500000920E-02 0.  1.
</event>
<event>
 5   0  0.3159875E-07  0.3599056E+04  0.7818609E-02  0.8090708E-01
       -1   -1    0    0    0  501  0.00000000000E+00  0.00000000000E+00  0.12318690061E+04  0.12318690061E+04  0.50400001928E-02 0.  1.
        1   -1    0    0  501    0  0.00000000000E+00  0.00000000000E+00 -0.26287705468E+04  0.26287705468E+04  0.50400001928E-02 0. -1.
    10030    2    1    2    0    0  0.00000000000E+00  0.00000000000E+00 -0.13969015407E+04  0.38606395529E+04  0.35990559656E+04 0.  0.
        5    1    3    3  502    0  0.62084182754E+03  0.15079653806E+04  0.11768599584E+03  0.16350156719E+04  0.46999998093E+01 0.  1.
       -5    1    3    3    0  502 -0.62084182754E+03 -0.15079653806E+04 -0.15145875366E+04  0.22256238810E+04  0.46999998093E+01 0. -1.
</event>
<event>
 5   0  0.1006019E-06  0.3596959E+04  0.7818609E-02  0.8091189E-01
        2   -1    0    0  501    0  0.00000000000E+00  0.00000000000E+00  0.17030521974E+04  0.17030521974E+04  0.25500000920E-02 0.  1.
       -2   -1    0    0    0  501  0.00000000000E+00  0.00000000000E+00 -0.18992541396E+04  0.18992541396E+04  0.25500000920E-02 0. -1.
    10030    2    1    2    0    0  0.00000000000E+00  0.00000000000E+00 -0.19620194227E+03  0.36023063370E+04  0.35969592357E+04 0.  0.
        1    1    3    3  502    0  0.55518545557E+03 -0.19166140208E+03 -0.18004996810E+04  0.18938754142E+04  0.50400001928E-02 0. -1.
       -1    1    3    3    0  502 -0.55518545557E+03  0.19166140208E+03  0.16042977388E+04  0.17084309228E+04  0.50400001928E-02 0.  1.
</event>
<event>
 5   0  0.1006019E-06  0.3601686E+04  0.7818609E-02  0.8090106E-01
       -2   -1    0    0    0  501  0.00000000000E+00  0.00000000000E+00  0.17004506248E+04  0.17004506248E+04  0.25500000920E-02 0. -1.
        2   -1    0    0  501    0  0.00000000000E+00  0.00000000000E+00 -0.19071624853E+04  0.19071624853E+04  0.25500000920E-02 0.  1.
    10030    2    1    2    0    0  0.00000000000E+00  0.00000000000E+00 -0.20671186045E+03  0.36076131101E+04  0.36016860717E+04 0.  0.
        1    1    3    3  502    0  0.19233132061E+03 -0.15887445981E+04 -0.93050837984E+03  0.18512013883E+04  0.50400001928E-02 0.  1.
       -1    1    3    3    0  502 -0.19233132061E+03  0.15887445981E+04  0.72379651938E+03  0.17564117218E+04  0.50400001928E-02 0. -1.
</event>
<event>
 5   0  0.1031659E-06  0.3540122E+04  0.7818609E-02  0.8104347E-01
        2   -1    0    0  501    0  0.00000000000E+00  0.00000000000E+00  0.20576487093E+04  0.20576487093E+04  0.25500000920E-02 0.  1.
       -2   -1    0    0    0  501  0.00000000000E+00  0.00000000000E+00 -0.15226676604E+04  0.15226676604E+04  0.25500000920E-02 0. -1.
    10030    2    1    2    0    0  0.00000000000E+00  0.00000000000E+00  0.53498104894E+03  0.35803163697E+04  0.35401215494E+04 0.  0.
        2    1    3    3  502    0  0.69851478256E+02  0.63979238584E+03  0.19351215916E+04  0.20393403591E+04  0.25500000920E-02 0.  1.
       -2    1    3    3    0  502 -0.69851478256E+02 -0.63979238584E+03 -0.14001405427E+04  0.15409760106E+04  0.25500000920E-02 0. -1.
</event>
<event>
 5   0  0.9878977E-07  0.3634890E+04  0.7818609E-02  0.8082546E-01
       -2   -1    0    0    0  501  0.00000000000E+00  0.00000000000E+00  0.23201991895E+04  0.23201991895E+04  0.25500000920E-02 0.  1.
        2   -1    0    0  501    0  0.00000000000E+00  0.00000000000E+00 -0.14236307481E+04  0.14236307481E+04  0.25500000920E-02 0. -1.
    10030    2    1    2    0    0  0.00000000000E+00  0.00000000000E+00  0.89656844135E+03  0.37438299376E+04  0.36348903191E+04 0.  0.
        5    1    3    3  502    0  0.34616119924E+03  0.14510182748E+04 -0.62100339777E+03  0.16158430987E+04  0.46999998093E+01 0. -1.
       -5    1    3    3    0  502 -0.34616119924E+03 -0.14510182748E+04  0.15175718391E+04  0.21279868389E+04  0.46999998093E+01 0.  1.
</event>
<event>
 5   0  0.3278988E-07  0.3584156E+04  0.7818609E-02  0.8094131E-01
       -1   -1    0    0    0  501  0.00000000000E+00  0.00000000000E+00  0.16138168021E+04  0.16138168021E+04  0.50400001928E-02 0.  1.
        1   -1    0    0  501    0  0.00000000000E+00  0.00000000000E+00 -0.19900302822E+04  0.19900302822E+04  0.50400001928E-02 0. -1.
    10030    2    1    2    0    0  0.00000000000E+00  0.00000000000E+00 -0.37621348017E+03  0.36038470843E+04  0.35841564174E+04 0.  0.
        4    1    3    3  502    0  0.84717684544E+03 -0.15665491771E+04 -0.38859565340E+03  0.18228530184E+04  0.12699999809E+01 0. -1.
       -4    1    3    3    0  502 -0.84717684544E+03  0.15665491771E+04  0.12382173229E+02  0.17809940659E+04  0.12699999809E+01 0.  1.
</event>
<event>
 5   0  0.1006019E-06  0.3616873E+04  0.7818609E-02  0.8086638E-01
        2   -1    0    0  501    0  0.00000000000E+00  0.00000000000E+00  0.21436103855E+04  0.21436103855E+04  0.25500000920E-02 0. -1.
       -2   -1    0    0    0  501  0.00000000000E+00  0.00000000000E+00 -0.15256701721E+04  0.15256701721E+04  0.25500000920E-02 0.  1.
    10030    2    1    2    0    0  0.00000000000E+00  0.00000000000E+00  0.61794021342E+03  0.36692805576E+04  0.36168729178E+04 0.  0.
        1    1    3    3  502    0  0.17544855633E+03  0.28953474672E+03 -0.14932360151E+04  0.15311323791E+04  0.50400001928E-02 0.  1.
       -1    1    3    3    0  502 -0.17544855633E+03 -0.28953474672E+03  0.21111762285E+04  0.21381481785E+04  0.50400001928E-02 0. -1.
</event>
<event>
 5   0  0.3242047E-07  0.3608906E+04  0.7818609E-02  0.8088455E-01
        1   -1    0    0  501    0  0.00000000000E+00  0.00000000000E+00  0.12048392562E+04  0.12048392562E+04  0.50400001928E-02 0.  1.
       -1   -1    0    0    0  501  0.00000000000E+00  0.00000000000E+00 -0.27024766461E+04  0.27024766461E+04  0.50400001928E-02 0. -1.
    10030    2    1    2    0    0  0.00000000000E+00  0.00000000000E+00 -0.14976373899E+04  0.39073159023E+04  0.36089056248E+04 0.  0.
        1    1    3    3  502    0 -0.23126814207E+03 -0.17893980574E+04 -0.72186890300E+03  0.19433283497E+04  0.50400001928E-02 0. -1.
       -1    1    3    3    0  502  0.23126814207E+03  0.17893980574E+04 -0.77576848689E+03  0.19639875526E+04  0.50400001928E-02 0.  1.
</event>
<event>
 5   0  0.3159875E-07  0.3612047E+04  0.7818609E-02  0.8087738E-01
       -1   -1    0    0    0  501  0.00000000000E+00  0.00000000000E+00  0.22821446613E+04  0.22821446613E+04  0.50400001928E-02 0. -1.
        1   -1    0    0  501    0  0.00000000000E+00  0.00000000000E+00 -0.14292349154E+04  0.14292349154E+04  0.50400001928E-02 0.  1.
    10030    2    1    2    0    0  0.00000000000E+00  0.00000000000E+00  0.85290974587E+03  0.37113795767E+04  0.36120469719E+04 0.  0.
        2    1    3    3  502    0  0.59646300687E+03  0.16909174425E+04  0.20428915412E+03  0.18046340278E+04  0.25500000920E-02 0. -1.
       -2    1    3    3    0  502 -0.59646300687E+03 -0.16909174425E+04  0.64862059175E+03  0.19067455488E+04  0.25500000920E-02 0.  1.
</event>
<event>
 5   0  0.3365378E-07  0.3651412E+04  0.7818609E-02  0.8078816E-01
       -1   -1    0    0    0  501  0.00000000000E+00  0.00000000000E+00  0.13834163964E+04  0.13834163964E+04  0.50400001928E-02 0.  1.
        1   -1    0    0  501    0  0.00000000000E+00  0.00000000000E+00 -0.24093993490E+04  0.24093993490E+04  0.50400001928E-02 0. -1.
    10030    2    1    2    0    0  0.00000000000E+00  0.00000000000E+00 -0.10259829526E+04  0.37928157455E+04  0.36514120912E+04 0.  0.
        3    1    3    3  502    0 -0.99889572463E+03 -0.10826198907E+04  0.60736178814E+03  0.15933445479E+04  0.10100000352E+00 0.  1.
       -3    1    3    3    0  502  0.99889572463E+03  0.10826198907E+04 -0.16333447407E+04  0.21994711975E+04  0.10100000352E+00 0. -1.
</event>
<event>
 5   0  0.3159875E-07  0.3815173E+04  0.7818609E-02  0.8042907E-01
        1   -1    0    0  501    0  0.00000000000E+00  0.00000000000E+00  0.21522566259E+04  0.21522566259E+04  0.50400001928E-02 0.  1.
       -1   -1    0    0    0  501  0.00000000000E+00  0.00000000000E+00 -0.16907307292E+04  0.16907307292E+04  0.50400001928E-02 0. -1.
    10030    2    1    2    0    0  0.00000000000E+00  0.00000000000E+00  0.46152589674E+03  0.38429873551E+04  0.38151730836E+04 0.  0.
        5    1    3    3  502    0 -0.15938720482E+04  0.41834702751E+03 -0.73719126507E+03  0.18052466293E+04  0.46999998093E+01 0. -1.
       -5    1    3    3    0  502  0.15938720482E+04 -0.41834702751E+03  0.11987171618E+04  0.20377407258E+04  0.46999998093E+01 0.  1.
</event>
<event>
 5   0  0.3159875E-07  0.3294901E+04  0.7818609E-02  0.8164194E-01
        1   -1    0    0  501    0  0.00000000000E+00  0.00000000000E+00  0.95995846701E+03  0.95995846703E+03  0.50400001928E-02 0. -1.
       -1   -1    0    0    0  501  0.00000000000E+00  0.00000000000E+00 -0.28273034066E+04  0.28273034066E+04  0.50400001928E-02 0.  1.
    10030    2    1    2    0    0  0.00000000000E+00  0.00000000000E+00 -0.18673449396E+04  0.37872618736E+04  0.32949014213E+04 0.  0.
        2    1    3    3  502    0  0.88082920154E+03  0.11927093454E+04 -0.17590873380E+04  0.23006094687E+04  0.25500000920E-02 0.  1.
       -2    1    3    3    0  502 -0.88082920154E+03 -0.11927093454E+04 -0.10825760162E+03  0.14866524049E+04  0.25500000920E-02 0. -1.
</event>
<event>
 5   0  0.1006019E-06  0.3182455E+04  0.7818609E-02  0.8193466E-01
        2   -1    0    0  501    0  0.00000000000E+00  0.00000000000E+00  0.16881986711E+04  0.16881986711E+04  0.25500000920E-02 0.  1.
       -2   -1    0    0    0  501  0.00000000000E+00  0.00000000000E+00 -0.14998265224E+04  0.14998265224E+04  0.25500000920E-02 0. -1.
    10030    2    1    2    0    0  0.00000000000E+00  0.00000000000E+00  0.18837214870E+03  0.31880251936E+04  0.31824551165E+04 0.  0.
        1    1    3    3  502    0  0.87774371739E+03 -0.19249163393E+03  0.14096935892E+04  0.16717425274E+04  0.50400001928E-02 0.  1.
       -1    1    3    3    0  502 -0.87774371739E+03  0.19249163393E+03 -0.12213214405E+04  0.15162826661E+04  0.50400001928E-02 0. -1.
</event>
<event>
 5   0  0.9878336E-07  0.3600520E+04  0.7818609E-02  0.8090373E-01
       -2   -1    0    0    0  501  0.00000000000E+00  0.00000000000E+00  0.14760547303E+04  0.14760547303E+04  0.25500000920E-02 0. -1.
        2   -1    0    0  501    0  0.00000000000E+00  0.00000000000E+00 -0.21956743498E+04  0.21956743498E+04  0.25500000920E-02 0.  1.
    10030    2    1    2    0    0  0.00000000000E+00  0.00000000000E+00 -0.71961961949E+03  0.36717290801E+04  0.36005196904E+04 0.  0.
        3    1    3    3  502    0  0.99915453300E+03 -0.14820068460E+04 -0.57919576009E+03  0.18788618393E+04  0.10100000352E+00 0.  1.
       -3    1    3    3    0  502 -0.99915453300E+03  0.14820068460E+04 -0.14042385939E+03  0.17928672408E+04  0.10100000352E+00 0. -1.
</event>
<event>
 5   0  0.3242047E-07  0.3520553E+04  0.7818609E-02  0.8108936E-01
       -1   -1    0    0    0  501  0.00000000000E+00  0.00000000000E+00  0.17033546299E+04  0.17033546299E+04  0.50400001928E-02 0.  1.
        1   -1    0    0  501    0  0.00000000000E+00  0.00000000000E+00 -0.18191001354E+04  0.18191001354E+04  0.50400001928E-02 0. -1.
    10030    2    1    2    0    0  0.00000000000E+00  0.00000000000E+00 -0.11574550557E+03  0.35224547653E+04  0.35205525918E+04 0.  0.
        1    1    3    3  502    0  0.10971961037E+04 -0.12154198928E+04 -0.70435484513E+03  0.17824703514E+04  0.50400001928E-02 0. -1.
       -1    1    3    3    0  502 -0.10971961037E+04  0.12154198928E+04  0.58860933956E+03  0.17399844139E+04  0.50400001928E-02 0.  1.
</event>
<event>
 5   0  0.3159875E-07  0.3627499E+04  0.7818609E-02  0.8084222E-01
        1   -1    0    0  501    0  0.00000000000E+00  0.00000000000E+00  0.12646634212E+04  0.12646634212E+04  0.50400001928E-02 0.  1.
       -1   -1    0    0    0  501  0.00000000000E+00  0.00000000000E+00 -0.26012349575E+04  0.26012349575E+04  0.50400001928E-02 0. -1.
    10030    2    1    2    0    0  0.00000000000E+00  0.00000000000E+00 -0.13365715363E+04  0.38658983787E+04  0.36274986978E+04 0.  0.
        2    1    3    3  502    0 -0.15473807827E+04 -0.91359748107E+03 -0.93071933683E+03  0.20236813307E+04  0.25500000920E-02 0.  1.
       -2    1    3    3    0  502  0.15473807827E+04  0.91359748107E+03 -0.40585219950E+03  0.18422170480E+04  0.25500000920E-02 0. -1.
</event>
<event>
 5   0  0.3242047E-07  0.3574992E+04  0.7818609E-02  0.8096244E-01
       -1   -1    0    0    0  501  0.00000000000E+00  0.00000000000E+00  0.28222974639E+04  0.28222974639E+04  0.50400001928E-02 0.  1.
        1   -1    0    0  501    0  0.00000000000E+00  0.00000000000E+00 -0.11321065872E+04  0.11321065872E+04  0.50400001928E-02 0. -1.
    10030    2    1    2    0    0  0.00000000000E+00  0.00000000000E+00  0.16901908766E+04  0.39544040511E+04  0.35749917762E+04 0.  0.
        1    1    3    3  502    0 -0.75896561253E+03 -0.11960125393E+04  0.20510641863E+04  0.24926570344E+04  0.50400001928E-02 0.  1.
       -1    1    3    3    0  502  0.75896561253E+03  0.11960125393E+04 -0.36087330963E+03  0.14617470166E+04  0.50400001928E-02 0. -1.
</event>
<event>
 5   0  0.3278988E-07  0.3598160E+04  0.7818609E-02  0.8090913E-01
        1   -1    0    0  501    0  0.00000000000E+00  0.00000000000E+00  0.18601639263E+04  0.18601639263E+04  0.50400001928E-02 0.  1.
       -1   -1    0    0    0  501  0.00000000000E+00  0.00000000000E+00 -0.17400016841E+04  0.17400016841E+04  0.50400001928E-02 0. -1.
    10030    2    1    2    0    0  0.00000000000E+00  0.00000000000E+00  0.12016224222E+03  0.36001656104E+04  0.35981597321E+04 0.  0.
        4    1    3    3  502    0 -0.86908054631E+03  0.10493954113E+04  0.12355360350E+04  0.18393158054E+04  0.12699999809E+01 0.  1.
       -4    1    3    3    0  502  0.86908054631E+03 -0.10493954113E+04 -0.11153737927E+04  0.17608498050E+04  0.12699999809E+01 0. -1.
</event>
<event>
 5   0  0.3365378E-07  0.3584916E+04  0.7818609E-02  0.8093956E-01
        1   -1    0    0  501    0  0.00000000000E+00  0.00000000000E+00  0.90970428172E+03  0.90970428174E+03  0.50400001928E-02 0. -1.
       -1   -1    0    0    0  501  0.00000000000E+00  0.00000000000E+00 -0.35318136924E+04  0.35318136924E+04  0.50400001928E-02 0.  1.
    10030    2    1    2    0    0  0.00000000000E+00  0.00000000000E+00 -0.26221094107E+04  0.44415179741E+04  0.35849161989E+04 0.  0.
        3    1    3    3  502    0  0.12955138617E+04 -0.12037772405E+04 -0.94884521897E+03  0.20069237829E+04  0.10100000352E+00 0. -1.
       -3    1    3    3    0  502 -0.12955138617E+04  0.12037772405E+04 -0.16732641917E+04  0.24345941912E+04  0.10100000352E+00 0.  1.
</event>
<event>
 5   0  0.1006019E-06  0.3578235E+04  0.7818609E-02  0.8095496E-01
       -2   -1    0    0    0  501  0.00000000000E+00  0.00000000000E+00  0.19853090093E+04  0.19853090093E+04  0.25500000920E-02 0. -1.
        2   -1    0    0  501    0  0.00000000000E+00  0.00000000000E+00 -0.16123137951E+04  0.16123137951E+04  0.25500000920E-02 0.  1.
    10030    2    1    2    0    0  0.00000000000E+00  0.00000000000E+00  0.37299521425E+03  0.35976228044E+04  0.35782348180E+04 0.  0.
        1    1    3    3  502    0  0.18194741489E+03 -0.14063158204E+04 -0.91033592026E+03  0.16850936283E+04  0.50400001928E-02 0.  1.
       -1    1    3    3    0  502 -0.18194741489E+03  0.14063158204E+04  0.12833311345E+04  0.19125291761E+04  0.50400001928E-02 0. -1.
</event>
<event>
 5   0  0.3159875E-07  0.3604010E+04  0.7818609E-02  0.8089574E-01
       -1   -1    0    0    0  501  0.00000000000E+00  0.00000000000E+00  0.10816906463E+04  0.10816906463E+04  0.50400001928E-02 0. -1.
        1   -1    0    0  501    0  0.00000000000E+00  0.00000000000E+00 -0.30019880903E+04  0.30019880903E+04  0.50400001928E-02 0.  1.
    10030    2    1    2    0    0  0.00000000000E+00  0.00000000000E+00 -0.19202974440E+04  0.40836787365E+04  0.36040102316E+04 0.  0.
        5    1    3    3  502    0 -0.44832654677E+03  0.16627519863E+04 -0.35901166708E+03  0.17591623938E+04  0.46999998093E+01 0. -1.
       -5    1    3    3    0  502  0.44832654677E+03 -0.16627519863E+04 -0.15612857769E+04  0.23245163428E+04  0.46999998093E+01 0.  1.
</event>
<event>
 5   0  0.1031659E-06  0.2889145E+04  0.7818609E-02  0.8276115E-01
        2   -1    0    0  501    0  0.00000000000E+00  0.00000000000E+00  0.29293504065E+04  0.29293504065E+04  0.25500000920E-02 0. -1.
       -2   -1    0    0    0  501  0.00000000000E+00  0.00000000000E+00 -0.71237262431E+03  0.71237262431E+03  0.25500000920E-02 0.  1.
    10030    2    1    2    0    0  0.00000000000E+00  0.00000000000E+00  0.22169777822E+04  0.36417230308E+04  0.28891445354E+04 0.  0.
        2    1    3    3  502    0  0.11764456565E+04 -0.21998198493E+03  0.88841082142E+02  0.12001288240E+04  0.25500000920E-02 0. -1.
       -2    1    3    3    0  502 -0.11764456565E+04  0.21998198493E+03  0.21281367001E+04  0.24415942068E+04  0.25500000920E-02 0.  1.
</event>
<event>
 5   0  0.3278988E-07  0.3672237E+04  0.7818609E-02  0.8074143E-01
        1   -1    0    0  501    0  0.00000000000E+00  0.00000000000E+00  0.17976290030E+04  0.17976290030E+04  0.50400001928E-02 0. -1.
       -1   -1    0    0    0  501  0.00000000000E+00  0.00000000000E+00 -0.18754316416E+04  0.18754316416E+04  0.50400001928E-02 0.  1.
    10030    2    1    2    0    0  0.00000000000E+00  0.00000000000E+00 -0.77802638623E+02  0.36730606446E+04  0.36722365458E+04 0.  0.
        4    1    3    3  502    0  0.68215227522E+03 -0.93386738838E+03 -0.14653660540E+04  0.18667456470E+04  0.12699999809E+01 0.  1.
       -4    1    3    3    0  502 -0.68215227522E+03  0.93386738838E+03  0.13875634154E+04  0.18063149975E+04  0.12699999809E+01 0. -1.
</event>
<event>
 5   0  0.9878336E-07  0.3657119E+04  0.7818609E-02  0.8077532E-01
        2   -1    0    0  501    0  0.00000000000E+00  0.00000000000E+00  0.18940564740E+04  0.18940564740E+04  0.25500000920E-02 0. -1.
       -2   -1    0    0    0  501  0.00000000000E+00  0.00000000000E+00 -0.17653276315E+04  0.17653276315E+04  0.25500000920E-02 0.  1.
    10030    2    1    2    0    0  0.00000000000E+00  0.00000000000E+00  0.12872884248E+03  0.36593841054E+04  0.36571192100E+04 0.  0.
        3    1    3    3  502    0 -0.13453205016E+04  0.65166513344E+03 -0.98941433742E+03  0.17926225033E+04  0.10100000352E+00 0.  1.
       -3    1    3    3    0  502  0.13453205016E+04 -0.65166513344E+03  0.11181431799E+04  0.18667616021E+04  0.10100000352E+00 0. -1.
</event>
<event>
 5   0  0.3242047E-07  0.3564109E+04  0.7818609E-02  0.8098763E-01
        1   -1    0    0  501    0  0.00000000000E+00  0.00000000000E+00  0.25629146332E+04  0.25629146332E+04  0.50400001928E-02 0.  1.
       -1   -1    0    0    0  501  0.00000000000E+00  0.00000000000E+00 -0.12391045102E+04  0.12391045102E+04  0.50400001928E-02 0. -1.
    10030    2    1    2    0    0  0.00000000000E+00  0.00000000000E+00  0.13238101230E+04  0.38020191434E+04  0.35641094715E+04 0.  0.
        1    1    3    3  502    0  0.83797169866E+03  0.92838538271E+03 -0.69233296804E+03  0.14294827474E+04  0.50400001928E-02 0. -1.
       -1    1    3    3    0  502 -0.83797169866E+03 -0.92838538271E+03  0.20161430910E+04  0.23725363959E+04  0.50400001928E-02 0.  1.
</event>
<event>
 5   0  0.9878336E-07  0.3572426E+04  0.7818609E-02  0.8096837E-01
       -2   -1    0    0    0  501  0.00000000000E+00  0.00000000000E+00  0.16845929060E+04  0.16845929060E+04  0.25500000920E-02 0.  1.
        2   -1    0    0  501    0  0.00000000000E+00  0.00000000000E+00 -0.18939628930E+04  0.18939628930E+04  0.25500000920E-02 0. -1.
    10030    2    1    2    0    0  0.00000000000E+00  0.00000000000E+00 -0.20936998699E+03  0.35785557990E+04  0.35724257606E+04 0.  0.
        3    1    3    3  502    0 -0.41605125845E+03 -0.65386542958E+02 -0.18435156627E+04  0.18910113850E+04  0.10100000352E+00 0. -1.
       -3    1    3    3    0  502  0.41605125845E+03  0.65386542958E+02  0.16341456757E+04  0.16875444140E+04  0.10100000352E+00 0.  1.
</event>
<event>
 5   0  0.3159875E-07  0.3574941E+04  0.7818609E-02  0.8096256E-01
        1   -1    0    0  501    0  0.00000000000E+00  0.00000000000E+00  0.20474995295E+04  0.20474995295E+04  0.50400001928E-02 0.  1.
       -1   -1    0    0    0  501  0.00000000000E+00  0.00000000000E+00 -0.15604650474E+04  0.15604650474E+04  0.50400001928E-02 0. -1.
    10030    2    1    2    0    0  0.00000000000E+00  0.00000000000E+00  0.48703448212E+03  0.36079645768E+04  0.35749413703E+04 0.  0.
        5    1    3    3  502    0 -0.11857812051E+03 -0.46612102537E+03  0.19809597591E+04  0.20385174117E+04  0.46999998093E+01 0.  1.
       -5    1    3    3    0  502  0.11857812051E+03  0.46612102537E+03 -0.14939252769E+04  0.15694471651E+04  0.46999998093E+01 0. -1.
</event>
<event>
 5   0  0.3159875E-07  0.3532659E+04  0.7818609E-02  0.8106093E-01
       -1   -1    0    0    0  501  0.00000000000E+00  0.00000000000E+00  0.21109319455E+04  0.21109319455E+04  0.50400001928E-02 0. -1.
        1   -1    0    0  501    0  0.00000000000E+00  0.00000000000E+00 -0.14779826268E+04  0.14779826268E+04  0.50400001928E-02 0.  1.
    10030    2    1    2    0    0  0.00000000000E+00  0.00000000000E+00  0.63294931870E+03  0.35889145723E+04  0.35326594752E+04 0.  0.
        5    1    3    3  502    0  0.96141865895E+03 -0.11204341088E+04 -0.66860538025E+03  0.16207262799E+04  0.46999998093E+01 0.  1.
       -5    1    3    3    0  502 -0.96141865895E+03  0.11204341088E+04  0.13015546989E+04  0.19681882924E+04  0.46999998093E+01 0. -1.
</event>
<event>
 5   0  0.3365378E-07  0.3595087E+04  0.7818609E-02  0.8091618E-01
       -1   -1    0    0    0  501  0.00000000000E+00  0.00000000000E+00  0.20421492441E+04  0.20421492441E+04  0.50400001928E-02 0.  1.
        1   -1    0    0  501    0  0.00000000000E+00  0.00000000000E+00 -0.15822366374E+04  0.15822366374E+04  0.50400001928E-02 0. -1.
    10030    2    1    2    0    0  0.00000000000E+00  0.00000000000E+00  0.45991260669E+03  0.36243858815E+04  0.35950873998E+04 0.  0.
        3    1    3    3  502    0  0.10076298765E+04 -0.14497944661E+04 -0.11034664873E+03  0.17690105582E+04  0.10100000352E+00 0.  1.
       -3    1    3    3    0  502 -0.10076298765E+04  0.14497944661E+04  0.57025925542E+03  0.18553753233E+04  0.10100000352E+00 0. -1.
</event>
<event>
 5   0  0.9878977E-07  0.3631799E+04  0.7818609E-02  0.8083246E-01
       -2   -1    0    0    0  501  0.00000000000E+00  0.00000000000E+00  0.25702535695E+04  0.25702535695E+04  0.25500000920E-02 0.  1.
        2   -1    0    0  501    0  0.00000000000E+00  0.00000000000E+00 -0.12829436117E+04  0.12829436117E+04  0.25500000920E-02 0. -1.
    10030    2    1    2    0    0  0.00000000000E+00  0.00000000000E+00  0.12873099578E+04  0.38531971812E+04  0.36317986714E+04 0.  0.
        5    1    3    3  502    0 -0.89051992860E+03 -0.14532813140E+04 -0.20964115611E+02  0.17045568060E+04  0.46999998093E+01 0. -1.
       -5    1    3    3    0  502  0.89051992860E+03  0.14532813140E+04  0.13082740735E+04  0.21486403752E+04  0.46999998093E+01 0.  1.
</event>
<event>
 5   0  0.1006019E-06  0.3603390E+04  0.7818609E-02  0.8089716E-01
        2   -1    0    0  501    0  0.00000000000E+00  0.00000000000E+00  0.23004873968E+04  0.23004873968E+04  0.25500000920E-02 0.  1.
       -2   -1    0    0    0  501  0.00000000000E+00  0.00000000000E+00 -0.14110507435E+04  0.14110507435E+04  0.25500000920E-02 0. -1.
    10030    2    1    2    0    0  0.00000000000E+00  0.00000000000E+00  0.88943665330E+03  0.37115381403E+04  0.36033897661E+04 0.  0.
        1    1    3    3  502    0  0.87210537715E+03  0.13324813537E+04 -0.42320441568E+03  0.16477792099E+04  0.50400001928E-02 0. -1.
       -1    1    3    3    0  502 -0.87210537715E+03 -0.13324813537E+04  0.13126410690E+04  0.20637589304E+04  0.50400001928E-02 0.  1.
</event>
<event>
 5   0  0.1006019E-06  0.3591184E+04  0.7818609E-02  0.8092514E-01
        2   -1    0    0  501    0  0.00000000000E+00  0.00000000000E+00  0.19577311090E+04  0.19577311090E+04  0.25500000920E-02 0. -1.
       -2   -1    0    0    0  501  0.00000000000E+00  0.00000000000E+00 -0.16468811167E+04  0.16468811167E+04  0.25500000920E-02 0.  1.
    10030    2    1    2    0    0  0.00000000000E+00  0.00000000000E+00  0.31084999229E+03  0.36046122258E+04  0.35911838689E+04 0.  0.
        1    1    3    3  502    0  0.16669192800E+04  0.29551377901E+03 -0.44531283601E+03  0.17505004431E+04  0.50400001928E-02 0.  1.
       -1    1    3    3    0  502 -0.16669192800E+04 -0.29551377901E+03  0.75616282831E+03  0.18541117826E+04  0.50400001928E-02 0. -1.
</event>
<event>
 5   0  0.3159875E-07  0.3667575E+04  0.7818609E-02  0.8075186E-01
       -1   -1    0    0    0  501  0.00000000000E+00  0.00000000000E+00  0.30044411395E+04  0.30044411395E+04  0.50400001928E-02 0.  1.
        1   -1    0    0  501    0  0.00000000000E+00  0.00000000000E+00 -0.11192684239E+04  0.11192684239E+04  0.50400001928E-02 0. -1.
    10030    2    1    2    0    0  0.00000000000E+00  0.00000000000E+00  0.18851727156E+04  0.41237095634E+04  0.36675747294E+04 0.  0.
        2    1    3    3  502    0 -0.97050508263E+03  0.14295180592E+03  0.26846194639E+04  0.28582331955E+04  0.25500000920E-02 0.  1.
       -2    1    3    3    0  502  0.97050508263E+03 -0.14295180592E+03 -0.79944674833E+03  0.12654763679E+04  0.25500000920E-02 0. -1.
</event>
<event>
 5   0  0.3159875E-07  0.3484387E+04  0.7818609E-02  0.8117500E-01
       -1   -1    0    0    0  501  0.00000000000E+00  0.00000000000E+00  0.21480108682E+04  0.21480108682E+04  0.50400001928E-02 0.  1.
        1   -1    0    0  501    0  0.00000000000E+00  0.00000000000E+00 -0.14130461743E+04  0.14130461743E+04  0.50400001928E-02 0. -1.
    10030    2    1    2    0    0  0.00000000000E+00  0.00000000000E+00  0.73496469385E+03  0.35610570425E+04  0.34843871999E+04 0.  0.
        2    1    3    3  502    0 -0.11748200816E+04 -0.47380468743E+03 -0.85488952709E+03  0.15282438318E+04  0.25500000920E-02 0. -1.
       -2    1    3    3    0  502  0.11748200816E+04  0.47380468743E+03  0.15898542209E+04  0.20328132107E+04  0.25500000920E-02 0.  1.
</event>
<event>
 5   0  0.1031659E-06  0.3618452E+04  0.7818609E-02  0.8086278E-01
        2   -1    0    0  501    0  0.00000000000E+00  0.00000000000E+00  0.20908319494E+04  0.20908319494E+04  0.25500000920E-02 0.  1.
       -2   -1    0    0    0  501  0.00000000000E+00  0.00000000000E+00 -0.15655485989E+04  0.15655485989E+04  0.25500000920E-02 0. -1.
    10030    2    1    2    0    0  0.00000000000E+00  0.00000000000E+00  0.52528335056E+03  0.36563805483E+04  0.36184521713E+04 0.  0.
        2    1    3    3  502    0 -0.75089390300E+03  0.45363632332E+03  0.18615266557E+04  0.20578894667E+04  0.25500000920E-02 0.  1.
       -2    1    3    3    0  502  0.75089390300E+03 -0.45363632332E+03 -0.13362433051E+04  0.15984910816E+04  0.25500000920E-02 0. -1.
</event>
<event>
 5   0  0.3159875E-07  0.3560804E+04  0.7818609E-02  0.8099529E-01
       -1   -1    0    0    0  501  0.00000000000E+00  0.00000000000E+00  0.18840746732E+04  0.18840746732E+04  0.50400001928E-02 0.  1.
        1   -1    0    0  501    0  0.00000000000E+00  0.00000000000E+00 -0.16824344357E+04  0.16824344357E+04  0.50400001928E-02 0. -1.
    10030    2    1    2    0    0  0.00000000000E+00  0.00000000000E+00  0.20164023753E+03  0.35665091090E+04  0.35608044651E+04 0.  0.
        5    1    3    3  502    0 -0.15139717942E+04  0.53738290889E+03 -0.66781992776E+03  0.17397978418E+04  0.46999998093E+01 0. -1.
       -5    1    3    3    0  502  0.15139717942E+04 -0.53738290889E+03  0.86946016529E+03  0.18267112671E+04  0.46999998093E+01 0.  1.
</event>
<event>
 5   0  0.3278988E-07  0.3732931E+04  0.7818609E-02  0.8060703E-01
       -1   -1    0    0    0  501  0.00000000000E+00  0.00000000000E+00  0.21850717002E+04  0.21850717002E+04  0.50400001928E-02 0. -1.
        1   -1    0    0  501    0  0.00000000000E+00  0.00000000000E+00 -0.15943153603E+04  0.15943153603E+04  0.50400001928E-02 0.  1.
    10030    2    1    2    0    0  0.00000000000E+00  0.00000000000E+00  0.59075633983E+03  0.37793870605E+04  0.37329309530E+04 0.  0.
        4    1    3    3  502    0  0.15901428292E+04 -0.76133811149E+03  0.91578624348E+03  0.19866695734E+04  0.12699999809E+01 0. -1.
       -4    1    3    3    0  502 -0.15901428292E+04  0.76133811149E+03 -0.32502990366E+03  0.17927174871E+04  0.12699999809E+01 0.  1.
</event>
<event>
 5   0  0.3365378E-07  0.3564876E+04  0.7818609E-02  0.8098585E-01
        1   -1    0    0  501    0  0.00000000000E+00  0.00000000000E+00  0.14348290710E+04  0.14348290710E+04  0.50400001928E-02 0. -1.
       -1   -1    0    0    0  501  0.00000000000E+00  0.00000000000E+00 -0.22142598892E+04  0.22142598892E+04  0.50400001928E-02 0.  1.
    10030    2    1    2    0    0  0.00000000000E+00  0.00000000000E+00 -0.77943081822E+03  0.36490889601E+04  0.35648755713E+04 0.  0.
        3    1    3    3  502    0  0.47593584800E+03 -0.15402332343E+04  0.38867649409E+03  0.16582830804E+04  0.10100000352E+00 0.  1.
       -3    1    3    3    0  502 -0.47593584800E+03  0.15402332343E+04 -0.11681073123E+04  0.19908058797E+04  0.10100000352E+00 0. -1.
</event>
<event>
 5   0  0.3159875E-07  0.3582097E+04  0.7818609E-02  0.8094605E-01
       -1   -1    0    0    0  501  0.00000000000E+00  0.00000000000E+00  0.15777981924E+04  0.15777981924E+04  0.50400001928E-02 0. -1.
        1   -1    0    0  501    0  0.00000000000E+00  0.00000000000E+00 -0.20331213672E+04  0.20331213673E+04  0.50400001928E-02 0.  1.
    10030    2    1    2    0    0  0.00000000000E+00  0.00000000000E+00 -0.45532317483E+03  0.36109195597E+04  0.35820972730E+04 0.  0.
        5    1    3    3  502    0  0.14889437035E+04  0.39048390708E+02 -0.12303281105E+04  0.19318922016E+04  0.46999998093E+01 0.  1.
       -5    1    3    3    0  502 -0.14889437035E+04 -0.39048390708E+02  0.77500493571E+03  0.16790273581E+04  0.46999998093E+01 0. -1.
</event>
<event>
 5   0  0.1031659E-06  0.3608745E+04  0.7818609E-02  0.8088491E-01
        2   -1    0    0  501    0  0.00000000000E+00  0.00000000000E+00  0.14159527268E+04  0.14159527268E+04  0.25500000920E-02 0.  1.
       -2   -1    0    0    0  501  0.00000000000E+00  0.00000000000E+00 -0.22993423044E+04  0.22993423044E+04  0.25500000920E-02 0. -1.
    10030    2    1    2    0    0  0.00000000000E+00  0.00000000000E+00 -0.88338957764E+03  0.37152950312E+04  0.36087449373E+04 0.  0.
        2    1    3    3  502    0 -0.13026667099E+04 -0.11132874702E+04  0.14015607635E+03  0.17193002280E+04  0.25500000920E-02 0. -1.
       -2    1    3    3    0  502  0.13026667099E+04  0.11132874702E+04 -0.10235456540E+04  0.19959948031E+04  0.25500000920E-02 0.  1.
</event>
<event>
 5   0  0.1031659E-06  0.2816480E+04  0.7818609E-02  0.8298170E-01
        2   -1    0    0  501    0  0.00000000000E+00  0.00000000000E+00  0.16662566064E+04  0.16662566064E+04  0.25500000920E-02 0. -1.
       -2   -1    0    0    0  501  0.00000000000E+00  0.00000000000E+00 -0.11901767828E+04  0.11901767829E+04  0.25500000920E-02 0.  1.
    10030    2    1    2    0    0  0.00000000000E+00  0.00000000000E+00  0.47607982358E+03  0.28564333893E+04  0.28164800210E+04 0.  0.
        2    1    3    3  502    0 -0.66754459582E+03 -0.29211403036E+02 -0.10191701562E+04  0.12186783418E+04  0.25500000920E-02 0.  1.
       -2    1    3    3    0  502  0.66754459582E+03  0.29211403036E+02  0.14952499798E+04  0.16377550475E+04  0.25500000920E-02 0. -1.
</event>
<event>
 5   0  0.3278988E-07  0.3581419E+04  0.7818609E-02  0.8094761E-01
       -1   -1    0    0    0  501  0.00000000000E+00  0.00000000000E+00  0.15533313887E+04  0.15533313887E+04  0.50400001928E-02 0.  1.
        1   -1    0    0  501    0  0.00000000000E+00  0.00000000000E+00 -0.20643630130E+04  0.20643630130E+04  0.50400001928E-02 0. -1.
    10030    2    1    2    0    0  0.00000000000E+00  0.00000000000E+00 -0.51103162427E+03  0.36176944017E+04  0.35814186384E+04 0.  0.
        4    1    3    3  502    0 -0.70571077323E+03 -0.82512294760E+03 -0.16939417076E+04  0.20120376974E+04  0.12699999809E+01 0. -1.
       -4    1    3    3    0  502  0.70571077323E+03  0.82512294760E+03  0.11829100833E+04  0.16056567043E+04  0.12699999809E+01 0.  1.
</event>
<event>
 5   0  0.3242047E-07  0.2922678E+04  0.7818609E-02  0.8266162E-01
       -1   -1    0    0    0  501  0.00000000000E+00  0.00000000000E+00  0.16071377338E+04  0.16071377338E+04  0.50400001928E-02 0.  1.
        1   -1    0    0  501    0  0.00000000000E+00  0.00000000000E+00 -0.13287667894E+04  0.13287667894E+04  0.50400001928E-02 0. -1.
    10030    2    1    2    0    0  0.00000000000E+00  0.00000000000E+00  0.27837094438E+03  0.29359045231E+04  0.29226777083E+04 0.  0.
        1    1    3    3  502    0 -0.36623519972E+03  0.14144001023E+04  0.16856463598E+03  0.14707378786E+04  0.50400001928E-02 0. -1.
       -1    1    3    3    0  502  0.36623519972E+03 -0.14144001023E+04  0.10980630840E+03  0.14651666446E+04  0.50400001928E-02 0.  1.
</event>
<event>
 5   0  0.3242047E-07  0.3520165E+04  0.7818609E-02  0.8109028E-01
       -1   -1    0    0    0  501  0.00000000000E+00  0.00000000000E+00  0.13956356373E+04  0.13956356373E+04  0.50400001928E-02 0.  1.
        1   -1    0    0  501    0  0.00000000000E+00  0.00000000000E+00 -0.22196982148E+04  0.22196982148E+04  0.50400001928E-02 0. -1.
    10030    2    1    2    0    0  0.00000000000E+00  0.00000000000E+00 -0.82406257749E+03  0.36153338522E+04  0.35201647307E+04 0.  0.
        1    1    3    3  502    0 -0.56245304984E+03 -0.13343978747E+04  0.61547584585E+03  0.15734616736E+04  0.50400001928E-02 0.  1.
       -1    1    3    3    0  502  0.56245304984E+03  0.13343978747E+04 -0.14395384233E+04  0.20418721786E+04  0.50400001928E-02 0. -1.
</event>
<event>
 5   0  0.3159875E-07  0.3030397E+04  0.7818609E-02  0.8235104E-01
        1   -1    0    0  501    0  0.00000000000E+00  0.00000000000E+00  0.18238199810E+04  0.18238199810E+04  0.50400001928E-02 0. -1.
       -1   -1    0    0    0  501  0.00000000000E+00  0.00000000000E+00 -0.12588013012E+04  0.12588013012E+04  0.50400001928E-02 0.  1.
    10030    2    1    2    0    0  0.00000000000E+00  0.00000000000E+00  0.56501867981E+03  0.30826212822E+04  0.30303973108E+04 0.  0.
        5    1    3    3  502    0  0.33201739150E+03  0.38326796674E+03  0.17349372920E+04  0.18075285281E+04  0.46999998093E+01 0. -1.
       -5    1    3    3    0  502 -0.33201739150E+03 -0.38326796674E+03 -0.11699186122E+04  0.12750927542E+04  0.46999998093E+01 0.  1.
</event>
<event>
 5   0  0.1006019E-06  0.3576013E+04  0.7818609E-02  0.8096008E-01
       -2   -1    0    0    0  501  0.00000000000E+00  0.00000000000E+00  0.17269202844E+04  0.17269202844E+04  0.25500000920E-02 0. -1.
        2   -1    0    0  501    0  0.00000000000E+00  0.00000000000E+00 -0.18512533593E+04  0.18512533593E+04  0.25500000920E-02 0.  1.
    10030    2    1    2    0    0  0.00000000000E+00  0.00000000000E+00 -0.12433307495E+03  0.35781736437E+04  0.35760128511E+04 0.  0.
        1    1    3    3  502    0  0.13304871012E+04 -0.11944700035E+04 -0.58634239577E+02  0.17889640829E+04  0.50400001928E-02 0. -1.
       -1    1    3    3    0  502 -0.13304871012E+04  0.11944700035E+04 -0.65698835371E+02  0.17892095609E+04  0.50400001928E-02 0.  1.
</event>
<event>
 5   0  0.9878336E-07  0.3642451E+04  0.7818609E-02  0.8080837E-01
        2   -1    0    0  501    0  0.00000000000E+00  0.00000000000E+00  0.21800027634E+04  0.21800027634E+04  0.25500000920E-02 0. -1.
       -2   -1    0    0    0  501  0.00000000000E+00  0.00000000000E+00 -0.15214941772E+04  0.15214941772E+04  0.25500000920E-02 0.  1.
    10030    2    1    2    0    0  0.00000000000E+00  0.00000000000E+00  0.65850858620E+03  0.37014969405E+04  0.36424505546E+04 0.  0.
        3    1    3    3  502    0  0.21665049530E+03 -0.15804604388E+04 -0.56366405920E+03  0.16918953330E+04  0.10100000352E+00 0.  1.
       -3    1    3    3    0  502 -0.21665049530E+03  0.15804604388E+04  0.12221726454E+04  0.20096016076E+04  0.10100000352E+00 0. -1.
</event>
<event>
 5   0  0.1006019E-06  0.3559990E+04  0.7818609E-02  0.8099718E-01
       -2   -1    0    0    0  501  0.00000000000E+00  0.00000000000E+00  0.16494228824E+04  0.16494228824E+04  0.25500000920E-02 0.  1.
        2   -1    0    0  501    0  0.00000000000E+00  0.00000000000E+00 -0.19209036770E+04  0.19209036770E+04  0.25500000920E-02 0. -1.
    10030    2    1    2    0    0  0.00000000000E+00  0.00000000000E+00 -0.27148079455E+03  0.35703265594E+04  0.35599901572E+04 0.  0.
        1    1    3    3  502    0  0.37427027200E+03  0.55475763179E+03 -0.17899378846E+04  0.19109452889E+04  0.50400001928E-02 0. -1.
       -1    1    3    3    0  502 -0.37427027200E+03 -0.55475763179E+03  0.15184570900E+04  0.16593812705E+04  0.50400001928E-02 0.  1.
</event>
<event>
 5   0  0.9878336E-07  0.3592608E+04  0.7818609E-02  0.8092187E-01
        2   -1    0    0  501    0  0.00000000000E+00  0.00000000000E+00  0.15126290655E+04  0.15126290655E+04  0.25500000920E-02 0.  1.
       -2   -1    0    0    0  501  0.00000000000E+00  0.00000000000E+00 -0.21331784465E+04  0.21331784465E+04  0.25500000920E-02 0. -1.
    10030    2    1    2    0    0  0.00000000000E+00  0.00000000000E+00 -0.62054938101E+03  0.36458075120E+04  0.35926078105E+04 0.  0.
        3    1    3    3  502    0 -0.94031801071E+03  0.14909948174E+04  0.40450099968E+02  0.17632072276E+04  0.10100000352E+00 0.  1.
       -3    1    3    3    0  502  0.94031801071E+03 -0.14909948174E+04 -0.66099948098E+03  0.18826002844E+04  0.10100000352E+00 0. -1.
</event>
<event>
 5   0  0.9878977E-07  0.3571761E+04  0.7818609E-02  0.8096991E-01
       -2   -1    0    0    0  501  0.00000000000E+00  0.00000000000E+00  0.15010334667E+04  0.15010334667E+04  0.25500000920E-02 0. -1.
        2   -1    0    0  501    0  0.00000000000E+00  0.00000000000E+00 -0.21247822807E+04  0.21247822807E+04  0.25500000920E-02 0.  1.
    10030    2    1    2    0    0  0.00000000000E+00  0.00000000000E+00 -0.62374881400E+03  0.36258157474E+04  0.35717610854E+04 0.  0.
        5    1    3    3  502    0 -0.40071838380E+03 -0.32472661269E+03 -0.20475232060E+04  0.21114914078E+04  0.46999998093E+01 0.  1.
       -5    1    3    3    0  502  0.40071838380E+03  0.32472661269E+03  0.14237743920E+04  0.15143243396E+04  0.46999998093E+01 0. -1.
</event>
<event>
 5   0  0.3159875E-07  0.3470463E+04  0.7818609E-02  0.8120826E-01
       -1   -1    0    0    0  501  0.00000000000E+00  0.00000000000E+00  0.24698498854E+04  0.24698498854E+04  0.50400001928E-02 0. -1.
        1   -1    0    0  501    0  0.00000000000E+00  0.00000000000E+00 -0.12191139161E+04  0.12191139162E+04  0.50400001928E-02 0.  1.
    10030    2    1    2    0    0  0.00000000000E+00  0.00000000000E+00  0.12507359693E+04  0.36889638016E+04  0.34704630043E+04 0.  0.
        2    1    3    3  502    0  0.11263848820E+04  0.11719751547E+04  0.12708567701E+04  0.20633336123E+04  0.25500000920E-02 0. -1.
       -2    1    3    3    0  502 -0.11263848820E+04 -0.11719751547E+04 -0.20120800832E+02  0.16256301893E+04  0.25500000920E-02 0.  1.
</event>
<event>
 5   0  0.3365378E-07  0.3581632E+04  0.7818609E-02  0.8094712E-01
       -1   -1    0    0    0  501  0.00000000000E+00  0.00000000000E+00  0.14228905769E+04  0.14228905769E+04  0.50400001928E-02 0. -1.
        1   -1    0    0  501    0  0.00000000000E+00  0.00000000000E+00 -0.22538782796E+04  0.22538782796E+04  0.50400001928E-02 0.  1.
    10030    2    1    2    0    0  0.00000000000E+00  0.00000000000E+00 -0.83098770266E+03  0.36767688565E+04  0.35816321227E+04 0.  0.
        3    1    3    3  502    0 -0.11830271688E+04 -0.72891971393E+03  0.74417862732E+03  0.15762864813E+04  0.10100000352E+00 0. -1.
       -3    1    3    3    0  502  0.11830271688E+04  0.72891971393E+03 -0.15751663300E+04  0.21004823753E+04  0.10100000352E+00 0.  1.
</event>
<event>
 5   0  0.1006019E-06  0.3579395E+04  0.7818609E-02  0.8095228E-01
        2   -1    0    0  501    0  0.00000000000E+00  0.00000000000E+00  0.16038396844E+04  0.16038396844E+04  0.25500000920E-02 0. -1.
       -2   -1    0    0    0  501  0.00000000000E+00  0.00000000000E+00 -0.19970926475E+04  0.19970926475E+04  0.25500000920E-02 0.  1.
    10030    2    1    2    0    0  0.00000000000E+00  0.00000000000E+00 -0.39325296308E+03  0.36009323319E+04  0.35793946088E+04 0.  0.
        1    1    3    3  502    0 -0.58859628514E+03 -0.15241062936E+04 -0.93154996622E+03  0.18807261684E+04  0.50400001928E-02 0.  1.
       -1    1    3    3    0  502  0.58859628514E+03  0.15241062936E+04  0.53829700315E+03  0.17202061634E+04  0.50400001928E-02 0. -1.
</event>
<event>
 5   0  0.3365378E-07  0.3567997E+04  0.7818609E-02  0.8097862E-01
       -1   -1    0    0    0  501  0.00000000000E+00  0.00000000000E+00  0.18730029451E+04  0.18730029451E+04  0.50400001928E-02 0.  1.
        1   -1    0    0  501    0  0.00000000000E+00  0.00000000000E+00 -0.16992236276E+04  0.16992236276E+04  0.50400001928E-02 0. -1.
    10030    2    1    2    0    0  0.00000000000E+00  0.00000000000E+00  0.17377931747E+03  0.35722265727E+04  0.35679971182E+04 0.  0.
        3    1    3    3  502    0 -0.15090121173E+03 -0.72706489747E+03 -0.15371479378E+04  0.17071081787E+04  0.10100000352E+00 0. -1.
       -3    1    3    3    0  502  0.15090121173E+03  0.72706489747E+03  0.17109272552E+04  0.18651183940E+04  0.10100000352E+00 0.  1.
</event>
<event>
 5   0  0.3159875E-07  0.2647488E+04  0.7818609E-02  0.8352247E-01
        1   -1    0    0  501    0  0.00000000000E+00  0.00000000000E+00  0.20703009072E+04  0.20703009072E+04  0.50400001928E-02 0.  1.
       -1   -1    0    0    0  501  0.00000000000E+00  0.00000000000E+00 -0.84639805598E+03  0.84639805599E+03  0.50400001928E-02 0. -1.
    10030    2    1    2    0    0  0.00000000000E+00  0.00000000000E+00  0.12239028512E+04  0.29166989632E+04  0.26474883668E+04 0.  0.
        2    1    3    3  502    0 -0.12129977613E+04 -0.52687639938E+03  0.67558606890E+03  0.14850517989E+04  0.25500000920E-02 0. -1.
       -2    1    3    3    0  502  0.12129977613E+04  0.52687639938E+03  0.54831678229E+03  0.14316471642E+04  0.25500000920E-02 0.  1.
</event>
<event>
 5   0  0.3278988E-07  0.3568758E+04  0.7818609E-02  0.8097686E-01
       -1   -1    0    0    0  501  0.00000000000E+00  0.00000000000E+00  0.13521869879E+04  0.13521869879E+04  0.50400001928E-02 0.  1.
        1   -1    0    0  501    0  0.00000000000E+00  0.00000000000E+00 -0.23547100074E+04  0.23547100074E+04  0.50400001928E-02 0. -1.
    10030    2    1    2    0    0  0.00000000000E+00  0.00000000000E+00 -0.10025230195E+04  0.37068969953E+04  0.35687578972E+04 0.  0.
        4    1    3    3  502    0  0.30077036789E+03  0.11345235549E+04 -0.18973096905E+04  0.22310069891E+04  0.12699999809E+01 0. -1.
       -4    1    3    3    0  502 -0.30077036789E+03 -0.11345235549E+04  0.89478667103E+03  0.14758900062E+04  0.12699999809E+01 0.  1.
</event>
<event>
 5   0  0.9538919E-07  0.3574457E+04  0.7818609E-02  0.8096368E-01
        2   -1    0    0  501    0  0.00000000000E+00  0.00000000000E+00  0.18978733653E+04  0.18978733653E+04  0.25500000920E-02 0. -1.
       -2   -1    0    0    0  501  0.00000000000E+00  0.00000000000E+00 -0.16830343802E+04  0.16830343802E+04  0.25500000920E-02 0.  1.
    10030    2    1    2    0    0  0.00000000000E+00  0.00000000000E+00  0.21483898505E+03  0.35809077455E+04  0.35744572304E+04 0.  0.
        4    1    3    3  502    0  0.60351017293E+03 -0.10332628075E+04  0.14373421723E+04  0.18702434845E+04  0.12699999809E+01 0. -1.
       -4    1    3    3    0  502 -0.60351017293E+03  0.10332628075E+04 -0.12225031873E+04  0.17106642610E+04  0.12699999809E+01 0.  1.
</event>
<event>
 5   0  0.3159875E-07  0.3149717E+04  0.7818609E-02  0.8202224E-01
       -3   -1    0    0    0  501  0.00000000000E+00  0.00000000000E+00  0.23334185627E+04  0.23334185649E+04  0.10100000352E+00 0. -1.
        3   -1    0    0  501    0  0.00000000000E+00  0.00000000000E+00 -0.10628951520E+04  0.10628951568E+04  0.10100000352E+00 0.  1.
    10030    2    1    2    0    0  0.00000000000E+00  0.00000000000E+00  0.12705234107E+04  0.33963137217E+04  0.31497169967E+04 0.  0.
        2    1    3    3  502    0 -0.13451850705E+04 -0.66178753382E+03  0.11511176140E+03  0.15035745180E+04  0.25500000920E-02 0.  1.
       -2    1    3    3    0  502  0.13451850705E+04  0.66178753382E+03  0.11554116493E+04  0.18927392037E+04  0.25500000920E-02 0. -1.
</event>
<event>
 5   0  0.3159875E-07  0.3619652E+04  0.7818609E-02  0.8086005E-01
        1   -1    0    0  501    0  0.00000000000E+00  0.00000000000E+00  0.13192291400E+04  0.13192291400E+04  0.50400001928E-02 0. -1.
       -1   -1    0    0    0  501  0.00000000000E+00  0.00000000000E+00 -0.24828664106E+04  0.24828664106E+04  0.50400001928E-02 0.  1.
    10030    2    1    2    0    0  0.00000000000E+00  0.00000000000E+00 -0.11636372707E+04  0.38020955506E+04  0.36196517620E+04 0.  0.
        5    1    3    3  502    0 -0.52269570258E+03 -0.17582530543E+03 -0.23924544960E+04  0.24551957032E+04  0.46999998093E+01 0.  1.
       -5    1    3    3    0  502  0.52269570258E+03  0.17582530543E+03  0.12288172254E+04  0.13468998474E+04  0.46999998093E+01 0. -1.
</event>
<event>
 5   0  0.3159875E-07  0.3091998E+04  0.7818609E-02  0.8217937E-01
        1   -1    0    0  501    0  0.00000000000E+00  0.00000000000E+00  0.15011736773E+04  0.15011736773E+04  0.50400001928E-02 0.  1.
       -1   -1    0    0    0  501  0.00000000000E+00  0.00000000000E+00 -0.15921627759E+04  0.15921627760E+04  0.50400001928E-02 0. -1.
    10030    2    1    2    0    0  0.00000000000E+00  0.00000000000E+00 -0.90989098641E+02  0.30933364533E+04  0.30919979620E+04 0.  0.
        5    1    3    3  502    0 -0.14184897224E+04  0.25937306286E+03  0.51215438959E+03  0.15302652342E+04  0.46999998093E+01 0. -1.
       -5    1    3    3    0  502  0.14184897224E+04 -0.25937306286E+03 -0.60314348823E+03  0.15630712190E+04  0.46999998093E+01 0.  1.
</event>
<event>
 5   0  0.9878977E-07  0.2619403E+04  0.7818609E-02  0.8361640E-01
       -2   -1    0    0    0  501  0.00000000000E+00  0.00000000000E+00  0.75763125908E+03  0.75763125908E+03  0.25500000920E-02 0.  1.
        2   -1    0    0  501    0  0.00000000000E+00  0.00000000000E+00 -0.22640532712E+04  0.22640532712E+04  0.25500000920E-02 0. -1.
    10030    2    1    2    0    0  0.00000000000E+00  0.00000000000E+00 -0.15064220121E+04  0.30216845303E+04  0.26194026269E+04 0.  0.
        5    1    3    3  502    0  0.63422651805E+03  0.30300318737E+03  0.52160524739E+03  0.87529899569E+03  0.46999998093E+01 0.  1.
       -5    1    3    3    0  502 -0.63422651805E+03 -0.30300318737E+03 -0.20280272595E+04  0.21463855346E+04  0.46999998093E+01 0. -1.
</event>
<event>
 5   0  0.1006019E-06  0.3459634E+04  0.7818609E-02  0.8123423E-01
        2   -1    0    0  501    0  0.00000000000E+00  0.00000000000E+00  0.24786808488E+04  0.24786808488E+04  0.25500000920E-02 0.  1.
       -2   -1    0    0    0  501  0.00000000000E+00  0.00000000000E+00 -0.12072012327E+04  0.12072012327E+04  0.25500000920E-02 0. -1.
    10030    2    1    2    0    0  0.00000000000E+00  0.00000000000E+00  0.12714796161E+04  0.36858820815E+04  0.34596338397E+04 0.  0.
        1    1    3    3  502    0 -0.90663752338E+03 -0.23257794561E+03  0.21855833489E+04  0.23775741155E+04  0.50400001928E-02 0.  1.
       -1    1    3    3    0  502  0.90663752338E+03  0.23257794561E+03 -0.91410373283E+03  0.13083079660E+04  0.50400001928E-02 0. -1.
</event>
<event>
 5   0  0.3159875E-07  0.3691671E+04  0.7818609E-02  0.8069810E-01
        1   -1    0    0  501    0  0.00000000000E+00  0.00000000000E+00  0.13629207410E+04  0.13629207410E+04  0.50400001928E-02 0. -1.
       -1   -1    0    0    0  501  0.00000000000E+00  0.00000000000E+00 -0.24998579347E+04  0.24998579347E+04  0.50400001928E-02 0.  1.
    10030    2    1    2    0    0  0.00000000000E+00  0.00000000000E+00 -0.11369371937E+04  0.38627786756E+04  0.36916707484E+04 0.  0.
        2    1    3    3  502    0 -0.13732348415E+04 -0.11207213113E+04 -0.29503978410E+02  0.17727551078E+04  0.25500000920E-02 0.  1.
       -2    1    3    3    0  502  0.13732348415E+04  0.11207213113E+04 -0.11074332153E+04  0.20900235678E+04  0.25500000920E-02 0. -1.
</event>
<event>
 5   0  0.3159875E-07  0.3690793E+04  0.7818609E-02  0.8070005E-01
       -4   -1    0    0    0  501  0.00000000000E+00  0.00000000000E+00  0.12729117480E+04  0.12729123816E+04  0.12699999809E+01 0. -1.
        4   -1    0    0  501    0  0.00000000000E+00  0.00000000000E+00 -0.26753509212E+04  0.26753512226E+04  0.12699999809E+01 0.  1.
    10030    2    1    2    0    0  0.00000000000E+00  0.00000000000E+00 -0.14024391731E+04  0.39482636042E+04  0.36907925780E+04 0.  0.
        5    1    3    3  502    0  0.12086568452E+04  0.57750886653E+03 -0.20590558888E+04  0.24564407388E+04  0.46999998093E+01 0.  1.
       -5    1    3    3    0  502 -0.12086568452E+04 -0.57750886653E+03  0.65661671566E+03  0.14918228654E+04  0.46999998093E+01 0. -1.
</event>
<event>
 5   0  0.1006019E-06  0.3516178E+04  0.7818609E-02  0.8109967E-01
       -2   -1    0    0    0  501  0.00000000000E+00  0.00000000000E+00  0.34021205665E+04  0.34021205665E+04  0.25500000920E-02 0. -1.
        2   -1    0    0  501    0  0.00000000000E+00  0.00000000000E+00 -0.90851477620E+03  0.90851477621E+03  0.25500000920E-02 0.  1.
    10030    2    1    2    0    0  0.00000000000E+00  0.00000000000E+00  0.24936057903E+04  0.43106353428E+04  0.35161779279E+04 0.  0.
        1    1    3    3  502    0 -0.14523679900E+04 -0.27356454057E+03  0.24141344336E+04  0.28305927647E+04  0.50400001928E-02 0. -1.
       -1    1    3    3    0  502  0.14523679900E+04  0.27356454057E+03  0.79471356749E+02  0.14800425780E+04  0.50400001928E-02 0.  1.
</event>
<event>
 5   0  0.1006019E-06  0.3617078E+04  0.7818609E-02  0.8086591E-01
       -2   -1    0    0    0  501  0.00000000000E+00  0.00000000000E+00  0.14348437015E+04  0.14348437015E+04  0.25500000920E-02 0.  1.
        2   -1    0    0  501    0  0.00000000000E+00  0.00000000000E+00 -0.22795612781E+04  0.22795612781E+04  0.25500000920E-02 0. -1.
    10030    2    1    2    0    0  0.00000000000E+00  0.00000000000E+00 -0.84471757668E+03  0.37144049796E+04  0.36170784575E+04 0.  0.
        1    1    3    3  502    0  0.84129490545E+03  0.69135339319E+03 -0.19051888580E+04  0.21944227525E+04  0.50400001928E-02 0. -1.
       -1    1    3    3    0  502 -0.84129490545E+03 -0.69135339319E+03  0.10604712813E+04  0.15199822271E+04  0.50400001928E-02 0.  1.
</event>
<event>
 5   0  0.9878336E-07  0.3575703E+04  0.7818609E-02  0.8096080E-01
       -2   -1    0    0    0  501  0.00000000000E+00  0.00000000000E+00  0.12626973469E+04  0.12626973469E+04  0.25500000920E-02 0. -1.
        2   -1    0    0  501    0  0.00000000000E+00  0.00000000000E+00 -0.25314167263E+04  0.25314167263E+04  0.25500000920E-02 0.  1.
    10030    2    1    2    0    0  0.00000000000E+00  0.00000000000E+00 -0.12687193794E+04  0.37941140733E+04  0.35757031109E+04 0.  0.
        3    1    3    3  502    0 -0.41947485101E+03  0.15658093837E+04 -0.14345414282E+04  0.21646309838E+04  0.10100000352E+00 0.  1.
       -3    1    3    3    0  502  0.41947485101E+03 -0.15658093837E+04  0.16582204878E+03  0.16294830895E+04  0.10100000352E+00 0. -1.
</event>
<event>
 5   0  0.3278988E-07  0.3612999E+04  0.7818609E-02  0.8087521E-01
        1   -1    0    0  501    0  0.00000000000E+00  0.00000000000E+00  0.15433198789E+04  0.15433198789E+04  0.50400001928E-02 0. -1.
       -1   -1    0    0    0  501  0.00000000000E+00  0.00000000000E+00 -0.21145581539E+04  0.21145581539E+04  0.50400001928E-02 0.  1.
    10030    2    1    2    0    0  0.00000000000E+00  0.00000000000E+00 -0.57123827503E+03  0.36578780328E+04  0.36129985519E+04 0.  0.
        4    1    3    3  502    0 -0.10393812698E+04  0.56930013258E+03  0.10947768634E+04  0.16133673043E+04  0.12699999809E+01 0. -1.
       -4    1    3    3    0  502  0.10393812698E+04 -0.56930013258E+03 -0.16660151384E+04  0.20445107286E+04  0.12699999809E+01 0.  1.
</event>
<event>
 5   0  0.3278988E-07  0.3552342E+04  0.7818609E-02  0.8101497E-01
        1   -1    0    0  501    0  0.00000000000E+00  0.00000000000E+00  0.30307057421E+04  0.30307057421E+04  0.50400001928E-02 0. -1.
       -1   -1    0    0    0  501  0.00000000000E+00  0.00000000000E+00 -0.10409399023E+04  0.10409399024E+04  0.50400001928E-02 0.  1.
    10030    2    1    2    0    0  0.00000000000E+00  0.00000000000E+00  0.19897658397E+04  0.40716456444E+04  0.35523415034E+04 0.  0.
        4    1    3    3  502    0 -0.54952072579E+03 -0.81922886628E+03  0.26878557550E+04  0.28631589436E+04  0.12699999809E+01 0. -1.
       -4    1    3    3    0  502  0.54952072579E+03  0.81922886628E+03 -0.69808991530E+03  0.12084867009E+04  0.12699999809E+01 0.  1.
</event>
<event>
 5   0  0.3242047E-07  0.3574417E+04  0.7818609E-02  0.8096377E-01
        1   -1    0    0  501    0  0.00000000000E+00  0.00000000000E+00  0.24419018091E+04  0.24419018091E+04  0.50400001928E-02 0.  1.
       -1   -1    0    0    0  501  0.00000000000E+00  0.00000000000E+00 -0.13080439093E+04  0.13080439093E+04  0.50400001928E-02 0. -1.
    10030    2    1    2    0    0  0.00000000000E+00  0.00000000000E+00  0.11338578998E+04  0.37499457185E+04  0.35744173168E+04 0.  0.
        1    1    3    3  502    0 -0.17539344870E+04 -0.26510107503E+02  0.92597160310E+03  0.19835353237E+04  0.50400001928E-02 0.  1.
       -1    1    3    3    0  502  0.17539344870E+04  0.26510107503E+02  0.20788629671E+03  0.17664103948E+04  0.50400001928E-02 0. -1.
</event>
<event>
 5   0  0.9878977E-07  0.2769002E+04  0.7818609E-02  0.8312957E-01
        2   -1    0    0  501    0  0.00000000000E+00  0.00000000000E+00  0.16717149999E+04  0.16717149999E+04  0.25500000920E-02 0. -1.
       -2   -1    0    0    0  501  0.00000000000E+00  0.00000000000E+00 -0.11466325174E+04  0.11466325174E+04  0.25500000920E-02 0.  1.
    10030    2    1    2    0    0  0.00000000000E+00  0.00000000000E+00  0.52508248251E+03  0.28183475173E+04  0.27690018264E+04 0.  0.
        5    1    3    3  502    0 -0.26226052072E+03  0.11406385474E+04 -0.49022223224E+03  0.12689274224E+04  0.46999998093E+01 0.  1.
       -5    1    3    3    0  502  0.26226052072E+03 -0.11406385474E+04  0.10153047148E+04  0.15494200948E+04  0.46999998093E+01 0. -1.
</event>
<event>
 5   0  0.3365378E-07  0.3578252E+04  0.7818609E-02  0.8095492E-01
        1   -1    0    0  501    0  0.00000000000E+00  0.00000000000E+00  0.17839156160E+04  0.17839156160E+04  0.50400001928E-02 0. -1.
       -1   -1    0    0    0  501  0.00000000000E+00  0.00000000000E+00 -0.17943517377E+04  0.17943517378E+04  0.50400001928E-02 0.  1.
    10030    2    1    2    0    0  0.00000000000E+00  0.00000000000E+00 -0.10436121758E+02  0.35782673537E+04  0.35782521351E+04 0.  0.
        3    1    3    3  502    0  0.14718923923E+04  0.59514397036E+03  0.81959361596E+03  0.17867280894E+04  0.10100000352E+00 0. -1.
       -3    1    3    3    0  502 -0.14718923923E+04 -0.59514397036E+03 -0.83002973772E+03  0.17915392643E+04  0.10100000352E+00 0.  1.
</event>
<event>
 5   0  0.9878977E-07  0.3522962E+04  0.7818609E-02  0.8108370E-01
        2   -1    0    0  501    0  0.00000000000E+00  0.00000000000E+00  0.25316857730E+04  0.25316857730E+04  0.25500000920E-02 0. -1.
       -2   -1    0    0    0  501  0.00000000000E+00  0.00000000000E+00 -0.12255926993E+04  0.12255926993E+04  0.25500000920E-02 0.  1.
    10030    2    1    2    0    0  0.00000000000E+00  0.00000000000E+00  0.13060930737E+04  0.37572784723E+04  0.35229621629E+04 0.  0.
        5    1    3    3  502    0 -0.18682571269E+03 -0.13848656809E+04 -0.49067752253E+03  0.14810615524E+04  0.46999998093E+01 0.  1.
       -5    1    3    3    0  502  0.18682571269E+03  0.13848656809E+04  0.17967705962E+04  0.22762169199E+04  0.46999998093E+01 0. -1.
</event>
<event>
 5   0  0.1006019E-06  0.3624707E+04  0.7818609E-02  0.8084856E-01
       -2   -1    0    0    0  501  0.00000000000E+00  0.00000000000E+00  0.16944513167E+04  0.16944513167E+04  0.25500000920E-02 0. -1.
        2   -1    0    0  501    0  0.00000000000E+00  0.00000000000E+00 -0.19384589940E+04  0.19384589940E+04  0.25500000920E-02 0.  1.
    10030    2    1    2    0    0  0.00000000000E+00  0.00000000000E+00 -0.24400767731E+03  0.36329103107E+04  0.36247065507E+04 0.  0.
        1    1    3    3  502    0  0.84806185675E+03 -0.11059616509E+04  0.10391796307E+04  0.17384632268E+04  0.50400001928E-02 0. -1.
       -1    1    3    3    0  502 -0.84806185675E+03  0.11059616509E+04 -0.12831873080E+04  0.18944470839E+04  0.50400001928E-02 0.  1.
</event>
<event>
 5   0  0.9538919E-07  0.3600513E+04  0.7818609E-02  0.8090374E-01
        2   -1    0    0  501    0  0.00000000000E+00  0.00000000000E+00  0.26331803202E+04  0.26331803202E+04  0.25500000920E-02 0. -1.
       -2   -1    0    0    0  501  0.00000000000E+00  0.00000000000E+00 -0.12308018888E+04  0.12308018888E+04  0.25500000920E-02 0.  1.
    10030    2    1    2    0    0  0.00000000000E+00  0.00000000000E+00  0.14023784314E+04  0.38639822090E+04  0.36005129144E+04 0.  0.
        4    1    3    3  502    0 -0.55117089806E+03  0.17115392671E+04  0.60661768699E+03  0.18976676877E+04  0.12699999809E+01 0.  1.
       -4    1    3    3    0  502  0.55117089806E+03 -0.17115392671E+04  0.79576074436E+03  0.19663145214E+04  0.12699999809E+01 0. -1.
</event>
<event>
 5   0  0.9878977E-07  0.3603701E+04  0.7818609E-02  0.8089645E-01
        2   -1    0    0  501    0  0.00000000000E+00  0.00000000000E+00  0.14910119029E+04  0.14910119029E+04  0.25500000920E-02 0.  1.
       -2   -1    0    0    0  501  0.00000000000E+00  0.00000000000E+00 -0.21774907845E+04  0.21774907845E+04  0.25500000920E-02 0. -1.
    10030    2    1    2    0    0  0.00000000000E+00  0.00000000000E+00 -0.68647888161E+03  0.36685026873E+04  0.36037006968E+04 0.  0.
        5    1    3    3  502    0  0.75649672069E+03  0.14697608961E+04 -0.10731817118E+04  0.19708438438E+04  0.46999998093E+01 0. -1.
       -5    1    3    3    0  502 -0.75649672069E+03 -0.14697608961E+04  0.38670283019E+03  0.16976588435E+04  0.46999998093E+01 0.  1.
</event>
<event>
 5   0  0.3278988E-07  0.3602739E+04  0.7818609E-02  0.8089864E-01
        1   -1    0    0  501    0  0.00000000000E+00  0.00000000000E+00  0.23598763580E+04  0.23598763580E+04  0.50400001928E-02 0. -1.
       -1   -1    0    0    0  501  0.00000000000E+00  0.00000000000E+00 -0.13750436158E+04  0.13750436158E+04  0.50400001928E-02 0.  1.
    10030    2    1    2    0    0  0.00000000000E+00  0.00000000000E+00  0.98483274221E+03  0.37349199738E+04  0.36027394689E+04 0.  0.
        4    1    3    3  502    0  0.10100075320E+04 -0.52590108840E+02 -0.10529284231E+04  0.14599797298E+04  0.12699999809E+01 0.  1.
       -4    1    3    3    0  502 -0.10100075320E+04  0.52590108840E+02  0.20377611653E+04  0.22749402440E+04  0.12699999809E+01 0. -1.
</event>
<event>
 5   0  0.1006019E-06  0.3455792E+04  0.7818609E-02  0.8124347E-01
        2   -1    0    0  501    0  0.00000000000E+00  0.00000000000E+00  0.20377018239E+04  0.20377018239E+04  0.25500000920E-02 0. -1.
       -2   -1    0    0    0  501  0.00000000000E+00  0.00000000000E+00 -0.14651916886E+04  0.14651916886E+04  0.25500000920E-02 0.  1.
    10030    2    1    2    0    0  0.00000000000E+00  0.00000000000E+00  0.57251013526E+03  0.35028935125E+04  0.34557915309E+04 0.  0.
        1    1    3    3  502    0 -0.87586419978E+03  0.47572787045E+03 -0.11444247554E+04  0.15176175816E+04  0.50400001928E-02 0.  1.
       -1    1    3    3    0  502  0.87586419978E+03 -0.47572787045E+03  0.17169348906E+04  0.19852759309E+04  0.50400001928E-02 0. -1.
</event>
<event>
 5   0  0.3278988E-07  0.3609446E+04  0.7818609E-02  0.8088331E-01
       -1   -1    0    0    0  501  0.00000000000E+00  0.00000000000E+00  0.23681298212E+04  0.23681298212E+04  0.50400001928E-02 0.  1.
        1   -1    0    0  501    0  0.00000000000E+00  0.00000000000E+00 -0.13753578427E+04  0.13753578428E+04  0.50400001928E-02 0. -1.
    10030    2    1    2    0    0  0.00000000000E+00  0.00000000000E+00  0.99277197846E+03  0.37434876640E+04  0.36094464519E+04 0.  0.
        4    1    3    3  502    0  0.21949485439E+03 -0.33360820942E+03 -0.13289595872E+04  0.13876626484E+04  0.12699999809E+01 0. -1.
       -4    1    3    3    0  502 -0.21949485439E+03  0.33360820942E+03  0.23217315656E+04  0.23558250156E+04  0.12699999809E+01 0.  1.
</event>
<event>
 5   0  0.3159875E-07  0.3612661E+04  0.7818609E-02  0.8087598E-01
        1   -1    0    0  501    0  0.00000000000E+00  0.00000000000E+00  0.11203929662E+04  0.11203929662E+04  0.50400001928E-02 0. -1.
       -1   -1    0    0    0  501  0.00000000000E+00  0.00000000000E+00 -0.29122195615E+04  0.29122195615E+04  0.50400001928E-02 0.  1.
    10030    2    1    2    0    0  0.00000000000E+00  0.00000000000E+00 -0.17918265953E+04  0.40326125277E+04  0.36126612422E+04 0.  0.
        2    1    3    3  502    0  0.13188783181E+04 -0.12313157987E+04 -0.99096920871E+03  0.20585428309E+04  0.25500000920E-02 0. -1.
       -2    1    3    3    0  502 -0.13188783181E+04  0.12313157987E+04 -0.80085738658E+03  0.19740696968E+04  0.25500000920E-02 0.  1.
</event>
<event>
 5   0  0.3159875E-07  0.2950007E+04  0.7818609E-02  0.8258153E-01
        1   -1    0    0  501    0  0.00000000000E+00  0.00000000000E+00  0.11308369240E+04  0.11308369240E+04  0.50400001928E-02 0. -1.
       -1   -1    0    0    0  501  0.00000000000E+00  0.00000000000E+00 -0.19239158176E+04  0.19239158176E+04  0.50400001928E-02 0.  1.
    10030    2    1    2    0    0  0.00000000000E+00  0.00000000000E+00 -0.79307889359E+03  0.30547527416E+04  0.29500068103E+04 0.  0.
        2    1    3    3  502    0 -0.11608459545E+03 -0.10306720374E+04  0.68944754649E+03  0.12454310103E+04  0.25500000920E-02 0. -1.
       -2    1    3    3    0  502  0.11608459545E+03  0.10306720374E+04 -0.14825264401E+04  0.18093217314E+04  0.25500000920E-02 0.  1.
</event>
<event>
 5   0  0.3242047E-07  0.3564955E+04  0.7818609E-02  0.8098567E-01
        1   -1    0    0  501    0  0.00000000000E+00  0.00000000000E+00  0.14232326567E+04  0.14232326568E+04  0.50400001928E-02 0.  1.
       -1   -1    0    0    0  501  0.00000000000E+00  0.00000000000E+00 -0.22324009234E+04  0.22324009234E+04  0.50400001928E-02 0. -1.
    10030    2    1    2    0    0  0.00000000000E+00  0.00000000000E+00 -0.80916826661E+03  0.36556335801E+04  0.35649549209E+04 0.  0.
        1    1    3    3  502    0 -0.93951523815E+03 -0.60795732109E+03  0.10181230092E+04  0.15129029872E+04  0.50400001928E-02 0.  1.
       -1    1    3    3    0  502  0.93951523815E+03  0.60795732109E+03 -0.18272912758E+04  0.21427305929E+04  0.50400001928E-02 0. -1.
</event>
<event>
 5   0  0.3278988E-07  0.3601586E+04  0.7818609E-02  0.8090129E-01
       -1   -1    0    0    0  501  0.00000000000E+00  0.00000000000E+00  0.18208069025E+04  0.18208069025E+04  0.50400001928E-02 0. -1.
        1   -1    0    0  501    0  0.00000000000E+00  0.00000000000E+00 -0.17809987438E+04  0.17809987438E+04  0.50400001928E-02 0.  1.
    10030    2    1    2    0    0  0.00000000000E+00  0.00000000000E+00  0.39808158693E+02  0.36018056463E+04  0.36015856541E+04 0.  0.
        4    1    3    3  502    0  0.56156145213E+03 -0.10102684678E+04 -0.13610711226E+04  0.17856399008E+04  0.12699999809E+01 0.  1.
       -4    1    3    3    0  502 -0.56156145213E+03  0.10102684678E+04  0.14008792813E+04  0.18161657455E+04  0.12699999809E+01 0. -1.
</event>
<event>
 5   0  0.9538919E-07  0.3484325E+04  0.7818609E-02  0.8117515E-01
        2   -1    0    0  501    0  0.00000000000E+00  0.00000000000E+00  0.21887098085E+04  0.21887098085E+04  0.25500000920E-02 0.  1.
       -2   -1    0    0    0  501  0.00000000000E+00  0.00000000000E+00 -0.13867213515E+04  0.13867213515E+04  0.25500000920E-02 0. -1.
    10030    2    1    2    0    0  0.00000000000E+00  0.00000000000E+00  0.80198845697E+03  0.35754311600E+04  0.34843252568E+04 0.  0.
        4    1    3    3  502    0 -0.12335312702E+04  0.30688272888E+03 -0.82152270003E+03  0.15134984517E+04  0.12699999809E+01 0. -1.
       -4    1    3    3    0  502  0.12335312702E+04 -0.30688272888E+03  0.16235111570E+04  0.20619327083E+04  0.12699999809E+01 0.  1.
</event>
<event>
 5   0  0.9538919E-07  0.3604098E+04  0.7818609E-02  0.8089554E-01
       -2   -1    0    0    0  501  0.00000000000E+00  0.00000000000E+00  0.10962642813E+04  0.10962642813E+04  0.25500000920E-02 0.  1.
        2   -1    0    0  501    0  0.00000000000E+00  0.00000000000E+00 -0.29622245734E+04  0.29622245734E+04  0.25500000920E-02 0. -1.
    10030    2    1    2    0    0  0.00000000000E+00  0.00000000000E+00 -0.18659602921E+04  0.40584888548E+04  0.36040982190E+04 0.  0.
        4    1    3    3  502    0 -0.48928530726E+03  0.17235086378E+04 -0.71492446143E+03  0.19289895632E+04  0.12699999809E+01 0. -1.
       -4    1    3    3    0  502  0.48928530726E+03 -0.17235086378E+04 -0.11510358307E+04  0.21294992916E+04  0.12699999809E+01 0.  1.
</event>
<event>
 5   0  0.3159875E-07  0.3634466E+04  0.7818609E-02  0.8082642E-01
       -1   -1    0    0    0  501  0.00000000000E+00  0.00000000000E+00  0.15605057406E+04  0.15605057406E+04  0.50400001928E-02 0.  1.
        1   -1    0    0  501    0  0.00000000000E+00  0.00000000000E+00 -0.21161957444E+04  0.21161957444E+04  0.50400001928E-02 0. -1.
    10030    2    1    2    0    0  0.00000000000E+00  0.00000000000E+00 -0.55569000383E+03  0.36767014850E+04  0.36344659071E+04 0.  0.
        5    1    3    3  502    0 -0.17384226837E+04  0.22774599230E+03 -0.76123874169E+03  0.19114099969E+04  0.46999998093E+01 0. -1.
       -5    1    3    3    0  502  0.17384226837E+04 -0.22774599230E+03  0.20554873786E+03  0.17652914881E+04  0.46999998093E+01 0.  1.
</event>
<event>
 5   0  0.1031659E-06  0.3574484E+04  0.7818609E-02  0.8096362E-01
       -2   -1    0    0    0  501  0.00000000000E+00  0.00000000000E+00  0.12378235491E+04  0.12378235491E+04  0.25500000920E-02 0.  1.
        2   -1    0    0  501    0  0.00000000000E+00  0.00000000000E+00 -0.25805241161E+04  0.25805241161E+04  0.25500000920E-02 0. -1.
    10030    2    1    2    0    0  0.00000000000E+00  0.00000000000E+00 -0.13427005670E+04  0.38183476652E+04  0.35744837500E+04 0.  0.
        2    1    3    3  502    0 -0.99508417450E+03  0.13313960584E+04 -0.13729914599E+04  0.21559020218E+04  0.25500000920E-02 0. -1.
       -2    1    3    3    0  502  0.99508417450E+03 -0.13313960584E+04  0.30290892912E+02  0.16624456433E+04  0.25500000920E-02 0.  1.
</event>
<event>
 5   0  0.3159875E-07  0.3527335E+04  0.7818609E-02  0.8107342E-01
        1   -1    0    0  501    0  0.00000000000E+00  0.00000000000E+00  0.16356813184E+04  0.16356813185E+04  0.50400001928E-02 0.  1.
       -1   -1    0    0    0  501  0.00000000000E+00  0.00000000000E+00 -0.19016677752E+04  0.19016677752E+04  0.50400001928E-02 0. -1.
    10030    2    1    2    0    0  0.00000000000E+00  0.00000000000E+00 -0.26598645676E+03  0.35373490937E+04  0.35273346616E+04 0.  0.
        5    1    3    3  502    0  0.81455717083E+03 -0.54839202831E+03 -0.16021655617E+04  0.18791470880E+04  0.46999998093E+01 0. -1.
       -5    1    3    3    0  502 -0.81455717083E+03  0.54839202831E+03  0.13361791049E+04  0.16582020057E+04  0.46999998093E+01 0.  1.
</event>
<event>
 5   0  0.1006019E-06  0.3557865E+04  0.7818609E-02  0.8100212E-01
        2   -1    0    0  501    0  0.00000000000E+00  0.00000000000E+00  0.17498425583E+04  0.17498425583E+04  0.25500000920E-02 0.  1.
       -2   -1    0    0    0  501  0.00000000000E+00  0.00000000000E+00 -0.18085062366E+04  0.18085062366E+04  0.25500000920E-02 0. -1.
    10030    2    1    2    0    0  0.00000000000E+00  0.00000000000E+00 -0.58663678281E+02  0.35583487949E+04  0.35578651913E+04 0.  0.
        1    1    3    3  502    0  0.64430365236E+03 -0.14352770825E+04 -0.85977817754E+03  0.17928653085E+04  0.50400001928E-02 0. -1.
       -1    1    3    3    0  502 -0.64430365236E+03  0.14352770825E+04  0.80111449926E+03  0.17654834864E+04  0.50400001928E-02 0.  1.
</event>
<event>
 5   0  0.9538919E-07  0.3650393E+04  0.7818609E-02  0.8079045E-01
       -2   -1    0    0    0  501  0.00000000000E+00  0.00000000000E+00  0.19854769339E+04  0.19854769339E+04  0.25500000920E-02 0.  1.
        2   -1    0    0  501    0  0.00000000000E+00  0.00000000000E+00 -0.16778545092E+04  0.16778545092E+04  0.25500000920E-02 0. -1.
    10030    2    1    2    0    0  0.00000000000E+00  0.00000000000E+00  0.30762242466E+03  0.36633314431E+04  0.36503925414E+04 0.  0.
        4    1    3    3  502    0  0.87889473123E+03  0.22782228311E+03  0.17427682520E+04  0.19650958588E+04  0.12699999809E+01 0.  1.
       -4    1    3    3    0  502 -0.87889473123E+03 -0.22782228311E+03 -0.14351458273E+04  0.16982355843E+04  0.12699999809E+01 0. -1.
</event>
<event>
 5   0  0.3159875E-07  0.3549982E+04  0.7818609E-02  0.8102046E-01
        1   -1    0    0  501    0  0.00000000000E+00  0.00000000000E+00  0.20916049563E+04  0.20916049563E+04  0.50400001928E-02 0. -1.
       -1   -1    0    0    0  501  0.00000000000E+00  0.00000000000E+00 -0.15063037346E+04  0.15063037346E+04  0.50400001928E-02 0.  1.
    10030    2    1    2    0    0  0.00000000000E+00  0.00000000000E+00  0.58530122166E+03  0.35979086909E+04  0.35499816095E+04 0.  0.
        5    1    3    3  502    0 -0.94570232710E+03 -0.42313333489E+03  0.17533492878E+04  0.20365781413E+04  0.46999998093E+01 0. -1.
       -5    1    3    3    0  502  0.94570232710E+03  0.42313333489E+03 -0.11680480661E+04  0.15613305497E+04  0.46999998093E+01 0.  1.
</event>
<event>
 5   0  0.9538919E-07  0.2591085E+04  0.7818609E-02  0.8371236E-01
       -2   -1    0    0    0  501  0.00000000000E+00  0.00000000000E+00  0.14003711675E+04  0.14003711675E+04  0.25500000920E-02 0. -1.
        2   -1    0    0  501    0  0.00000000000E+00  0.00000000000E+00 -0.11985613926E+04  0.11985613926E+04  0.25500000920E-02 0.  1.
    10030    2    1    2    0    0  0.00000000000E+00  0.00000000000E+00  0.20180977487E+03  0.25989325601E+04  0.25910853453E+04 0.  0.
        4    1    3    3  502    0 -0.10794425652E+04 -0.71604929970E+03  0.12347531628E+03  0.13012188970E+04  0.12699999809E+01 0.  1.
       -4    1    3    3    0  502  0.10794425652E+04  0.71604929970E+03  0.78334458591E+02  0.12977136631E+04  0.12699999809E+01 0. -1.
</event>
<event>
 5   0  0.9878977E-07  0.3657416E+04  0.7818609E-02  0.8077465E-01
       -2   -1    0    0    0  501  0.00000000000E+00  0.00000000000E+00  0.23812329566E+04  0.23812329566E+04  0.25500000920E-02 0.  1.
        2   -1    0    0  501    0  0.00000000000E+00  0.00000000000E+00 -0.14043869023E+04  0.14043869023E+04  0.25500000920E-02 0. -1.
    10030    2    1    2    0    0  0.00000000000E+00  0.00000000000E+00  0.97684605435E+03  0.37856198589E+04  0.36574156863E+04 0.  0.
        5    1    3    3  502    0 -0.57938604320E+02 -0.31833537540E+03 -0.13745163402E+04  0.14120947393E+04  0.46999998093E+01 0. -1.
       -5    1    3    3    0  502  0.57938604320E+02  0.31833537540E+03  0.23513623946E+04  0.23735251197E+04  0.46999998093E+01 0.  1.
</event>
<event>
 5   0  0.1006019E-06  0.3581511E+04  0.7818609E-02  0.8094740E-01
        2   -1    0    0  501    0  0.00000000000E+00  0.00000000000E+00  0.14886830139E+04  0.14886830139E+04  0.25500000920E-02 0.  1.
       -2   -1    0    0    0  501  0.00000000000E+00  0.00000000000E+00 -0.21541217436E+04  0.21541217436E+04  0.25500000920E-02 0. -1.
    10030    2    1    2    0    0  0.00000000000E+00  0.00000000000E+00 -0.66543872962E+03  0.36428047575E+04  0.35815105470E+04 0.  0.
        1    1    3    3  502    0 -0.28231671620E+03  0.13222082584E+04 -0.15270672815E+04  0.20395763994E+04  0.50400001928E-02 0. -1.
       -1    1    3    3    0  502  0.28231671620E+03 -0.13222082584E+04  0.86162855185E+03  0.16032283581E+04  0.50400001928E-02 0.  1.
</event>
<event>
 5   0  0.3278988E-07  0.3881265E+04  0.7818609E-02  0.8028937E-01
        1   -1    0    0  501    0  0.00000000000E+00  0.00000000000E+00  0.11896056123E+04  0.11896056123E+04  0.50400001928E-02 0. -1.
       -1   -1    0    0    0  501  0.00000000000E+00  0.00000000000E+00 -0.31658005424E+04  0.31658005424E+04  0.50400001928E-02 0.  1.
    10030    2    1    2    0    0  0.00000000000E+00  0.00000000000E+00 -0.19761949301E+04  0.43554061547E+04  0.38812647901E+04 0.  0.
        4    1    3    3  502    0 -0.81151249680E+03 -0.10153739068E+04  0.62895088502E+03  0.14439936052E+04  0.12699999809E+01 0. -1.
       -4    1    3    3    0  502  0.81151249680E+03  0.10153739068E+04 -0.26051458151E+04  0.29114125496E+04  0.12699999809E+01 0.  1.
</event>
<event>
 5   0  0.1006019E-06  0.3585330E+04  0.7818609E-02  0.8093860E-01
       -2   -1    0    0    0  501  0.00000000000E+00  0.00000000000E+00  0.13657673768E+04  0.13657673768E+04  0.25500000920E-02 0. -1.
        2   -1    0    0  501    0  0.00000000000E+00  0.00000000000E+00 -0.23529980844E+04  0.23529980844E+04  0.25500000920E-02 0.  1.
    10030    2    1    2    0    0  0.00000000000E+00  0.00000000000E+00 -0.98723070761E+03  0.37187654612E+04  0.35853301222E+04 0.  0.
        1    1    3    3  502    0  0.43270624786E+03 -0.82025075300E+03  0.10976263540E+04  0.14369514981E+04  0.50400001928E-02 0. -1.
       -1    1    3    3    0  502 -0.43270624786E+03  0.82025075300E+03 -0.20848570617E+04  0.22818139631E+04  0.50400001928E-02 0.  1.
</event>
<event>
 5   0  0.3159875E-07  0.3679870E+04  0.7818609E-02  0.8072438E-01
       -1   -1    0    0    0  501  0.00000000000E+00  0.00000000000E+00  0.11723458954E+04  0.11723458954E+04  0.50400001928E-02 0.  1.
        1   -1    0    0  501    0  0.00000000000E+00  0.00000000000E+00 -0.28876801824E+04  0.28876801824E+04  0.50400001928E-02 0. -1.
    10030    2    1    2    0    0  0.00000000000E+00  0.00000000000E+00 -0.17153342870E+04  0.40600260778E+04  0.36798695679E+04 0.  0.
        2    1    3    3  502    0  0.10425322800E+04 -0.13477955448E+04 -0.16235987853E+04  0.23536141148E+04  0.25500000920E-02 0. -1.
       -2    1    3    3    0  502 -0.10425322800E+04  0.13477955448E+04 -0.91735501638E+02  0.17064119631E+04  0.25500000920E-02 0.  1.
</event>
<event>
 5   0  0.9878336E-07  0.3575587E+04  0.7818609E-02  0.8096107E-01
        2   -1    0    0  501    0  0.00000000000E+00  0.00000000000E+00  0.13635389582E+04  0.13635389582E+04  0.25500000920E-02 0. -1.
       -2   -1    0    0    0  501  0.00000000000E+00  0.00000000000E+00 -0.23440510425E+04  0.23440510425E+04  0.25500000920E-02 0.  1.
    10030    2    1    2    0    0  0.00000000000E+00  0.00000000000E+00 -0.98051208433E+03  0.37075900007E+04  0.35755866184E+04 0.  0.
        3    1    3    3  502    0  0.12364218560E+04  0.54461554533E+03 -0.17043181953E+04  0.21748668050E+04  0.10100000352E+00 0.  1.
       -3    1    3    3    0  502 -0.12364218560E+04 -0.54461554533E+03  0.72380611098E+03  0.15327231957E+04  0.10100000352E+00 0. -1.
</event>
<event>
 5   0  0.3278988E-07  0.3561562E+04  0.7818609E-02  0.8099354E-01
       -1   -1    0    0    0  501  0.00000000000E+00  0.00000000000E+00  0.10965899813E+04  0.10965899813E+04  0.50400001928E-02 0.  1.
        1   -1    0    0  501    0  0.00000000000E+00  0.00000000000E+00 -0.28918558532E+04  0.28918558532E+04  0.50400001928E-02 0. -1.
    10030    2    1    2    0    0  0.00000000000E+00  0.00000000000E+00 -0.17952658718E+04  0.39884458345E+04  0.35615615429E+04 0.  0.
        4    1    3    3  502    0 -0.11908878594E+04  0.92564793782E+03 -0.19577438571E+04  0.24713964922E+04  0.12699999809E+01 0. -1.
       -4    1    3    3    0  502  0.11908878594E+04 -0.92564793782E+03  0.16247798530E+03  0.15170493423E+04  0.12699999809E+01 0.  1.
</event>
<event>
 5   0  0.3242047E-07  0.2585597E+04  0.7818609E-02  0.8373110E-01
        1   -1    0    0  501    0  0.00000000000E+00  0.00000000000E+00  0.14070054406E+04  0.14070054406E+04  0.50400001928E-02 0.  1.
       -1   -1    0    0    0  501  0.00000000000E+00  0.00000000000E+00 -0.11878620418E+04  0.11878620418E+04  0.50400001928E-02 0. -1.
    10030    2    1    2    0    0  0.00000000000E+00  0.00000000000E+00  0.21914339883E+03  0.25948674824E+04  0.25855973047E+04 0.  0.
        1    1    3    3  502    0 -0.11345141604E+04  0.24239844512E+03 -0.46295500389E+03  0.12490823519E+04  0.50400001928E-02 0. -1.
       -1    1    3    3    0  502  0.11345141604E+04 -0.24239844512E+03  0.68209840272E+03  0.13457851304E+04  0.50400001928E-02 0.  1.
</event>
<event>
 5   0  0.1006019E-06  0.3556367E+04  0.7818609E-02  0.8100560E-01
       -2   -1    0    0    0  501  0.00000000000E+00  0.00000000000E+00  0.13678892687E+04  0.13678892687E+04  0.25500000920E-02 0. -1.
        2   -1    0    0  501    0  0.00000000000E+00  0.00000000000E+00 -0.23115448308E+04  0.23115448308E+04  0.25500000920E-02 0.  1.
    10030    2    1    2    0    0  0.00000000000E+00  0.00000000000E+00 -0.94365556208E+03  0.36794340995E+04  0.35563674547E+04 0.  0.
        1    1    3    3  502    0 -0.99248189564E+03 -0.14606689260E+04 -0.25638309687E+03  0.17844624728E+04  0.50400001928E-02 0. -1.
       -1    1    3    3    0  502  0.99248189564E+03  0.14606689260E+04 -0.68727246521E+03  0.18949716267E+04  0.50400001928E-02 0.  1.
</event>
<event>
 5   0  0.9538919E-07  0.3589513E+04  0.7818609E-02  0.8092898E-01
        2   -1    0    0  501    0  0.00000000000E+00  0.00000000000E+00  0.27412563324E+04  0.27412563324E+04  0.25500000920E-02 0.  1.
       -2   -1    0    0    0  501  0.00000000000E+00  0.00000000000E+00 -0.11750636271E+04  0.11750636271E+04  0.25500000920E-02 0. -1.
    10030    2    1    2    0    0  0.00000000000E+00  0.00000000000E+00  0.15661927054E+04  0.39163199595E+04  0.35895128409E+04 0.  0.
        4    1    3    3  502    0 -0.16238679994E+04  0.11060100325E+03 -0.42046137573E+02  0.16281736246E+04  0.12699999809E+01 0. -1.
       -4    1    3    3    0  502  0.16238679994E+04 -0.11060100325E+03  0.16082388429E+04  0.22881463349E+04  0.12699999809E+01 0.  1.
</event>
<event>
 5   0  0.3159875E-07  0.3642761E+04  0.7818609E-02  0.8080766E-01
       -3   -1    0    0    0  501  0.00000000000E+00  0.00000000000E+00  0.18682939646E+04  0.18682939673E+04  0.10100000352E+00 0.  1.
        3   -1    0    0  501    0  0.00000000000E+00  0.00000000000E+00 -0.17756452833E+04  0.17756452861E+04  0.10100000352E+00 0. -1.
    10030    2    1    2    0    0  0.00000000000E+00  0.00000000000E+00  0.92648681294E+02  0.36439392534E+04  0.36427612473E+04 0.  0.
        2    1    3    3  502    0  0.41905679906E+03 -0.12547243168E+04 -0.12060732095E+04  0.17901268946E+04  0.25500000920E-02 0. -1.
       -2    1    3    3    0  502 -0.41905679906E+03  0.12547243168E+04  0.12987218908E+04  0.18538123588E+04  0.25500000920E-02 0.  1.
</event>
<event>
 5   0  0.1006019E-06  0.3564582E+04  0.7818609E-02  0.8098653E-01
       -2   -1    0    0    0  501  0.00000000000E+00  0.00000000000E+00  0.21490443534E+04  0.21490443534E+04  0.25500000920E-02 0. -1.
        2   -1    0    0  501    0  0.00000000000E+00  0.00000000000E+00 -0.14781273741E+04  0.14781273741E+04  0.25500000920E-02 0.  1.
    10030    2    1    2    0    0  0.00000000000E+00  0.00000000000E+00  0.67091697931E+03  0.36271717274E+04  0.35645820438E+04 0.  0.
        1    1    3    3  502    0 -0.57796621999E+03 -0.28202349023E+03  0.20268661820E+04  0.21264450899E+04  0.50400001928E-02 0. -1.
       -1    1    3    3    0  502  0.57796621999E+03  0.28202349023E+03 -0.13559492027E+04  0.15007266376E+04  0.50400001928E-02 0.  1.
</event>
<event>
 5   0  0.9878336E-07  0.3499950E+04  0.7818609E-02  0.8113802E-01
       -2   -1    0    0    0  501  0.00000000000E+00  0.00000000000E+00  0.12924810315E+04  0.12924810315E+04  0.25500000920E-02 0. -1.
        2   -1    0    0  501    0  0.00000000000E+00  0.00000000000E+00 -0.23694064336E+04  0.23694064336E+04  0.25500000920E-02 0.  1.
    10030    2    1    2    0    0  0.00000000000E+00  0.00000000000E+00 -0.10769254021E+04  0.36618874651E+04  0.34999502118E+04 0.  0.
        3    1    3    3  502    0 -0.98459795547E+03 -0.94322924924E+02  0.97196737133E+03  0.13867409741E+04  0.10100000352E+00 0. -1.
       -3    1    3    3    0  502  0.98459795547E+03  0.94322924924E+02 -0.20488927735E+04  0.22751464910E+04  0.10100000352E+00 0.  1.
</event>
<event>
 5   0  0.3242047E-07  0.3522368E+04  0.7818609E-02  0.8108509E-01
        1   -1    0    0  501    0  0.00000000000E+00  0.00000000000E+00  0.18463939334E+04  0.18463939334E+04  0.50400001928E-02 0.  1.
       -1   -1    0    0    0  501  0.00000000000E+00  0.00000000000E+00 -0.16799068166E+04  0.16799068166E+04  0.50400001928E-02 0. -1.
    10030    2    1    2    0    0  0.00000000000E+00  0.00000000000E+00  0.16648711684E+03  0.35263007500E+04  0.35223683821E+04 0.  0.
        1    1    3    3  502    0  0.93655320005E+03 -0.53472180893E+01  0.15764210899E+04  0.18336477148E+04  0.50400001928E-02 0.  1.
       -1    1    3    3    0  502 -0.93655320005E+03  0.53472180893E+01 -0.14099339730E+04  0.16926530352E+04  0.50400001928E-02 0. -1.
</event>
<event>
 5   0  0.3242047E-07  0.3484012E+04  0.7818609E-02  0.8117589E-01
       -1   -1    0    0    0  501  0.00000000000E+00  0.00000000000E+00  0.12638591566E+04  0.12638591566E+04  0.50400001928E-02 0.  1.
        1   -1    0    0  501    0  0.00000000000E+00  0.00000000000E+00 -0.24010473841E+04  0.24010473841E+04  0.50400001928E-02 0. -1.
    10030    2    1    2    0    0  0.00000000000E+00  0.00000000000E+00 -0.11371882276E+04  0.36649065407E+04  0.34840124695E+04 0.  0.
        1    1    3    3  502    0 -0.12145714333E+04  0.12202552193E+04 -0.84765902176E+03  0.19190446540E+04  0.50400001928E-02 0.  1.
       -1    1    3    3    0  502  0.12145714333E+04 -0.12202552193E+04 -0.28952920581E+03  0.17458618868E+04  0.50400001928E-02 0. -1.
</event>
<event>
 5   0  0.3365378E-07  0.3577009E+04  0.7818609E-02  0.8095778E-01
       -1   -1    0    0    0  501  0.00000000000E+00  0.00000000000E+00  0.26306717578E+04  0.26306717579E+04  0.50400001928E-02 0.  1.
        1   -1    0    0  501    0  0.00000000000E+00  0.00000000000E+00 -0.12159438127E+04  0.12159438128E+04  0.50400001928E-02 0. -1.
    10030    2    1    2    0    0  0.00000000000E+00  0.00000000000E+00  0.14147279451E+04  0.38466155706E+04  0.35770093918E+04 0.  0.
        3    1    3    3  502    0 -0.12583484213E+04 -0.12653093868E+04  0.83596174750E+03  0.19706041326E+04  0.10100000352E+00 0. -1.
       -3    1    3    3    0  502  0.12583484213E+04  0.12653093868E+04  0.57876619761E+03  0.18760114380E+04  0.10100000352E+00 0.  1.
</event>
<event>
 5   0  0.3159875E-07  0.3605606E+04  0.7818609E-02  0.8089209E-01
       -1   -1    0    0    0  501  0.00000000000E+00  0.00000000000E+00  0.18635895765E+04  0.18635895765E+04  0.50400001928E-02 0. -1.
        1   -1    0    0  501    0  0.00000000000E+00  0.00000000000E+00 -0.17439994495E+04  0.17439994495E+04  0.50400001928E-02 0.  1.
    10030    2    1    2    0    0  0.00000000000E+00  0.00000000000E+00  0.11959012704E+03  0.36075890260E+04  0.36056062988E+04 0.  0.
        5    1    3    3  502    0  0.22753309618E+03 -0.56384852613E+03  0.17578967553E+04  0.18600859020E+04  0.46999998093E+01 0. -1.
       -5    1    3    3    0  502 -0.22753309618E+03  0.56384852613E+03 -0.16383066283E+04  0.17475031241E+04  0.46999998093E+01 0.  1.
</event>
<event>
 5   0  0.3159875E-07  0.3706362E+04  0.7818609E-02  0.8066553E-01
        1   -1    0    0  501    0  0.00000000000E+00  0.00000000000E+00  0.19532905190E+04  0.19532905190E+04  0.50400001928E-02 0.  1.
       -1   -1    0    0    0  501  0.00000000000E+00  0.00000000000E+00 -0.17582022728E+04  0.17582022728E+04  0.50400001928E-02 0. -1.
    10030    2    1    2    0    0  0.00000000000E+00  0.00000000000E+00  0.19508824615E+03  0.37114927918E+04  0.37063620060E+04 0.  0.
        5    1    3    3  502    0 -0.59517416521E+03 -0.30271512611E+03  0.18286329414E+04  0.19467381074E+04  0.46999998093E+01 0.  1.
       -5    1    3    3    0  502  0.59517416521E+03  0.30271512611E+03 -0.16335446953E+04  0.17647546844E+04  0.46999998093E+01 0. -1.
</event>
<event>
 5   0  0.9538919E-07  0.3664293E+04  0.7818609E-02  0.8075921E-01
       -2   -1    0    0    0  501  0.00000000000E+00  0.00000000000E+00  0.13278729732E+04  0.13278729732E+04  0.25500000920E-02 0.  1.
        2   -1    0    0  501    0  0.00000000000E+00  0.00000000000E+00 -0.25279232187E+04  0.25279232187E+04  0.25500000920E-02 0. -1.
    10030    2    1    2    0    0  0.00000000000E+00  0.00000000000E+00 -0.12000502455E+04  0.38557961918E+04  0.36642930671E+04 0.  0.
        4    1    3    3  502    0 -0.69023899512E+03  0.16960368117E+04 -0.53525696302E+03  0.19077401202E+04  0.12699999809E+01 0. -1.
       -4    1    3    3    0  502  0.69023899512E+03 -0.16960368117E+04 -0.66479328249E+03  0.19480560716E+04  0.12699999809E+01 0.  1.
</event>
<event>
 5   0  0.1006019E-06  0.3620728E+04  0.7818609E-02  0.8085760E-01
        2   -1    0    0  501    0  0.00000000000E+00  0.00000000000E+00  0.19535796415E+04  0.19535796415E+04  0.25500000920E-02 0. -1.
       -2   -1    0    0    0  501  0.00000000000E+00  0.00000000000E+00 -0.16776478030E+04  0.16776478030E+04  0.25500000920E-02 0.  1.
    10030    2    1    2    0    0  0.00000000000E+00  0.00000000000E+00  0.27593183855E+03  0.36312274445E+04  0.36207284314E+04 0.  0.
        1    1    3    3  502    0 -0.17471212142E+04 -0.18237520373E+03 -0.30116827879E+03  0.17822445355E+04  0.50400001928E-02 0. -1.
       -1    1    3    3    0  502  0.17471212142E+04  0.18237520373E+03  0.57710011734E+03  0.18489829090E+04  0.50400001928E-02 0.  1.
</event>
<event>
 5   0  0.3159875E-07  0.2730349E+04  0.7818609E-02  0.8325225E-01
        1   -1    0    0  501    0  0.00000000000E+00  0.00000000000E+00  0.17959992797E+04  0.17959992797E+04  0.50400001928E-02 0.  1.
       -1   -1    0    0    0  501  0.00000000000E+00  0.00000000000E+00 -0.10376957259E+04  0.10376957259E+04  0.50400001928E-02 0. -1.
    10030    2    1    2    0    0  0.00000000000E+00  0.00000000000E+00  0.75830355382E+03  0.28336950055E+04  0.27303485317E+04 0.  0.
        2    1    3    3  502    0  0.50348627117E+03  0.29763701355E+03 -0.90107628812E+03  0.10742554138E+04  0.25500000920E-02 0. -1.
       -2    1    3    3    0  502 -0.50348627117E+03 -0.29763701355E+03  0.16593798419E+04  0.17594395917E+04  0.25500000920E-02 0.  1.
</event>
<event>
 5   0  0.9878977E-07  0.3642772E+04  0.7818609E-02  0.8080764E-01
       -2   -1    0    0    0  501  0.00000000000E+00  0.00000000000E+00  0.16059027319E+04  0.16059027319E+04  0.25500000920E-02 0.  1.
        2   -1    0    0  501    0  0.00000000000E+00  0.00000000000E+00 -0.20657836350E+04  0.20657836350E+04  0.25500000920E-02 0. -1.
    10030    2    1    2    0    0  0.00000000000E+00  0.00000000000E+00 -0.45988090309E+03  0.36716863668E+04  0.36427723414E+04 0.  0.
        5    1    3    3  502    0 -0.65573109216E+01  0.15916617032E+04  0.66252278723E+03  0.17240616315E+04  0.46999998093E+01 0.  1.
       -5    1    3    3    0  502  0.65573109216E+01 -0.15916617032E+04 -0.11224036903E+04  0.19476247353E+04  0.46999998093E+01 0. -1.
</event>
<event>
 5   0  0.3159875E-07  0.3753824E+04  0.7818609E-02  0.8056137E-01
        1   -1    0    0  501    0  0.00000000000E+00  0.00000000000E+00  0.25582438213E+04  0.25582438213E+04  0.50400001928E-02 0. -1.
       -1   -1    0    0    0  501  0.00000000000E+00  0.00000000000E+00 -0.13770378909E+04  0.13770378909E+04  0.50400001928E-02 0.  1.
    10030    2    1    2    0    0  0.00000000000E+00  0.00000000000E+00  0.11812059304E+04  0.39352817123E+04  0.37538240109E+04 0.  0.
        2    1    3    3  502    0  0.32594673753E+03 -0.12893836856E+04 -0.79782242292E+03  0.15508939947E+04  0.25500000920E-02 0.  1.
       -2    1    3    3    0  502 -0.32594673753E+03  0.12893836856E+04  0.19790283533E+04  0.23843877175E+04  0.25500000920E-02 0. -1.
</event>
<event>
 5   0  0.1031659E-06  0.3545679E+04  0.7818609E-02  0.8103049E-01
       -2   -1    0    0    0  501  0.00000000000E+00  0.00000000000E+00  0.14683711544E+04  0.14683711544E+04  0.25500000920E-02 0. -1.
        2   -1    0    0  501    0  0.00000000000E+00  0.00000000000E+00 -0.21404393570E+04  0.21404393570E+04  0.25500000920E-02 0.  1.
    10030    2    1    2    0    0  0.00000000000E+00  0.00000000000E+00 -0.67206820257E+03  0.36088105113E+04  0.35456787274E+04 0.  0.
        2    1    3    3  502    0 -0.29996886470E+03  0.59062819384E+03  0.13376712183E+04  0.14927113825E+04  0.25500000920E-02 0. -1.
       -2    1    3    3    0  502  0.29996886470E+03 -0.59062819384E+03 -0.20097394209E+04  0.21160991288E+04  0.25500000920E-02 0.  1.
</event>
<event>
 5   0  0.9878336E-07  0.3629340E+04  0.7818609E-02  0.8083804E-01
        2   -1    0    0  501    0  0.00000000000E+00  0.00000000000E+00  0.19562484770E+04  0.19562484770E+04  0.25500000920E-02 0. -1.
       -2   -1    0    0    0  501  0.00000000000E+00  0.00000000000E+00 -0.16833380579E+04  0.16833380579E+04  0.25500000920E-02 0.  1.
    10030    2    1    2    0    0  0.00000000000E+00  0.00000000000E+00  0.27291041911E+03  0.36395865349E+04  0.36293401671E+04 0.  0.
        3    1    3    3  502    0 -0.12102401048E+04  0.13453929113E+04  0.92817139145E+00  0.18096309206E+04  0.10100000352E+00 0. -1.
       -3    1    3    3    0  502  0.12102401048E+04 -0.13453929113E+04  0.27198224772E+03  0.18299556143E+04  0.10100000352E+00 0.  1.
</event>
<event>
 5   0  0.1006019E-06  0.3463511E+04  0.7818609E-02  0.8122492E-01
        2   -1    0    0  501    0  0.00000000000E+00  0.00000000000E+00  0.15823181387E+04  0.15823181387E+04  0.25500000920E-02 0. -1.
       -2   -1    0    0    0  501  0.00000000000E+00  0.00000000000E+00 -0.18953065435E+04  0.18953065435E+04  0.25500000920E-02 0.  1.
    10030    2    1    2    0    0  0.00000000000E+00  0.00000000000E+00 -0.31298840472E+03  0.34776246822E+04  0.34635114680E+04 0.  0.
        1    1    3    3  502    0  0.40714963188E+03  0.75545940678E+02 -0.18448632413E+04  0.18907666146E+04  0.50400001928E-02 0.  1.
       -1    1    3    3    0  502 -0.40714963188E+03 -0.75545940678E+02  0.15318748365E+04  0.15868580676E+04  0.50400001928E-02 0. -1.
</event>
<event>
 5   0  0.9538919E-07  0.3515547E+04  0.7818609E-02  0.8110115E-01
       -2   -1    0    0    0  501  0.00000000000E+00  0.00000000000E+00  0.17863875160E+04  0.17863875160E+04  0.25500000920E-02 0.  1.
        2   -1    0    0  501    0  0.00000000000E+00  0.00000000000E+00 -0.17296180559E+04  0.17296180559E+04  0.25500000920E-02 0. -1.
    10030    2    1    2    0    0  0.00000000000E+00  0.00000000000E+00  0.56769460090E+02  0.35160055719E+04  0.35155472419E+04 0.  0.
        4    1    3    3  502    0 -0.61748359352E+03 -0.17462616338E+03 -0.16082839965E+04  0.17315771168E+04  0.12699999809E+01 0. -1.
       -4    1    3    3    0  502  0.61748359352E+03  0.17462616338E+03  0.16650534566E+04  0.17844284551E+04  0.12699999809E+01 0.  1.
</event>
<event>
 5   0  0.3159875E-07  0.3597774E+04  0.7818609E-02  0.8091002E-01
       -1   -1    0    0    0  501  0.00000000000E+00  0.00000000000E+00  0.23495322904E+04  0.23495322904E+04  0.50400001928E-02 0.  1.
        1   -1    0    0  501    0  0.00000000000E+00  0.00000000000E+00 -0.13772932824E+04  0.13772932824E+04  0.50400001928E-02 0. -1.
    10030    2    1    2    0    0  0.00000000000E+00  0.00000000000E+00  0.97223900801E+03  0.37268255728E+04  0.35977743344E+04 0.  0.
        5    1    3    3  502    0 -0.13073528800E+04 -0.39258932427E+02 -0.79319436208E+03  0.15296706190E+04  0.46999998093E+01 0. -1.
       -5    1    3    3    0  502  0.13073528800E+04  0.39258932427E+02  0.17654333701E+04  0.21971549538E+04  0.46999998093E+01 0.  1.
</event>
<event>
 5   0  0.3278988E-07  0.3269645E+04  0.7818609E-02  0.8170662E-01
        1   -1    0    0  501    0  0.00000000000E+00  0.00000000000E+00  0.10907628047E+04  0.10907628047E+04  0.50400001928E-02 0.  1.
       -1   -1    0    0    0  501  0.00000000000E+00  0.00000000000E+00 -0.24502527370E+04  0.24502527370E+04  0.50400001928E-02 0. -1.
    10030    2    1    2    0    0  0.00000000000E+00  0.00000000000E+00 -0.13594899323E+04  0.35410155417E+04  0.32696449640E+04 0.  0.
        4    1    3    3  502    0  0.14856906947E+04 -0.38047965423E+03 -0.66534027099E+02  0.15350798016E+04  0.12699999809E+01 0.  1.
       -4    1    3    3    0  502 -0.14856906947E+04  0.38047965423E+03 -0.12929559052E+04  0.20059357401E+04  0.12699999809E+01 0. -1.
</event>
<event>
 5   0  0.3159875E-07  0.3638421E+04  0.7818609E-02  0.8081747E-01
       -3   -1    0    0    0  501  0.00000000000E+00  0.00000000000E+00  0.23879156344E+04  0.23879156366E+04  0.10100000352E+00 0.  1.
        3   -1    0    0  501    0  0.00000000000E+00  0.00000000000E+00 -0.13859479165E+04  0.13859479202E+04  0.10100000352E+00 0. -1.
    10030    2    1    2    0    0  0.00000000000E+00  0.00000000000E+00  0.10019677180E+04  0.37738635567E+04  0.36384209263E+04 0.  0.
        4    1    3    3  502    0 -0.90633144074E+03 -0.10563010973E+04  0.17160512936E+04  0.22095344179E+04  0.12699999809E+01 0.  1.
       -4    1    3    3    0  502  0.90633144074E+03  0.10563010973E+04 -0.71408357565E+03  0.15643291388E+04  0.12699999809E+01 0. -1.
</event>
<event>
 5   0  0.9878336E-07  0.3606714E+04  0.7818609E-02  0.8088956E-01
       -2   -1    0    0    0  501  0.00000000000E+00  0.00000000000E+00  0.18851413057E+04  0.18851413057E+04  0.25500000920E-02 0. -1.
        2   -1    0    0  501    0  0.00000000000E+00  0.00000000000E+00 -0.17251203237E+04  0.17251203237E+04  0.25500000920E-02 0.  1.
    10030    2    1    2    0    0  0.00000000000E+00  0.00000000000E+00  0.16002098206E+03  0.36102616294E+04  0.36067135065E+04 0.  0.
        3    1    3    3  502    0 -0.55829127046E+03 -0.14743043501E+04  0.95656203203E+03  0.18439830234E+04  0.10100000352E+00 0. -1.
       -3    1    3    3    0  502  0.55829127046E+03  0.14743043501E+04 -0.79654104997E+03  0.17662786060E+04  0.10100000352E+00 0.  1.
</event>
<event>
 5   0  0.1031659E-06  0.3596559E+04  0.7818609E-02  0.8091280E-01
        2   -1    0    0  501    0  0.00000000000E+00  0.00000000000E+00  0.21891894813E+04  0.21891894813E+04  0.25500000920E-02 0. -1.
       -2   -1    0    0    0  501  0.00000000000E+00  0.00000000000E+00 -0.14771715867E+04  0.14771715867E+04  0.25500000920E-02 0.  1.
    10030    2    1    2    0    0  0.00000000000E+00  0.00000000000E+00  0.71201789459E+03  0.36663610680E+04  0.35965586327E+04 0.  0.
        2    1    3    3  502    0  0.78689457597E+03  0.16107097912E+04  0.50096360043E+03  0.18613311457E+04  0.25500000920E-02 0. -1.
       -2    1    3    3    0  502 -0.78689457597E+03 -0.16107097912E+04  0.21105429416E+03  0.18050299223E+04  0.25500000920E-02 0.  1.
</event>
<event>
 5   0  0.9878977E-07  0.3642843E+04  0.7818609E-02  0.8080748E-01
       -2   -1    0    0    0  501  0.00000000000E+00  0.00000000000E+00  0.12378120109E+04  0.12378120109E+04  0.25500000920E-02 0.  1.
        2   -1    0    0  501    0  0.00000000000E+00  0.00000000000E+00 -0.26801933687E+04  0.26801933687E+04  0.25500000920E-02 0. -1.
    10030    2    1    2    0    0  0.00000000000E+00  0.00000000000E+00 -0.14423813578E+04  0.39180053795E+04  0.36428425951E+04 0.  0.
        5    1    3    3  502    0 -0.14891413141E+04  0.41993348708E+03  0.31248059054E+03  0.15784651395E+04  0.46999998093E+01 0.  1.
       -5    1    3    3    0  502  0.14891413141E+04 -0.41993348708E+03 -0.17548619484E+04  0.23395402401E+04  0.46999998093E+01 0. -1.
</event>
<event>
 5   0  0.3278988E-07  0.3712249E+04  0.7818609E-02  0.8065253E-01
       -1   -1    0    0    0  501  0.00000000000E+00  0.00000000000E+00  0.28891749930E+04  0.28891749930E+04  0.50400001928E-02 0. -1.
        1   -1    0    0  501    0  0.00000000000E+00  0.00000000000E+00 -0.11924501812E+04  0.11924501812E+04  0.50400001928E-02 0.  1.
    10030    2    1    2    0    0  0.00000000000E+00  0.00000000000E+00  0.16967248118E+04  0.40816251742E+04  0.37122485067E+04 0.  0.
        4    1    3    3  502    0  0.10598100900E+03  0.17734630872E+04  0.14392282829E+04  0.22864345517E+04  0.12699999809E+01 0. -1.
       -4    1    3    3    0  502 -0.10598100900E+03 -0.17734630872E+04  0.25749652893E+03  0.17951906225E+04  0.12699999809E+01 0.  1.
</event>
<event>
 5   0  0.3242047E-07  0.3608665E+04  0.7818609E-02  0.8088510E-01
        1   -1    0    0  501    0  0.00000000000E+00  0.00000000000E+00  0.14051606604E+04  0.14051606604E+04  0.50400001928E-02 0. -1.
       -1   -1    0    0    0  501  0.00000000000E+00  0.00000000000E+00 -0.23168998996E+04  0.23168998996E+04  0.50400001928E-02 0.  1.
    10030    2    1    2    0    0  0.00000000000E+00  0.00000000000E+00 -0.91173923919E+03  0.37220605600E+04  0.36086654559E+04 0.  0.
        1    1    3    3  502    0 -0.35662104243E+03 -0.12116554411E+04  0.87315768903E+03  0.15354777191E+04  0.50400001928E-02 0. -1.
       -1    1    3    3    0  502  0.35662104243E+03  0.12116554411E+04 -0.17848969282E+04  0.21865828409E+04  0.50400001928E-02 0.  1.
</event>
<event>
 5   0  0.1031659E-06  0.3409754E+04  0.7818609E-02  0.8135517E-01
        2   -1    0    0  501    0  0.00000000000E+00  0.00000000000E+00  0.20223465520E+04  0.20223465520E+04  0.25500000920E-02 0.  1.
       -2   -1    0    0    0  501  0.00000000000E+00  0.00000000000E+00 -0.14372438390E+04  0.14372438390E+04  0.25500000920E-02 0. -1.
    10030    2    1    2    0    0  0.00000000000E+00  0.00000000000E+00  0.58510271298E+03  0.34595903910E+04  0.34097537284E+04 0.  0.
        2    1    3    3  502    0  0.57174786276E+03  0.64550279916E+03 -0.11996708783E+04  0.14774233308E+04  0.25500000920E-02 0. -1.
       -2    1    3    3    0  502 -0.57174786276E+03 -0.64550279916E+03  0.17847735912E+04  0.19821670601E+04  0.25500000920E-02 0.  1.
</event>
<event>
 5   0  0.3278988E-07  0.3449572E+04  0.7818609E-02  0.8125846E-01
       -1   -1    0    0    0  501  0.00000000000E+00  0.00000000000E+00  0.12538328160E+04  0.12538328160E+04  0.50400001928E-02 0. -1.
        1   -1    0    0  501    0  0.00000000000E+00  0.00000000000E+00 -0.23726349718E+04  0.23726349718E+04  0.50400001928E-02 0.  1.
    10030    2    1    2    0    0  0.00000000000E+00  0.00000000000E+00 -0.11188021558E+04  0.36264677878E+04  0.34495724883E+04 0.  0.
        4    1    3    3  502    0  0.31208460195E+03  0.18594666262E+03 -0.23319585876E+04  0.23600858940E+04  0.12699999809E+01 0.  1.
       -4    1    3    3    0  502 -0.31208460195E+03 -0.18594666262E+03  0.12131564317E+04  0.12663818938E+04  0.12699999809E+01 0. -1.
</event>
<event>
 5   0  0.9538919E-07  0.3448843E+04  0.7818609E-02  0.8126022E-01
        2   -1    0    0  501    0  0.00000000000E+00  0.00000000000E+00  0.26961887569E+04  0.26961887569E+04  0.25500000920E-02 0. -1.
       -2   -1    0    0    0  501  0.00000000000E+00  0.00000000000E+00 -0.11029008612E+04  0.11029008612E+04  0.25500000920E-02 0.  1.
    10030    2    1    2    0    0  0.00000000000E+00  0.00000000000E+00  0.15932878957E+04  0.37990896181E+04  0.34488426475E+04 0.  0.
        4    1    3    3  502    0  0.11001828930E+04 -0.44254017016E+03  0.21757375270E+04  0.24779184005E+04  0.12699999809E+01 0. -1.
       -4    1    3    3    0  502 -0.11001828930E+04  0.44254017016E+03 -0.58244963130E+03  0.13211712176E+04  0.12699999809E+01 0.  1.
</event>
<event>
 5   0  0.3159875E-07  0.2903914E+04  0.7818609E-02  0.8271714E-01
       -1   -1    0    0    0  501  0.00000000000E+00  0.00000000000E+00  0.26531793413E+04  0.26531793413E+04  0.50400001928E-02 0. -1.
        1   -1    0    0  501    0  0.00000000000E+00  0.00000000000E+00 -0.79458623456E+03  0.79458623457E+03  0.50400001928E-02 0.  1.
    10030    2    1    2    0    0  0.00000000000E+00  0.00000000000E+00  0.18585931067E+04  0.34477655758E+04  0.29039144494E+04 0.  0.
        5    1    3    3  502    0 -0.11518229324E+04 -0.36223249789E+03  0.18866974698E+04  0.22399905987E+04  0.46999998093E+01 0. -1.
       -5    1    3    3    0  502  0.11518229324E+04  0.36223249789E+03 -0.28104363052E+02  0.12077749771E+04  0.46999998093E+01 0.  1.
</event>
<event>
 5   0  0.9878977E-07  0.3596410E+04  0.7818609E-02  0.8091315E-01
        2   -1    0    0  501    0  0.00000000000E+00  0.00000000000E+00  0.24604998889E+04  0.24604998889E+04  0.25500000920E-02 0.  1.
       -2   -1    0    0    0  501  0.00000000000E+00  0.00000000000E+00 -0.13141805890E+04  0.13141805890E+04  0.25500000920E-02 0. -1.
    10030    2    1    2    0    0  0.00000000000E+00  0.00000000000E+00  0.11463193000E+04  0.37746804779E+04  0.35964099839E+04 0.  0.
        5    1    3    3  502    0  0.75160114220E+03  0.84056502975E+03 -0.89701091813E+03  0.14408693638E+04  0.46999998093E+01 0. -1.
       -5    1    3    3    0  502 -0.75160114220E+03 -0.84056502975E+03  0.20433302181E+04  0.23338111141E+04  0.46999998093E+01 0.  1.
</event>
<event>
 5   0  0.1006019E-06  0.3617224E+04  0.7818609E-02  0.8086558E-01
        2   -1    0    0  501    0  0.00000000000E+00  0.00000000000E+00  0.19441854182E+04  0.19441854182E+04  0.25500000920E-02 0.  1.
       -2   -1    0    0    0  501  0.00000000000E+00  0.00000000000E+00 -0.16824923240E+04  0.16824923240E+04  0.25500000920E-02 0. -1.
    10030    2    1    2    0    0  0.00000000000E+00  0.00000000000E+00  0.26169309414E+03  0.36266777422E+04  0.36172238209E+04 0.  0.
        1    1    3    3  502    0  0.80170312814E+03  0.99136802065E+03  0.14169846945E+04  0.19061437728E+04  0.50400001928E-02 0.  1.
       -1    1    3    3    0  502 -0.80170312814E+03 -0.99136802065E+03 -0.11552916004E+04  0.17205339694E+04  0.50400001928E-02 0. -1.
</event>
<event>
 5   0  0.3365378E-07  0.3653744E+04  0.7818609E-02  0.8078291E-01
        1   -1    0    0  501    0  0.00000000000E+00  0.00000000000E+00  0.12486613654E+04  0.12486613654E+04  0.50400001928E-02 0. -1.
       -1   -1    0    0    0  501  0.00000000000E+00  0.00000000000E+00 -0.26728315727E+04  0.26728315727E+04  0.50400001928E-02 0.  1.
    10030    2    1    2    0    0  0.00000000000E+00  0.00000000000E+00 -0.14241702073E+04  0.39214929382E+04  0.36537441187E+04 0.  0.
        3    1    3    3  502    0 -0.53141738088E+03 -0.41751542888E+03 -0.25337361373E+04  0.26223162261E+04  0.10100000352E+00 0.  1.
       -3    1    3    3    0  502  0.53141738088E+03  0.41751542888E+03  0.11095659300E+04  0.12991767121E+04  0.10100000352E+00 0. -1.
</event>
<event>
 5   0  0.3278988E-07  0.3449068E+04  0.7818609E-02  0.8125967E-01
        1   -1    0    0  501    0  0.00000000000E+00  0.00000000000E+00  0.18092817716E+04  0.18092817716E+04  0.50400001928E-02 0. -1.
       -1   -1    0    0    0  501  0.00000000000E+00  0.00000000000E+00 -0.16437554990E+04  0.16437554990E+04  0.50400001928E-02 0.  1.
    10030    2    1    2    0    0  0.00000000000E+00  0.00000000000E+00  0.16552627266E+03  0.34530372706E+04  0.34490676197E+04 0.  0.
        4    1    3    3  502    0 -0.27427012251E+03  0.82470113395E+03 -0.14084676271E+04  0.16550343591E+04  0.12699999809E+01 0.  1.
       -4    1    3    3    0  502  0.27427012251E+03 -0.82470113395E+03  0.15739938997E+04  0.17980029115E+04  0.12699999809E+01 0. -1.
</event>
<event>
 5   0  0.3278988E-07  0.3606539E+04  0.7818609E-02  0.8088995E-01
       -1   -1    0    0    0  501  0.00000000000E+00  0.00000000000E+00  0.24246380631E+04  0.24246380631E+04  0.50400001928E-02 0. -1.
        1   -1    0    0  501    0  0.00000000000E+00  0.00000000000E+00 -0.13411410168E+04  0.13411410168E+04  0.50400001928E-02 0.  1.
    10030    2    1    2    0    0  0.00000000000E+00  0.00000000000E+00  0.10834970464E+04  0.37657790799E+04  0.36065393703E+04 0.  0.
        4    1    3    3  502    0  0.17937533015E+04 -0.15442667265E+03  0.43536044347E+03  0.18522793614E+04  0.12699999809E+01 0. -1.
       -4    1    3    3    0  502 -0.17937533015E+04  0.15442667265E+03  0.64813660288E+03  0.19134997185E+04  0.12699999809E+01 0.  1.
</event>
<event>
 5   0  0.3278988E-07  0.2648501E+04  0.7818609E-02  0.8351911E-01
       -1   -1    0    0    0  501  0.00000000000E+00  0.00000000000E+00  0.13941147096E+04  0.13941147096E+04  0.50400001928E-02 0. -1.
        1   -1    0    0  501    0  0.00000000000E+00  0.00000000000E+00 -0.12578874489E+04  0.12578874489E+04  0.50400001928E-02 0.  1.
    10030    2    1    2    0    0  0.00000000000E+00  0.00000000000E+00  0.13622726076E+03  0.26520021585E+04  0.26485010067E+04 0.  0.
        4    1    3    3  502    0 -0.74190391826E+02  0.12458463829E+04  0.51141815497E+03  0.13487726147E+04  0.12699999809E+01 0. -1.
       -4    1    3    3    0  502  0.74190391826E+02 -0.12458463829E+04 -0.37519089421E+03  0.13032295439E+04  0.12699999809E+01 0.  1.
</event>
<event>
 5   0  0.3365378E-07  0.3622665E+04  0.7818609E-02  0.8085320E-01
       -1   -1    0    0    0  501  0.00000000000E+00  0.00000000000E+00  0.13245530389E+04  0.13245530389E+04  0.50400001928E-02 0. -1.
        1   -1    0    0  501    0  0.00000000000E+00  0.00000000000E+00 -0.24770056447E+04  0.24770056447E+04  0.50400001928E-02 0.  1.
    10030    2    1    2    0    0  0.00000000000E+00  0.00000000000E+00 -0.11524526058E+04  0.38015586836E+04  0.36226649606E+04 0.  0.
        3    1    3    3  502    0 -0.34263800821E+03  0.15363700407E+04 -0.15166337946E+04  0.21858663691E+04  0.10100000352E+00 0.  1.
       -3    1    3    3    0  502  0.34263800821E+03 -0.15363700407E+04  0.36418118884E+03  0.16156923145E+04  0.10100000352E+00 0. -1.
</event>
<event>
 5   0  0.9878977E-07  0.3648842E+04  0.7818609E-02  0.8079394E-01
       -2   -1    0    0    0  501  0.00000000000E+00  0.00000000000E+00  0.33885977941E+04  0.33885977941E+04  0.25500000920E-02 0.  1.
        2   -1    0    0  501    0  0.00000000000E+00  0.00000000000E+00 -0.98226846792E+03  0.98226846792E+03  0.25500000920E-02 0. -1.
    10030    2    1    2    0    0  0.00000000000E+00  0.00000000000E+00  0.24063293262E+04  0.43708662621E+04  0.36488424267E+04 0.  0.
        5    1    3    3  502    0  0.17779366041E+04  0.27350548763E+03  0.83859471603E+03  0.19847234084E+04  0.46999998093E+01 0.  1.
       -5    1    3    3    0  502 -0.17779366041E+04 -0.27350548763E+03  0.15677346102E+04  0.23861428537E+04  0.46999998093E+01 0. -1.
</event>
<event>
 5   0  0.1031659E-06  0.3619592E+04  0.7818609E-02  0.8086019E-01
       -2   -1    0    0    0  501  0.00000000000E+00  0.00000000000E+00  0.10892604827E+04  0.10892604827E+04  0.25500000920E-02 0.  1.
        2   -1    0    0  501    0  0.00000000000E+00  0.00000000000E+00 -0.30069588352E+04  0.30069588352E+04  0.25500000920E-02 0. -1.
    10030    2    1    2    0    0  0.00000000000E+00  0.00000000000E+00 -0.19176983525E+04  0.40962193179E+04  0.36195919286E+04 0.  0.
        2    1    3    3  502    0 -0.29821921882E+03  0.35338012886E+03  0.10212831456E+04  0.11210849573E+04  0.25500000920E-02 0.  1.
       -2    1    3    3    0  502  0.29821921882E+03 -0.35338012886E+03 -0.29389814981E+04  0.29751343607E+04  0.25500000920E-02 0. -1.
</event>
<event>
 5   0  0.3159875E-07  0.3611070E+04  0.7818609E-02  0.8087961E-01
        1   -1    0    0  501    0  0.00000000000E+00  0.00000000000E+00  0.16271365897E+04  0.16271365897E+04  0.50400001928E-02 0.  1.
       -1   -1    0    0    0  501  0.00000000000E+00  0.00000000000E+00 -0.20034930905E+04  0.20034930906E+04  0.50400001928E-02 0. -1.
    10030    2    1    2    0    0  0.00000000000E+00  0.00000000000E+00 -0.37635650086E+03  0.36306296803E+04  0.36110701543E+04 0.  0.
        2    1    3    3  502    0  0.82726679701E+03  0.11764571488E+04  0.90930892745E+03  0.17015476784E+04  0.25500000920E-02 0.  1.
       -2    1    3    3    0  502 -0.82726679701E+03 -0.11764571488E+04 -0.12856654283E+04  0.19290820019E+04  0.25500000920E-02 0. -1.
</event>
<event>
 5   0  0.3242047E-07  0.2709778E+04  0.7818609E-02  0.8331839E-01
        1   -1    0    0  501    0  0.00000000000E+00  0.00000000000E+00  0.12836800813E+04  0.12836800813E+04  0.50400001928E-02 0. -1.
       -1   -1    0    0    0  501  0.00000000000E+00  0.00000000000E+00 -0.14300477562E+04  0.14300477562E+04  0.50400001928E-02 0.  1.
    10030    2    1    2    0    0  0.00000000000E+00  0.00000000000E+00 -0.14636767496E+03  0.27137278375E+04  0.27097777178E+04 0.  0.
        1    1    3    3  502    0 -0.55842303282E+03  0.86396908493E+03 -0.95619754957E+03  0.14044901627E+04  0.50400001928E-02 0.  1.
       -1    1    3    3    0  502  0.55842303282E+03 -0.86396908493E+03  0.80982987461E+03  0.13092376748E+04  0.50400001928E-02 0. -1.
</event>
<event>
 5   0  0.3365378E-07  0.3686295E+04  0.7818609E-02  0.8071006E-01
        1   -1    0    0  501    0  0.00000000000E+00  0.00000000000E+00  0.20812187168E+04  0.20812187168E+04  0.50400001928E-02 0.  1.
       -1   -1    0    0    0  501  0.00000000000E+00  0.00000000000E+00 -0.16323095316E+04  0.16323095316E+04  0.50400001928E-02 0. -1.
    10030    2    1    2    0    0  0.00000000000E+00  0.00000000000E+00  0.44890918516E+03  0.37135282484E+04  0.36862952398E+04 0.  0.
        3    1    3    3  502    0  0.95857705009E+03 -0.24938028121E+03 -0.13414200950E+04  0.16674736481E+04  0.10100000352E+00 0. -1.
       -3    1    3    3    0  502 -0.95857705009E+03  0.24938028121E+03  0.17903292802E+04  0.20460546003E+04  0.10100000352E+00 0.  1.
</event>
<event>
 5   0  0.3242047E-07  0.3703320E+04  0.7818609E-02  0.8067227E-01
       -1   -1    0    0    0  501  0.00000000000E+00  0.00000000000E+00  0.18117928996E+04  0.18117928996E+04  0.50400001928E-02 0.  1.
        1   -1    0    0  501    0  0.00000000000E+00  0.00000000000E+00 -0.18924038556E+04  0.18924038556E+04  0.50400001928E-02 0. -1.
    10030    2    1    2    0    0  0.00000000000E+00  0.00000000000E+00 -0.80610955955E+02  0.37041967552E+04  0.37033195210E+04 0.  0.
        1    1    3    3  502    0  0.40111017077E+03  0.30554702350E+03  0.17417999010E+04  0.18133160915E+04  0.50400001928E-02 0.  1.
       -1    1    3    3    0  502 -0.40111017077E+03 -0.30554702350E+03 -0.18224108569E+04  0.18908806637E+04  0.50400001928E-02 0. -1.
</event>
<event>
 5   0  0.3278988E-07  0.3560606E+04  0.7818609E-02  0.8099575E-01
       -1   -1    0    0    0  501  0.00000000000E+00  0.00000000000E+00  0.15828506755E+04  0.15828506756E+04  0.50400001928E-02 0.  1.
        1   -1    0    0  501    0  0.00000000000E+00  0.00000000000E+00 -0.20023867753E+04  0.20023867753E+04  0.50400001928E-02 0. -1.
    10030    2    1    2    0    0  0.00000000000E+00  0.00000000000E+00 -0.41953609978E+03  0.35852374509E+04  0.35606062742E+04 0.  0.
        4    1    3    3  502    0 -0.10467354842E+04  0.71180955964E+03 -0.14702864889E+04  0.19401216445E+04  0.12699999809E+01 0. -1.
       -4    1    3    3    0  502  0.10467354842E+04 -0.71180955964E+03  0.10507503891E+04  0.16451158064E+04  0.12699999809E+01 0.  1.
</event>
<event>
 5   0  0.3278988E-07  0.3563809E+04  0.7818609E-02  0.8098832E-01
       -1   -1    0    0    0  501  0.00000000000E+00  0.00000000000E+00  0.23590862629E+04  0.23590862629E+04  0.50400001928E-02 0.  1.
        1   -1    0    0  501    0  0.00000000000E+00  0.00000000000E+00 -0.13459377394E+04  0.13459377394E+04  0.50400001928E-02 0. -1.
    10030    2    1    2    0    0  0.00000000000E+00  0.00000000000E+00  0.10131485235E+04  0.37050240023E+04  0.35638087669E+04 0.  0.
        4    1    3    3  502    0 -0.30438686715E+03 -0.12085762640E+04 -0.81741708105E+03  0.14904630986E+04  0.12699999809E+01 0. -1.
       -4    1    3    3    0  502  0.30438686715E+03  0.12085762640E+04  0.18305656046E+04  0.22145609038E+04  0.12699999809E+01 0.  1.
</event>
<event>
 5   0  0.3365378E-07  0.3469504E+04  0.7818609E-02  0.8121055E-01
        1   -1    0    0  501    0  0.00000000000E+00  0.00000000000E+00  0.10712857957E+04  0.10712857957E+04  0.50400001928E-02 0.  1.
       -1   -1    0    0    0  501  0.00000000000E+00  0.00000000000E+00 -0.28091140146E+04  0.28091140146E+04  0.50400001928E-02 0. -1.
    10030    2    1    2    0    0  0.00000000000E+00  0.00000000000E+00 -0.17378282189E+04  0.38803998102E+04  0.34695036776E+04 0.  0.
        3    1    3    3  502    0 -0.51577657119E+03  0.31575787835E+03 -0.26873998660E+04  0.27546046103E+04  0.10100000352E+00 0. -1.
       -3    1    3    3    0  502  0.51577657119E+03 -0.31575787835E+03  0.94957164706E+03  0.11257952000E+04  0.10100000352E+00 0.  1.
</event>
<event>
 5   0  0.1031659E-06  0.3600723E+04  0.7818609E-02  0.8090326E-01
        2   -1    0    0  501    0  0.00000000000E+00  0.00000000000E+00  0.25378082909E+04  0.25378082909E+04  0.25500000920E-02 0.  1.
       -2   -1    0    0    0  501  0.00000000000E+00  0.00000000000E+00 -0.12772048420E+04  0.12772048420E+04  0.25500000920E-02 0. -1.
    10030    2    1    2    0    0  0.00000000000E+00  0.00000000000E+00  0.12606034489E+04  0.38150131329E+04  0.36007227259E+04 0.  0.
        2    1    3    3  502    0 -0.12059785834E+04 -0.12370744200E+04  0.11669674442E+04  0.20848382384E+04  0.25500000920E-02 0.  1.
       -2    1    3    3    0  502  0.12059785834E+04  0.12370744200E+04  0.93636004628E+02  0.17301748945E+04  0.25500000920E-02 0. -1.
</event>
<event>
 5   0  0.3159875E-07  0.3575516E+04  0.7818609E-02  0.8096123E-01
       -3   -1    0    0    0  501  0.00000000000E+00  0.00000000000E+00  0.15368137176E+04  0.15368137209E+04  0.10100000352E+00 0. -1.
        3   -1    0    0  501    0  0.00000000000E+00  0.00000000000E+00 -0.20796786542E+04  0.20796786567E+04  0.10100000352E+00 0.  1.
    10030    2    1    2    0    0  0.00000000000E+00  0.00000000000E+00 -0.54286493658E+03  0.36164923776E+04  0.35755160156E+04 0.  0.
        4    1    3    3  502    0 -0.10376751134E+03  0.11374124068E+03  0.15300950569E+04  0.15378222466E+04  0.12699999809E+01 0. -1.
       -4    1    3    3    0  502  0.10376751134E+03 -0.11374124068E+03 -0.20729599934E+04  0.20786701310E+04  0.12699999809E+01 0.  1.
</event>
<event>
 5   0  0.1006019E-06  0.3667282E+04  0.7818609E-02  0.8075251E-01
        2   -1    0    0  501    0  0.00000000000E+00  0.00000000000E+00  0.13403858470E+04  0.13403858470E+04  0.25500000920E-02 0.  1.
       -2   -1    0    0    0  501  0.00000000000E+00  0.00000000000E+00 -0.25084114680E+04  0.25084114680E+04  0.25500000920E-02 0. -1.
    10030    2    1    2    0    0  0.00000000000E+00  0.00000000000E+00 -0.11680256210E+04  0.38487973150E+04  0.36672819527E+04 0.  0.
        1    1    3    3  502    0  0.15467943748E+04  0.78508077869E+03  0.39810370554E+02  0.17350819960E+04  0.50400001928E-02 0.  1.
       -1    1    3    3    0  502 -0.15467943748E+04 -0.78508077869E+03 -0.12078359916E+04  0.21137153190E+04  0.50400001928E-02 0. -1.
</event>
<event>
 5   0  0.3365378E-07  0.3130248E+04  0.7818609E-02  0.8207485E-01
        1   -1    0    0  501    0  0.00000000000E+00  0.00000000000E+00  0.16290008721E+04  0.16290008721E+04  0.50400001928E-02 0. -1.
       -1   -1    0    0    0  501  0.00000000000E+00  0.00000000000E+00 -0.15037515086E+04  0.15037515086E+04  0.50400001928E-02 0.  1.
    10030    2    1    2    0    0  0.00000000000E+00  0.00000000000E+00  0.12524936347E+03  0.31327523807E+04  0.31302476062E+04 0.  0.
        3    1    3    3  502    0 -0.94672971427E+03 -0.98117264639E+03  0.83175482387E+03  0.15971264856E+04  0.10100000352E+00 0. -1.
       -3    1    3    3    0  502  0.94672971427E+03  0.98117264639E+03 -0.70650546040E+03  0.15356258951E+04  0.10100000352E+00 0.  1.
</event>
<event>
 5   0  0.1006019E-06  0.3033262E+04  0.7818609E-02  0.8234296E-01
       -2   -1    0    0    0  501  0.00000000000E+00  0.00000000000E+00  0.16161839252E+04  0.16161839252E+04  0.25500000920E-02 0.  1.
        2   -1    0    0  501    0  0.00000000000E+00  0.00000000000E+00 -0.14232104348E+04  0.14232104348E+04  0.25500000920E-02 0. -1.
    10030    2    1    2    0    0  0.00000000000E+00  0.00000000000E+00  0.19297349041E+03  0.30393943601E+04  0.30332621562E+04 0.  0.
        1    1    3    3  502    0  0.90792128459E+03  0.10941529902E+04  0.62545358873E+03  0.15532816926E+04  0.50400001928E-02 0.  1.
       -1    1    3    3    0  502 -0.90792128459E+03 -0.10941529902E+04 -0.43248009832E+03  0.14861126675E+04  0.50400001928E-02 0. -1.
</event>
<event>
 5   0  0.3242047E-07  0.4300590E+04  0.7818609E-02  0.7946509E-01
        1   -1    0    0  501    0  0.00000000000E+00  0.00000000000E+00  0.27739090936E+04  0.27739090936E+04  0.50400001928E-02 0. -1.
       -1   -1    0    0    0  501  0.00000000000E+00  0.00000000000E+00 -0.16668780110E+04  0.16668780110E+04  0.50400001928E-02 0.  1.
    10030    2    1    2    0    0  0.00000000000E+00  0.00000000000E+00  0.11070310826E+04  0.44407871046E+04  0.43005897608E+04 0.  0.
        1    1    3    3  502    0  0.15557956180E+04 -0.10939264393E+04  0.15895134826E+04  0.24786545082E+04  0.50400001928E-02 0. -1.
       -1    1    3    3    0  502 -0.15557956180E+04  0.10939264393E+04 -0.48248240009E+03  0.19621325964E+04  0.50400001928E-02 0.  1.
</event>
<event>
 5   0  0.9878977E-07  0.3593509E+04  0.7818609E-02  0.8091980E-01
       -2   -1    0    0    0  501  0.00000000000E+00  0.00000000000E+00  0.15710775181E+04  0.15710775181E+04  0.25500000920E-02 0. -1.
        2   -1    0    0  501    0  0.00000000000E+00  0.00000000000E+00 -0.20548491993E+04  0.20548491993E+04  0.25500000920E-02 0.  1.
    10030    2    1    2    0    0  0.00000000000E+00  0.00000000000E+00 -0.48377168119E+03  0.36259267174E+04  0.35935093600E+04 0.  0.
        5    1    3    3  502    0  0.86884500417E+02  0.74882265013E+03 -0.18875559297E+04  0.20325289064E+04  0.46999998093E+01 0.  1.
       -5    1    3    3    0  502 -0.86884500417E+02 -0.74882265013E+03  0.14037842485E+04  0.15933978110E+04  0.46999998093E+01 0. -1.
</event>
<event>
 5   0  0.3159875E-07  0.3697587E+04  0.7818609E-02  0.8068497E-01
       -1   -1    0    0    0  501  0.00000000000E+00  0.00000000000E+00  0.15361891581E+04  0.15361891581E+04  0.50400001928E-02 0. -1.
        1   -1    0    0  501    0  0.00000000000E+00  0.00000000000E+00 -0.22250102820E+04  0.22250102820E+04  0.50400001928E-02 0.  1.
    10030    2    1    2    0    0  0.00000000000E+00  0.00000000000E+00 -0.68882112390E+03  0.37611994400E+04  0.36975866030E+04 0.  0.
        2    1    3    3  502    0 -0.16890121836E+04 -0.59452949596E+03 -0.81255558612E+03  0.19663351847E+04  0.25500000920E-02 0.  1.
       -2    1    3    3    0  502  0.16890121836E+04  0.59452949596E+03  0.12373446223E+03  0.17948642553E+04  0.25500000920E-02 0. -1.
</event>
<event>
 5   0  0.9878336E-07  0.3642341E+04  0.7818609E-02  0.8080861E-01
       -2   -1    0    0    0  501  0.00000000000E+00  0.00000000000E+00  0.12151679237E+04  0.12151679237E+04  0.25500000920E-02 0.  1.
        2   -1    0    0  501    0  0.00000000000E+00  0.00000000000E+00 -0.27293856339E+04  0.27293856339E+04  0.25500000920E-02 0. -1.
    10030    2    1    2    0    0  0.00000000000E+00  0.00000000000E+00 -0.15142177102E+04  0.39445535576E+04  0.36423409361E+04 0.  0.
        3    1    3    3  502    0 -0.57542800196E+02 -0.62630206015E+03 -0.26080397665E+04  0.26828039210E+04  0.10100000352E+00 0. -1.
       -3    1    3    3    0  502  0.57542800196E+02  0.62630206015E+03  0.10938220563E+04  0.12617496366E+04  0.10100000352E+00 0.  1.
</event>
<event>
 5   0  0.1031659E-06  0.3586819E+04  0.7818609E-02  0.8093518E-01
        2   -1    0    0  501    0  0.00000000000E+00  0.00000000000E+00  0.25761632849E+04  0.25761632849E+04  0.25500000920E-02 0. -1.
       -2   -1    0    0    0  501  0.00000000000E+00  0.00000000000E+00 -0.12484914050E+04  0.12484914050E+04  0.25500000920E-02 0.  1.
    10030    2    1    2    0    0  0.00000000000E+00  0.00000000000E+00  0.13276718799E+04  0.38246546899E+04  0.35868190470E+04 0.  0.
        2    1    3    3  502    0  0.23553950001E+03  0.17772990488E+04  0.61559266003E+03  0.18955804093E+04  0.25500000920E-02 0.  1.
       -2    1    3    3    0  502 -0.23553950001E+03 -0.17772990488E+04  0.71207921984E+03  0.19290742806E+04  0.25500000920E-02 0. -1.
</event>
<event>
 5   0  0.3159875E-07  0.3655564E+04  0.7818609E-02  0.8077881E-01
       -1   -1    0    0    0  501  0.00000000000E+00  0.00000000000E+00  0.11000202240E+04  0.11000202240E+04  0.50400001928E-02 0.  1.
        1   -1    0    0  501    0  0.00000000000E+00  0.00000000000E+00 -0.30370240758E+04  0.30370240758E+04  0.50400001928E-02 0. -1.
    10030    2    1    2    0    0  0.00000000000E+00  0.00000000000E+00 -0.19370038518E+04  0.41370442998E+04  0.36555644731E+04 0.  0.
        2    1    3    3  502    0 -0.80904353171E+03 -0.42935481207E+03  0.82156763763E+03  0.12303943978E+04  0.25500000920E-02 0. -1.
       -2    1    3    3    0  502  0.80904353171E+03  0.42935481207E+03 -0.27585714894E+04  0.29066499020E+04  0.25500000920E-02 0.  1.
</event>
<event>
 5   0  0.9878977E-07  0.3611610E+04  0.7818609E-02  0.8087838E-01
       -2   -1    0    0    0  501  0.00000000000E+00  0.00000000000E+00  0.14722914804E+04  0.14722914804E+04  0.25500000920E-02 0.  1.
        2   -1    0    0  501    0  0.00000000000E+00  0.00000000000E+00 -0.22148677526E+04  0.22148677526E+04  0.25500000920E-02 0. -1.
    10030    2    1    2    0    0  0.00000000000E+00  0.00000000000E+00 -0.74257627214E+03  0.36871592330E+04  0.36116095705E+04 0.  0.
        5    1    3    3  502    0  0.16203934504E+04  0.77488447079E+03 -0.18087121014E+03  0.18052305564E+04  0.46999998093E+01 0. -1.
       -5    1    3    3    0  502 -0.16203934504E+04 -0.77488447079E+03 -0.56170506200E+03  0.18819286766E+04  0.46999998093E+01 0.  1.
</event>
<event>
 5   0  0.9878977E-07  0.3669278E+04  0.7818609E-02  0.8074804E-01
       -2   -1    0    0    0  501  0.00000000000E+00  0.00000000000E+00  0.15813158995E+04  0.15813158995E+04  0.25500000920E-02 0. -1.
        2   -1    0    0  501    0  0.00000000000E+00  0.00000000000E+00 -0.21285441618E+04  0.21285441618E+04  0.25500000920E-02 0.  1.
    10030    2    1    2    0    0  0.00000000000E+00  0.00000000000E+00 -0.54722826227E+03  0.37098600613E+04  0.36692782538E+04 0.  0.
        5    1    3    3  502    0 -0.15090093354E+04 -0.62292117884E+03 -0.11199737264E+04  0.19797735242E+04  0.46999998093E+01 0.  1.
       -5    1    3    3    0  502  0.15090093354E+04  0.62292117884E+03  0.57274546411E+03  0.17300865371E+04  0.46999998093E+01 0. -1.
</event>
<event>
 5   0  0.9878336E-07  0.3105656E+04  0.7818609E-02  0.8214187E-01
        2   -1    0    0  501    0  0.00000000000E+00  0.00000000000E+00  0.12530692807E+04  0.12530692807E+04  0.25500000920E-02 0.  1.
       -2   -1    0    0    0  501  0.00000000000E+00  0.00000000000E+00 -0.19242951833E+04  0.19242951833E+04  0.25500000920E-02 0. -1.
    10030    2    1    2    0    0  0.00000000000E+00  0.00000000000E+00 -0.67122590259E+03  0.31773644641E+04  0.31056562471E+04 0.  0.
        3    1    3    3  502    0 -0.67749690908E+03 -0.54494897974E+03 -0.16519057209E+04  0.18667522527E+04  0.10100000352E+00 0. -1.
       -3    1    3    3    0  502  0.67749690908E+03  0.54494897974E+03  0.98067981826E+03  0.13106122113E+04  0.10100000352E+00 0.  1.
</event>
<event>
 5   0  0.1006019E-06  0.3651897E+04  0.7818609E-02  0.8078706E-01
        2   -1    0    0  501    0  0.00000000000E+00  0.00000000000E+00  0.15178790701E+04  0.15178790702E+04  0.25500000920E-02 0. -1.
       -2   -1    0    0    0  501  0.00000000000E+00  0.00000000000E+00 -0.21965439828E+04  0.21965439828E+04  0.25500000920E-02 0.  1.
    10030    2    1    2    0    0  0.00000000000E+00  0.00000000000E+00 -0.67866491269E+03  0.37144230530E+04  0.36518971170E+04 0.  0.
        1    1    3    3  502    0 -0.10735902845E+04 -0.94360084723E+03 -0.14950570822E+04  0.20683748057E+04  0.50400001928E-02 0. -1.
       -1    1    3    3    0  502  0.10735902845E+04  0.94360084723E+03  0.81639216956E+03  0.16460482473E+04  0.50400001928E-02 0.  1.
</event>
<event>
 5   0  0.3159875E-07  0.3552390E+04  0.7818609E-02  0.8101485E-01
        1   -1    0    0  501    0  0.00000000000E+00  0.00000000000E+00  0.24993626395E+04  0.24993626395E+04  0.50400001928E-02 0.  1.
       -1   -1    0    0    0  501  0.00000000000E+00  0.00000000000E+00 -0.12622695828E+04  0.12622695828E+04  0.50400001928E-02 0. -1.
    10030    2    1    2    0    0  0.00000000000E+00  0.00000000000E+00  0.12370930567E+04  0.37616322223E+04  0.35523904269E+04 0.  0.
        5    1    3    3  502    0  0.94487219924E+03 -0.14323184981E+04  0.11044054185E+04  0.20406011789E+04  0.46999998093E+01 0.  1.
       -5    1    3    3    0  502 -0.94487219924E+03  0.14323184981E+04  0.13268763819E+03  0.17210310434E+04  0.46999998093E+01 0. -1.
</event>
<event>
 5   0  0.3242047E-07  0.3529528E+04  0.7818609E-02  0.8106828E-01
       -1   -1    0    0    0  501  0.00000000000E+00  0.00000000000E+00  0.14876044540E+04  0.14876044540E+04  0.50400001928E-02 0.  1.
        1   -1    0    0  501    0  0.00000000000E+00  0.00000000000E+00 -0.20935623081E+04  0.20935623081E+04  0.50400001928E-02 0. -1.
    10030    2    1    2    0    0  0.00000000000E+00  0.00000000000E+00 -0.60595785412E+03  0.35811667620E+04  0.35295283618E+04 0.  0.
        1    1    3    3  502    0 -0.68024654198E+03 -0.14736367716E+04 -0.10059735047E+04  0.19095348608E+04  0.50400001928E-02 0. -1.
       -1    1    3    3    0  502  0.68024654198E+03  0.14736367716E+04  0.40001565059E+03  0.16716319012E+04  0.50400001928E-02 0.  1.
</event>
<event>
 5   0  0.1031659E-06  0.3594581E+04  0.7818609E-02  0.8091734E-01
        2   -1    0    0  501    0  0.00000000000E+00  0.00000000000E+00  0.28134932571E+04  0.28134932571E+04  0.25500000920E-02 0.  1.
       -2   -1    0    0    0  501  0.00000000000E+00  0.00000000000E+00 -0.11481287375E+04  0.11481287375E+04  0.25500000920E-02 0. -1.
    10030    2    1    2    0    0  0.00000000000E+00  0.00000000000E+00  0.16653645196E+04  0.39616219947E+04  0.35945806217E+04 0.  0.
        2    1    3    3  502    0 -0.83437451054E+03 -0.15863399821E+04  0.97888157582E+03  0.20422694490E+04  0.25500000920E-02 0. -1.
       -2    1    3    3    0  502  0.83437451054E+03  0.15863399821E+04  0.68648294380E+03  0.19193525457E+04  0.25500000920E-02 0.  1.
</event>
<event>
 5   0  0.3159875E-07  0.3281381E+04  0.7818609E-02  0.8167649E-01
       -1   -1    0    0    0  501  0.00000000000E+00  0.00000000000E+00  0.14353619136E+04  0.14353619137E+04  0.50400001928E-02 0.  1.
        1   -1    0    0  501    0  0.00000000000E+00  0.00000000000E+00 -0.18753910205E+04  0.18753910205E+04  0.50400001928E-02 0. -1.
    10030    2    1    2    0    0  0.00000000000E+00  0.00000000000E+00 -0.44002910687E+03  0.33107529342E+04  0.32813807119E+04 0.  0.
        2    1    3    3  502    0  0.14959668095E+04 -0.54177999426E+03 -0.62412763475E+03  0.17090867625E+04  0.25500000920E-02 0.  1.
       -2    1    3    3    0  502 -0.14959668095E+04  0.54177999426E+03  0.18409852788E+03  0.16016661716E+04  0.25500000920E-02 0. -1.
</event>
<event>
 5   0  0.1006019E-06  0.3599076E+04  0.7818609E-02  0.8090703E-01
       -2   -1    0    0    0  501  0.00000000000E+00  0.00000000000E+00  0.11056655725E+04  0.11056655725E+04  0.25500000920E-02 0. -1.
        2   -1    0    0  501    0  0.00000000000E+00  0.00000000000E+00 -0.29288576652E+04  0.29288576652E+04  0.25500000920E-02 0.  1.
    10030    2    1    2    0    0  0.00000000000E+00  0.00000000000E+00 -0.18231920927E+04  0.40345232378E+04  0.35990760410E+04 0.  0.
        1    1    3    3  502    0  0.11713935708E+04 -0.75502139919E+03 -0.21878093909E+04  0.25939795955E+04  0.50400001928E-02 0.  1.
       -1    1    3    3    0  502 -0.11713935708E+04  0.75502139919E+03  0.36461729821E+03  0.14405436422E+04  0.50400001928E-02 0. -1.
</event>
<event>
 5   0  0.9878977E-07  0.3592536E+04  0.7818609E-02  0.8092204E-01
        2   -1    0    0  501    0  0.00000000000E+00  0.00000000000E+00  0.15440812727E+04  0.15440812728E+04  0.25500000920E-02 0. -1.
       -2   -1    0    0    0  501  0.00000000000E+00  0.00000000000E+00 -0.20896430060E+04  0.20896430060E+04  0.25500000920E-02 0.  1.
    10030    2    1    2    0    0  0.00000000000E+00  0.00000000000E+00 -0.54556173323E+03  0.36337242787E+04  0.35925359468E+04 0.  0.
        5    1    3    3  502    0 -0.14188472282E+04 -0.74553511490E+03  0.54744580923E+03  0.16937145771E+04  0.46999998093E+01 0. -1.
       -5    1    3    3    0  502  0.14188472282E+04  0.74553511490E+03 -0.10930075425E+04  0.19400097016E+04  0.46999998093E+01 0.  1.
</event>
<event>
 5   0  0.3159875E-07  0.3611703E+04  0.7818609E-02  0.8087816E-01
       -1   -1    0    0    0  501  0.00000000000E+00  0.00000000000E+00  0.36045523412E+04  0.36045523412E+04  0.50400001928E-02 0. -1.
        1   -1    0    0  501    0  0.00000000000E+00  0.00000000000E+00 -0.90471698258E+03  0.90471698259E+03  0.50400001928E-02 0.  1.
    10030    2    1    2    0    0  0.00000000000E+00  0.00000000000E+00  0.26998353586E+04  0.45092693238E+04  0.36117030430E+04 0.  0.
        5    1    3    3  502    0  0.68517596046E+03 -0.22323279983E+02 -0.73593132039E+03  0.10057740422E+04  0.46999998093E+01 0.  1.
       -5    1    3    3    0  502 -0.68517596046E+03  0.22323279983E+02  0.34357666790E+04  0.35034952816E+04  0.46999998093E+01 0. -1.
</event>
<event>
 5   0  0.3159875E-07  0.3607767E+04  0.7818609E-02  0.8088715E-01
        1   -1    0    0  501    0  0.00000000000E+00  0.00000000000E+00  0.20603949933E+04  0.20603949933E+04  0.50400001928E-02 0. -1.
       -1   -1    0    0    0  501  0.00000000000E+00  0.00000000000E+00 -0.15793068346E+04  0.15793068346E+04  0.50400001928E-02 0.  1.
    10030    2    1    2    0    0  0.00000000000E+00  0.00000000000E+00  0.48108815864E+03  0.36397018279E+04  0.36077671183E+04 0.  0.
        5    1    3    3  502    0  0.13946680253E+04  0.69214483606E+03 -0.67845855311E+03  0.16983790723E+04  0.46999998093E+01 0.  1.
       -5    1    3    3    0  502 -0.13946680253E+04 -0.69214483606E+03  0.11595467117E+04  0.19413227556E+04  0.46999998093E+01 0. -1.
</event>
<event>
 5   0  0.1006019E-06  0.3532575E+04  0.7818609E-02  0.8106113E-01
       -2   -1    0    0    0  501  0.00000000000E+00  0.00000000000E+00  0.15887142627E+04  0.15887142628E+04  0.25500000920E-02 0.  1.
        2   -1    0    0  501    0  0.00000000000E+00  0.00000000000E+00 -0.19637079468E+04  0.19637079468E+04  0.25500000920E-02 0. -1.
    10030    2    1    2    0    0  0.00000000000E+00  0.00000000000E+00 -0.37499368401E+03  0.35524222095E+04  0.35325745982E+04 0.  0.
        1    1    3    3  502    0  0.48032520848E+03  0.15538219530E+04 -0.88034960756E+03  0.18493486418E+04  0.50400001928E-02 0. -1.
       -1    1    3    3    0  502 -0.48032520848E+03 -0.15538219530E+04  0.50535592355E+03  0.17030735677E+04  0.50400001928E-02 0.  1.
</event>
<event>
 5   0  0.9538919E-07  0.3575725E+04  0.7818609E-02  0.8096075E-01
       -2   -1    0    0    0  501  0.00000000000E+00  0.00000000000E+00  0.13286344901E+04  0.13286344901E+04  0.25500000920E-02 0. -1.
        2   -1    0    0  501    0  0.00000000000E+00  0.00000000000E+00 -0.24058175713E+04  0.24058175713E+04  0.25500000920E-02 0.  1.
    10030    2    1    2    0    0  0.00000000000E+00  0.00000000000E+00 -0.10771830813E+04  0.37344520614E+04  0.35757249347E+04 0.  0.
        4    1    3    3  502    0 -0.12264521126E+04 -0.79360102716E+02  0.81749504845E+03  0.14760699772E+04  0.12699999809E+01 0. -1.
       -4    1    3    3    0  502  0.12264521126E+04  0.79360102716E+02 -0.18946781297E+04  0.22583820843E+04  0.12699999809E+01 0.  1.
</event>
<event>
 5   0  0.3159875E-07  0.3573619E+04  0.7818609E-02  0.8096561E-01
       -1   -1    0    0    0  501  0.00000000000E+00  0.00000000000E+00  0.17004511870E+04  0.17004511870E+04  0.50400001928E-02 0. -1.
        1   -1    0    0  501    0  0.00000000000E+00  0.00000000000E+00 -0.18775533325E+04  0.18775533325E+04  0.50400001928E-02 0.  1.
    10030    2    1    2    0    0  0.00000000000E+00  0.00000000000E+00 -0.17710214553E+03  0.35780045195E+04  0.35736187782E+04 0.  0.
        2    1    3    3  502    0 -0.79989743606E+03 -0.37892721605E+03 -0.16426370568E+04  0.18659255729E+04  0.25500000920E-02 0.  1.
       -2    1    3    3    0  502  0.79989743606E+03  0.37892721605E+03  0.14655349113E+04  0.17120789466E+04  0.25500000920E-02 0. -1.
</event>
<event>
 5   0  0.3278988E-07  0.3531483E+04  0.7818609E-02  0.8106369E-01
       -1   -1    0    0    0  501  0.00000000000E+00  0.00000000000E+00  0.12516957919E+04  0.12516957920E+04  0.50400001928E-02 0.  1.
        1   -1    0    0  501    0  0.00000000000E+00  0.00000000000E+00 -0.24908956024E+04  0.24908956025E+04  0.50400001928E-02 0. -1.
    10030    2    1    2    0    0  0.00000000000E+00  0.00000000000E+00 -0.12391998105E+04  0.37425913944E+04  0.35314832826E+04 0.  0.
        4    1    3    3  502    0  0.21801492014E+03  0.78462624902E+03 -0.22799974763E+04  0.24210656663E+04  0.12699999809E+01 0. -1.
       -4    1    3    3    0  502 -0.21801492014E+03 -0.78462624902E+03  0.10407976658E+04  0.13215257281E+04  0.12699999809E+01 0.  1.
</event>
<event>
 5   0  0.9878336E-07  0.3282951E+04  0.7818609E-02  0.8167247E-01
       -2   -1    0    0    0  501  0.00000000000E+00  0.00000000000E+00  0.16367731490E+04  0.16367731490E+04  0.25500000920E-02 0.  1.
        2   -1    0    0  501    0  0.00000000000E+00  0.00000000000E+00 -0.16461909810E+04  0.16461909810E+04  0.25500000920E-02 0. -1.
    10030    2    1    2    0    0  0.00000000000E+00  0.00000000000E+00 -0.94178320151E+01  0.32829641299E+04  0.32829506215E+04 0.  0.
        3    1    3    3  502    0 -0.11854876357E+04 -0.87620664805E+03 -0.72673831382E+03  0.16435533491E+04  0.10100000352E+00 0. -1.
       -3    1    3    3    0  502  0.11854876357E+04  0.87620664805E+03  0.71732048180E+03  0.16394107808E+04  0.10100000352E+00 0.  1.
</event>
<event>
 5   0  0.3242047E-07  0.3315923E+04  0.7818609E-02  0.8158855E-01
        1   -1    0    0  501    0  0.00000000000E+00  0.00000000000E+00  0.12341797711E+04  0.12341797711E+04  0.50400001928E-02 0.  1.
       -1   -1    0    0    0  501  0.00000000000E+00  0.00000000000E+00 -0.22272582010E+04  0.22272582010E+04  0.50400001928E-02 0. -1.
    10030    2    1    2    0    0  0.00000000000E+00  0.00000000000E+00 -0.99307842991E+03  0.34614379721E+04  0.33159234109E+04 0.  0.
        1    1    3    3  502    0 -0.25413970238E+03 -0.89250037578E+03 -0.19307657648E+04  0.21421952170E+04  0.50400001928E-02 0. -1.
       -1    1    3    3    0  502  0.25413970238E+03  0.89250037578E+03  0.93768733487E+03  0.13192427552E+04  0.50400001928E-02 0.  1.
</event>
<event>
 5   0  0.9878977E-07  0.3396303E+04  0.7818609E-02  0.8138814E-01
        2   -1    0    0  501    0  0.00000000000E+00  0.00000000000E+00  0.13163126437E+04  0.13163126437E+04  0.25500000920E-02 0. -1.
       -2   -1    0    0    0  501  0.00000000000E+00  0.00000000000E+00 -0.21907553846E+04  0.21907553846E+04  0.25500000920E-02 0.  1.
    10030    2    1    2    0    0  0.00000000000E+00  0.00000000000E+00 -0.87444274093E+03  0.35070680283E+04  0.33963032915E+04 0.  0.
        5    1    3    3  502    0  0.83450515256E+03  0.68077039515E+03 -0.17929957673E+04  0.20915790906E+04  0.46999998093E+01 0.  1.
       -5    1    3    3    0  502 -0.83450515256E+03 -0.68077039515E+03  0.91855302638E+03  0.14154889377E+04  0.46999998093E+01 0. -1.
</event>
<event>
 5   0  0.3159875E-07  0.3621953E+04  0.7818609E-02  0.8085481E-01
        1   -1    0    0  501    0  0.00000000000E+00  0.00000000000E+00  0.23558628666E+04  0.23558628666E+04  0.50400001928E-02 0. -1.
       -1   -1    0    0    0  501  0.00000000000E+00  0.00000000000E+00 -0.13921168684E+04  0.13921168685E+04  0.50400001928E-02 0.  1.
    10030    2    1    2    0    0  0.00000000000E+00  0.00000000000E+00  0.96374599815E+03  0.37479797350E+04  0.36219533052E+04 0.  0.
        2    1    3    3  502    0 -0.95460751139E+00 -0.10602710905E+04 -0.10373602111E+04  0.14833380951E+04  0.25500000920E-02 0.  1.
       -2    1    3    3    0  502  0.95460751139E+00  0.10602710905E+04  0.20011062093E+04  0.22646416400E+04  0.25500000920E-02 0. -1.
</event>
<event>
 5   0  0.1006019E-06  0.3454136E+04  0.7818609E-02  0.8124746E-01
        2   -1    0    0  501    0  0.00000000000E+00  0.00000000000E+00  0.10368862758E+04  0.10368862758E+04  0.25500000920E-02 0. -1.
       -2   -1    0    0    0  501  0.00000000000E+00  0.00000000000E+00 -0.28766541599E+04  0.28766541599E+04  0.25500000920E-02 0.  1.
    10030    2    1    2    0    0  0.00000000000E+00  0.00000000000E+00 -0.18397678841E+04  0.39135404357E+04  0.34541356190E+04 0.  0.
        1    1    3    3  502    0 -0.11642134044E+03 -0.76301743694E+03 -0.26703669295E+04  0.27796778727E+04  0.50400001928E-02 0.  1.
       -1    1    3    3    0  502  0.11642134044E+03  0.76301743694E+03  0.83059904542E+03  0.11338625630E+04  0.50400001928E-02 0. -1.
</event>
<event>
 5   0  0.1031659E-06  0.3624466E+04  0.7818609E-02  0.8084910E-01
        2   -1    0    0  501    0  0.00000000000E+00  0.00000000000E+00  0.19471114580E+04  0.19471114580E+04  0.25500000920E-02 0.  1.
       -2   -1    0    0    0  501  0.00000000000E+00  0.00000000000E+00 -0.16866974008E+04  0.16866974008E+04  0.25500000920E-02 0. -1.
    10030    2    1    2    0    0  0.00000000000E+00  0.00000000000E+00  0.26041405723E+03  0.36338088588E+04  0.36244656629E+04 0.  0.
        2    1    3    3  502    0 -0.82096535196E+03  0.79353232726E+03 -0.12807267415E+04  0.17157909692E+04  0.25500000920E-02 0. -1.
       -2    1    3    3    0  502  0.82096535196E+03 -0.79353232726E+03  0.15411407987E+04  0.19180178896E+04  0.25500000920E-02 0.  1.
</event>
<event>
 5   0  0.3278988E-07  0.3574700E+04  0.7818609E-02  0.8096312E-01
        1   -1    0    0  501    0  0.00000000000E+00  0.00000000000E+00  0.21522659707E+04  0.21522659707E+04  0.50400001928E-02 0.  1.
       -1   -1    0    0    0  501  0.00000000000E+00  0.00000000000E+00 -0.14843056842E+04  0.14843056842E+04  0.50400001928E-02 0. -1.
    10030    2    1    2    0    0  0.00000000000E+00  0.00000000000E+00  0.66796028657E+03  0.36365716549E+04  0.35747003311E+04 0.  0.
        4    1    3    3  502    0  0.67604125629E+03  0.11866983549E+04  0.15069034164E+04  0.20337266987E+04  0.12699999809E+01 0.  1.
       -4    1    3    3    0  502 -0.67604125629E+03 -0.11866983549E+04 -0.83894312986E+03  0.16028449562E+04  0.12699999809E+01 0. -1.
</event>
<event>
 5   0  0.9538919E-07  0.3483519E+04  0.7818609E-02  0.8117707E-01
       -2   -1    0    0    0  501  0.00000000000E+00  0.00000000000E+00  0.20069393040E+04  0.20069393040E+04  0.25500000920E-02 0.  1.
        2   -1    0    0  501    0  0.00000000000E+00  0.00000000000E+00 -0.15116181350E+04  0.15116181350E+04  0.25500000920E-02 0. -1.
    10030    2    1    2    0    0  0.00000000000E+00  0.00000000000E+00  0.49532116896E+03  0.35185574390E+04  0.34835188231E+04 0.  0.
        4    1    3    3  502    0 -0.68485821232E+02 -0.18104597686E+02  0.20054832228E+04  0.20067343257E+04  0.12699999809E+01 0.  1.
       -4    1    3    3    0  502  0.68485821232E+02  0.18104597686E+02 -0.15101620538E+04  0.15118231133E+04  0.12699999809E+01 0. -1.
</event>
<event>
 5   0  0.9878977E-07  0.3613736E+04  0.7818609E-02  0.8087352E-01
       -2   -1    0    0    0  501  0.00000000000E+00  0.00000000000E+00  0.15964580447E+04  0.15964580447E+04  0.25500000920E-02 0. -1.
        2   -1    0    0  501    0  0.00000000000E+00  0.00000000000E+00 -0.20450100666E+04  0.20450100666E+04  0.25500000920E-02 0.  1.
    10030    2    1    2    0    0  0.00000000000E+00  0.00000000000E+00 -0.44855202190E+03  0.36414681113E+04  0.36137364443E+04 0.  0.
        5    1    3    3  502    0 -0.15354911559E+04 -0.14288521871E+03 -0.11730969134E+04  0.19376087669E+04  0.46999998093E+01 0.  1.
       -5    1    3    3    0  502  0.15354911559E+04  0.14288521871E+03  0.72454489154E+03  0.17038593443E+04  0.46999998093E+01 0. -1.
</event>
<event>
 5   0  0.3242047E-07  0.3586166E+04  0.7818609E-02  0.8093668E-01
        1   -1    0    0  501    0  0.00000000000E+00  0.00000000000E+00  0.13906497074E+04  0.13906497074E+04  0.50400001928E-02 0.  1.
       -1   -1    0    0    0  501  0.00000000000E+00  0.00000000000E+00 -0.23119745668E+04  0.23119745668E+04  0.50400001928E-02 0. -1.
    10030    2    1    2    0    0  0.00000000000E+00  0.00000000000E+00 -0.92132485937E+03  0.37026242742E+04  0.35861660613E+04 0.  0.
        1    1    3    3  502    0  0.12377595099E+04 -0.59844790129E+03 -0.16491108736E+04  0.21470340398E+04  0.50400001928E-02 0. -1.
       -1    1    3    3    0  502 -0.12377595099E+04  0.59844790129E+03  0.72778601419E+03  0.15555902344E+04  0.50400001928E-02 0.  1.
</event>
<event>
 5   0  0.9538919E-07  0.3647991E+04  0.7818609E-02  0.8079586E-01
        2   -1    0    0  501    0  0.00000000000E+00  0.00000000000E+00  0.18875660149E+04  0.18875660149E+04  0.25500000920E-02 0.  1.
       -2   -1    0    0    0  501  0.00000000000E+00  0.00000000000E+00 -0.17625657506E+04  0.17625657506E+04  0.25500000920E-02 0. -1.
    10030    2    1    2    0    0  0.00000000000E+00  0.00000000000E+00  0.12500026431E+03  0.36501317655E+04  0.36479907949E+04 0.  0.
        4    1    3    3  502    0  0.28597305667E+03  0.13854108913E+04 -0.10896154615E+04  0.17856112102E+04  0.12699999809E+01 0. -1.
       -4    1    3    3    0  502 -0.28597305667E+03 -0.13854108913E+04  0.12146157259E+04  0.18645205553E+04  0.12699999809E+01 0.  1.
</event>
<event>
 5   0  0.3365378E-07  0.3664043E+04  0.7818609E-02  0.8075977E-01
        1   -1    0    0  501    0  0.00000000000E+00  0.00000000000E+00  0.15644590024E+04  0.15644590024E+04  0.50400001928E-02 0.  1.
       -1   -1    0    0    0  501  0.00000000000E+00  0.00000000000E+00 -0.21453439043E+04  0.21453439043E+04  0.50400001928E-02 0. -1.
    10030    2    1    2    0    0  0.00000000000E+00  0.00000000000E+00 -0.58088490185E+03  0.37098029067E+04  0.36640428951E+04 0.  0.
        3    1    3    3  502    0  0.16735616907E+02  0.38374675247E+03  0.15232304661E+04  0.15709146107E+04  0.10100000352E+00 0.  1.
       -3    1    3    3    0  502 -0.16735616907E+02 -0.38374675247E+03 -0.21041153680E+04  0.21388882960E+04  0.10100000352E+00 0. -1.
</event>
<event>
 5   0  0.3159875E-07  0.3645165E+04  0.7818609E-02  0.8080224E-01
        1   -1    0    0  501    0  0.00000000000E+00  0.00000000000E+00  0.10590962568E+04  0.10590962568E+04  0.50400001928E-02 0. -1.
       -1   -1    0    0    0  501  0.00000000000E+00  0.00000000000E+00 -0.31364546213E+04  0.31364546213E+04  0.50400001928E-02 0.  1.
    10030    2    1    2    0    0  0.00000000000E+00  0.00000000000E+00 -0.20773583646E+04  0.41955508781E+04  0.36451652083E+04 0.  0.
        2    1    3    3  502    0  0.13162630417E+04 -0.16986343470E+03 -0.24764527439E+04  0.28096654915E+04  0.25500000920E-02 0.  1.
       -2    1    3    3    0  502 -0.13162630417E+04  0.16986343470E+03  0.39909437930E+03  0.13858853867E+04  0.25500000920E-02 0. -1.
</event>
<event>
 5   0  0.3159875E-07  0.3545644E+04  0.7818609E-02  0.8103057E-01
       -1   -1    0    0    0  501  0.00000000000E+00  0.00000000000E+00  0.27858042054E+04  0.27858042054E+04  0.50400001928E-02 0.  1.
        1   -1    0    0  501    0  0.00000000000E+00  0.00000000000E+00 -0.11281831929E+04  0.11281831929E+04  0.50400001928E-02 0. -1.
    10030    2    1    2    0    0  0.00000000000E+00  0.00000000000E+00  0.16576210125E+04  0.39139873983E+04  0.35456437967E+04 0.  0.
        2    1    3    3  502    0  0.10088916582E+04  0.33287374705E+03  0.23954853449E+04  0.26204994461E+04  0.25500000920E-02 0.  1.
       -2    1    3    3    0  502 -0.10088916582E+04 -0.33287374705E+03 -0.73786433245E+03  0.12934879522E+04  0.25500000920E-02 0. -1.
</event>
<event>
 5   0  0.3242047E-07  0.3583913E+04  0.7818609E-02  0.8094187E-01
       -1   -1    0    0    0  501  0.00000000000E+00  0.00000000000E+00  0.21467767713E+04  0.21467767713E+04  0.50400001928E-02 0. -1.
        1   -1    0    0  501    0  0.00000000000E+00  0.00000000000E+00 -0.14957810822E+04  0.14957810823E+04  0.50400001928E-02 0.  1.
    10030    2    1    2    0    0  0.00000000000E+00  0.00000000000E+00  0.65099568904E+03  0.36425578536E+04  0.35839129913E+04 0.  0.
        1    1    3    3  502    0 -0.83055472180E+03  0.28573342439E+02  0.19390752732E+04  0.21096564879E+04  0.50400001928E-02 0. -1.
       -1    1    3    3    0  502  0.83055472180E+03 -0.28573342439E+02 -0.12880795841E+04  0.15329013657E+04  0.50400001928E-02 0.  1.
</event>
<event>
 5   0  0.3159875E-07  0.3672703E+04  0.7818609E-02  0.8074038E-01
       -1   -1    0    0    0  501  0.00000000000E+00  0.00000000000E+00  0.24776181642E+04  0.24776181642E+04  0.50400001928E-02 0.  1.
        1   -1    0    0  501    0  0.00000000000E+00  0.00000000000E+00 -0.13610599785E+04  0.13610599786E+04  0.50400001928E-02 0. -1.
    10030    2    1    2    0    0  0.00000000000E+00  0.00000000000E+00  0.11165581856E+04  0.38386781427E+04  0.36727030511E+04 0.  0.
        5    1    3    3  502    0  0.19776883355E+03 -0.53253061606E+03  0.23834670790E+04  0.24502323920E+04  0.46999998093E+01 0.  1.
       -5    1    3    3    0  502 -0.19776883355E+03  0.53253061606E+03 -0.12669088933E+04  0.13884457507E+04  0.46999998093E+01 0. -1.
</event>
<event>
 5   0  0.3159875E-07  0.3525755E+04  0.7818609E-02  0.8107713E-01
        1   -1    0    0  501    0  0.00000000000E+00  0.00000000000E+00  0.13073582447E+04  0.13073582447E+04  0.50400001928E-02 0.  1.
       -1   -1    0    0    0  501  0.00000000000E+00  0.00000000000E+00 -0.23771122676E+04  0.23771122676E+04  0.50400001928E-02 0. -1.
    10030    2    1    2    0    0  0.00000000000E+00  0.00000000000E+00 -0.10697540229E+04  0.36844705123E+04  0.35257551370E+04 0.  0.
        2    1    3    3  502    0 -0.12307406967E+04  0.70134846543E+03  0.56170532764E+03  0.15238520950E+04  0.25500000920E-02 0.  1.
       -2    1    3    3    0  502  0.12307406967E+04 -0.70134846543E+03 -0.16314593506E+04  0.21606184172E+04  0.25500000920E-02 0. -1.
</event>
<event>
 5   0  0.9538919E-07  0.3555719E+04  0.7818609E-02  0.8100711E-01
        2   -1    0    0  501    0  0.00000000000E+00  0.00000000000E+00  0.20506511866E+04  0.20506511866E+04  0.25500000920E-02 0. -1.
       -2   -1    0    0    0  501  0.00000000000E+00  0.00000000000E+00 -0.15413563124E+04  0.15413563124E+04  0.25500000920E-02 0.  1.
    10030    2    1    2    0    0  0.00000000000E+00  0.00000000000E+00  0.50929487422E+03  0.35920074990E+04  0.35557188590E+04 0.  0.
        4    1    3    3  502    0 -0.81293129612E+02  0.17583112880E+04  0.50722993609E+03  0.18318163062E+04  0.12699999809E+01 0. -1.
       -4    1    3    3    0  502  0.81293129612E+02 -0.17583112880E+04  0.20649381306E+01  0.17601911929E+04  0.12699999809E+01 0.  1.
</event>
<event>
 5   0  0.9538919E-07  0.3587440E+04  0.7818609E-02  0.8093375E-01
        2   -1    0    0  501    0  0.00000000000E+00  0.00000000000E+00  0.16238704090E+04  0.16238704090E+04  0.25500000920E-02 0. -1.
       -2   -1    0    0    0  501  0.00000000000E+00  0.00000000000E+00 -0.19813347533E+04  0.19813347533E+04  0.25500000920E-02 0.  1.
    10030    2    1    2    0    0  0.00000000000E+00  0.00000000000E+00 -0.35746434432E+03  0.36052051622E+04  0.35874396865E+04 0.  0.
        4    1    3    3  502    0 -0.14699753114E+04 -0.92840213376E+03 -0.62213286597E+03  0.18465667749E+04  0.12699999809E+01 0.  1.
       -4    1    3    3    0  502  0.14699753114E+04  0.92840213376E+03  0.26466852165E+03  0.17586383874E+04  0.12699999809E+01 0. -1.
</event>
<event>
 5   0  0.1006019E-06  0.3271507E+04  0.7818609E-02  0.8170184E-01
       -2   -1    0    0    0  501  0.00000000000E+00  0.00000000000E+00  0.19228488581E+04  0.19228488581E+04  0.25500000920E-02 0.  1.
        2   -1    0    0  501    0  0.00000000000E+00  0.00000000000E+00 -0.13915233669E+04  0.13915233669E+04  0.25500000920E-02 0. -1.
    10030    2    1    2    0    0  0.00000000000E+00  0.00000000000E+00  0.53132549123E+03  0.33143722250E+04  0.32715067581E+04 0.  0.
        1    1    3    3  502    0 -0.38687201378E+03  0.23290844896E+03  0.18584498649E+04  0.19125250850E+04  0.50400001928E-02 0.  1.
       -1    1    3    3    0  502  0.38687201378E+03 -0.23290844896E+03 -0.13271243736E+04  0.14018471400E+04  0.50400001928E-02 0. -1.
</event>
<event>
 5   0  0.3278988E-07  0.3574519E+04  0.7818609E-02  0.8096354E-01
        1   -1    0    0  501    0  0.00000000000E+00  0.00000000000E+00  0.16658088604E+04  0.16658088604E+04  0.50400001928E-02 0. -1.
       -1   -1    0    0    0  501  0.00000000000E+00  0.00000000000E+00 -0.19175644338E+04  0.19175644338E+04  0.50400001928E-02 0.  1.
    10030    2    1    2    0    0  0.00000000000E+00  0.00000000000E+00 -0.25175557337E+03  0.35833732942E+04  0.35745186105E+04 0.  0.
        4    1    3    3  502    0 -0.51070139839E+03  0.17482409616E+03  0.15821370429E+04  0.16716873566E+04  0.12699999809E+01 0. -1.
       -4    1    3    3    0  502  0.51070139839E+03 -0.17482409616E+03 -0.18338926163E+04  0.19116859375E+04  0.12699999809E+01 0.  1.
</event>
<event>
 5   0  0.3278988E-07  0.3716411E+04  0.7818609E-02  0.8064335E-01
        1   -1    0    0  501    0  0.00000000000E+00  0.00000000000E+00  0.18021446392E+04  0.18021446392E+04  0.50400001928E-02 0.  1.
       -1   -1    0    0    0  501  0.00000000000E+00  0.00000000000E+00 -0.19160101961E+04  0.19160101961E+04  0.50400001928E-02 0. -1.
    10030    2    1    2    0    0  0.00000000000E+00  0.00000000000E+00 -0.11386555687E+03  0.37181548353E+04  0.37164109050E+04 0.  0.
        4    1    3    3  502    0  0.60871813815E+03  0.14324247845E+04  0.95870236955E+03  0.18279743930E+04  0.12699999809E+01 0.  1.
       -4    1    3    3    0  502 -0.60871813815E+03 -0.14324247845E+04 -0.10725679264E+04  0.18901804424E+04  0.12699999809E+01 0. -1.
</event>
<event>
 5   0  0.9878977E-07  0.3610649E+04  0.7818609E-02  0.8088057E-01
       -2   -1    0    0    0  501  0.00000000000E+00  0.00000000000E+00  0.12063369221E+04  0.12063369221E+04  0.25500000920E-02 0. -1.
        2   -1    0    0  501    0  0.00000000000E+00  0.00000000000E+00 -0.27017302653E+04  0.27017302653E+04  0.25500000920E-02 0.  1.
    10030    2    1    2    0    0  0.00000000000E+00  0.00000000000E+00 -0.14953933432E+04  0.39080671873E+04  0.36106492339E+04 0.  0.
        5    1    3    3  502    0 -0.60353386195E+03 -0.11373237365E+04 -0.21174074340E+04  0.24781434050E+04  0.46999998093E+01 0.  1.
       -5    1    3    3    0  502  0.60353386195E+03  0.11373237365E+04  0.62201409082E+03  0.14299237823E+04  0.46999998093E+01 0. -1.
</event>
<event>
 5   0  0.3159875E-07  0.3655500E+04  0.7818609E-02  0.8077896E-01
        1   -1    0    0  501    0  0.00000000000E+00  0.00000000000E+00  0.20660004903E+04  0.20660004903E+04  0.50400001928E-02 0. -1.
       -1   -1    0    0    0  501  0.00000000000E+00  0.00000000000E+00 -0.16169748798E+04  0.16169748799E+04  0.50400001928E-02 0.  1.
    10030    2    1    2    0    0  0.00000000000E+00  0.00000000000E+00  0.44902561049E+03  0.36829753702E+04  0.36555004553E+04 0.  0.
        5    1    3    3  502    0 -0.36024400804E+03 -0.17917960933E+04  0.20594006195E+03  0.18392233101E+04  0.46999998093E+01 0. -1.
       -5    1    3    3    0  502  0.36024400804E+03  0.17917960933E+04  0.24308554854E+03  0.18437520601E+04  0.46999998093E+01 0.  1.
</event>
<event>
 5   0  0.3159875E-07  0.3653554E+04  0.7818609E-02  0.8078333E-01
        3   -1    0    0  501    0  0.00000000000E+00  0.00000000000E+00  0.15388549533E+04  0.15388549566E+04  0.10100000352E+00 0. -1.
       -3   -1    0    0    0  501  0.00000000000E+00  0.00000000000E+00 -0.21685700915E+04  0.21685700938E+04  0.10100000352E+00 0.  1.
    10030    2    1    2    0    0  0.00000000000E+00  0.00000000000E+00 -0.62971513820E+03  0.37074250504E+04  0.36535543446E+04 0.  0.
        4    1    3    3  502    0 -0.13949401268E+04 -0.48496040445E+03 -0.14059175459E+04  0.20390317089E+04  0.12699999809E+01 0.  1.
       -4    1    3    3    0  502  0.13949401268E+04  0.48496040445E+03  0.77620240771E+03  0.16683933415E+04  0.12699999809E+01 0. -1.
</event>
<event>
 5   0  0.1031659E-06  0.3597107E+04  0.7818609E-02  0.8091155E-01
        2   -1    0    0  501    0  0.00000000000E+00  0.00000000000E+00  0.21641542454E+04  0.21641542454E+04  0.25500000920E-02 0. -1.
       -2   -1    0    0    0  501  0.00000000000E+00  0.00000000000E+00 -0.14947151165E+04  0.14947151165E+04  0.25500000920E-02 0.  1.
    10030    2    1    2    0    0  0.00000000000E+00  0.00000000000E+00  0.66943912890E+03  0.36588693619E+04  0.35971066513E+04 0.  0.
        2    1    3    3  502    0 -0.85591186530E+02 -0.51933081913E+03 -0.14146248690E+04  0.15093686994E+04  0.25500000920E-02 0.  1.
       -2    1    3    3    0  502  0.85591186530E+02  0.51933081913E+03  0.20840639979E+04  0.21495006625E+04  0.25500000920E-02 0. -1.
</event>
<event>
 5   0  0.3365378E-07  0.3234629E+04  0.7818609E-02  0.8179731E-01
        1   -1    0    0  501    0  0.00000000000E+00  0.00000000000E+00  0.21011285717E+04  0.21011285718E+04  0.50400001928E-02 0. -1.
       -1   -1    0    0    0  501  0.00000000000E+00  0.00000000000E+00 -0.12449052976E+04  0.12449052976E+04  0.50400001928E-02 0.  1.
    10030    2    1    2    0    0  0.00000000000E+00  0.00000000000E+00  0.85622327411E+03  0.33460338694E+04  0.32346289370E+04 0.  0.
        3    1    3    3  502    0  0.40353142010E+03 -0.14470685273E+04 -0.19157065728E+03  0.15144451976E+04  0.10100000352E+00 0.  1.
       -3    1    3    3    0  502 -0.40353142010E+03  0.14470685273E+04  0.10477939314E+04  0.18315886718E+04  0.10100000352E+00 0. -1.
</event>
<event>
 5   0  0.9878336E-07  0.3166583E+04  0.7818609E-02  0.8197699E-01
       -2   -1    0    0    0  501  0.00000000000E+00  0.00000000000E+00  0.11498196829E+04  0.11498196830E+04  0.25500000920E-02 0. -1.
        2   -1    0    0  501    0  0.00000000000E+00  0.00000000000E+00 -0.21801781777E+04  0.21801781777E+04  0.25500000920E-02 0.  1.
    10030    2    1    2    0    0  0.00000000000E+00  0.00000000000E+00 -0.10303584947E+04  0.33299978606E+04  0.31665828781E+04 0.  0.
        3    1    3    3  502    0  0.11022772699E+04 -0.94907583575E+03 -0.11727918933E+04  0.18684755703E+04  0.10100000352E+00 0.  1.
       -3    1    3    3    0  502 -0.11022772699E+04  0.94907583575E+03  0.14243339856E+03  0.14615222903E+04  0.10100000352E+00 0. -1.
</event>
<event>
 5   0  0.9538919E-07  0.3857136E+04  0.7818609E-02  0.8034004E-01
       -2   -1    0    0    0  501  0.00000000000E+00  0.00000000000E+00  0.13889283846E+04  0.13889283846E+04  0.25500000920E-02 0.  1.
        2   -1    0    0  501    0  0.00000000000E+00  0.00000000000E+00 -0.26778729692E+04  0.26778729692E+04  0.25500000920E-02 0. -1.
    10030    2    1    2    0    0  0.00000000000E+00  0.00000000000E+00 -0.12889445846E+04  0.40668013537E+04  0.38571356093E+04 0.  0.
        4    1    3    3  502    0  0.51562955203E+03  0.18120040220E+04 -0.10793738377E+04  0.21712397162E+04  0.12699999809E+01 0. -1.
       -4    1    3    3    0  502 -0.51562955203E+03 -0.18120040220E+04 -0.20957074685E+03  0.18955616375E+04  0.12699999809E+01 0.  1.
</event>
<event>
 5   0  0.9538919E-07  0.3539393E+04  0.7818609E-02  0.8104517E-01
        2   -1    0    0  501    0  0.00000000000E+00  0.00000000000E+00  0.21663170819E+04  0.21663170819E+04  0.25500000920E-02 0. -1.
       -2   -1    0    0    0  501  0.00000000000E+00  0.00000000000E+00 -0.14456914875E+04  0.14456914875E+04  0.25500000920E-02 0.  1.
    10030    2    1    2    0    0  0.00000000000E+00  0.00000000000E+00  0.72062559444E+03  0.36120085694E+04  0.35393932613E+04 0.  0.
        4    1    3    3  502    0 -0.79874595408E+03 -0.15210188794E+04  0.79367913388E+03  0.18924644544E+04  0.12699999809E+01 0. -1.
       -4    1    3    3    0  502  0.79874595408E+03  0.15210188794E+04 -0.73053539443E+02  0.17195441150E+04  0.12699999809E+01 0.  1.
</event>
<event>
 5   0  0.3159875E-07  0.3582301E+04  0.7818609E-02  0.8094558E-01
        1   -1    0    0  501    0  0.00000000000E+00  0.00000000000E+00  0.20730815370E+04  0.20730815370E+04  0.50400001928E-02 0. -1.
       -1   -1    0    0    0  501  0.00000000000E+00  0.00000000000E+00 -0.15475607159E+04  0.15475607160E+04  0.50400001928E-02 0.  1.
    10030    2    1    2    0    0  0.00000000000E+00  0.00000000000E+00  0.52552082105E+03  0.36206422530E+04  0.35823006840E+04 0.  0.
        2    1    3    3  502    0  0.14723365014E+04  0.26416493609E+02 -0.76783310475E+03  0.16607348618E+04  0.25500000920E-02 0.  1.
       -2    1    3    3    0  502 -0.14723365014E+04 -0.26416493609E+02  0.12933539258E+04  0.19599073911E+04  0.25500000920E-02 0. -1.
</event>
<event>
 5   0  0.1006019E-06  0.3611360E+04  0.7818609E-02  0.8087895E-01
       -2   -1    0    0    0  501  0.00000000000E+00  0.00000000000E+00  0.12120225341E+04  0.12120225341E+04  0.25500000920E-02 0.  1.
        2   -1    0    0  501    0  0.00000000000E+00  0.00000000000E+00 -0.26901151660E+04  0.26901151660E+04  0.25500000920E-02 0. -1.
    10030    2    1    2    0    0  0.00000000000E+00  0.00000000000E+00 -0.14780926318E+04  0.39021377001E+04  0.36113599658E+04 0.  0.
        1    1    3    3  502    0  0.98223963822E+03  0.83598442499E+03  0.62635144430E+03  0.14338691703E+04  0.50400001928E-02 0.  1.
       -1    1    3    3    0  502 -0.98223963822E+03 -0.83598442499E+03 -0.21044440761E+04  0.24682685298E+04  0.50400001928E-02 0. -1.
</event>
<event>
 5   0  0.3242047E-07  0.3406362E+04  0.7818609E-02  0.8136347E-01
       -1   -1    0    0    0  501  0.00000000000E+00  0.00000000000E+00  0.14474328439E+04  0.14474328439E+04  0.50400001928E-02 0.  1.
        1   -1    0    0  501    0  0.00000000000E+00  0.00000000000E+00 -0.20041174121E+04  0.20041174121E+04  0.50400001928E-02 0. -1.
    10030    2    1    2    0    0  0.00000000000E+00  0.00000000000E+00 -0.55668456815E+03  0.34515502560E+04  0.34063619099E+04 0.  0.
        1    1    3    3  502    0 -0.18074634309E+03  0.67898346714E+03  0.12937349178E+04  0.14722220711E+04  0.50400001928E-02 0.  1.
       -1    1    3    3    0  502  0.18074634309E+03 -0.67898346714E+03 -0.18504194860E+04  0.19793281848E+04  0.50400001928E-02 0. -1.
</event>
<event>
 5   0  0.3159875E-07  0.3712740E+04  0.7818609E-02  0.8065144E-01
       -1   -1    0    0    0  501  0.00000000000E+00  0.00000000000E+00  0.11989244855E+04  0.11989244855E+04  0.50400001928E-02 0. -1.
        1   -1    0    0  501    0  0.00000000000E+00  0.00000000000E+00 -0.28743334661E+04  0.28743334661E+04  0.50400001928E-02 0.  1.
    10030    2    1    2    0    0  0.00000000000E+00  0.00000000000E+00 -0.16754089806E+04  0.40732579516E+04  0.37127395664E+04 0.  0.
        5    1    3    3  502    0 -0.17679590725E+04  0.53756494057E+03 -0.64320035491E+03  0.19566257010E+04  0.46999998093E+01 0.  1.
       -5    1    3    3    0  502  0.17679590725E+04 -0.53756494057E+03 -0.10322086257E+04  0.21166322506E+04  0.46999998093E+01 0. -1.
</event>
<event>
 5   0  0.1006019E-06  0.3611409E+04  0.7818609E-02  0.8087883E-01
       -2   -1    0    0    0  501  0.00000000000E+00  0.00000000000E+00  0.15262169411E+04  0.15262169411E+04  0.25500000920E-02 0.  1.
        2   -1    0    0  501    0  0.00000000000E+00  0.00000000000E+00 -0.21363725953E+04  0.21363725953E+04  0.25500000920E-02 0. -1.
    10030    2    1    2    0    0  0.00000000000E+00  0.00000000000E+00 -0.61015565417E+03  0.36625895365E+04  0.36114086158E+04 0.  0.
        1    1    3    3  502    0  0.53593501909E+03  0.13184737459E+04 -0.14321185099E+04  0.20190499721E+04  0.50400001928E-02 0. -1.
       -1    1    3    3    0  502 -0.53593501909E+03 -0.13184737459E+04  0.82196285576E+03  0.16435395644E+04  0.50400001928E-02 0.  1.
</event>
<event>
 5   0  0.3159875E-07  0.3640165E+04  0.7818609E-02  0.8081353E-01
        1   -1    0    0  501    0  0.00000000000E+00  0.00000000000E+00  0.23253597891E+04  0.23253597891E+04  0.50400001928E-02 0. -1.
       -1   -1    0    0    0  501  0.00000000000E+00  0.00000000000E+00 -0.14245967449E+04  0.14245967449E+04  0.50400001928E-02 0.  1.
    10030    2    1    2    0    0  0.00000000000E+00  0.00000000000E+00  0.90076304420E+03  0.37499565340E+04  0.36401648239E+04 0.  0.
        5    1    3    3  502    0 -0.14008408642E+04 -0.42430975448E+03 -0.66404340898E+03  0.16072864193E+04  0.46999998093E+01 0.  1.
       -5    1    3    3    0  502  0.14008408642E+04  0.42430975448E+03  0.15648064532E+04  0.21426701147E+04  0.46999998093E+01 0. -1.
</event>
<event>
 5   0  0.3159875E-07  0.3569752E+04  0.7818609E-02  0.8097456E-01
       -1   -1    0    0    0  501  0.00000000000E+00  0.00000000000E+00  0.14146274261E+04  0.14146274261E+04  0.50400001928E-02 0.  1.
        1   -1    0    0  501    0  0.00000000000E+00  0.00000000000E+00 -0.22520297123E+04  0.22520297123E+04  0.50400001928E-02 0. -1.
    10030    2    1    2    0    0  0.00000000000E+00  0.00000000000E+00 -0.83740228623E+03  0.36666571384E+04  0.35697523698E+04 0.  0.
        5    1    3    3  502    0  0.63077874033E+03  0.43768743010E+03  0.12363460572E+04  0.14553438662E+04  0.46999998093E+01 0.  1.
       -5    1    3    3    0  502 -0.63077874033E+03 -0.43768743010E+03 -0.20737483434E+04  0.22113132722E+04  0.46999998093E+01 0. -1.
</event>
<event>
 5   0  0.3278988E-07  0.3143065E+04  0.7818609E-02  0.8204018E-01
       -1   -1    0    0    0  501  0.00000000000E+00  0.00000000000E+00  0.98797334479E+03  0.98797334480E+03  0.50400001928E-02 0.  1.
        1   -1    0    0  501    0  0.00000000000E+00  0.00000000000E+00 -0.24997777902E+04  0.24997777903E+04  0.50400001928E-02 0. -1.
    10030    2    1    2    0    0  0.00000000000E+00  0.00000000000E+00 -0.15118044455E+04  0.34877511351E+04  0.31430646348E+04 0.  0.
        4    1    3    3  502    0 -0.15587693297E+04  0.89756132299E+02 -0.55772752483E+03  0.16579745449E+04  0.12699999809E+01 0. -1.
       -4    1    3    3    0  502  0.15587693297E+04 -0.89756132299E+02 -0.95407692063E+03  0.18297765902E+04  0.12699999809E+01 0.  1.
</event>
<event>
 5   0  0.9878977E-07  0.3621274E+04  0.7818609E-02  0.8085636E-01
       -2   -1    0    0    0  501  0.00000000000E+00  0.00000000000E+00  0.13949478629E+04  0.13949478630E+04  0.25500000920E-02 0.  1.
        2   -1    0    0  501    0  0.00000000000E+00  0.00000000000E+00 -0.23501994265E+04  0.23501994265E+04  0.25500000920E-02 0. -1.
    10030    2    1    2    0    0  0.00000000000E+00  0.00000000000E+00 -0.95525156352E+03  0.37451472894E+04  0.36212736254E+04 0.  0.
        5    1    3    3  502    0 -0.17549376603E+04  0.41919877710E+03 -0.32129356445E+03  0.18326989526E+04  0.46999998093E+01 0. -1.
       -5    1    3    3    0  502  0.17549376603E+04 -0.41919877710E+03 -0.63395799907E+03  0.19124483368E+04  0.46999998093E+01 0.  1.
</event>
<event>
 5   0  0.1006019E-06  0.2593994E+04  0.7818609E-02  0.8370244E-01
        2   -1    0    0  501    0  0.00000000000E+00  0.00000000000E+00  0.22271854278E+04  0.22271854278E+04  0.25500000920E-02 0. -1.
       -2   -1    0    0    0  501  0.00000000000E+00  0.00000000000E+00 -0.75530343918E+03  0.75530343918E+03  0.25500000920E-02 0.  1.
    10030    2    1    2    0    0  0.00000000000E+00  0.00000000000E+00  0.14718819887E+04  0.29824888670E+04  0.25939936880E+04 0.  0.
        1    1    3    3  502    0  0.19944835615E+03 -0.27818955843E+03  0.21743138896E+04  0.22010929030E+04  0.50400001928E-02 0. -1.
       -1    1    3    3    0  502 -0.19944835615E+03  0.27818955843E+03 -0.70243190090E+03  0.78139596404E+03  0.50400001928E-02 0.  1.
</event>
<event>
 5   0  0.3159875E-07  0.3645981E+04  0.7818609E-02  0.8080040E-01
       -1   -1    0    0    0  501  0.00000000000E+00  0.00000000000E+00  0.24144617810E+04  0.24144617810E+04  0.50400001928E-02 0. -1.
        1   -1    0    0  501    0  0.00000000000E+00  0.00000000000E+00 -0.13764122618E+04  0.13764122619E+04  0.50400001928E-02 0.  1.
    10030    2    1    2    0    0  0.00000000000E+00  0.00000000000E+00  0.10380495192E+04  0.37908740429E+04  0.36459812403E+04 0.  0.
        2    1    3    3  502    0 -0.15355289516E+03  0.17187594667E+04  0.11302490578E+04  0.20628076810E+04  0.25500000920E-02 0. -1.
       -2    1    3    3    0  502  0.15355289516E+03 -0.17187594667E+04 -0.92199538622E+02  0.17280663619E+04  0.25500000920E-02 0.  1.
</event>
<event>
 5   0  0.3159875E-07  0.3620342E+04  0.7818609E-02  0.8085848E-01
        1   -1    0    0  501    0  0.00000000000E+00  0.00000000000E+00  0.24333520604E+04  0.24333520604E+04  0.50400001928E-02 0. -1.
       -1   -1    0    0    0  501  0.00000000000E+00  0.00000000000E+00 -0.13465867921E+04  0.13465867922E+04  0.50400001928E-02 0.  1.
    10030    2    1    2    0    0  0.00000000000E+00  0.00000000000E+00  0.10867652683E+04  0.37799388526E+04  0.36203423845E+04 0.  0.
        5    1    3    3  502    0  0.10220410738E+04  0.12256692819E+04  0.14353649677E+04  0.21464220986E+04  0.46999998093E+01 0. -1.
       -5    1    3    3    0  502 -0.10220410738E+04 -0.12256692819E+04 -0.34859969942E+03  0.16335167540E+04  0.46999998093E+01 0.  1.
</event>
<event>
 5   0  0.9878336E-07  0.3615016E+04  0.7818609E-02  0.8087061E-01
        2   -1    0    0  501    0  0.00000000000E+00  0.00000000000E+00  0.12098390005E+04  0.12098390005E+04  0.25500000920E-02 0. -1.
       -2   -1    0    0    0  501  0.00000000000E+00  0.00000000000E+00 -0.27004298354E+04  0.27004298354E+04  0.25500000920E-02 0.  1.
    10030    2    1    2    0    0  0.00000000000E+00  0.00000000000E+00 -0.14905908349E+04  0.39102688360E+04  0.36150160902E+04 0.  0.
        3    1    3    3  502    0  0.13243234135E+04 -0.91334471405E+03  0.14605530082E+03  0.16153523552E+04  0.10100000352E+00 0. -1.
       -3    1    3    3    0  502 -0.13243234135E+04  0.91334471405E+03 -0.16366461357E+04  0.22949164808E+04  0.10100000352E+00 0.  1.
</event>
<event>
 5   0  0.1006019E-06  0.3561044E+04  0.7818609E-02  0.8099474E-01
       -2   -1    0    0    0  501  0.00000000000E+00  0.00000000000E+00  0.16135591035E+04  0.16135591035E+04  0.25500000920E-02 0.  1.
        2   -1    0    0  501    0  0.00000000000E+00  0.00000000000E+00 -0.19647613211E+04  0.19647613211E+04  0.25500000920E-02 0. -1.
    10030    2    1    2    0    0  0.00000000000E+00  0.00000000000E+00 -0.35120221759E+03  0.35783204247E+04  0.35610439571E+04 0.  0.
        1    1    3    3  502    0 -0.45362297218E+03 -0.13280844886E+04  0.92546872159E+03  0.16810932647E+04  0.50400001928E-02 0.  1.
       -1    1    3    3    0  502  0.45362297218E+03  0.13280844886E+04 -0.12766709392E+04  0.18972271600E+04  0.50400001928E-02 0. -1.
</event>
<event>
 5   0  0.3159875E-07  0.3640423E+04  0.7818609E-02  0.8081295E-01
        3   -1    0    0  501    0  0.00000000000E+00  0.00000000000E+00  0.14884438723E+04  0.14884438757E+04  0.10100000352E+00 0. -1.
       -3   -1    0    0    0  501  0.00000000000E+00  0.00000000000E+00 -0.22259280979E+04  0.22259281002E+04  0.10100000352E+00 0.  1.
    10030    2    1    2    0    0  0.00000000000E+00  0.00000000000E+00 -0.73748422562E+03  0.37143719759E+04  0.36404225294E+04 0.  0.
        3    1    3    3  502    0 -0.13688477907E+04 -0.51095693033E+03  0.73882574649E+03  0.16372796807E+04  0.10100000352E+00 0. -1.
       -3    1    3    3    0  502  0.13688477907E+04  0.51095693033E+03 -0.14763099721E+04  0.20770922952E+04  0.10100000352E+00 0.  1.
</event>
<event>
 5   0  0.3159875E-07  0.3844943E+04  0.7818609E-02  0.8036578E-01
        1   -1    0    0  501    0  0.00000000000E+00  0.00000000000E+00  0.19917953202E+04  0.19917953202E+04  0.50400001928E-02 0. -1.
       -1   -1    0    0    0  501  0.00000000000E+00  0.00000000000E+00 -0.18555604869E+04  0.18555604869E+04  0.50400001928E-02 0.  1.
    10030    2    1    2    0    0  0.00000000000E+00  0.00000000000E+00  0.13623483327E+03  0.38473558071E+04  0.38449430134E+04 0.  0.
        2    1    3    3  502    0 -0.23672757454E+03  0.60264209691E+01  0.19771459690E+04  0.19912765868E+04  0.25500000920E-02 0. -1.
       -2    1    3    3    0  502  0.23672757454E+03 -0.60264209691E+01 -0.18409111357E+04  0.18560792203E+04  0.25500000920E-02 0.  1.
</event>
<event>
 5   0  0.3159875E-07  0.3604696E+04  0.7818609E-02  0.8089417E-01
       -1   -1    0    0    0  501  0.00000000000E+00  0.00000000000E+00  0.19080631392E+04  0.19080631392E+04  0.50400001928E-02 0.  1.
        1   -1    0    0  501    0  0.00000000000E+00  0.00000000000E+00 -0.17024898050E+04  0.17024898050E+04  0.50400001928E-02 0. -1.
    10030    2    1    2    0    0  0.00000000000E+00  0.00000000000E+00  0.20557333424E+03  0.36105529442E+04  0.36046958494E+04 0.  0.
        5    1    3    3  502    0 -0.99263496339E+03  0.10419518331E+04 -0.98407929692E+03  0.17433938011E+04  0.46999998093E+01 0. -1.
       -5    1    3    3    0  502  0.99263496339E+03 -0.10419518331E+04  0.11896526312E+04  0.18671591431E+04  0.46999998093E+01 0.  1.
</event>
<event>
 5   0  0.3159875E-07  0.3484347E+04  0.7818609E-02  0.8117509E-01
        1   -1    0    0  501    0  0.00000000000E+00  0.00000000000E+00  0.18476026453E+04  0.18476026453E+04  0.50400001928E-02 0.  1.
       -1   -1    0    0    0  501  0.00000000000E+00  0.00000000000E+00 -0.16427608181E+04  0.16427608181E+04  0.50400001928E-02 0. -1.
    10030    2    1    2    0    0  0.00000000000E+00  0.00000000000E+00  0.20484182712E+03  0.34903634634E+04  0.34843474185E+04 0.  0.
        2    1    3    3  502    0 -0.16706112177E+04 -0.47526279364E+03 -0.33285016132E+02  0.17372174464E+04  0.25500000920E-02 0. -1.
       -2    1    3    3    0  502  0.16706112177E+04  0.47526279364E+03  0.23812684325E+03  0.17531460170E+04  0.25500000920E-02 0.  1.
</event>
<event>
 5   0  0.3159875E-07  0.3771440E+04  0.7818609E-02  0.8052312E-01
       -1   -1    0    0    0  501  0.00000000000E+00  0.00000000000E+00  0.30735361019E+04  0.30735361019E+04  0.50400001928E-02 0.  1.
        1   -1    0    0  501    0  0.00000000000E+00  0.00000000000E+00 -0.11569539792E+04  0.11569539792E+04  0.50400001928E-02 0. -1.
    10030    2    1    2    0    0  0.00000000000E+00  0.00000000000E+00  0.19165821227E+04  0.42304900811E+04  0.37714399495E+04 0.  0.
        5    1    3    3  502    0 -0.95131068583E+03  0.96435554537E+03 -0.51323129710E+03  0.14485862395E+04  0.46999998093E+01 0. -1.
       -5    1    3    3    0  502  0.95131068583E+03 -0.96435554537E+03  0.24298134198E+04  0.27819038416E+04  0.46999998093E+01 0.  1.
</event>
<event>
 5   0  0.3159875E-07  0.3492983E+04  0.7818609E-02  0.8115455E-01
        1   -1    0    0  501    0  0.00000000000E+00  0.00000000000E+00  0.16349090989E+04  0.16349090989E+04  0.50400001928E-02 0. -1.
       -1   -1    0    0    0  501  0.00000000000E+00  0.00000000000E+00 -0.18656889382E+04  0.18656889382E+04  0.50400001928E-02 0.  1.
    10030    2    1    2    0    0  0.00000000000E+00  0.00000000000E+00 -0.23077983930E+03  0.35005980371E+04  0.34929825770E+04 0.  0.
        2    1    3    3  502    0  0.10405024046E+04 -0.23979757161E+03 -0.15004608798E+04  0.18416109745E+04  0.25500000920E-02 0.  1.
       -2    1    3    3    0  502 -0.10405024046E+04  0.23979757161E+03  0.12696810405E+04  0.16589870626E+04  0.25500000920E-02 0. -1.
</event>
<event>
 5   0  0.9878336E-07  0.3493860E+04  0.7818609E-02  0.8115247E-01
       -2   -1    0    0    0  501  0.00000000000E+00  0.00000000000E+00  0.19263580526E+04  0.19263580526E+04  0.25500000920E-02 0. -1.
        2   -1    0    0  501    0  0.00000000000E+00  0.00000000000E+00 -0.15842143070E+04  0.15842143070E+04  0.25500000920E-02 0.  1.
    10030    2    1    2    0    0  0.00000000000E+00  0.00000000000E+00  0.34214374561E+03  0.35105723595E+04  0.34938597495E+04 0.  0.
        3    1    3    3  502    0  0.13892332894E+04 -0.18381683099E+03 -0.87699296331E+03  0.16531407767E+04  0.10100000352E+00 0.  1.
       -3    1    3    3    0  502 -0.13892332894E+04  0.18381683099E+03  0.12191367089E+04  0.18574315828E+04  0.10100000352E+00 0. -1.
</event>
<event>
 5   0  0.1031659E-06  0.3606565E+04  0.7818609E-02  0.8088990E-01
       -2   -1    0    0    0  501  0.00000000000E+00  0.00000000000E+00  0.16420532500E+04  0.16420532500E+04  0.25500000920E-02 0. -1.
        2   -1    0    0  501    0  0.00000000000E+00  0.00000000000E+00 -0.19803423594E+04  0.19803423594E+04  0.25500000920E-02 0.  1.
    10030    2    1    2    0    0  0.00000000000E+00  0.00000000000E+00 -0.33828910938E+03  0.36223956093E+04  0.36065649071E+04 0.  0.
        2    1    3    3  502    0 -0.98759971316E+03  0.12262160151E+04 -0.10521329287E+04  0.18936585248E+04  0.25500000920E-02 0.  1.
       -2    1    3    3    0  502  0.98759971316E+03 -0.12262160151E+04  0.71384381930E+03  0.17287370845E+04  0.25500000920E-02 0. -1.
</event>
<event>
 5   0  0.1006019E-06  0.3593932E+04  0.7818609E-02  0.8091883E-01
       -2   -1    0    0    0  501  0.00000000000E+00  0.00000000000E+00  0.14060682197E+04  0.14060682197E+04  0.25500000920E-02 0. -1.
        2   -1    0    0  501    0  0.00000000000E+00  0.00000000000E+00 -0.22965363175E+04  0.22965363175E+04  0.25500000920E-02 0.  1.
    10030    2    1    2    0    0  0.00000000000E+00  0.00000000000E+00 -0.89046809773E+03  0.37026045372E+04  0.35939319590E+04 0.  0.
        1    1    3    3  502    0 -0.88245530735E+03 -0.15647768199E+04 -0.48934057147E+03  0.18619097885E+04  0.50400001928E-02 0.  1.
       -1    1    3    3    0  502  0.88245530735E+03  0.15647768199E+04 -0.40112752626E+03  0.18406947487E+04  0.50400001928E-02 0. -1.
</event>
<event>
 5   0  0.3159875E-07  0.3140743E+04  0.7818609E-02  0.8204644E-01
        1   -1    0    0  501    0  0.00000000000E+00  0.00000000000E+00  0.13284138765E+04  0.13284138765E+04  0.50400001928E-02 0.  1.
       -1   -1    0    0    0  501  0.00000000000E+00  0.00000000000E+00 -0.18563996372E+04  0.18563996372E+04  0.50400001928E-02 0. -1.
    10030    2    1    2    0    0  0.00000000000E+00  0.00000000000E+00 -0.52798576070E+03  0.31848135137E+04  0.31407432486E+04 0.  0.
        2    1    3    3  502    0  0.60357382900E+03  0.14351513824E+04 -0.55915678798E+02  0.15579112364E+04  0.25500000920E-02 0.  1.
       -2    1    3    3    0  502 -0.60357382900E+03 -0.14351513824E+04 -0.47207008190E+03  0.16269022772E+04  0.25500000920E-02 0. -1.
</event>
<event>
 5   0  0.9538919E-07  0.3648672E+04  0.7818609E-02  0.8079433E-01
       -2   -1    0    0    0  501  0.00000000000E+00  0.00000000000E+00  0.11897698336E+04  0.11897698336E+04  0.25500000920E-02 0.  1.
        2   -1    0    0  501    0  0.00000000000E+00  0.00000000000E+00 -0.27973495374E+04  0.27973495374E+04  0.25500000920E-02 0. -1.
    10030    2    1    2    0    0  0.00000000000E+00  0.00000000000E+00 -0.16075797038E+04  0.39871193711E+04  0.36486721386E+04 0.  0.
        4    1    3    3  502    0 -0.12621658423E+04 -0.11786626832E+04 -0.14464697981E+04  0.22526839157E+04  0.12699999809E+01 0. -1.
       -4    1    3    3    0  502  0.12621658423E+04  0.11786626832E+04 -0.16110990567E+03  0.17344354554E+04  0.12699999809E+01 0.  1.
</event>
<event>
 5   0  0.3242047E-07  0.3578842E+04  0.7818609E-02  0.8095355E-01
       -1   -1    0    0    0  501  0.00000000000E+00  0.00000000000E+00  0.12852211710E+04  0.12852211710E+04  0.50400001928E-02 0. -1.
        1   -1    0    0  501    0  0.00000000000E+00  0.00000000000E+00 -0.24914216712E+04  0.24914216712E+04  0.50400001928E-02 0.  1.
    10030    2    1    2    0    0  0.00000000000E+00  0.00000000000E+00 -0.12062005002E+04  0.37766428422E+04  0.35788422026E+04 0.  0.
        1    1    3    3  502    0  0.17283333292E+04 -0.41535815738E+03 -0.38588544145E+03  0.18189464175E+04  0.50400001928E-02 0.  1.
       -1    1    3    3    0  502 -0.17283333292E+04  0.41535815738E+03 -0.82031505870E+03  0.19576964247E+04  0.50400001928E-02 0. -1.
</event>
<event>
 5   0  0.3278988E-07  0.3601105E+04  0.7818609E-02  0.8090239E-01
       -1   -1    0    0    0  501  0.00000000000E+00  0.00000000000E+00  0.13236363567E+04  0.13236363567E+04  0.50400001928E-02 0. -1.
        1   -1    0    0  501    0  0.00000000000E+00  0.00000000000E+00 -0.24493054646E+04  0.24493054646E+04  0.50400001928E-02 0.  1.
    10030    2    1    2    0    0  0.00000000000E+00  0.00000000000E+00 -0.11256691079E+04  0.37729418212E+04  0.36011052534E+04 0.  0.
        4    1    3    3  502    0 -0.40644109130E+03 -0.99044477896E+03  0.95393831170E+03  0.14339369360E+04  0.12699999809E+01 0. -1.
       -4    1    3    3    0  502  0.40644109130E+03  0.99044477896E+03 -0.20796074196E+04  0.23390048853E+04  0.12699999809E+01 0.  1.
</event>
<event>
 5   0  0.9878336E-07  0.3705776E+04  0.7818609E-02  0.8066683E-01
        2   -1    0    0  501    0  0.00000000000E+00  0.00000000000E+00  0.19502772336E+04  0.19502772336E+04  0.25500000920E-02 0. -1.
       -2   -1    0    0    0  501  0.00000000000E+00  0.00000000000E+00 -0.17603617539E+04  0.17603617539E+04  0.25500000920E-02 0.  1.
    10030    2    1    2    0    0  0.00000000000E+00  0.00000000000E+00  0.18991547974E+03  0.37106389875E+04  0.37057757361E+04 0.  0.
        3    1    3    3  502    0 -0.16271295367E+04 -0.60587455829E+03  0.74276808170E+03  0.18884752958E+04  0.10100000352E+00 0. -1.
       -3    1    3    3    0  502  0.16271295367E+04  0.60587455829E+03 -0.55285260196E+03  0.18221636917E+04  0.10100000352E+00 0.  1.
</event>
<event>
 5   0  0.3159875E-07  0.3562418E+04  0.7818609E-02  0.8099155E-01
        1   -1    0    0  501    0  0.00000000000E+00  0.00000000000E+00  0.26494922610E+04  0.26494922610E+04  0.50400001928E-02 0. -1.
       -1   -1    0    0    0  501  0.00000000000E+00  0.00000000000E+00 -0.11974770797E+04  0.11974770797E+04  0.50400001928E-02 0.  1.
    10030    2    1    2    0    0  0.00000000000E+00  0.00000000000E+00  0.14520151813E+04  0.38469693407E+04  0.35624184232E+04 0.  0.
        5    1    3    3  502    0 -0.29948429545E+02  0.11471207793E+04 -0.74512297993E+03  0.13682153836E+04  0.46999998093E+01 0.  1.
       -5    1    3    3    0  502  0.29948429545E+02 -0.11471207793E+04  0.21971381612E+04  0.24787539571E+04  0.46999998093E+01 0. -1.
</event>
<event>
 5   0  0.9878336E-07  0.3607978E+04  0.7818609E-02  0.8088667E-01
        2   -1    0    0  501    0  0.00000000000E+00  0.00000000000E+00  0.11312351092E+04  0.11312351092E+04  0.25500000920E-02 0. -1.
       -2   -1    0    0    0  501  0.00000000000E+00  0.00000000000E+00 -0.28768346483E+04  0.28768346483E+04  0.25500000920E-02 0.  1.
    10030    2    1    2    0    0  0.00000000000E+00  0.00000000000E+00 -0.17455995391E+04  0.40080697576E+04  0.36079780252E+04 0.  0.
        3    1    3    3  502    0  0.19371308600E+03  0.16409306482E+04 -0.16771017694E+04  0.23543254888E+04  0.10100000352E+00 0.  1.
       -3    1    3    3    0  502 -0.19371308600E+03 -0.16409306482E+04 -0.68497769718E+02  0.16537442688E+04  0.10100000352E+00 0. -1.
</event>
<event>
 5   0  0.3278988E-07  0.3610715E+04  0.7818609E-02  0.8088042E-01
        1   -1    0    0  501    0  0.00000000000E+00  0.00000000000E+00  0.19114604311E+04  0.19114604311E+04  0.50400001928E-02 0.  1.
       -1   -1    0    0    0  501  0.00000000000E+00  0.00000000000E+00 -0.17051439100E+04  0.17051439100E+04  0.50400001928E-02 0. -1.
    10030    2    1    2    0    0  0.00000000000E+00  0.00000000000E+00  0.20631652105E+03  0.36166043411E+04  0.36107146735E+04 0.  0.
        4    1    3    3  502    0 -0.45523303484E+03 -0.12619795227E+04 -0.11069034187E+04  0.17392717508E+04  0.12699999809E+01 0. -1.
       -4    1    3    3    0  502  0.45523303484E+03  0.12619795227E+04  0.13132199398E+04  0.18773325904E+04  0.12699999809E+01 0.  1.
</event>
<event>
 5   0  0.3159875E-07  0.3505731E+04  0.7818609E-02  0.8112433E-01
        1   -1    0    0  501    0  0.00000000000E+00  0.00000000000E+00  0.25407017805E+04  0.25407017805E+04  0.50400001928E-02 0.  1.
       -1   -1    0    0    0  501  0.00000000000E+00  0.00000000000E+00 -0.12093263406E+04  0.12093263406E+04  0.50400001928E-02 0. -1.
    10030    2    1    2    0    0  0.00000000000E+00  0.00000000000E+00  0.13313754399E+04  0.37500281211E+04  0.35057310716E+04 0.  0.
        5    1    3    3  502    0 -0.13379019955E+04  0.10042101655E+04  0.10566321561E+03  0.16761881193E+04  0.46999998093E+01 0. -1.
       -5    1    3    3    0  502  0.13379019955E+04 -0.10042101655E+04  0.12257122243E+04  0.20738400018E+04  0.46999998093E+01 0.  1.
</event>
<event>
 5   0  0.9878977E-07  0.3604139E+04  0.7818609E-02  0.8089544E-01
       -2   -1    0    0    0  501  0.00000000000E+00  0.00000000000E+00  0.14727968502E+04  0.14727968502E+04  0.25500000920E-02 0. -1.
        2   -1    0    0  501    0  0.00000000000E+00  0.00000000000E+00 -0.22049576970E+04  0.22049576970E+04  0.25500000920E-02 0.  1.
    10030    2    1    2    0    0  0.00000000000E+00  0.00000000000E+00 -0.73216084679E+03  0.36777545472E+04  0.36041391488E+04 0.  0.
        5    1    3    3  502    0 -0.27299075186E+03  0.17804687736E+04 -0.42045727908E+03  0.18497025215E+04  0.46999998093E+01 0. -1.
       -5    1    3    3    0  502  0.27299075186E+03 -0.17804687736E+04 -0.31170356771E+03  0.18280520257E+04  0.46999998093E+01 0.  1.
</event>
<event>
 5   0  0.3242047E-07  0.2874368E+04  0.7818609E-02  0.8280545E-01
       -1   -1    0    0    0  501  0.00000000000E+00  0.00000000000E+00  0.16118680384E+04  0.16118680384E+04  0.50400001928E-02 0.  1.
        1   -1    0    0  501    0  0.00000000000E+00  0.00000000000E+00 -0.12814311263E+04  0.12814311264E+04  0.50400001928E-02 0. -1.
    10030    2    1    2    0    0  0.00000000000E+00  0.00000000000E+00  0.33043691208E+03  0.28932991648E+04  0.28743680182E+04 0.  0.
        1    1    3    3  502    0  0.31043567679E+03 -0.96080468355E+03 -0.86425003782E+03  0.13290764001E+04  0.50400001928E-02 0. -1.
       -1    1    3    3    0  502 -0.31043567679E+03  0.96080468355E+03  0.11946869499E+04  0.15642227647E+04  0.50400001928E-02 0.  1.
</event>
<event>
 5   0  0.9878977E-07  0.3528026E+04  0.7818609E-02  0.8107180E-01
        2   -1    0    0  501    0  0.00000000000E+00  0.00000000000E+00  0.20354264869E+04  0.20354264869E+04  0.25500000920E-02 0.  1.
       -2   -1    0    0    0  501  0.00000000000E+00  0.00000000000E+00 -0.15287908486E+04  0.15287908486E+04  0.25500000920E-02 0. -1.
    10030    2    1    2    0    0  0.00000000000E+00  0.00000000000E+00  0.50663563834E+03  0.35642173355E+04  0.35280257291E+04 0.  0.
        5    1    3    3  502    0 -0.14581562521E+04 -0.45871281492E+03 -0.63610100023E+03  0.16556822384E+04  0.46999998093E+01 0. -1.
       -5    1    3    3    0  502  0.14581562521E+04  0.45871281492E+03  0.11427366386E+04  0.19085350972E+04  0.46999998093E+01 0.  1.
</event>
<event>
 5   0  0.3159875E-07  0.3479563E+04  0.7818609E-02  0.8118650E-01
        1   -1    0    0  501    0  0.00000000000E+00  0.00000000000E+00  0.24090467142E+04  0.24090467142E+04  0.50400001928E-02 0. -1.
       -1   -1    0    0    0  501  0.00000000000E+00  0.00000000000E+00 -0.12564473357E+04  0.12564473357E+04  0.50400001928E-02 0.  1.
    10030    2    1    2    0    0  0.00000000000E+00  0.00000000000E+00  0.11525993785E+04  0.36654940498E+04  0.34795633781E+04 0.  0.
        2    1    3    3  502    0 -0.43628183635E+02 -0.29054150134E+03  0.23827250599E+04  0.24007699793E+04  0.25500000920E-02 0. -1.
       -2    1    3    3    0  502  0.43628183635E+02  0.29054150134E+03 -0.12301256814E+04  0.12647240705E+04  0.25500000920E-02 0.  1.
</event>
<event>
 5   0  0.3365378E-07  0.3401114E+04  0.7818609E-02  0.8137633E-01
        1   -1    0    0  501    0  0.00000000000E+00  0.00000000000E+00  0.24022583624E+04  0.24022583624E+04  0.50400001928E-02 0. -1.
       -1   -1    0    0    0  501  0.00000000000E+00  0.00000000000E+00 -0.12038227889E+04  0.12038227889E+04  0.50400001928E-02 0.  1.
    10030    2    1    2    0    0  0.00000000000E+00  0.00000000000E+00  0.11984355735E+04  0.36060811513E+04  0.34011135597E+04 0.  0.
        3    1    3    3  502    0 -0.14737415003E+04 -0.65628429112E+03  0.11694690605E+04  0.19925563917E+04  0.10100000352E+00 0.  1.
       -3    1    3    3    0  502  0.14737415003E+04  0.65628429112E+03  0.28966512986E+02  0.16135247595E+04  0.10100000352E+00 0. -1.
</event>
<event>
 5   0  0.3159875E-07  0.3596933E+04  0.7818609E-02  0.8091195E-01
       -1   -1    0    0    0  501  0.00000000000E+00  0.00000000000E+00  0.15738694898E+04  0.15738694898E+04  0.50400001928E-02 0.  1.
        1   -1    0    0  501    0  0.00000000000E+00  0.00000000000E+00 -0.20551144469E+04  0.20551144469E+04  0.50400001928E-02 0. -1.
    10030    2    1    2    0    0  0.00000000000E+00  0.00000000000E+00 -0.48124495716E+03  0.36289839367E+04  0.35969330970E+04 0.  0.
        5    1    3    3  502    0  0.14748821305E+04 -0.62870349742E+02 -0.12770196549E+04  0.19519301393E+04  0.46999998093E+01 0. -1.
       -5    1    3    3    0  502 -0.14748821305E+04  0.62870349742E+02  0.79577469774E+03  0.16770537974E+04  0.46999998093E+01 0.  1.
</event>
<event>
 5   0  0.1031659E-06  0.3581604E+04  0.7818609E-02  0.8094718E-01
        2   -1    0    0  501    0  0.00000000000E+00  0.00000000000E+00  0.24734117031E+04  0.24734117031E+04  0.25500000920E-02 0.  1.
       -2   -1    0    0    0  501  0.00000000000E+00  0.00000000000E+00 -0.12965784741E+04  0.12965784741E+04  0.25500000920E-02 0. -1.
    10030    2    1    2    0    0  0.00000000000E+00  0.00000000000E+00  0.11768332289E+04  0.37699901772E+04  0.35816043175E+04 0.  0.
        2    1    3    3  502    0  0.13737578206E+04  0.11435238771E+04  0.70427399019E+03  0.19211609148E+04  0.25500000920E-02 0. -1.
       -2    1    3    3    0  502 -0.13737578206E+04 -0.11435238771E+04  0.47255923876E+03  0.18488292624E+04  0.25500000920E-02 0.  1.
</event>
<event>
 5   0  0.1006019E-06  0.3615087E+04  0.7818609E-02  0.8087044E-01
       -2   -1    0    0    0  501  0.00000000000E+00  0.00000000000E+00  0.25416439852E+04  0.25416439852E+04  0.25500000920E-02 0. -1.
        2   -1    0    0  501    0  0.00000000000E+00  0.00000000000E+00 -0.12854728461E+04  0.12854728461E+04  0.25500000920E-02 0.  1.
    10030    2    1    2    0    0  0.00000000000E+00  0.00000000000E+00  0.12561711391E+04  0.38271168313E+04  0.36150874553E+04 0.  0.
        1    1    3    3  502    0 -0.49205249203E+03  0.13203730400E+04 -0.57044309881E+03  0.15201664214E+04  0.50400001928E-02 0.  1.
       -1    1    3    3    0  502  0.49205249203E+03 -0.13203730400E+04  0.18266142379E+04  0.23069504099E+04  0.50400001928E-02 0. -1.
</event>
<event>
 5   0  0.3242047E-07  0.3620466E+04  0.7818609E-02  0.8085820E-01
        1   -1    0    0  501    0  0.00000000000E+00  0.00000000000E+00  0.19531895011E+04  0.19531895011E+04  0.50400001928E-02 0.  1.
       -1   -1    0    0    0  501  0.00000000000E+00  0.00000000000E+00 -0.16777392672E+04  0.16777392672E+04  0.50400001928E-02 0. -1.
    10030    2    1    2    0    0  0.00000000000E+00  0.00000000000E+00  0.27545023391E+03  0.36309287683E+04  0.36204655625E+04 0.  0.
        1    1    3    3  502    0 -0.21402637253E+03 -0.11808052121E+04  0.14969406228E+04  0.19185774588E+04  0.50400001928E-02 0.  1.
       -1    1    3    3    0  502  0.21402637253E+03  0.11808052121E+04 -0.12214903889E+04  0.17123513095E+04  0.50400001928E-02 0. -1.
</event>
<event>
 5   0  0.3365378E-07  0.3588153E+04  0.7818609E-02  0.8093211E-01
       -1   -1    0    0    0  501  0.00000000000E+00  0.00000000000E+00  0.21248868424E+04  0.21248868424E+04  0.50400001928E-02 0. -1.
        1   -1    0    0  501    0  0.00000000000E+00  0.00000000000E+00 -0.15147679756E+04  0.15147679756E+04  0.50400001928E-02 0.  1.
    10030    2    1    2    0    0  0.00000000000E+00  0.00000000000E+00  0.61011886677E+03  0.36396548181E+04  0.35881530295E+04 0.  0.
        3    1    3    3  502    0 -0.17756386058E+04 -0.51122853826E+02  0.56007302649E+03  0.18625755849E+04  0.10100000352E+00 0. -1.
       -3    1    3    3    0  502  0.17756386058E+04  0.51122853826E+02  0.50045840279E+02  0.17770792331E+04  0.10100000352E+00 0.  1.
</event>
<event>
 5   0  0.3365378E-07  0.3625944E+04  0.7818609E-02  0.8084575E-01
        1   -1    0    0  501    0  0.00000000000E+00  0.00000000000E+00  0.19327622500E+04  0.19327622501E+04  0.50400001928E-02 0. -1.
       -1   -1    0    0    0  501  0.00000000000E+00  0.00000000000E+00 -0.17006061923E+04  0.17006061924E+04  0.50400001928E-02 0.  1.
    10030    2    1    2    0    0  0.00000000000E+00  0.00000000000E+00  0.23215605770E+03  0.36333684424E+04  0.36259439879E+04 0.  0.
        3    1    3    3  502    0  0.92289764566E+03 -0.88027691176E+03  0.14072193396E+04  0.18991823992E+04  0.10100000352E+00 0. -1.
       -3    1    3    3    0  502 -0.92289764566E+03  0.88027691176E+03 -0.11750632819E+04  0.17341860432E+04  0.10100000352E+00 0.  1.
</event>
<event>
 5   0  0.3278988E-07  0.3598535E+04  0.7818609E-02  0.8090827E-01
        1   -1    0    0  501    0  0.00000000000E+00  0.00000000000E+00  0.21866273060E+04  0.21866273060E+04  0.50400001928E-02 0. -1.
       -1   -1    0    0    0  501  0.00000000000E+00  0.00000000000E+00 -0.14805280698E+04  0.14805280698E+04  0.50400001928E-02 0.  1.
    10030    2    1    2    0    0  0.00000000000E+00  0.00000000000E+00  0.70609923624E+03  0.36671553758E+04  0.35985347600E+04 0.  0.
        4    1    3    3  502    0 -0.31285471163E+03 -0.13375062955E+04  0.15373465489E+04  0.20616103379E+04  0.12699999809E+01 0. -1.
       -4    1    3    3    0  502  0.31285471163E+03  0.13375062955E+04 -0.83124731264E+03  0.16055450379E+04  0.12699999809E+01 0.  1.
</event>
<event>
 5   0  0.1006019E-06  0.3439812E+04  0.7818609E-02  0.8128204E-01
        2   -1    0    0  501    0  0.00000000000E+00  0.00000000000E+00  0.13521750117E+04  0.13521750117E+04  0.25500000920E-02 0. -1.
       -2   -1    0    0    0  501  0.00000000000E+00  0.00000000000E+00 -0.21876439249E+04  0.21876439249E+04  0.25500000920E-02 0.  1.
    10030    2    1    2    0    0  0.00000000000E+00  0.00000000000E+00 -0.83546891315E+03  0.35398189366E+04  0.34398124657E+04 0.  0.
        1    1    3    3  502    0 -0.16041359386E+04 -0.41574407620E+03 -0.89153546765E+03  0.18817360964E+04  0.50400001928E-02 0.  1.
       -1    1    3    3    0  502  0.16041359386E+04  0.41574407620E+03  0.56066554503E+02  0.16580828402E+04  0.50400001928E-02 0. -1.
</event>
<event>
 5   0  0.9878336E-07  0.3600778E+04  0.7818609E-02  0.8090314E-01
        2   -1    0    0  501    0  0.00000000000E+00  0.00000000000E+00  0.30244416749E+04  0.30244416749E+04  0.25500000920E-02 0.  1.
       -2   -1    0    0    0  501  0.00000000000E+00  0.00000000000E+00 -0.10717350748E+04  0.10717350748E+04  0.25500000920E-02 0. -1.
    10030    2    1    2    0    0  0.00000000000E+00  0.00000000000E+00  0.19527066001E+04  0.40961767498E+04  0.36007778186E+04 0.  0.
        3    1    3    3  502    0  0.11070915801E+04  0.73434438276E+03  0.23586368645E+04  0.27070429085E+04  0.10100000352E+00 0.  1.
       -3    1    3    3    0  502 -0.11070915801E+04 -0.73434438276E+03 -0.40593026440E+03  0.13891338413E+04  0.10100000352E+00 0. -1.
</event>
<event>
 5   0  0.3365378E-07  0.3059050E+04  0.7818609E-02  0.8227067E-01
       -1   -1    0    0    0  501  0.00000000000E+00  0.00000000000E+00  0.13735322112E+04  0.13735322112E+04  0.50400001928E-02 0.  1.
        1   -1    0    0  501    0  0.00000000000E+00  0.00000000000E+00 -0.17032342959E+04  0.17032342959E+04  0.50400001928E-02 0. -1.
    10030    2    1    2    0    0  0.00000000000E+00  0.00000000000E+00 -0.32970208470E+03  0.30767665071E+04  0.30590502897E+04 0.  0.
        3    1    3    3  502    0  0.13286610978E+04  0.86789839358E+02  0.59221956384E+03  0.14572566044E+04  0.10100000352E+00 0.  1.
       -3    1    3    3    0  502 -0.13286610978E+04 -0.86789839358E+02 -0.92192164854E+03  0.16195099028E+04  0.10100000352E+00 0. -1.
</event>
<event>
 5   0  0.9538919E-07  0.3636580E+04  0.7818609E-02  0.8082164E-01
        2   -1    0    0  501    0  0.00000000000E+00  0.00000000000E+00  0.30001519914E+04  0.30001519914E+04  0.25500000920E-02 0.  1.
       -2   -1    0    0    0  501  0.00000000000E+00  0.00000000000E+00 -0.11020039486E+04  0.11020039486E+04  0.25500000920E-02 0. -1.
    10030    2    1    2    0    0  0.00000000000E+00  0.00000000000E+00  0.18981480428E+04  0.41021559400E+04  0.36365804492E+04 0.  0.
        4    1    3    3  502    0  0.15799618497E+03 -0.59626575517E+03  0.28785195940E+04  0.29438702945E+04  0.12699999809E+01 0.  1.
       -4    1    3    3    0  502 -0.15799618497E+03  0.59626575517E+03 -0.98037155112E+03  0.11582856454E+04  0.12699999809E+01 0. -1.
</event>
<event>
 5   0  0.3365378E-07  0.3534297E+04  0.7818609E-02  0.8105710E-01
        1   -1    0    0  501    0  0.00000000000E+00  0.00000000000E+00  0.20393321307E+04  0.20393321307E+04  0.50400001928E-02 0.  1.
       -1   -1    0    0    0  501  0.00000000000E+00  0.00000000000E+00 -0.15312926269E+04  0.15312926269E+04  0.50400001928E-02 0. -1.
    10030    2    1    2    0    0  0.00000000000E+00  0.00000000000E+00  0.50803950386E+03  0.35706247576E+04  0.35342972459E+04 0.  0.
        3    1    3    3  502    0 -0.17363741168E+04 -0.24251195975E+03  0.47767069569E+03  0.18171341249E+04  0.10100000352E+00 0.  1.
       -3    1    3    3    0  502  0.17363741168E+04  0.24251195975E+03  0.30368808170E+02  0.17534906327E+04  0.10100000352E+00 0. -1.
</event>
<event>
 5   0  0.3365378E-07  0.3857174E+04  0.7818609E-02  0.8033996E-01
        1   -1    0    0  501    0  0.00000000000E+00  0.00000000000E+00  0.27960202366E+04  0.27960202366E+04  0.50400001928E-02 0.  1.
       -1   -1    0    0    0  501  0.00000000000E+00  0.00000000000E+00 -0.13302650040E+04  0.13302650040E+04  0.50400001928E-02 0. -1.
    10030    2    1    2    0    0  0.00000000000E+00  0.00000000000E+00  0.14657552326E+04  0.41262852406E+04  0.38571740283E+04 0.  0.
        3    1    3    3  502    0  0.11186503105E+04  0.86202809165E+03 -0.67213963289E+03  0.15640468805E+04  0.10100000352E+00 0. -1.
       -3    1    3    3    0  502 -0.11186503105E+04 -0.86202809165E+03  0.21378948654E+04  0.25622383601E+04  0.10100000352E+00 0.  1.
</event>
<event>
 5   0  0.9878977E-07  0.3491185E+04  0.7818609E-02  0.8115882E-01
        2   -1    0    0  501    0  0.00000000000E+00  0.00000000000E+00  0.19150724995E+04  0.19150724995E+04  0.25500000920E-02 0.  1.
       -2   -1    0    0    0  501  0.00000000000E+00  0.00000000000E+00 -0.15911115048E+04  0.15911115048E+04  0.25500000920E-02 0. -1.
    10030    2    1    2    0    0  0.00000000000E+00  0.00000000000E+00  0.32396099466E+03  0.35061840043E+04  0.34911854069E+04 0.  0.
        5    1    3    3  502    0 -0.34072733692E+03  0.89733490654E+03 -0.13022842098E+04  0.16177982895E+04  0.46999998093E+01 0. -1.
       -5    1    3    3    0  502  0.34072733692E+03 -0.89733490654E+03  0.16262452044E+04  0.18883857147E+04  0.46999998093E+01 0.  1.
</event>
<event>
 5   0  0.3278988E-07  0.3554175E+04  0.7818609E-02  0.8101070E-01
       -1   -1    0    0    0  501  0.00000000000E+00  0.00000000000E+00  0.15730774572E+04  0.15730774573E+04  0.50400001928E-02 0.  1.
        1   -1    0    0  501    0  0.00000000000E+00  0.00000000000E+00 -0.20075556148E+04  0.20075556148E+04  0.50400001928E-02 0. -1.
    10030    2    1    2    0    0  0.00000000000E+00  0.00000000000E+00 -0.43447815751E+03  0.35806330720E+04  0.35541752809E+04 0.  0.
        4    1    3    3  502    0 -0.11133233520E+04 -0.42405967905E+03 -0.15456615779E+04  0.19515088582E+04  0.12699999809E+01 0. -1.
       -4    1    3    3    0  502  0.11133233520E+04  0.42405967905E+03  0.11111834204E+04  0.16291242138E+04  0.12699999809E+01 0.  1.
</event>
<event>
 5   0  0.3365378E-07  0.3599344E+04  0.7818609E-02  0.8090642E-01
       -1   -1    0    0    0  501  0.00000000000E+00  0.00000000000E+00  0.18981496312E+04  0.18981496312E+04  0.50400001928E-02 0.  1.
        1   -1    0    0  501    0  0.00000000000E+00  0.00000000000E+00 -0.17063032288E+04  0.17063032288E+04  0.50400001928E-02 0. -1.
    10030    2    1    2    0    0  0.00000000000E+00  0.00000000000E+00  0.19184640241E+03  0.36044528600E+04  0.35993437426E+04 0.  0.
        3    1    3    3  502    0 -0.10134971880E+04  0.14849009524E+04  0.13883501397E+02  0.17978598806E+04  0.10100000352E+00 0. -1.
       -3    1    3    3    0  502  0.10134971880E+04 -0.14849009524E+04  0.17796290102E+03  0.18065929793E+04  0.10100000352E+00 0.  1.
</event>
<event>
 5   0  0.1031659E-06  0.3621552E+04  0.7818609E-02  0.8085573E-01
       -2   -1    0    0    0  501  0.00000000000E+00  0.00000000000E+00  0.18637362165E+04  0.18637362165E+04  0.25500000920E-02 0.  1.
        2   -1    0    0  501    0  0.00000000000E+00  0.00000000000E+00 -0.17593207250E+04  0.17593207250E+04  0.25500000920E-02 0. -1.
    10030    2    1    2    0    0  0.00000000000E+00  0.00000000000E+00  0.10441549153E+03  0.36230569415E+04  0.36215520162E+04 0.  0.
        2    1    3    3  502    0  0.12940524715E+04  0.70789093997E+03  0.11029909997E+04  0.18418117513E+04  0.25500000920E-02 0.  1.
       -2    1    3    3    0  502 -0.12940524715E+04 -0.70789093997E+03 -0.99857550821E+03  0.17812451901E+04  0.25500000920E-02 0. -1.
</event>
<event>
 5   0  0.3242047E-07  0.3641977E+04  0.7818609E-02  0.8080943E-01
       -1   -1    0    0    0  501  0.00000000000E+00  0.00000000000E+00  0.21410038660E+04  0.21410038660E+04  0.50400001928E-02 0. -1.
        1   -1    0    0  501    0  0.00000000000E+00  0.00000000000E+00 -0.15488058145E+04  0.15488058145E+04  0.50400001928E-02 0.  1.
    10030    2    1    2    0    0  0.00000000000E+00  0.00000000000E+00  0.59219805150E+03  0.36898096805E+04  0.36419770656E+04 0.  0.
        1    1    3    3  502    0 -0.11903409588E+04  0.13418894331E+04 -0.21741518083E+02  0.17938928459E+04  0.50400001928E-02 0. -1.
       -1    1    3    3    0  502  0.11903409588E+04 -0.13418894331E+04  0.61393956958E+03  0.18959168346E+04  0.50400001928E-02 0.  1.
</event>
<event>
 5   0  0.1006019E-06  0.3550783E+04  0.7818609E-02  0.8101859E-01
       -2   -1    0    0    0  501  0.00000000000E+00  0.00000000000E+00  0.13185153326E+04  0.13185153326E+04  0.25500000920E-02 0. -1.
        2   -1    0    0  501    0  0.00000000000E+00  0.00000000000E+00 -0.23905793345E+04  0.23905793345E+04  0.25500000920E-02 0.  1.
    10030    2    1    2    0    0  0.00000000000E+00  0.00000000000E+00 -0.10720640019E+04  0.37090946672E+04  0.35507832975E+04 0.  0.
        1    1    3    3  502    0  0.11960649501E+04  0.11137433458E+04 -0.12605101178E+04  0.20639480038E+04  0.50400001928E-02 0.  1.
       -1    1    3    3    0  502 -0.11960649501E+04 -0.11137433458E+04  0.18844611592E+03  0.16451466634E+04  0.50400001928E-02 0. -1.
</event>
<event>
 5   0  0.3159875E-07  0.3026169E+04  0.7818609E-02  0.8236298E-01
       -1   -1    0    0    0  501  0.00000000000E+00  0.00000000000E+00  0.98409054844E+03  0.98409054845E+03  0.50400001928E-02 0. -1.
        1   -1    0    0  501    0  0.00000000000E+00  0.00000000000E+00 -0.23264362847E+04  0.23264362847E+04  0.50400001928E-02 0.  1.
    10030    2    1    2    0    0  0.00000000000E+00  0.00000000000E+00 -0.13423457362E+04  0.33105268331E+04  0.30261685077E+04 0.  0.
        2    1    3    3  502    0 -0.86810904826E+03 -0.96162592451E+03  0.18400263246E+03  0.13085085812E+04  0.25500000920E-02 0.  1.
       -2    1    3    3    0  502  0.86810904826E+03  0.96162592451E+03 -0.15263483687E+04  0.20020182519E+04  0.25500000920E-02 0. -1.
</event>
<event>
 5   0  0.3278988E-07  0.3469676E+04  0.7818609E-02  0.8121014E-01
       -1   -1    0    0    0  501  0.00000000000E+00  0.00000000000E+00  0.15202739029E+04  0.15202739029E+04  0.50400001928E-02 0.  1.
        1   -1    0    0  501    0  0.00000000000E+00  0.00000000000E+00 -0.19796844991E+04  0.19796844991E+04  0.50400001928E-02 0. -1.
    10030    2    1    2    0    0  0.00000000000E+00  0.00000000000E+00 -0.45941059622E+03  0.34999584021E+04  0.34696758812E+04 0.  0.
        4    1    3    3  502    0  0.11416222727E+03  0.48291477694E+03 -0.19065681025E+04  0.19700871144E+04  0.12699999809E+01 0. -1.
       -4    1    3    3    0  502 -0.11416222727E+03 -0.48291477694E+03  0.14471575063E+04  0.15298712877E+04  0.12699999809E+01 0.  1.
</event>
<event>
 5   0  0.9878336E-07  0.3558991E+04  0.7818609E-02  0.8099950E-01
        2   -1    0    0  501    0  0.00000000000E+00  0.00000000000E+00  0.23003212518E+04  0.23003212518E+04  0.25500000920E-02 0.  1.
       -2   -1    0    0    0  501  0.00000000000E+00  0.00000000000E+00 -0.13765921519E+04  0.13765921519E+04  0.25500000920E-02 0. -1.
    10030    2    1    2    0    0  0.00000000000E+00  0.00000000000E+00  0.92372909991E+03  0.36769134037E+04  0.35589909705E+04 0.  0.
        3    1    3    3  502    0 -0.43148199295E+03  0.99082462614E+03 -0.99872998842E+03  0.14715202173E+04  0.10100000352E+00 0. -1.
       -3    1    3    3    0  502  0.43148199295E+03 -0.99082462614E+03  0.19224590883E+04  0.22053931864E+04  0.10100000352E+00 0.  1.
</event>
<event>
 5   0  0.3365378E-07  0.3585652E+04  0.7818609E-02  0.8093786E-01
       -1   -1    0    0    0  501  0.00000000000E+00  0.00000000000E+00  0.13080211332E+04  0.13080211332E+04  0.50400001928E-02 0. -1.
        1   -1    0    0  501    0  0.00000000000E+00  0.00000000000E+00 -0.24573194841E+04  0.24573194842E+04  0.50400001928E-02 0.  1.
    10030    2    1    2    0    0  0.00000000000E+00  0.00000000000E+00 -0.11492983509E+04  0.37653406174E+04  0.35856524184E+04 0.  0.
        3    1    3    3  502    0  0.46523544203E+03 -0.81340337445E+03 -0.21796936460E+04  0.23725794963E+04  0.10100000352E+00 0.  1.
       -3    1    3    3    0  502 -0.46523544203E+03  0.81340337445E+03  0.10303952950E+04  0.13927611211E+04  0.10100000352E+00 0. -1.
</event>
<event>
 5   0  0.1031659E-06  0.3602606E+04  0.7818609E-02  0.8089895E-01
        2   -1    0    0  501    0  0.00000000000E+00  0.00000000000E+00  0.17770533421E+04  0.17770533421E+04  0.25500000920E-02 0.  1.
       -2   -1    0    0    0  501  0.00000000000E+00  0.00000000000E+00 -0.18258833644E+04  0.18258833644E+04  0.25500000920E-02 0. -1.
    10030    2    1    2    0    0  0.00000000000E+00  0.00000000000E+00 -0.48830022235E+02  0.36029367065E+04  0.36026057986E+04 0.  0.
        2    1    3    3  502    0  0.48856864607E+03 -0.71115223459E+03 -0.16057798147E+04  0.18229003363E+04  0.25500000920E-02 0. -1.
       -2    1    3    3    0  502 -0.48856864607E+03  0.71115223459E+03  0.15569497925E+04  0.17800363702E+04  0.25500000920E-02 0.  1.
</event>
<event>
 5   0  0.9878336E-07  0.3775232E+04  0.7818609E-02  0.8051491E-01
        2   -1    0    0  501    0  0.00000000000E+00  0.00000000000E+00  0.18411933130E+04  0.18411933130E+04  0.25500000920E-02 0. -1.
       -2   -1    0    0    0  501  0.00000000000E+00  0.00000000000E+00 -0.19352094944E+04  0.19352094944E+04  0.25500000920E-02 0.  1.
    10030    2    1    2    0    0  0.00000000000E+00  0.00000000000E+00 -0.94016181423E+02  0.37764028073E+04  0.37752323267E+04 0.  0.
        3    1    3    3  502    0  0.10328775174E+03  0.11358727882E+04 -0.15515420395E+04  0.19256578255E+04  0.10100000352E+00 0.  1.
       -3    1    3    3    0  502 -0.10328775174E+03 -0.11358727882E+04  0.14575258580E+04  0.18507449818E+04  0.10100000352E+00 0. -1.
</event>
<event>
 5   0  0.1031659E-06  0.3149454E+04  0.7818609E-02  0.8202295E-01
        2   -1    0    0  501    0  0.00000000000E+00  0.00000000000E+00  0.21173873178E+04  0.21173873178E+04  0.25500000920E-02 0.  1.
       -2   -1    0    0    0  501  0.00000000000E+00  0.00000000000E+00 -0.11711442105E+04  0.11711442105E+04  0.25500000920E-02 0. -1.
    10030    2    1    2    0    0  0.00000000000E+00  0.00000000000E+00  0.94624310735E+03  0.32885315283E+04  0.31494544915E+04 0.  0.
        2    1    3    3  502    0 -0.93146921949E+03  0.32705705672E+02 -0.85220441945E+03  0.12629160473E+04  0.25500000920E-02 0. -1.
       -2    1    3    3    0  502  0.93146921949E+03 -0.32705705672E+02  0.17984475268E+04  0.20256154810E+04  0.25500000920E-02 0.  1.
</event>
<event>
 5   0  0.9538919E-07  0.3572824E+04  0.7818609E-02  0.8096745E-01
       -2   -1    0    0    0  501  0.00000000000E+00  0.00000000000E+00  0.29585878942E+04  0.29585878942E+04  0.25500000920E-02 0.  1.
        2   -1    0    0  501    0  0.00000000000E+00  0.00000000000E+00 -0.10786456334E+04  0.10786456334E+04  0.25500000920E-02 0. -1.
    10030    2    1    2    0    0  0.00000000000E+00  0.00000000000E+00  0.18799422608E+04  0.40372335276E+04  0.35728240444E+04 0.  0.
        4    1    3    3  502    0 -0.10631451660E+04  0.59182806437E+03  0.24179313668E+04  0.27068305838E+04  0.12699999809E+01 0.  1.
       -4    1    3    3    0  502  0.10631451660E+04 -0.59182806437E+03 -0.53798910602E+03  0.13304029438E+04  0.12699999809E+01 0. -1.
</event>
<event>
 5   0  0.3159875E-07  0.3633460E+04  0.7818609E-02  0.8082870E-01
       -1   -1    0    0    0  501  0.00000000000E+00  0.00000000000E+00  0.26334931640E+04  0.26334931640E+04  0.50400001928E-02 0. -1.
        1   -1    0    0  501    0  0.00000000000E+00  0.00000000000E+00 -0.12532812091E+04  0.12532812091E+04  0.50400001928E-02 0.  1.
    10030    2    1    2    0    0  0.00000000000E+00  0.00000000000E+00  0.13802119550E+04  0.38867743731E+04  0.36334597819E+04 0.  0.
        5    1    3    3  502    0 -0.16456399557E+04 -0.67068678511E+03  0.10939632180E+04  0.20867988019E+04  0.46999998093E+01 0. -1.
       -5    1    3    3    0  502  0.16456399557E+04  0.67068678511E+03  0.28624873701E+03  0.17999755712E+04  0.46999998093E+01 0.  1.
</event>
<event>
 5   0  0.3242047E-07  0.3568801E+04  0.7818609E-02  0.8097676E-01
        1   -1    0    0  501    0  0.00000000000E+00  0.00000000000E+00  0.14657722324E+04  0.14657722324E+04  0.50400001928E-02 0.  1.
       -1   -1    0    0    0  501  0.00000000000E+00  0.00000000000E+00 -0.21722921997E+04  0.21722921997E+04  0.50400001928E-02 0. -1.
    10030    2    1    2    0    0  0.00000000000E+00  0.00000000000E+00 -0.70651996726E+03  0.36380644321E+04  0.35688012480E+04 0.  0.
        1    1    3    3  502    0  0.25507625831E+02 -0.43727548052E+03  0.14101169487E+04  0.14765806087E+04  0.50400001928E-02 0.  1.
       -1    1    3    3    0  502 -0.25507625831E+02  0.43727548052E+03 -0.21166369160E+04  0.21614838234E+04  0.50400001928E-02 0. -1.
</event>
<event>
 5   0  0.1031659E-06  0.3588370E+04  0.7818609E-02  0.8093161E-01
       -2   -1    0    0    0  501  0.00000000000E+00  0.00000000000E+00  0.14214012567E+04  0.14214012567E+04  0.25500000920E-02 0. -1.
        2   -1    0    0  501    0  0.00000000000E+00  0.00000000000E+00 -0.22647363928E+04  0.22647363928E+04  0.25500000920E-02 0.  1.
    10030    2    1    2    0    0  0.00000000000E+00  0.00000000000E+00 -0.84333513610E+03  0.36861376495E+04  0.35883696325E+04 0.  0.
        2    1    3    3  502    0  0.13178200097E+04  0.58548757726E+03 -0.15182994345E+04  0.20939623812E+04  0.25500000920E-02 0.  1.
       -2    1    3    3    0  502 -0.13178200097E+04 -0.58548757726E+03  0.67496429836E+03  0.15921752683E+04  0.25500000920E-02 0. -1.
</event>
<event>
 5   0  0.1031659E-06  0.3411868E+04  0.7818609E-02  0.8135000E-01
       -2   -1    0    0    0  501  0.00000000000E+00  0.00000000000E+00  0.16995880147E+04  0.16995880147E+04  0.25500000920E-02 0.  1.
        2   -1    0    0  501    0  0.00000000000E+00  0.00000000000E+00 -0.17123040291E+04  0.17123040291E+04  0.25500000920E-02 0. -1.
    10030    2    1    2    0    0  0.00000000000E+00  0.00000000000E+00 -0.12716014454E+02  0.34118920438E+04  0.34118683477E+04 0.  0.
        2    1    3    3  502    0 -0.98332034016E+03  0.11705119313E+04  0.75074323751E+03  0.17031243294E+04  0.25500000920E-02 0.  1.
       -2    1    3    3    0  502  0.98332034016E+03 -0.11705119313E+04 -0.76345925196E+03  0.17087677145E+04  0.25500000920E-02 0. -1.
</event>
<event>
 5   0  0.9878336E-07  0.3629155E+04  0.7818609E-02  0.8083846E-01
        2   -1    0    0  501    0  0.00000000000E+00  0.00000000000E+00  0.21112258285E+04  0.21112258285E+04  0.25500000920E-02 0. -1.
       -2   -1    0    0    0  501  0.00000000000E+00  0.00000000000E+00 -0.15596108555E+04  0.15596108555E+04  0.25500000920E-02 0.  1.
    10030    2    1    2    0    0  0.00000000000E+00  0.00000000000E+00  0.55161497302E+03  0.36708366841E+04  0.36291545686E+04 0.  0.
        3    1    3    3  502    0 -0.75192746154E+03 -0.11432878429E+04 -0.92959650629E+03  0.16542828276E+04  0.10100000352E+00 0.  1.
       -3    1    3    3    0  502  0.75192746154E+03  0.11432878429E+04  0.14812114793E+04  0.20165538564E+04  0.10100000352E+00 0. -1.
</event>
<event>
 5   0  0.3159875E-07  0.3772586E+04  0.7818609E-02  0.8052064E-01
        1   -1    0    0  501    0  0.00000000000E+00  0.00000000000E+00  0.13516273011E+04  0.13516273011E+04  0.50400001928E-02 0.  1.
       -1   -1    0    0    0  501  0.00000000000E+00  0.00000000000E+00 -0.26324571842E+04  0.26324571842E+04  0.50400001928E-02 0. -1.
    10030    2    1    2    0    0  0.00000000000E+00  0.00000000000E+00 -0.12808298831E+04  0.39840844852E+04  0.37725858501E+04 0.  0.
        2    1    3    3  502    0 -0.13556045747E+03  0.18166201462E+04 -0.12346682448E+03  0.18258503361E+04  0.25500000920E-02 0.  1.
       -2    1    3    3    0  502  0.13556045747E+03 -0.18166201462E+04 -0.11573630586E+04  0.21582341492E+04  0.25500000920E-02 0. -1.
</event>
<event>
 5   0  0.3242047E-07  0.3608219E+04  0.7818609E-02  0.8088612E-01
       -1   -1    0    0    0  501  0.00000000000E+00  0.00000000000E+00  0.14402826857E+04  0.14402826857E+04  0.50400001928E-02 0. -1.
        1   -1    0    0  501    0  0.00000000000E+00  0.00000000000E+00 -0.22598416607E+04  0.22598416607E+04  0.50400001928E-02 0.  1.
    10030    2    1    2    0    0  0.00000000000E+00  0.00000000000E+00 -0.81955897503E+03  0.37001243464E+04  0.36082188494E+04 0.  0.
        1    1    3    3  502    0  0.71367621178E+03 -0.12549683911E+04 -0.15192480120E+04  0.20958038839E+04  0.50400001928E-02 0.  1.
       -1    1    3    3    0  502 -0.71367621178E+03  0.12549683911E+04  0.69968903694E+03  0.16043204625E+04  0.50400001928E-02 0. -1.
</event>
<event>
 5   0  0.1031659E-06  0.3594793E+04  0.7818609E-02  0.8091685E-01
       -2   -1    0    0    0  501  0.00000000000E+00  0.00000000000E+00  0.16267637183E+04  0.16267637183E+04  0.25500000920E-02 0.  1.
        2   -1    0    0  501    0  0.00000000000E+00  0.00000000000E+00 -0.19859270784E+04  0.19859270784E+04  0.25500000920E-02 0. -1.
    10030    2    1    2    0    0  0.00000000000E+00  0.00000000000E+00 -0.35916336008E+03  0.36126907968E+04  0.35947929668E+04 0.  0.
        2    1    3    3  502    0 -0.68694805989E+03 -0.16088167029E+04 -0.59448739986E+03  0.18475941354E+04  0.25500000920E-02 0.  1.
       -2    1    3    3    0  502  0.68694805989E+03  0.16088167029E+04  0.23532403977E+03  0.17650966614E+04  0.25500000920E-02 0. -1.
</event>
<event>
 5   0  0.9878977E-07  0.3539279E+04  0.7818609E-02  0.8104544E-01
       -2   -1    0    0    0  501  0.00000000000E+00  0.00000000000E+00  0.15594746317E+04  0.15594746317E+04  0.25500000920E-02 0. -1.
        2   -1    0    0  501    0  0.00000000000E+00  0.00000000000E+00 -0.20081275775E+04  0.20081275775E+04  0.25500000920E-02 0.  1.
    10030    2    1    2    0    0  0.00000000000E+00  0.00000000000E+00 -0.44865294585E+03  0.35676022092E+04  0.35392790307E+04 0.  0.
        5    1    3    3  502    0  0.13668315380E+04  0.11126776331E+04 -0.63924301036E+02  0.17636293190E+04  0.46999998093E+01 0.  1.
       -5    1    3    3    0  502 -0.13668315380E+04 -0.11126776331E+04 -0.38472864482E+03  0.18039728902E+04  0.46999998093E+01 0. -1.
</event>
<event>
 5   0  0.3159875E-07  0.2987208E+04  0.7818609E-02  0.8247393E-01
       -1   -1    0    0    0  501  0.00000000000E+00  0.00000000000E+00  0.24350920838E+04  0.24350920838E+04  0.50400001928E-02 0. -1.
        1   -1    0    0  501    0  0.00000000000E+00  0.00000000000E+00 -0.91612677878E+03  0.91612677879E+03  0.50400001928E-02 0.  1.
    10030    2    1    2    0    0  0.00000000000E+00  0.00000000000E+00  0.15189653050E+04  0.33512188626E+04  0.29872081058E+04 0.  0.
        2    1    3    3  502    0  0.21629576365E+03 -0.10566702858E+04  0.19185928760E+04  0.22009849100E+04  0.25500000920E-02 0. -1.
       -2    1    3    3    0  502 -0.21629576365E+03  0.10566702858E+04 -0.39962757100E+03  0.11502339526E+04  0.25500000920E-02 0.  1.
</event>
<event>
 5   0  0.3159875E-07  0.3502717E+04  0.7818609E-02  0.8113146E-01
        1   -1    0    0  501    0  0.00000000000E+00  0.00000000000E+00  0.17524049520E+04  0.17524049520E+04  0.50400001928E-02 0.  1.
       -1   -1    0    0    0  501  0.00000000000E+00  0.00000000000E+00 -0.17503123999E+04  0.17503123999E+04  0.50400001928E-02 0. -1.
    10030    2    1    2    0    0  0.00000000000E+00  0.00000000000E+00  0.20925520743E+01  0.35027173519E+04  0.35027167269E+04 0.  0.
        5    1    3    3  502    0  0.84001307782E+03 -0.14242174439E+04 -0.57620310489E+03  0.17510138225E+04  0.46999998093E+01 0. -1.
       -5    1    3    3    0  502 -0.84001307782E+03  0.14242174439E+04  0.57829565697E+03  0.17517035295E+04  0.46999998093E+01 0.  1.
</event>
<event>
 5   0  0.9538919E-07  0.2815542E+04  0.7818609E-02  0.8298459E-01
        2   -1    0    0  501    0  0.00000000000E+00  0.00000000000E+00  0.11526652933E+04  0.11526652933E+04  0.25500000920E-02 0.  1.
       -2   -1    0    0    0  501  0.00000000000E+00  0.00000000000E+00 -0.17193361794E+04  0.17193361794E+04  0.25500000920E-02 0. -1.
    10030    2    1    2    0    0  0.00000000000E+00  0.00000000000E+00 -0.56667088613E+03  0.28720014726E+04  0.28155419666E+04 0.  0.
        4    1    3    3  502    0  0.12817295540E+03  0.11189533050E+04 -0.11448621142E+04  0.16059874466E+04  0.12699999809E+01 0. -1.
       -4    1    3    3    0  502 -0.12817295540E+03 -0.11189533050E+04  0.57819122803E+03  0.12660140261E+04  0.12699999809E+01 0.  1.
</event>
<event>
 5   0  0.3365378E-07  0.3593060E+04  0.7818609E-02  0.8092083E-01
       -1   -1    0    0    0  501  0.00000000000E+00  0.00000000000E+00  0.21943994246E+04  0.21943994246E+04  0.50400001928E-02 0. -1.
        1   -1    0    0  501    0  0.00000000000E+00  0.00000000000E+00 -0.14707988740E+04  0.14707988741E+04  0.50400001928E-02 0.  1.
    10030    2    1    2    0    0  0.00000000000E+00  0.00000000000E+00  0.72360055058E+03  0.36651982987E+04  0.35930600902E+04 0.  0.
        3    1    3    3  502    0  0.11899069443E+04 -0.38809202460E+03  0.16764838656E+04  0.20921501183E+04  0.10100000352E+00 0. -1.
       -3    1    3    3    0  502 -0.11899069443E+04  0.38809202460E+03 -0.95288331500E+03  0.15730481804E+04  0.10100000352E+00 0.  1.
</event>
<event>
 5   0  0.3159875E-07  0.3573935E+04  0.7818609E-02  0.8096488E-01
       -1   -1    0    0    0  501  0.00000000000E+00  0.00000000000E+00  0.18862988006E+04  0.18862988006E+04  0.50400001928E-02 0. -1.
        1   -1    0    0  501    0  0.00000000000E+00  0.00000000000E+00 -0.16928673720E+04  0.16928673720E+04  0.50400001928E-02 0.  1.
    10030    2    1    2    0    0  0.00000000000E+00  0.00000000000E+00  0.19343142862E+03  0.35791661726E+04  0.35739354741E+04 0.  0.
        2    1    3    3  502    0 -0.19361977504E+02  0.41177972886E+03  0.18380291259E+04  0.18836901282E+04  0.25500000920E-02 0. -1.
       -2    1    3    3    0  502  0.19361977504E+02 -0.41177972886E+03 -0.16445976973E+04  0.16954760444E+04  0.25500000920E-02 0.  1.
</event>
<event>
 5   0  0.1031659E-06  0.3853921E+04  0.7818609E-02  0.8034682E-01
       -2   -1    0    0    0  501  0.00000000000E+00  0.00000000000E+00  0.14186432466E+04  0.14186432466E+04  0.25500000920E-02 0. -1.
        2   -1    0    0  501    0  0.00000000000E+00  0.00000000000E+00 -0.26174134873E+04  0.26174134873E+04  0.25500000920E-02 0.  1.
    10030    2    1    2    0    0  0.00000000000E+00  0.00000000000E+00 -0.11987702407E+04  0.40360567339E+04  0.38539205842E+04 0.  0.
        2    1    3    3  502    0 -0.82790579863E+03 -0.17233097143E+04 -0.85149342899E+03  0.20929083693E+04  0.25500000920E-02 0.  1.
       -2    1    3    3    0  502  0.82790579863E+03  0.17233097143E+04 -0.34727681172E+03  0.19431483646E+04  0.25500000920E-02 0. -1.
</event>
<event>
 5   0  0.9878977E-07  0.3599938E+04  0.7818609E-02  0.8090506E-01
       -2   -1    0    0    0  501  0.00000000000E+00  0.00000000000E+00  0.16338505837E+04  0.16338505837E+04  0.25500000920E-02 0.  1.
        2   -1    0    0  501    0  0.00000000000E+00  0.00000000000E+00 -0.19829768331E+04  0.19829768331E+04  0.25500000920E-02 0. -1.
    10030    2    1    2    0    0  0.00000000000E+00  0.00000000000E+00 -0.34912624940E+03  0.36168274168E+04  0.35999376974E+04 0.  0.
        5    1    3    3  502    0 -0.61793120781E+03 -0.13157052494E+04  0.89199480309E+03  0.17054606708E+04  0.46999998093E+01 0.  1.
       -5    1    3    3    0  502  0.61793120781E+03  0.13157052494E+04 -0.12411210525E+04  0.19113667460E+04  0.46999998093E+01 0. -1.
</event>
<event>
 5   0  0.3278988E-07  0.3629069E+04  0.7818609E-02  0.8083865E-01
        1   -1    0    0  501    0  0.00000000000E+00  0.00000000000E+00  0.16274084391E+04  0.16274084391E+04  0.50400001928E-02 0. -1.
       -1   -1    0    0    0  501  0.00000000000E+00  0.00000000000E+00 -0.20231769494E+04  0.20231769494E+04  0.50400001928E-02 0.  1.
    10030    2    1    2    0    0  0.00000000000E+00  0.00000000000E+00 -0.39576851032E+03  0.36505853885E+04  0.36290688841E+04 0.  0.
        4    1    3    3  502    0  0.27837511868E+03 -0.13527887746E+04  0.98595497503E+03  0.16969499112E+04  0.12699999809E+01 0. -1.
       -4    1    3    3    0  502 -0.27837511868E+03  0.13527887746E+04 -0.13817234853E+04  0.19536354773E+04  0.12699999809E+01 0.  1.
</event>
<event>
 5   0  0.9878977E-07  0.3302589E+04  0.7818609E-02  0.8162237E-01
       -2   -1    0    0    0  501  0.00000000000E+00  0.00000000000E+00  0.12966089344E+04  0.12966089344E+04  0.25500000920E-02 0. -1.
        2   -1    0    0  501    0  0.00000000000E+00  0.00000000000E+00 -0.21030044330E+04  0.21030044330E+04  0.25500000920E-02 0.  1.
    10030    2    1    2    0    0  0.00000000000E+00  0.00000000000E+00 -0.80639549863E+03  0.33996133674E+04  0.33025894912E+04 0.  0.
        5    1    3    3  502    0  0.15762432607E+04 -0.49084215952E+03 -0.36632065660E+03  0.16910593591E+04  0.46999998093E+01 0. -1.
       -5    1    3    3    0  502 -0.15762432607E+04  0.49084215952E+03 -0.44007484203E+03  0.17085540083E+04  0.46999998093E+01 0.  1.
</event>
<event>
 5   0  0.3365378E-07  0.3354213E+04  0.7818609E-02  0.8149236E-01
        1   -1    0    0  501    0  0.00000000000E+00  0.00000000000E+00  0.23716447450E+04  0.23716447450E+04  0.50400001928E-02 0.  1.
       -1   -1    0    0    0  501  0.00000000000E+00  0.00000000000E+00 -0.11859640840E+04  0.11859640840E+04  0.50400001928E-02 0. -1.
    10030    2    1    2    0    0  0.00000000000E+00  0.00000000000E+00  0.11856806610E+04  0.35576088290E+04  0.33542125678E+04 0.  0.
        3    1    3    3  502    0  0.26348042241E+03  0.33135106811E+03  0.23140421686E+04  0.23524469455E+04  0.10100000352E+00 0.  1.
       -3    1    3    3    0  502 -0.26348042241E+03 -0.33135106811E+03 -0.11283615076E+04  0.12051618835E+04  0.10100000352E+00 0. -1.
</event>
<event>
 5   0  0.1031659E-06  0.3545266E+04  0.7818609E-02  0.8103145E-01
       -2   -1    0    0    0  501  0.00000000000E+00  0.00000000000E+00  0.18194244921E+04  0.18194244921E+04  0.25500000920E-02 0.  1.
        2   -1    0    0  501    0  0.00000000000E+00  0.00000000000E+00 -0.17270450399E+04  0.17270450399E+04  0.25500000920E-02 0. -1.
    10030    2    1    2    0    0  0.00000000000E+00  0.00000000000E+00  0.92379452122E+02  0.35464695320E+04  0.35452661647E+04 0.  0.
        2    1    3    3  502    0  0.12177245143E+04  0.47590739639E+03 -0.11512492473E+04  0.17420435333E+04  0.25500000920E-02 0. -1.
       -2    1    3    3    0  502 -0.12177245143E+04 -0.47590739639E+03  0.12436286994E+04  0.18044259987E+04  0.25500000920E-02 0.  1.
</event>
<event>
 5   0  0.9878336E-07  0.3509642E+04  0.7818609E-02  0.8111509E-01
        2   -1    0    0  501    0  0.00000000000E+00  0.00000000000E+00  0.16656814097E+04  0.16656814097E+04  0.25500000920E-02 0. -1.
       -2   -1    0    0    0  501  0.00000000000E+00  0.00000000000E+00 -0.18487312873E+04  0.18487312873E+04  0.25500000920E-02 0.  1.
    10030    2    1    2    0    0  0.00000000000E+00  0.00000000000E+00 -0.18304987763E+03  0.35144126969E+04  0.35096423389E+04 0.  0.
        3    1    3    3  502    0 -0.26899320350E+02  0.76499737505E+03 -0.16727382868E+04  0.18395646071E+04  0.10100000352E+00 0.  1.
       -3    1    3    3    0  502  0.26899320350E+02 -0.76499737505E+03  0.14896884092E+04  0.16748480898E+04  0.10100000352E+00 0. -1.
</event>
<event>
 5   0  0.1006019E-06  0.3583217E+04  0.7818609E-02  0.8094347E-01
        2   -1    0    0  501    0  0.00000000000E+00  0.00000000000E+00  0.28313371245E+04  0.28313371245E+04  0.25500000920E-02 0.  1.
       -2   -1    0    0    0  501  0.00000000000E+00  0.00000000000E+00 -0.11336907759E+04  0.11336907759E+04  0.25500000920E-02 0. -1.
    10030    2    1    2    0    0  0.00000000000E+00  0.00000000000E+00  0.16976463486E+04  0.39650279004E+04  0.35832168684E+04 0.  0.
        1    1    3    3  502    0  0.31878710248E+03  0.14682180194E+04  0.19288186236E+04  0.24449193549E+04  0.50400001928E-02 0.  1.
       -1    1    3    3    0  502 -0.31878710248E+03 -0.14682180194E+04 -0.23117227497E+03  0.15201085455E+04  0.50400001928E-02 0. -1.
</event>
<event>
 5   0  0.3242047E-07  0.3629412E+04  0.7818609E-02  0.8083787E-01
       -1   -1    0    0    0  501  0.00000000000E+00  0.00000000000E+00  0.32730466785E+04  0.32730466785E+04  0.50400001928E-02 0.  1.
        1   -1    0    0  501    0  0.00000000000E+00  0.00000000000E+00 -0.10061446778E+04  0.10061446778E+04  0.50400001928E-02 0. -1.
    10030    2    1    2    0    0  0.00000000000E+00  0.00000000000E+00  0.22669020007E+04  0.42791913563E+04  0.36294123468E+04 0.  0.
        1    1    3    3  502    0 -0.12986516238E+04 -0.18435981485E+03  0.26120306925E+04  0.29228734013E+04  0.50400001928E-02 0.  1.
       -1    1    3    3    0  502  0.12986516238E+04  0.18435981485E+03 -0.34512869182E+03  0.13563179551E+04  0.50400001928E-02 0. -1.
</event>
<event>
 5   0  0.9878336E-07  0.3651006E+04  0.7818609E-02  0.8078907E-01
        2   -1    0    0  501    0  0.00000000000E+00  0.00000000000E+00  0.24870743111E+04  0.24870743111E+04  0.25500000920E-02 0. -1.
       -2   -1    0    0    0  501  0.00000000000E+00  0.00000000000E+00 -0.13399119047E+04  0.13399119047E+04  0.25500000920E-02 0.  1.
    10030    2    1    2    0    0  0.00000000000E+00  0.00000000000E+00  0.11471624064E+04  0.38269862158E+04  0.36510056025E+04 0.  0.
        3    1    3    3  502    0  0.81891320404E+03  0.16226636557E+04  0.75147999556E+03  0.19668193535E+04  0.10100000352E+00 0. -1.
       -3    1    3    3    0  502 -0.81891320404E+03 -0.16226636557E+04  0.39568241082E+03  0.18601668623E+04  0.10100000352E+00 0.  1.
</event>
<event>
 5   0  0.3278988E-07  0.3588218E+04  0.7818609E-02  0.8093196E-01
       -1   -1    0    0    0  501  0.00000000000E+00  0.00000000000E+00  0.24108762911E+04  0.24108762911E+04  0.50400001928E-02 0.  1.
        1   -1    0    0  501    0  0.00000000000E+00  0.00000000000E+00 -0.13351276265E+04  0.13351276266E+04  0.50400001928E-02 0. -1.
    10030    2    1    2    0    0  0.00000000000E+00  0.00000000000E+00  0.10757486646E+04  0.37460039177E+04  0.35882182434E+04 0.  0.
        4    1    3    3  502    0 -0.64855244337E+02 -0.10903383751E+04  0.20237611377E+04  0.22997075314E+04  0.12699999809E+01 0.  1.
       -4    1    3    3    0  502  0.64855244337E+02  0.10903383751E+04 -0.94801247309E+03  0.14462963863E+04  0.12699999809E+01 0. -1.
</event>
<event>
 5   0  0.9878977E-07  0.3570858E+04  0.7818609E-02  0.8097200E-01
        2   -1    0    0  501    0  0.00000000000E+00  0.00000000000E+00  0.21302412487E+04  0.21302412487E+04  0.25500000920E-02 0. -1.
       -2   -1    0    0    0  501  0.00000000000E+00  0.00000000000E+00 -0.14964295022E+04  0.14964295022E+04  0.25500000920E-02 0.  1.
    10030    2    1    2    0    0  0.00000000000E+00  0.00000000000E+00  0.63381174656E+03  0.36266707509E+04  0.35708575168E+04 0.  0.
        5    1    3    3  502    0  0.79060446886E+03 -0.62042909877E+03 -0.11818787453E+04  0.15514016731E+04  0.46999998093E+01 0.  1.
       -5    1    3    3    0  502 -0.79060446886E+03  0.62042909877E+03  0.18156904919E+04  0.20752690777E+04  0.46999998093E+01 0. -1.
</event>
<event>
 5   0  0.3278988E-07  0.3280499E+04  0.7818609E-02  0.8167875E-01
        1   -1    0    0  501    0  0.00000000000E+00  0.00000000000E+00  0.14932324847E+04  0.14932324847E+04  0.50400001928E-02 0. -1.
       -1   -1    0    0    0  501  0.00000000000E+00  0.00000000000E+00 -0.18017411291E+04  0.18017411291E+04  0.50400001928E-02 0.  1.
    10030    2    1    2    0    0  0.00000000000E+00  0.00000000000E+00 -0.30850864438E+03  0.32949736138E+04  0.32804989760E+04 0.  0.
        4    1    3    3  502    0 -0.39398659570E+02  0.90330595521E+03 -0.15288331863E+04  0.17761887364E+04  0.12699999809E+01 0.  1.
       -4    1    3    3    0  502  0.39398659570E+02 -0.90330595521E+03  0.12203245419E+04  0.15187848773E+04  0.12699999809E+01 0. -1.
</event>
<event>
 5   0  0.3159875E-07  0.2812511E+04  0.7818609E-02  0.8299395E-01
        1   -1    0    0  501    0  0.00000000000E+00  0.00000000000E+00  0.17356809352E+04  0.17356809352E+04  0.50400001928E-02 0.  1.
       -1   -1    0    0    0  501  0.00000000000E+00  0.00000000000E+00 -0.11393534551E+04  0.11393534552E+04  0.50400001928E-02 0. -1.
    10030    2    1    2    0    0  0.00000000000E+00  0.00000000000E+00  0.59632748005E+03  0.28750343904E+04  0.28125106724E+04 0.  0.
        5    1    3    3  502    0  0.61930743678E+03 -0.11590839446E+04  0.80980488556E+03  0.15436396388E+04  0.46999998093E+01 0. -1.
       -5    1    3    3    0  502 -0.61930743678E+03  0.11590839446E+04 -0.21347740551E+03  0.13313947516E+04  0.46999998093E+01 0.  1.
</event>
<event>
 5   0  0.1006019E-06  0.3063754E+04  0.7818609E-02  0.8225756E-01
       -2   -1    0    0    0  501  0.00000000000E+00  0.00000000000E+00  0.10272739636E+04  0.10272739636E+04  0.25500000920E-02 0.  1.
        2   -1    0    0  501    0  0.00000000000E+00  0.00000000000E+00 -0.22843434003E+04  0.22843434003E+04  0.25500000920E-02 0. -1.
    10030    2    1    2    0    0  0.00000000000E+00  0.00000000000E+00 -0.12570694367E+04  0.33116173638E+04  0.30637535795E+04 0.  0.
        1    1    3    3  502    0 -0.41071820183E+03  0.12415074799E+04  0.23389790120E+03  0.13284346021E+04  0.50400001928E-02 0.  1.
       -1    1    3    3    0  502  0.41071820183E+03 -0.12415074799E+04 -0.14909673379E+04  0.19831827617E+04  0.50400001928E-02 0. -1.
</event>
<event>
 5   0  0.9538919E-07  0.3468441E+04  0.7818609E-02  0.8121310E-01
        2   -1    0    0  501    0  0.00000000000E+00  0.00000000000E+00  0.21146865252E+04  0.21146865252E+04  0.25500000920E-02 0.  1.
       -2   -1    0    0    0  501  0.00000000000E+00  0.00000000000E+00 -0.14222063919E+04  0.14222063919E+04  0.25500000920E-02 0. -1.
    10030    2    1    2    0    0  0.00000000000E+00  0.00000000000E+00  0.69248013323E+03  0.35368929171E+04  0.34684409714E+04 0.  0.
        4    1    3    3  502    0 -0.32145677844E+03 -0.11903774072E+04  0.15898102026E+04  0.20119221966E+04  0.12699999809E+01 0.  1.
       -4    1    3    3    0  502  0.32145677844E+03  0.11903774072E+04 -0.89733006935E+03  0.15249707205E+04  0.12699999809E+01 0. -1.
</event>
<event>
 5   0  0.9878336E-07  0.3472341E+04  0.7818609E-02  0.8120376E-01
        2   -1    0    0  501    0  0.00000000000E+00  0.00000000000E+00  0.18621921829E+04  0.18621921829E+04  0.25500000920E-02 0. -1.
       -2   -1    0    0    0  501  0.00000000000E+00  0.00000000000E+00 -0.16186767591E+04  0.16186767591E+04  0.25500000920E-02 0.  1.
    10030    2    1    2    0    0  0.00000000000E+00  0.00000000000E+00  0.24351542378E+03  0.34808689420E+04  0.34723405406E+04 0.  0.
        3    1    3    3  502    0  0.10859375544E+04  0.13439845616E+04 -0.48164727550E+02  0.17285469982E+04  0.10100000352E+00 0. -1.
       -3    1    3    3    0  502 -0.10859375544E+04 -0.13439845616E+04  0.29168015133E+03  0.17523219438E+04  0.10100000352E+00 0.  1.
</event>
<event>
 5   0  0.3278988E-07  0.3615588E+04  0.7818609E-02  0.8086930E-01
       -1   -1    0    0    0  501  0.00000000000E+00  0.00000000000E+00  0.14343666866E+04  0.14343666866E+04  0.50400001928E-02 0. -1.
        1   -1    0    0  501    0  0.00000000000E+00  0.00000000000E+00 -0.22784410701E+04  0.22784410701E+04  0.50400001928E-02 0.  1.
    10030    2    1    2    0    0  0.00000000000E+00  0.00000000000E+00 -0.84407438351E+03  0.37128077567E+04  0.36155884546E+04 0.  0.
        4    1    3    3  502    0 -0.88066322075E+03  0.14049739627E+04 -0.11615389829E+04  0.20245231453E+04  0.12699999809E+01 0.  1.
       -4    1    3    3    0  502  0.88066322075E+03 -0.14049739627E+04  0.31746459939E+03  0.16882846114E+04  0.12699999809E+01 0. -1.
</event>
<event>
 5   0  0.3159875E-07  0.3570868E+04  0.7818609E-02  0.8097198E-01
       -1   -1    0    0    0  501  0.00000000000E+00  0.00000000000E+00  0.13779566949E+04  0.13779566949E+04  0.50400001928E-02 0. -1.
        1   -1    0    0  501    0  0.00000000000E+00  0.00000000000E+00 -0.23134063285E+04  0.23134063285E+04  0.50400001928E-02 0.  1.
    10030    2    1    2    0    0  0.00000000000E+00  0.00000000000E+00 -0.93544963360E+03  0.36913630234E+04  0.35708675351E+04 0.  0.
        2    1    3    3  502    0 -0.10312894977E+04  0.14182877724E+04 -0.12072617561E+03  0.17577465810E+04  0.25500000920E-02 0.  1.
       -2    1    3    3    0  502  0.10312894977E+04 -0.14182877724E+04 -0.81472345799E+03  0.19336164424E+04  0.25500000920E-02 0. -1.
</event>
<event>
 5   0  0.9878977E-07  0.3522321E+04  0.7818609E-02  0.8108520E-01
        2   -1    0    0  501    0  0.00000000000E+00  0.00000000000E+00  0.22016072598E+04  0.22016072598E+04  0.25500000920E-02 0. -1.
       -2   -1    0    0    0  501  0.00000000000E+00  0.00000000000E+00 -0.14088284164E+04  0.14088284164E+04  0.25500000920E-02 0.  1.
    10030    2    1    2    0    0  0.00000000000E+00  0.00000000000E+00  0.79277884339E+03  0.36104356761E+04  0.35223213194E+04 0.  0.
        5    1    3    3  502    0 -0.80441806270E+03 -0.13039411651E+04  0.12866285247E+04  0.20006963869E+04  0.46999998093E+01 0. -1.
       -5    1    3    3    0  502  0.80441806270E+03  0.13039411651E+04 -0.49384968134E+03  0.16097392893E+04  0.46999998093E+01 0.  1.
</event>
<event>
 5   0  0.3242047E-07  0.3619853E+04  0.7818609E-02  0.8085959E-01
       -1   -1    0    0    0  501  0.00000000000E+00  0.00000000000E+00  0.12795139819E+04  0.12795139819E+04  0.50400001928E-02 0.  1.
        1   -1    0    0  501    0  0.00000000000E+00  0.00000000000E+00 -0.25602177612E+04  0.25602177612E+04  0.50400001928E-02 0. -1.
    10030    2    1    2    0    0  0.00000000000E+00  0.00000000000E+00 -0.12807037793E+04  0.38397317431E+04  0.36198532689E+04 0.  0.
        1    1    3    3  502    0  0.11564624744E+01  0.82664269584E+03  0.10675734262E+04  0.13502046157E+04  0.50400001928E-02 0.  1.
       -1    1    3    3    0  502 -0.11564624744E+01 -0.82664269584E+03 -0.23482772055E+04  0.24895271273E+04  0.50400001928E-02 0. -1.
</event>
<event>
 5   0  0.9878336E-07  0.3599446E+04  0.7818609E-02  0.8090619E-01
       -2   -1    0    0    0  501  0.00000000000E+00  0.00000000000E+00  0.14513032522E+04  0.14513032522E+04  0.25500000920E-02 0. -1.
        2   -1    0    0  501    0  0.00000000000E+00  0.00000000000E+00 -0.22317890692E+04  0.22317890692E+04  0.25500000920E-02 0.  1.
    10030    2    1    2    0    0  0.00000000000E+00  0.00000000000E+00 -0.78048581697E+03  0.36830923214E+04  0.35994459209E+04 0.  0.
        3    1    3    3  502    0  0.86923213800E+03 -0.51726412428E+03  0.11329316704E+04  0.15187695230E+04  0.10100000352E+00 0. -1.
       -3    1    3    3    0  502 -0.86923213800E+03  0.51726412428E+03 -0.19134174874E+04  0.21643227983E+04  0.10100000352E+00 0.  1.
</event>
<event>
 5   0  0.3159875E-07  0.3557619E+04  0.7818609E-02  0.8100269E-01
       -1   -1    0    0    0  501  0.00000000000E+00  0.00000000000E+00  0.11900695142E+04  0.11900695142E+04  0.50400001928E-02 0. -1.
        1   -1    0    0  501    0  0.00000000000E+00  0.00000000000E+00 -0.26588059365E+04  0.26588059365E+04  0.50400001928E-02 0.  1.
    10030    2    1    2    0    0  0.00000000000E+00  0.00000000000E+00 -0.14687364223E+04  0.38488754507E+04  0.35576193665E+04 0.  0.
        2    1    3    3  502    0 -0.22532925847E+03  0.83772008946E+03 -0.24144422663E+04  0.25655564076E+04  0.25500000920E-02 0.  1.
       -2    1    3    3    0  502  0.22532925847E+03 -0.83772008946E+03  0.94570584407E+03  0.12833190432E+04  0.25500000920E-02 0. -1.
</event>
<event>
 5   0  0.3278988E-07  0.3623977E+04  0.7818609E-02  0.8085021E-01
       -1   -1    0    0    0  501  0.00000000000E+00  0.00000000000E+00  0.12622945706E+04  0.12622945706E+04  0.50400001928E-02 0. -1.
        1   -1    0    0  501    0  0.00000000000E+00  0.00000000000E+00 -0.26010584720E+04  0.26010584720E+04  0.50400001928E-02 0.  1.
    10030    2    1    2    0    0  0.00000000000E+00  0.00000000000E+00 -0.13387639013E+04  0.38633530426E+04  0.36239768139E+04 0.  0.
        4    1    3    3  502    0  0.68309092788E+03 -0.13513172297E+04  0.39166471259E+03  0.15639930725E+04  0.12699999809E+01 0. -1.
       -4    1    3    3    0  502 -0.68309092788E+03  0.13513172297E+04 -0.17304286139E+04  0.22993599700E+04  0.12699999809E+01 0.  1.
</event>
<event>
 5   0  0.3159875E-07  0.3555995E+04  0.7818609E-02  0.8100647E-01
        3   -1    0    0  501    0  0.00000000000E+00  0.00000000000E+00  0.12296268571E+04  0.12296268613E+04  0.10100000352E+00 0. -1.
       -3   -1    0    0    0  501  0.00000000000E+00  0.00000000000E+00 -0.25709218945E+04  0.25709218964E+04  0.10100000352E+00 0.  1.
    10030    2    1    2    0    0  0.00000000000E+00  0.00000000000E+00 -0.13412950373E+04  0.38005487577E+04  0.35559947248E+04 0.  0.
        5    1    3    3  502    0  0.15411307694E+04  0.28669167269E+03  0.22608772838E+03  0.15837973085E+04  0.46999998093E+01 0. -1.
       -5    1    3    3    0  502 -0.15411307694E+04 -0.28669167269E+03 -0.15673827657E+04  0.22167514492E+04  0.46999998093E+01 0.  1.
</event>
<event>
 5   0  0.9538919E-07  0.3486153E+04  0.7818609E-02  0.8117079E-01
       -2   -1    0    0    0  501  0.00000000000E+00  0.00000000000E+00  0.11135218766E+04  0.11135218766E+04  0.25500000920E-02 0. -1.
        2   -1    0    0  501    0  0.00000000000E+00  0.00000000000E+00 -0.27285642310E+04  0.27285642310E+04  0.25500000920E-02 0.  1.
    10030    2    1    2    0    0  0.00000000000E+00  0.00000000000E+00 -0.16150423544E+04  0.38420861077E+04  0.34861531596E+04 0.  0.
        4    1    3    3  502    0 -0.33350095412E+03  0.39986433038E+03  0.10258099137E+04  0.11503920901E+04  0.12699999809E+01 0. -1.
       -4    1    3    3    0  502  0.33350095412E+03 -0.39986433038E+03 -0.26408522681E+04  0.26916940175E+04  0.12699999809E+01 0.  1.
</event>
<event>
 5   0  0.3159875E-07  0.3645793E+04  0.7818609E-02  0.8080082E-01
       -1   -1    0    0    0  501  0.00000000000E+00  0.00000000000E+00  0.18137573114E+04  0.18137573114E+04  0.50400001928E-02 0.  1.
        1   -1    0    0  501    0  0.00000000000E+00  0.00000000000E+00 -0.18320812456E+04  0.18320812457E+04  0.50400001928E-02 0. -1.
    10030    2    1    2    0    0  0.00000000000E+00  0.00000000000E+00 -0.18323934264E+02  0.36458385570E+04  0.36457925088E+04 0.  0.
        5    1    3    3  502    0 -0.16704144303E+04 -0.71777989347E+03 -0.14121029332E+03  0.18235829516E+04  0.46999998093E+01 0.  1.
       -5    1    3    3    0  502  0.16704144303E+04  0.71777989347E+03  0.12288635905E+03  0.18222556055E+04  0.46999998093E+01 0. -1.
</event>
<event>
 5   0  0.1031659E-06  0.3608804E+04  0.7818609E-02  0.8088478E-01
       -2   -1    0    0    0  501  0.00000000000E+00  0.00000000000E+00  0.13009444636E+04  0.13009444636E+04  0.25500000920E-02 0.  1.
        2   -1    0    0  501    0  0.00000000000E+00  0.00000000000E+00 -0.25026946918E+04  0.25026946918E+04  0.25500000920E-02 0. -1.
    10030    2    1    2    0    0  0.00000000000E+00  0.00000000000E+00 -0.12017502282E+04  0.38036391555E+04  0.36088041252E+04 0.  0.
        2    1    3    3  502    0  0.16340960163E+04 -0.32831253709E+03 -0.13294306421E+04  0.21320048651E+04  0.25500000920E-02 0. -1.
       -2    1    3    3    0  502 -0.16340960163E+04  0.32831253709E+03  0.12768041388E+03  0.16716342904E+04  0.25500000920E-02 0.  1.
</event>
<event>
 5   0  0.3278988E-07  0.3604069E+04  0.7818609E-02  0.8089560E-01
       -1   -1    0    0    0  501  0.00000000000E+00  0.00000000000E+00  0.21266483355E+04  0.21266483356E+04  0.50400001928E-02 0.  1.
        1   -1    0    0  501    0  0.00000000000E+00  0.00000000000E+00 -0.15269698138E+04  0.15269698138E+04  0.50400001928E-02 0. -1.
    10030    2    1    2    0    0  0.00000000000E+00  0.00000000000E+00  0.59967852171E+03  0.36536181494E+04  0.36040687080E+04 0.  0.
        4    1    3    3  502    0  0.76152336649E+03 -0.10054220435E+03  0.19523730854E+04  0.20980440534E+04  0.12699999809E+01 0.  1.
       -4    1    3    3    0  502 -0.76152336649E+03  0.10054220435E+03 -0.13526945637E+04  0.15555740960E+04  0.12699999809E+01 0. -1.
</event>
<event>
 5   0  0.3242047E-07  0.3595947E+04  0.7818609E-02  0.8091421E-01
       -1   -1    0    0    0  501  0.00000000000E+00  0.00000000000E+00  0.35179001008E+04  0.35179001008E+04  0.50400001928E-02 0.  1.
        1   -1    0    0  501    0  0.00000000000E+00  0.00000000000E+00 -0.91893121200E+03  0.91893121202E+03  0.50400001928E-02 0. -1.
    10030    2    1    2    0    0  0.00000000000E+00  0.00000000000E+00  0.25989688888E+04  0.44368313128E+04  0.35959467201E+04 0.  0.
        1    1    3    3  502    0  0.52406283200E+03  0.96487843294E+03 -0.45720374183E+03  0.11893979586E+04  0.50400001928E-02 0. -1.
       -1    1    3    3    0  502 -0.52406283200E+03 -0.96487843294E+03  0.30561726306E+04  0.32474333543E+04  0.50400001928E-02 0.  1.
</event>
<event>
 5   0  0.1031659E-06  0.3619158E+04  0.7818609E-02  0.8086117E-01
       -2   -1    0    0    0  501  0.00000000000E+00  0.00000000000E+00  0.27678618671E+04  0.27678618671E+04  0.25500000920E-02 0.  1.
        2   -1    0    0  501    0  0.00000000000E+00  0.00000000000E+00 -0.11830703974E+04  0.11830703974E+04  0.25500000920E-02 0. -1.
    10030    2    1    2    0    0  0.00000000000E+00  0.00000000000E+00  0.15847914697E+04  0.39509322644E+04  0.36191576031E+04 0.  0.
        2    1    3    3  502    0 -0.14461796499E+04  0.91709069307E+03  0.14308926441E+04  0.22315789652E+04  0.25500000920E-02 0.  1.
       -2    1    3    3    0  502  0.14461796499E+04 -0.91709069307E+03  0.15389882556E+03  0.17193532992E+04  0.25500000920E-02 0. -1.
</event>
<event>
 5   0  0.1006019E-06  0.3599164E+04  0.7818609E-02  0.8090683E-01
        2   -1    0    0  501    0  0.00000000000E+00  0.00000000000E+00  0.20602612269E+04  0.20602612269E+04  0.25500000920E-02 0.  1.
       -2   -1    0    0    0  501  0.00000000000E+00  0.00000000000E+00 -0.15718860143E+04  0.15718860143E+04  0.25500000920E-02 0. -1.
    10030    2    1    2    0    0  0.00000000000E+00  0.00000000000E+00  0.48837521259E+03  0.36321472412E+04  0.35991642410E+04 0.  0.
        1    1    3    3  502    0 -0.27724352300E+03  0.70318505580E+03  0.18922988720E+04  0.20376771615E+04  0.50400001928E-02 0.  1.
       -1    1    3    3    0  502  0.27724352300E+03 -0.70318505580E+03 -0.14039236594E+04  0.15944700797E+04  0.50400001928E-02 0. -1.
</event>
<event>
 5   0  0.3159875E-07  0.3632670E+04  0.7818609E-02  0.8083049E-01
        1   -1    0    0  501    0  0.00000000000E+00  0.00000000000E+00  0.14092418144E+04  0.14092418144E+04  0.50400001928E-02 0. -1.
       -1   -1    0    0    0  501  0.00000000000E+00  0.00000000000E+00 -0.23410262825E+04  0.23410262825E+04  0.50400001928E-02 0.  1.
    10030    2    1    2    0    0  0.00000000000E+00  0.00000000000E+00 -0.93178446812E+03  0.37502680969E+04  0.36326696112E+04 0.  0.
        2    1    3    3  502    0 -0.84364976934E+03 -0.27762325358E+03 -0.21015600958E+04  0.22815289699E+04  0.25500000920E-02 0.  1.
       -2    1    3    3    0  502  0.84364976934E+03  0.27762325358E+03  0.11697756277E+04  0.14687391270E+04  0.25500000920E-02 0. -1.
</event>
<event>
 5   0  0.3242047E-07  0.3607532E+04  0.7818609E-02  0.8088769E-01
       -1   -1    0    0    0  501  0.00000000000E+00  0.00000000000E+00  0.20394713272E+04  0.20394713272E+04  0.50400001928E-02 0. -1.
        1   -1    0    0  501    0  0.00000000000E+00  0.00000000000E+00 -0.15953017643E+04  0.15953017643E+04  0.50400001928E-02 0.  1.
    10030    2    1    2    0    0  0.00000000000E+00  0.00000000000E+00  0.44416956290E+03  0.36347730916E+04  0.36075322350E+04 0.  0.
        1    1    3    3  502    0  0.20399640494E+03 -0.40568219248E+03 -0.15367715406E+04  0.16024541624E+04  0.50400001928E-02 0.  1.
       -1    1    3    3    0  502 -0.20399640494E+03  0.40568219248E+03  0.19809411035E+04  0.20323189292E+04  0.50400001928E-02 0. -1.
</event>
<event>
 5   0  0.3242047E-07  0.3620161E+04  0.7818609E-02  0.8085889E-01
       -1   -1    0    0    0  501  0.00000000000E+00  0.00000000000E+00  0.32351797354E+04  0.32351797354E+04  0.50400001928E-02 0. -1.
        1   -1    0    0  501    0  0.00000000000E+00  0.00000000000E+00 -0.10127386188E+04  0.10127386188E+04  0.50400001928E-02 0.  1.
    10030    2    1    2    0    0  0.00000000000E+00  0.00000000000E+00  0.22224411166E+04  0.42479183542E+04  0.36201610222E+04 0.  0.
        1    1    3    3  502    0 -0.26066120286E+03  0.15365742721E+04  0.31058061287E+02  0.15588358988E+04  0.50400001928E-02 0.  1.
       -1    1    3    3    0  502  0.26066120286E+03 -0.15365742721E+04  0.21913830553E+04  0.26890824553E+04  0.50400001928E-02 0. -1.
</event>
<event>
 5   0  0.9538919E-07  0.3594366E+04  0.7818609E-02  0.8091783E-01
       -2   -1    0    0    0  501  0.00000000000E+00  0.00000000000E+00  0.15308772516E+04  0.15308772516E+04  0.25500000920E-02 0.  1.
        2   -1    0    0  501    0  0.00000000000E+00  0.00000000000E+00 -0.21098145646E+04  0.21098145646E+04  0.25500000920E-02 0. -1.
    10030    2    1    2    0    0  0.00000000000E+00  0.00000000000E+00 -0.57893731298E+03  0.36406918161E+04  0.35943662150E+04 0.  0.
        4    1    3    3  502    0 -0.44269918079E+03 -0.14406220215E+04  0.70217501457E+03  0.16626562295E+04  0.12699999809E+01 0.  1.
       -4    1    3    3    0  502  0.44269918079E+03  0.14406220215E+04 -0.12811123276E+04  0.19780355867E+04  0.12699999809E+01 0. -1.
</event>
<event>
 5   0  0.3365378E-07  0.2729536E+04  0.7818609E-02  0.8325485E-01
        1   -1    0    0  501    0  0.00000000000E+00  0.00000000000E+00  0.16068438870E+04  0.16068438870E+04  0.50400001928E-02 0. -1.
       -1   -1    0    0    0  501  0.00000000000E+00  0.00000000000E+00 -0.11591618446E+04  0.11591618447E+04  0.50400001928E-02 0.  1.
    10030    2    1    2    0    0  0.00000000000E+00  0.00000000000E+00  0.44768204236E+03  0.27660057317E+04  0.27295363153E+04 0.  0.
        3    1    3    3  502    0  0.12073061425E+04 -0.11718636465E+03  0.85771543562E+03  0.14855963598E+04  0.10100000352E+00 0. -1.
       -3    1    3    3    0  502 -0.12073061425E+04  0.11718636465E+03 -0.41003339326E+03  0.12804093718E+04  0.10100000352E+00 0.  1.
</event>
<event>
 5   0  0.3242047E-07  0.3466057E+04  0.7818609E-02  0.8121881E-01
       -1   -1    0    0    0  501  0.00000000000E+00  0.00000000000E+00  0.13962370546E+04  0.13962370546E+04  0.50400001928E-02 0. -1.
        1   -1    0    0  501    0  0.00000000000E+00  0.00000000000E+00 -0.21510590812E+04  0.21510590812E+04  0.50400001928E-02 0.  1.
    10030    2    1    2    0    0  0.00000000000E+00  0.00000000000E+00 -0.75482202667E+03  0.35472961358E+04  0.34660573543E+04 0.  0.
        1    1    3    3  502    0  0.40455087268E+03 -0.14583385763E+04  0.48675867669E+03  0.15897631336E+04  0.50400001928E-02 0.  1.
       -1    1    3    3    0  502 -0.40455087268E+03  0.14583385763E+04 -0.12415807034E+04  0.19575330022E+04  0.50400001928E-02 0. -1.
</event>
<event>
 5   0  0.3242047E-07  0.3645866E+04  0.7818609E-02  0.8080066E-01
       -1   -1    0    0    0  501  0.00000000000E+00  0.00000000000E+00  0.13497005032E+04  0.13497005032E+04  0.50400001928E-02 0.  1.
        1   -1    0    0  501    0  0.00000000000E+00  0.00000000000E+00 -0.24620902656E+04  0.24620902656E+04  0.50400001928E-02 0. -1.
    10030    2    1    2    0    0  0.00000000000E+00  0.00000000000E+00 -0.11123897624E+04  0.38117907688E+04  0.36458658617E+04 0.  0.
        1    1    3    3  502    0  0.10692317874E+04  0.14609236396E+04 -0.33310643855E+03  0.18407917849E+04  0.50400001928E-02 0. -1.
       -1    1    3    3    0  502 -0.10692317874E+04 -0.14609236396E+04 -0.77928332385E+03  0.19709989839E+04  0.50400001928E-02 0.  1.
</event>
<event>
 5   0  0.9538919E-07  0.3436370E+04  0.7818609E-02  0.8129037E-01
        2   -1    0    0  501    0  0.00000000000E+00  0.00000000000E+00  0.23810773098E+04  0.23810773098E+04  0.25500000920E-02 0.  1.
       -2   -1    0    0    0  501  0.00000000000E+00  0.00000000000E+00 -0.12398423154E+04  0.12398423154E+04  0.25500000920E-02 0. -1.
    10030    2    1    2    0    0  0.00000000000E+00  0.00000000000E+00  0.11412349944E+04  0.36209196253E+04  0.34363704137E+04 0.  0.
        4    1    3    3  502    0  0.63640339197E+03  0.97543793092E+03 -0.76042064941E+03  0.13909455817E+04  0.12699999809E+01 0. -1.
       -4    1    3    3    0  502 -0.63640339197E+03 -0.97543793092E+03  0.19016556438E+04  0.22299740435E+04  0.12699999809E+01 0.  1.
</event>
<event>
 5   0  0.9878336E-07  0.3614807E+04  0.7818609E-02  0.8087108E-01
        2   -1    0    0  501    0  0.00000000000E+00  0.00000000000E+00  0.15424017971E+04  0.15424017971E+04  0.25500000920E-02 0.  1.
       -2   -1    0    0    0  501  0.00000000000E+00  0.00000000000E+00 -0.21179357718E+04  0.21179357718E+04  0.25500000920E-02 0. -1.
    10030    2    1    2    0    0  0.00000000000E+00  0.00000000000E+00 -0.57553397469E+03  0.36603375689E+04  0.36148072926E+04 0.  0.
        3    1    3    3  502    0 -0.14821643189E+04 -0.91300327465E+03  0.20448554443E+03  0.17527693504E+04  0.10100000352E+00 0.  1.
       -3    1    3    3    0  502  0.14821643189E+04  0.91300327465E+03 -0.78001951913E+03  0.19075682185E+04  0.10100000352E+00 0. -1.
</event>
<event>
 5   0  0.9878977E-07  0.3576346E+04  0.7818609E-02  0.8095931E-01
       -2   -1    0    0    0  501  0.00000000000E+00  0.00000000000E+00  0.24613520928E+04  0.24613520928E+04  0.25500000920E-02 0.  1.
        2   -1    0    0  501    0  0.00000000000E+00  0.00000000000E+00 -0.12991084034E+04  0.12991084034E+04  0.25500000920E-02 0. -1.
    10030    2    1    2    0    0  0.00000000000E+00  0.00000000000E+00  0.11622436894E+04  0.37604604962E+04  0.35763462849E+04 0.  0.
        5    1    3    3  502    0  0.14756506962E+04 -0.75384852464E+03 -0.12557086249E+03  0.16618130781E+04  0.46999998093E+01 0. -1.
       -5    1    3    3    0  502 -0.14756506962E+04  0.75384852464E+03  0.12878145519E+04  0.20986474180E+04  0.46999998093E+01 0.  1.
</event>
<event>
 5   0  0.9878336E-07  0.3590232E+04  0.7818609E-02  0.8092733E-01
        2   -1    0    0  501    0  0.00000000000E+00  0.00000000000E+00  0.12257927505E+04  0.12257927505E+04  0.25500000920E-02 0. -1.
       -2   -1    0    0    0  501  0.00000000000E+00  0.00000000000E+00 -0.26288638231E+04  0.26288638231E+04  0.25500000920E-02 0.  1.
    10030    2    1    2    0    0  0.00000000000E+00  0.00000000000E+00 -0.14030710726E+04  0.38546565737E+04  0.35902324251E+04 0.  0.
        3    1    3    3  502    0  0.95027787616E+02  0.40001284659E+03  0.11745606217E+04  0.12444409275E+04  0.10100000352E+00 0. -1.
       -3    1    3    3    0  502 -0.95027787616E+02 -0.40001284659E+03 -0.25776316943E+04  0.26102156462E+04  0.10100000352E+00 0.  1.
</event>
<event>
 5   0  0.3159875E-07  0.3599387E+04  0.7818609E-02  0.8090632E-01
        1   -1    0    0  501    0  0.00000000000E+00  0.00000000000E+00  0.13109821260E+04  0.13109821261E+04  0.50400001928E-02 0. -1.
       -1   -1    0    0    0  501  0.00000000000E+00  0.00000000000E+00 -0.24705880066E+04  0.24705880066E+04  0.50400001928E-02 0.  1.
    10030    2    1    2    0    0  0.00000000000E+00  0.00000000000E+00 -0.11596058806E+04  0.37815701327E+04  0.35993870131E+04 0.  0.
        5    1    3    3  502    0 -0.23134323280E+03  0.16218387499E+04  0.20288340999E+03  0.16507769050E+04  0.46999998093E+01 0. -1.
       -5    1    3    3    0  502  0.23134323280E+03 -0.16218387499E+04 -0.13624892906E+04  0.21307932276E+04  0.46999998093E+01 0.  1.
</event>
<event>
 5   0  0.9878977E-07  0.3615432E+04  0.7818609E-02  0.8086966E-01
        2   -1    0    0  501    0  0.00000000000E+00  0.00000000000E+00  0.11730188076E+04  0.11730188076E+04  0.25500000920E-02 0. -1.
       -2   -1    0    0    0  501  0.00000000000E+00  0.00000000000E+00 -0.27858348835E+04  0.27858348835E+04  0.25500000920E-02 0.  1.
    10030    2    1    2    0    0  0.00000000000E+00  0.00000000000E+00 -0.16128160759E+04  0.39588536912E+04  0.36154317658E+04 0.  0.
        5    1    3    3  502    0 -0.15042972044E+04  0.41433524420E+03 -0.18059291058E+04  0.23866264473E+04  0.46999998093E+01 0. -1.
       -5    1    3    3    0  502  0.15042972044E+04 -0.41433524420E+03  0.19311302995E+03  0.15722272438E+04  0.46999998093E+01 0.  1.
</event>
<event>
 5   0  0.1031659E-06  0.3464183E+04  0.7818609E-02  0.8122331E-01
        2   -1    0    0  501    0  0.00000000000E+00  0.00000000000E+00  0.28648045468E+04  0.28648045468E+04  0.25500000920E-02 0. -1.
       -2   -1    0    0    0  501  0.00000000000E+00  0.00000000000E+00 -0.10472412396E+04  0.10472412396E+04  0.25500000920E-02 0.  1.
    10030    2    1    2    0    0  0.00000000000E+00  0.00000000000E+00  0.18175633071E+04  0.39120457864E+04  0.34641832890E+04 0.  0.
        2    1    3    3  502    0  0.14012191762E+04  0.60673070163E+03 -0.14613514727E+02  0.15270071640E+04  0.25500000920E-02 0.  1.
       -2    1    3    3    0  502 -0.14012191762E+04 -0.60673070163E+03  0.18321768219E+04  0.23850386225E+04  0.25500000920E-02 0. -1.
</event>
<event>
 5   0  0.9878977E-07  0.3123927E+04  0.7818609E-02  0.8209202E-01
        2   -1    0    0  501    0  0.00000000000E+00  0.00000000000E+00  0.21704355585E+04  0.21704355585E+04  0.25500000920E-02 0.  1.
       -2   -1    0    0    0  501  0.00000000000E+00  0.00000000000E+00 -0.11240741338E+04  0.11240741338E+04  0.25500000920E-02 0. -1.
    10030    2    1    2    0    0  0.00000000000E+00  0.00000000000E+00  0.10463614247E+04  0.32945096923E+04  0.31239273170E+04 0.  0.
        5    1    3    3  502    0 -0.31588580260E+03  0.41285983939E+02 -0.10894411935E+04  0.11350738200E+04  0.46999998093E+01 0. -1.
       -5    1    3    3    0  502  0.31588580260E+03 -0.41285983939E+02  0.21358026182E+04  0.21594358723E+04  0.46999998093E+01 0.  1.
</event>
<event>
 5   0  0.3242047E-07  0.3609268E+04  0.7818609E-02  0.8088372E-01
       -1   -1    0    0    0  501  0.00000000000E+00  0.00000000000E+00  0.19035676704E+04  0.19035676704E+04  0.50400001928E-02 0.  1.
        1   -1    0    0  501    0  0.00000000000E+00  0.00000000000E+00 -0.17108426052E+04  0.17108426052E+04  0.50400001928E-02 0. -1.
    10030    2    1    2    0    0  0.00000000000E+00  0.00000000000E+00  0.19272506522E+03  0.36144102756E+04  0.36092684424E+04 0.  0.
        1    1    3    3  502    0 -0.10023935674E+03 -0.53171141250E+03 -0.16276997354E+04  0.17152758913E+04  0.50400001928E-02 0. -1.
       -1    1    3    3    0  502  0.10023935674E+03  0.53171141250E+03  0.18204248006E+04  0.18991343843E+04  0.50400001928E-02 0.  1.
</event>
<event>
 5   0  0.1031659E-06  0.3628066E+04  0.7818609E-02  0.8084093E-01
        2   -1    0    0  501    0  0.00000000000E+00  0.00000000000E+00  0.31143484326E+04  0.31143484326E+04  0.25500000920E-02 0. -1.
       -2   -1    0    0    0  501  0.00000000000E+00  0.00000000000E+00 -0.10566307444E+04  0.10566307444E+04  0.25500000920E-02 0.  1.
    10030    2    1    2    0    0  0.00000000000E+00  0.00000000000E+00  0.20577176882E+04  0.41709791771E+04  0.36280663185E+04 0.  0.
        2    1    3    3  502    0  0.75047551764E+03  0.31933562834E+02  0.29271560370E+04  0.30219986300E+04  0.25500000920E-02 0. -1.
       -2    1    3    3    0  502 -0.75047551764E+03 -0.31933562834E+02 -0.86943834881E+03  0.11489805470E+04  0.25500000920E-02 0.  1.
</event>
<event>
 5   0  0.3159875E-07  0.3613801E+04  0.7818609E-02  0.8087338E-01
       -1   -1    0    0    0  501  0.00000000000E+00  0.00000000000E+00  0.31745355785E+04  0.31745355785E+04  0.50400001928E-02 0.  1.
        1   -1    0    0  501    0  0.00000000000E+00  0.00000000000E+00 -0.10284621582E+04  0.10284621582E+04  0.50400001928E-02 0. -1.
    10030    2    1    2    0    0  0.00000000000E+00  0.00000000000E+00  0.21460734203E+04  0.42029977367E+04  0.36138011635E+04 0.  0.
        5    1    3    3  502    0 -0.71925180976E+03 -0.10227825262E+04 -0.44403398953E+03  0.13268743481E+04  0.46999998093E+01 0. -1.
       -5    1    3    3    0  502  0.71925180976E+03  0.10227825262E+04  0.25901074098E+04  0.28761233886E+04  0.46999998093E+01 0.  1.
</event>
<event>
 5   0  0.3365378E-07  0.3523111E+04  0.7818609E-02  0.8108335E-01
        1   -1    0    0  501    0  0.00000000000E+00  0.00000000000E+00  0.10003916450E+04  0.10003916450E+04  0.50400001928E-02 0.  1.
       -1   -1    0    0    0  501  0.00000000000E+00  0.00000000000E+00 -0.31018622390E+04  0.31018622390E+04  0.50400001928E-02 0. -1.
    10030    2    1    2    0    0  0.00000000000E+00  0.00000000000E+00 -0.21014705939E+04  0.41022538840E+04  0.35231105960E+04 0.  0.
        3    1    3    3  502    0 -0.17149352304E+03 -0.12549394188E+04 -0.24762353685E+04  0.27813709900E+04  0.10100000352E+00 0. -1.
       -3    1    3    3    0  502  0.17149352304E+03  0.12549394188E+04  0.37476477461E+03  0.13208828940E+04  0.10100000352E+00 0.  1.
</event>
<event>
 5   0  0.9538919E-07  0.3625581E+04  0.7818609E-02  0.8084657E-01
        2   -1    0    0  501    0  0.00000000000E+00  0.00000000000E+00  0.27701877063E+04  0.27701877063E+04  0.25500000920E-02 0.  1.
       -2   -1    0    0    0  501  0.00000000000E+00  0.00000000000E+00 -0.11862765751E+04  0.11862765751E+04  0.25500000920E-02 0. -1.
    10030    2    1    2    0    0  0.00000000000E+00  0.00000000000E+00  0.15839111312E+04  0.39564642814E+04  0.36255806622E+04 0.  0.
        4    1    3    3  502    0  0.27527512530E+03  0.78860489889E+03 -0.96376961605E+03  0.12753538987E+04  0.12699999809E+01 0. -1.
       -4    1    3    3    0  502 -0.27527512530E+03 -0.78860489889E+03  0.25476807473E+04  0.26811103827E+04  0.12699999809E+01 0.  1.
</event>
<event>
 5   0  0.3159875E-07  0.3448545E+04  0.7818609E-02  0.8126093E-01
        1   -1    0    0  501    0  0.00000000000E+00  0.00000000000E+00  0.16267504191E+04  0.16267504191E+04  0.50400001928E-02 0. -1.
       -1   -1    0    0    0  501  0.00000000000E+00  0.00000000000E+00 -0.18276411786E+04  0.18276411786E+04  0.50400001928E-02 0.  1.
    10030    2    1    2    0    0  0.00000000000E+00  0.00000000000E+00 -0.20089075951E+03  0.34543915977E+04  0.34485452314E+04 0.  0.
        5    1    3    3  502    0  0.16808006821E+04 -0.11849054454E+03  0.26618471292E+03  0.17058743604E+04  0.46999998093E+01 0. -1.
       -5    1    3    3    0  502 -0.16808006821E+04  0.11849054454E+03 -0.46707547243E+03  0.17485172373E+04  0.46999998093E+01 0.  1.
</event>
<event>
 5   0  0.3242047E-07  0.3599847E+04  0.7818609E-02  0.8090527E-01
       -1   -1    0    0    0  501  0.00000000000E+00  0.00000000000E+00  0.26466969197E+04  0.26466969197E+04  0.50400001928E-02 0. -1.
        1   -1    0    0  501    0  0.00000000000E+00  0.00000000000E+00 -0.12240634309E+04  0.12240634309E+04  0.50400001928E-02 0.  1.
    10030    2    1    2    0    0  0.00000000000E+00  0.00000000000E+00  0.14226334888E+04  0.38707603505E+04  0.35998471701E+04 0.  0.
        1    1    3    3  502    0  0.25508945190E+03  0.49409145175E+02  0.26264252805E+04  0.26392464164E+04  0.50400001928E-02 0. -1.
       -1    1    3    3    0  502 -0.25508945190E+03 -0.49409145175E+02 -0.12037917918E+04  0.12315139342E+04  0.50400001928E-02 0.  1.
</event>
<event>
 5   0  0.3159875E-07  0.3626908E+04  0.7818609E-02  0.8084356E-01
        1   -1    0    0  501    0  0.00000000000E+00  0.00000000000E+00  0.26766249919E+04  0.26766249919E+04  0.50400001928E-02 0.  1.
       -1   -1    0    0    0  501  0.00000000000E+00  0.00000000000E+00 -0.12286426372E+04  0.12286426372E+04  0.50400001928E-02 0. -1.
    10030    2    1    2    0    0  0.00000000000E+00  0.00000000000E+00  0.14479823547E+04  0.39052676291E+04  0.36269080986E+04 0.  0.
        5    1    3    3  502    0 -0.10608459472E+04  0.29601621385E+03 -0.82726433528E+03  0.13774643708E+04  0.46999998093E+01 0. -1.
       -5    1    3    3    0  502  0.10608459472E+04 -0.29601621385E+03  0.22752466899E+04  0.25278032583E+04  0.46999998093E+01 0.  1.
</event>
<event>
 5   0  0.9878977E-07  0.3570196E+04  0.7818609E-02  0.8097353E-01
       -2   -1    0    0    0  501  0.00000000000E+00  0.00000000000E+00  0.11115481630E+04  0.11115481630E+04  0.25500000920E-02 0. -1.
        2   -1    0    0  501    0  0.00000000000E+00  0.00000000000E+00 -0.28667897050E+04  0.28667897050E+04  0.25500000920E-02 0.  1.
    10030    2    1    2    0    0  0.00000000000E+00  0.00000000000E+00 -0.17552415420E+04  0.39783378679E+04  0.35701959779E+04 0.  0.
        5    1    3    3  502    0 -0.24972132210E+02 -0.10330180847E+04 -0.24996357974E+04  0.27048015048E+04  0.46999998093E+01 0.  1.
       -5    1    3    3    0  502  0.24972132210E+02  0.10330180847E+04  0.74439425539E+03  0.12735363631E+04  0.46999998093E+01 0. -1.
</event>
<event>
 5   0  0.3242047E-07  0.3607720E+04  0.7818609E-02  0.8088726E-01
       -1   -1    0    0    0  501  0.00000000000E+00  0.00000000000E+00  0.22870455988E+04  0.22870455988E+04  0.50400001928E-02 0.  1.
        1   -1    0    0  501    0  0.00000000000E+00  0.00000000000E+00 -0.14227575233E+04  0.14227575233E+04  0.50400001928E-02 0. -1.
    10030    2    1    2    0    0  0.00000000000E+00  0.00000000000E+00  0.86428807552E+03  0.37098031222E+04  0.36077202397E+04 0.  0.
        1    1    3    3  502    0 -0.48736373624E+03  0.16514630402E+04 -0.12070978432E+03  0.17261009347E+04  0.50400001928E-02 0. -1.
       -1    1    3    3    0  502  0.48736373624E+03 -0.16514630402E+04  0.98499785985E+03  0.19837021875E+04  0.50400001928E-02 0.  1.
</event>
<event>
 5   0  0.3159875E-07  0.3599021E+04  0.7818609E-02  0.8090716E-01
        3   -1    0    0  501    0  0.00000000000E+00  0.00000000000E+00  0.17154150811E+04  0.17154150841E+04  0.10100000352E+00 0. -1.
       -3   -1    0    0    0  501  0.00000000000E+00  0.00000000000E+00 -0.18877282338E+04  0.18877282365E+04  0.10100000352E+00 0.  1.
    10030    2    1    2    0    0  0.00000000000E+00  0.00000000000E+00 -0.17231315269E+03  0.36031433206E+04  0.35990206954E+04 0.  0.
        1    1    3    3  502    0 -0.84727961734E+03  0.12792599120E+04 -0.10273658253E+04  0.18465831180E+04  0.50400001928E-02 0. -1.
       -1    1    3    3    0  502  0.84727961734E+03 -0.12792599120E+04  0.85505267263E+03  0.17565602026E+04  0.50400001928E-02 0.  1.
</event>
<event>
 5   0  0.9878977E-07  0.3611055E+04  0.7818609E-02  0.8087964E-01
        2   -1    0    0  501    0  0.00000000000E+00  0.00000000000E+00  0.16955336414E+04  0.16955336414E+04  0.25500000920E-02 0. -1.
       -2   -1    0    0    0  501  0.00000000000E+00  0.00000000000E+00 -0.19226570353E+04  0.19226570353E+04  0.25500000920E-02 0.  1.
    10030    2    1    2    0    0  0.00000000000E+00  0.00000000000E+00 -0.22712339391E+03  0.36181906768E+04  0.36110550726E+04 0.  0.
        5    1    3    3  502    0 -0.13556095994E+04 -0.11315504301E+04 -0.49090091621E+03  0.18327819187E+04  0.46999998093E+01 0.  1.
       -5    1    3    3    0  502  0.13556095994E+04  0.11315504301E+04  0.26377752230E+03  0.17854087580E+04  0.46999998093E+01 0. -1.
</event>
<event>
 5   0  0.3159875E-07  0.3592390E+04  0.7818609E-02  0.8092237E-01
       -1   -1    0    0    0  501  0.00000000000E+00  0.00000000000E+00  0.26907743602E+04  0.26907743602E+04  0.50400001928E-02 0.  1.
        1   -1    0    0  501    0  0.00000000000E+00  0.00000000000E+00 -0.11990287965E+04  0.11990287965E+04  0.50400001928E-02 0. -1.
    10030    2    1    2    0    0  0.00000000000E+00  0.00000000000E+00  0.14917455637E+04  0.38898031567E+04  0.35923897020E+04 0.  0.
        5    1    3    3  502    0 -0.15478479138E+04 -0.24962401472E+03  0.16948740358E+04  0.23088450360E+04  0.46999998093E+01 0.  1.
       -5    1    3    3    0  502  0.15478479138E+04  0.24962401472E+03 -0.20312847213E+03  0.15809581207E+04  0.46999998093E+01 0. -1.
</event>
<event>
 5   0  0.9538919E-07  0.3597879E+04  0.7818609E-02  0.8090978E-01
       -2   -1    0    0    0  501  0.00000000000E+00  0.00000000000E+00  0.27700256278E+04  0.27700256278E+04  0.25500000920E-02 0. -1.
        2   -1    0    0  501    0  0.00000000000E+00  0.00000000000E+00 -0.11682864235E+04  0.11682864235E+04  0.25500000920E-02 0.  1.
    10030    2    1    2    0    0  0.00000000000E+00  0.00000000000E+00  0.16017392043E+04  0.39383120513E+04  0.35978790050E+04 0.  0.
        4    1    3    3  502    0 -0.47609291592E+03  0.15848245261E+04  0.15732160650E+04  0.22832747630E+04  0.12699999809E+01 0. -1.
       -4    1    3    3    0  502  0.47609291592E+03 -0.15848245261E+04  0.28523139293E+02  0.16550372883E+04  0.12699999809E+01 0.  1.
</event>
<event>
 5   0  0.3278988E-07  0.3567891E+04  0.7818609E-02  0.8097887E-01
        1   -1    0    0  501    0  0.00000000000E+00  0.00000000000E+00  0.26566776569E+04  0.26566776569E+04  0.50400001928E-02 0. -1.
       -1   -1    0    0    0  501  0.00000000000E+00  0.00000000000E+00 -0.11979101013E+04  0.11979101013E+04  0.50400001928E-02 0.  1.
    10030    2    1    2    0    0  0.00000000000E+00  0.00000000000E+00  0.14587675556E+04  0.38545877582E+04  0.35678906940E+04 0.  0.
        4    1    3    3  502    0  0.47679875192E+03  0.17185429184E+04  0.77435270676E+03  0.19443123565E+04  0.12699999809E+01 0.  1.
       -4    1    3    3    0  502 -0.47679875192E+03 -0.17185429184E+04  0.68441484881E+03  0.19102754017E+04  0.12699999809E+01 0. -1.
</event>
<event>
 5   0  0.3159875E-07  0.3635826E+04  0.7818609E-02  0.8082334E-01
        1   -1    0    0  501    0  0.00000000000E+00  0.00000000000E+00  0.30035041331E+04  0.30035041331E+04  0.50400001928E-02 0. -1.
       -1   -1    0    0    0  501  0.00000000000E+00  0.00000000000E+00 -0.11003175727E+04  0.11003175727E+04  0.50400001928E-02 0.  1.
    10030    2    1    2    0    0  0.00000000000E+00  0.00000000000E+00  0.19031865604E+04  0.41038217058E+04  0.36358263861E+04 0.  0.
        2    1    3    3  502    0 -0.16833053055E+04 -0.18215577242E+03  0.20449561956E+03  0.17054371684E+04  0.25500000920E-02 0. -1.
       -2    1    3    3    0  502  0.16833053055E+04  0.18215577242E+03  0.16986909408E+04  0.23983845374E+04  0.25500000920E-02 0.  1.
</event>
<event>
 5   0  0.3365378E-07  0.3604031E+04  0.7818609E-02  0.8089569E-01
        1   -1    0    0  501    0  0.00000000000E+00  0.00000000000E+00  0.25353561585E+04  0.25353561585E+04  0.50400001928E-02 0.  1.
       -1   -1    0    0    0  501  0.00000000000E+00  0.00000000000E+00 -0.12807900888E+04  0.12807900888E+04  0.50400001928E-02 0. -1.
    10030    2    1    2    0    0  0.00000000000E+00  0.00000000000E+00  0.12545660697E+04  0.38161462474E+04  0.36040305434E+04 0.  0.
        3    1    3    3  502    0  0.58589538822E+03 -0.16921312031E+04  0.41372580054E+03  0.18378657357E+04  0.10100000352E+00 0. -1.
       -3    1    3    3    0  502 -0.58589538822E+03  0.16921312031E+04  0.84084026917E+03  0.19782805117E+04  0.10100000352E+00 0.  1.
</event>
<event>
 5   0  0.9878336E-07  0.3716545E+04  0.7818609E-02  0.8064305E-01
        2   -1    0    0  501    0  0.00000000000E+00  0.00000000000E+00  0.15264293559E+04  0.15264293559E+04  0.25500000920E-02 0.  1.
       -2   -1    0    0    0  501  0.00000000000E+00  0.00000000000E+00 -0.22622579690E+04  0.22622579690E+04  0.25500000920E-02 0. -1.
    10030    2    1    2    0    0  0.00000000000E+00  0.00000000000E+00 -0.73582861308E+03  0.37886873249E+04  0.37165451562E+04 0.  0.
        3    1    3    3  502    0  0.12677151933E+04  0.82977838879E+03  0.72886163057E+03  0.16813308040E+04  0.10100000352E+00 0.  1.
       -3    1    3    3    0  502 -0.12677151933E+04 -0.82977838879E+03 -0.14646902437E+04  0.21073565208E+04  0.10100000352E+00 0. -1.
</event>
<event>
 5   0  0.3159875E-07  0.3568919E+04  0.7818609E-02  0.8097649E-01
        1   -1    0    0  501    0  0.00000000000E+00  0.00000000000E+00  0.11532847389E+04  0.11532847389E+04  0.50400001928E-02 0. -1.
       -1   -1    0    0    0  501  0.00000000000E+00  0.00000000000E+00 -0.27610662698E+04  0.27610662698E+04  0.50400001928E-02 0.  1.
    10030    2    1    2    0    0  0.00000000000E+00  0.00000000000E+00 -0.16077815309E+04  0.39143510088E+04  0.35689189356E+04 0.  0.
        2    1    3    3  502    0  0.31557408910E+03 -0.11283123233E+04 -0.22801295921E+04  0.25635262163E+04  0.25500000920E-02 0.  1.
       -2    1    3    3    0  502 -0.31557408910E+03  0.11283123233E+04  0.67234806118E+03  0.13508247925E+04  0.25500000920E-02 0. -1.
</event>
<event>
 5   0  0.3159875E-07  0.3427514E+04  0.7818609E-02  0.8131186E-01
        1   -1    0    0  501    0  0.00000000000E+00  0.00000000000E+00  0.14217544877E+04  0.14217544877E+04  0.50400001928E-02 0.  1.
       -1   -1    0    0    0  501  0.00000000000E+00  0.00000000000E+00 -0.20657317739E+04  0.20657317739E+04  0.50400001928E-02 0. -1.
    10030    2    1    2    0    0  0.00000000000E+00  0.00000000000E+00 -0.64397728624E+03  0.34874862616E+04  0.34275142129E+04 0.  0.
        2    1    3    3  502    0 -0.88139011429E+03 -0.13722795444E+04  0.21349313575E+03  0.16448644323E+04  0.25500000920E-02 0.  1.
       -2    1    3    3    0  502  0.88139011429E+03  0.13722795444E+04 -0.85747042199E+03  0.18426218294E+04  0.25500000920E-02 0. -1.
</event>
<event>
 5   0  0.9878977E-07  0.3604870E+04  0.7818609E-02  0.8089377E-01
       -2   -1    0    0    0  501  0.00000000000E+00  0.00000000000E+00  0.28407702463E+04  0.28407702463E+04  0.25500000920E-02 0. -1.
        2   -1    0    0  501    0  0.00000000000E+00  0.00000000000E+00 -0.11436236158E+04  0.11436236158E+04  0.25500000920E-02 0.  1.
    10030    2    1    2    0    0  0.00000000000E+00  0.00000000000E+00  0.16971466305E+04  0.39843938621E+04  0.36048700064E+04 0.  0.
        5    1    3    3  502    0 -0.18908425764E+03 -0.11378840349E+04  0.23793840971E+04  0.26442435033E+04  0.46999998093E+01 0. -1.
       -5    1    3    3    0  502  0.18908425764E+03  0.11378840349E+04 -0.68223746661E+03  0.13401503588E+04  0.46999998093E+01 0.  1.
</event>
<event>
 5   0  0.9538919E-07  0.3581667E+04  0.7818609E-02  0.8094704E-01
       -2   -1    0    0    0  501  0.00000000000E+00  0.00000000000E+00  0.11569170350E+04  0.11569170351E+04  0.25500000920E-02 0. -1.
        2   -1    0    0  501    0  0.00000000000E+00  0.00000000000E+00 -0.27720950690E+04  0.27720950690E+04  0.25500000920E-02 0.  1.
    10030    2    1    2    0    0  0.00000000000E+00  0.00000000000E+00 -0.16151780340E+04  0.39290121041E+04  0.35816666557E+04 0.  0.
        4    1    3    3  502    0  0.15686026015E+04 -0.38108341865E+03  0.43077984549E+02  0.16148052574E+04  0.12699999809E+01 0. -1.
       -4    1    3    3    0  502 -0.15686026015E+04  0.38108341865E+03 -0.16582560185E+04  0.23142068467E+04  0.12699999809E+01 0.  1.
</event>
<event>
 5   0  0.3159875E-07  0.3563178E+04  0.7818609E-02  0.8098979E-01
       -1   -1    0    0    0  501  0.00000000000E+00  0.00000000000E+00  0.20434731896E+04  0.20434731896E+04  0.50400001928E-02 0.  1.
        1   -1    0    0  501    0  0.00000000000E+00  0.00000000000E+00 -0.15532672413E+04  0.15532672413E+04  0.50400001928E-02 0. -1.
    10030    2    1    2    0    0  0.00000000000E+00  0.00000000000E+00  0.49020594825E+03  0.35967404309E+04  0.35631783362E+04 0.  0.
        2    1    3    3  502    0  0.19691401305E+03  0.88504231984E+03 -0.13029606461E+04  0.15873819583E+04  0.25500000920E-02 0. -1.
       -2    1    3    3    0  502 -0.19691401305E+03 -0.88504231984E+03  0.17931665943E+04  0.20093584726E+04  0.25500000920E-02 0.  1.
</event>
<event>
 5   0  0.3365378E-07  0.3663757E+04  0.7818609E-02  0.8076042E-01
       -1   -1    0    0    0  501  0.00000000000E+00  0.00000000000E+00  0.16007043531E+04  0.16007043531E+04  0.50400001928E-02 0. -1.
        1   -1    0    0  501    0  0.00000000000E+00  0.00000000000E+00 -0.20964384236E+04  0.20964384236E+04  0.50400001928E-02 0.  1.
    10030    2    1    2    0    0  0.00000000000E+00  0.00000000000E+00 -0.49573407048E+03  0.36971427767E+04  0.36637566025E+04 0.  0.
        3    1    3    3  502    0  0.11396391081E+03  0.52941818603E+03  0.15180818667E+04  0.16117828491E+04  0.10100000352E+00 0. -1.
       -3    1    3    3    0  502 -0.11396391081E+03 -0.52941818603E+03 -0.20138159371E+04  0.20853599276E+04  0.10100000352E+00 0.  1.
</event>
<event>
 5   0  0.3365378E-07  0.3625162E+04  0.7818609E-02  0.8084752E-01
       -1   -1    0    0    0  501  0.00000000000E+00  0.00000000000E+00  0.20347446127E+04  0.20347446127E+04  0.50400001928E-02 0. -1.
        1   -1    0    0  501    0  0.00000000000E+00  0.00000000000E+00 -0.16146740494E+04  0.16146740494E+04  0.50400001928E-02 0.  1.
    10030    2    1    2    0    0  0.00000000000E+00  0.00000000000E+00  0.42007056334E+03  0.36494186622E+04  0.36251616920E+04 0.  0.
        3    1    3    3  502    0  0.89183189074E+03  0.87102793520E+03 -0.11145943084E+04  0.16722363074E+04  0.10100000352E+00 0.  1.
       -3    1    3    3    0  502 -0.89183189074E+03 -0.87102793520E+03  0.15346648717E+04  0.19771823548E+04  0.10100000352E+00 0. -1.
</event>
<event>
 5   0  0.1031659E-06  0.3603579E+04  0.7818609E-02  0.8089672E-01
        2   -1    0    0  501    0  0.00000000000E+00  0.00000000000E+00  0.20025817799E+04  0.20025817799E+04  0.25500000920E-02 0. -1.
       -2   -1    0    0    0  501  0.00000000000E+00  0.00000000000E+00 -0.16211295915E+04  0.16211295915E+04  0.25500000920E-02 0.  1.
    10030    2    1    2    0    0  0.00000000000E+00  0.00000000000E+00  0.38145218837E+03  0.36237113713E+04  0.36035785451E+04 0.  0.
        2    1    3    3  502    0  0.12103257082E+04 -0.13193049075E+04 -0.12866947178E+02  0.17904243400E+04  0.25500000920E-02 0.  1.
       -2    1    3    3    0  502 -0.12103257082E+04  0.13193049075E+04  0.39431913555E+03  0.18332870314E+04  0.25500000920E-02 0. -1.
</event>
<event>
 5   0  0.3242047E-07  0.3602332E+04  0.7818609E-02  0.8089958E-01
        1   -1    0    0  501    0  0.00000000000E+00  0.00000000000E+00  0.10552147708E+04  0.10552147708E+04  0.50400001928E-02 0.  1.
       -1   -1    0    0    0  501  0.00000000000E+00  0.00000000000E+00 -0.30744450736E+04  0.30744450736E+04  0.50400001928E-02 0. -1.
    10030    2    1    2    0    0  0.00000000000E+00  0.00000000000E+00 -0.20192303028E+04  0.41296598444E+04  0.36023324964E+04 0.  0.
        1    1    3    3  502    0 -0.16377055198E+04  0.18102889746E+03 -0.17554699147E+03  0.16570056058E+04  0.50400001928E-02 0.  1.
       -1    1    3    3    0  502  0.16377055198E+04 -0.18102889746E+03 -0.18436833113E+04  0.24726542386E+04  0.50400001928E-02 0. -1.
</event>
<event>
 5   0  0.9878977E-07  0.3663020E+04  0.7818609E-02  0.8076207E-01
        2   -1    0    0  501    0  0.00000000000E+00  0.00000000000E+00  0.13778253914E+04  0.13778253914E+04  0.25500000920E-02 0. -1.
       -2   -1    0    0    0  501  0.00000000000E+00  0.00000000000E+00 -0.24345815729E+04  0.24345815729E+04  0.25500000920E-02 0.  1.
    10030    2    1    2    0    0  0.00000000000E+00  0.00000000000E+00 -0.10567561815E+04  0.38124069643E+04  0.36630196879E+04 0.  0.
        5    1    3    3  502    0  0.17072707793E+04  0.48319971296E+03 -0.55822992933E+02  0.17752165426E+04  0.46999998093E+01 0. -1.
       -5    1    3    3    0  502 -0.17072707793E+04 -0.48319971296E+03 -0.10009331885E+04  0.20371904217E+04  0.46999998093E+01 0.  1.
</event>
<event>
 5   0  0.3365378E-07  0.3569574E+04  0.7818609E-02  0.8097497E-01
        1   -1    0    0  501    0  0.00000000000E+00  0.00000000000E+00  0.17925188689E+04  0.17925188689E+04  0.50400001928E-02 0. -1.
       -1   -1    0    0    0  501  0.00000000000E+00  0.00000000000E+00 -0.17770886761E+04  0.17770886761E+04  0.50400001928E-02 0.  1.
    10030    2    1    2    0    0  0.00000000000E+00  0.00000000000E+00  0.15430192780E+02  0.35696075449E+04  0.35695741951E+04 0.  0.
        3    1    3    3  502    0  0.93677210203E+03  0.11578780012E+04 -0.97577847763E+03  0.17805524661E+04  0.10100000352E+00 0.  1.
       -3    1    3    3    0  502 -0.93677210203E+03 -0.11578780012E+04  0.99120867041E+03  0.17890550789E+04  0.10100000352E+00 0. -1.
</event>
<event>
 5   0  0.1031659E-06  0.3716053E+04  0.7818609E-02  0.8064414E-01
        2   -1    0    0  501    0  0.00000000000E+00  0.00000000000E+00  0.16575472689E+04  0.16575472689E+04  0.25500000920E-02 0. -1.
       -2   -1    0    0    0  501  0.00000000000E+00  0.00000000000E+00 -0.20827538088E+04  0.20827538088E+04  0.25500000920E-02 0.  1.
    10030    2    1    2    0    0  0.00000000000E+00  0.00000000000E+00 -0.42520653986E+03  0.37403010777E+04  0.37160532222E+04 0.  0.
        2    1    3    3  502    0 -0.11173678120E+04 -0.12505421205E+04 -0.10177582669E+04  0.19616825207E+04  0.25500000920E-02 0.  1.
       -2    1    3    3    0  502  0.11173678120E+04  0.12505421205E+04  0.59255172700E+03  0.17786185570E+04  0.25500000920E-02 0. -1.
</event>
<event>
 5   0  0.9878977E-07  0.3362205E+04  0.7818609E-02  0.8147245E-01
       -2   -1    0    0    0  501  0.00000000000E+00  0.00000000000E+00  0.18309454399E+04  0.18309454399E+04  0.25500000920E-02 0.  1.
        2   -1    0    0  501    0  0.00000000000E+00  0.00000000000E+00 -0.15435227709E+04  0.15435227709E+04  0.25500000920E-02 0. -1.
    10030    2    1    2    0    0  0.00000000000E+00  0.00000000000E+00  0.28742266906E+03  0.33744682108E+04  0.33622052161E+04 0.  0.
        5    1    3    3  502    0 -0.11382195278E+04  0.12067756893E+04  0.41716172615E+03  0.17105254321E+04  0.46999998093E+01 0. -1.
       -5    1    3    3    0  502  0.11382195278E+04 -0.12067756893E+04 -0.12973905709E+03  0.16639427787E+04  0.46999998093E+01 0.  1.
</event>
<event>
 5   0  0.3242047E-07  0.3578117E+04  0.7818609E-02  0.8095523E-01
        1   -1    0    0  501    0  0.00000000000E+00  0.00000000000E+00  0.20050413597E+04  0.20050413598E+04  0.50400001928E-02 0.  1.
       -1   -1    0    0    0  501  0.00000000000E+00  0.00000000000E+00 -0.15963413532E+04  0.15963413532E+04  0.50400001928E-02 0. -1.
    10030    2    1    2    0    0  0.00000000000E+00  0.00000000000E+00  0.40870000658E+03  0.36013827129E+04  0.35781170676E+04 0.  0.
        1    1    3    3  502    0  0.13951804679E+04 -0.80961438994E+03 -0.57445538606E+03  0.17123092563E+04  0.50400001928E-02 0. -1.
       -1    1    3    3    0  502 -0.13951804679E+04  0.80961438994E+03  0.98315539264E+03  0.18890734567E+04  0.50400001928E-02 0.  1.
</event>
<event>
 5   0  0.3278988E-07  0.2984806E+04  0.7818609E-02  0.8248083E-01
        1   -1    0    0  501    0  0.00000000000E+00  0.00000000000E+00  0.83662626726E+03  0.83662626728E+03  0.50400001928E-02 0.  1.
       -1   -1    0    0    0  501  0.00000000000E+00  0.00000000000E+00 -0.26622003065E+04  0.26622003065E+04  0.50400001928E-02 0. -1.
    10030    2    1    2    0    0  0.00000000000E+00  0.00000000000E+00 -0.18255740392E+04  0.34988265737E+04  0.29848059938E+04 0.  0.
        4    1    3    3  502    0  0.12665617983E+04 -0.68605288813E+03 -0.13704271117E+04  0.19881950195E+04  0.12699999809E+01 0. -1.
       -4    1    3    3    0  502 -0.12665617983E+04  0.68605288813E+03 -0.45514692753E+03  0.15106315543E+04  0.12699999809E+01 0.  1.
</event>
<event>
 5   0  0.9878336E-07  0.3230684E+04  0.7818609E-02  0.8180760E-01
       -2   -1    0    0    0  501  0.00000000000E+00  0.00000000000E+00  0.18362829523E+04  0.18362829523E+04  0.25500000920E-02 0.  1.
        2   -1    0    0  501    0  0.00000000000E+00  0.00000000000E+00 -0.14209847860E+04  0.14209847860E+04  0.25500000920E-02 0. -1.
    10030    2    1    2    0    0  0.00000000000E+00  0.00000000000E+00  0.41529816632E+03  0.32572677383E+04  0.32306842235E+04 0.  0.
        3    1    3    3  502    0 -0.13843508817E+04 -0.54230939164E+03  0.84435415882E+03  0.17098130880E+04  0.10100000352E+00 0.  1.
       -3    1    3    3    0  502  0.13843508817E+04  0.54230939164E+03 -0.42905599251E+03  0.15474546504E+04  0.10100000352E+00 0. -1.
</event>
<event>
 5   0  0.3159875E-07  0.3474160E+04  0.7818609E-02  0.8119941E-01
        1   -1    0    0  501    0  0.00000000000E+00  0.00000000000E+00  0.17797970654E+04  0.17797970654E+04  0.50400001928E-02 0. -1.
       -1   -1    0    0    0  501  0.00000000000E+00  0.00000000000E+00 -0.16953881758E+04  0.16953881758E+04  0.50400001928E-02 0.  1.
    10030    2    1    2    0    0  0.00000000000E+00  0.00000000000E+00  0.84408889540E+02  0.34751852412E+04  0.34741599848E+04 0.  0.
        5    1    3    3  502    0  0.81094849223E+03  0.32188670987E+03 -0.14602961815E+04  0.17010983331E+04  0.46999998093E+01 0.  1.
       -5    1    3    3    0  502 -0.81094849223E+03 -0.32188670987E+03  0.15447050711E+04  0.17740869081E+04  0.46999998093E+01 0. -1.
</event>
<event>
 5   0  0.1006019E-06  0.3572487E+04  0.7818609E-02  0.8096823E-01
       -2   -1    0    0    0  501  0.00000000000E+00  0.00000000000E+00  0.17106536668E+04  0.17106536668E+04  0.25500000920E-02 0.  1.
        2   -1    0    0  501    0  0.00000000000E+00  0.00000000000E+00 -0.18651734087E+04  0.18651734087E+04  0.25500000920E-02 0. -1.
    10030    2    1    2    0    0  0.00000000000E+00  0.00000000000E+00 -0.15451974194E+03  0.35758270755E+04  0.35724869382E+04 0.  0.
        1    1    3    3  502    0 -0.12936945368E+04 -0.83071871134E+03 -0.98746512839E+03  0.18272456079E+04  0.50400001928E-02 0. -1.
       -1    1    3    3    0  502  0.12936945368E+04  0.83071871134E+03  0.83294538645E+03  0.17485814676E+04  0.50400001928E-02 0.  1.
</event>
<event>
 5   0  0.3242047E-07  0.3149914E+04  0.7818609E-02  0.8202171E-01
        1   -1    0    0  501    0  0.00000000000E+00  0.00000000000E+00  0.10949158342E+04  0.10949158342E+04  0.50400001928E-02 0. -1.
       -1   -1    0    0    0  501  0.00000000000E+00  0.00000000000E+00 -0.22654611665E+04  0.22654611665E+04  0.50400001928E-02 0.  1.
    10030    2    1    2    0    0  0.00000000000E+00  0.00000000000E+00 -0.11705453324E+04  0.33603770007E+04  0.31499138420E+04 0.  0.
        1    1    3    3  502    0  0.51612653158E+03  0.33324383721E+03 -0.21323579569E+04  0.22190963269E+04  0.50400001928E-02 0.  1.
       -1    1    3    3    0  502 -0.51612653158E+03 -0.33324383721E+03  0.96181262454E+03  0.11412806738E+04  0.50400001928E-02 0. -1.
</event>
<event>
 5   0  0.1031659E-06  0.3651347E+04  0.7818609E-02  0.8078830E-01
        2   -1    0    0  501    0  0.00000000000E+00  0.00000000000E+00  0.22055983049E+04  0.22055983049E+04  0.25500000920E-02 0.  1.
       -2   -1    0    0    0  501  0.00000000000E+00  0.00000000000E+00 -0.15111928617E+04  0.15111928617E+04  0.25500000920E-02 0. -1.
    10030    2    1    2    0    0  0.00000000000E+00  0.00000000000E+00  0.69440544317E+03  0.37167911666E+04  0.36513473755E+04 0.  0.
        2    1    3    3  502    0  0.14435306623E+04 -0.91748535889E+03  0.99702072660E+03  0.19798006178E+04  0.25500000920E-02 0.  1.
       -2    1    3    3    0  502 -0.14435306623E+04  0.91748535889E+03 -0.30261528343E+03  0.17369905488E+04  0.25500000920E-02 0. -1.
</event>
<event>
 5   0  0.3365378E-07  0.3601432E+04  0.7818609E-02  0.8090164E-01
        1   -1    0    0  501    0  0.00000000000E+00  0.00000000000E+00  0.27313428842E+04  0.27313428842E+04  0.50400001928E-02 0.  1.
       -1   -1    0    0    0  501  0.00000000000E+00  0.00000000000E+00 -0.11871734452E+04  0.11871734452E+04  0.50400001928E-02 0. -1.
    10030    2    1    2    0    0  0.00000000000E+00  0.00000000000E+00  0.15441694389E+04  0.39185163294E+04  0.36014317941E+04 0.  0.
        3    1    3    3  502    0 -0.19658717286E+03  0.81631889071E+02 -0.11734364008E+04  0.11925868013E+04  0.10100000352E+00 0. -1.
       -3    1    3    3    0  502  0.19658717286E+03 -0.81631889071E+02  0.27176058397E+04  0.27259295281E+04  0.10100000352E+00 0.  1.
</event>
<event>
 5   0  0.9538919E-07  0.3573900E+04  0.7818609E-02  0.8096496E-01
       -2   -1    0    0    0  501  0.00000000000E+00  0.00000000000E+00  0.13924134122E+04  0.13924134122E+04  0.25500000920E-02 0.  1.
        2   -1    0    0  501    0  0.00000000000E+00  0.00000000000E+00 -0.22932777632E+04  0.22932777632E+04  0.25500000920E-02 0. -1.
    10030    2    1    2    0    0  0.00000000000E+00  0.00000000000E+00 -0.90086435106E+03  0.36856911754E+04  0.35739002310E+04 0.  0.
        4    1    3    3  502    0  0.80896584856E+03 -0.76398884825E+03 -0.18924122963E+04  0.21952973868E+04  0.12699999809E+01 0. -1.
       -4    1    3    3    0  502 -0.80896584856E+03  0.76398884825E+03  0.99154794526E+03  0.14903937886E+04  0.12699999809E+01 0.  1.
</event>
<event>
 5   0  0.1006019E-06  0.3611905E+04  0.7818609E-02  0.8087770E-01
       -2   -1    0    0    0  501  0.00000000000E+00  0.00000000000E+00  0.14364372698E+04  0.14364372698E+04  0.25500000920E-02 0.  1.
        2   -1    0    0  501    0  0.00000000000E+00  0.00000000000E+00 -0.22705235330E+04  0.22705235330E+04  0.25500000920E-02 0. -1.
    10030    2    1    2    0    0  0.00000000000E+00  0.00000000000E+00 -0.83408626312E+03  0.37069608028E+04  0.36119051066E+04 0.  0.
        1    1    3    3  502    0  0.90448250784E+03  0.92886801144E+03 -0.17073408681E+04  0.21438043823E+04  0.50400001928E-02 0. -1.
       -1    1    3    3    0  502 -0.90448250784E+03 -0.92886801144E+03  0.87325460502E+03  0.15631564205E+04  0.50400001928E-02 0.  1.
</event>
<event>
 5   0  0.3365378E-07  0.3384727E+04  0.7818609E-02  0.8141665E-01
        1   -1    0    0  501    0  0.00000000000E+00  0.00000000000E+00  0.96732565195E+03  0.96732565196E+03  0.50400001928E-02 0.  1.
       -1   -1    0    0    0  501  0.00000000000E+00  0.00000000000E+00 -0.29608380412E+04  0.29608380412E+04  0.50400001928E-02 0. -1.
    10030    2    1    2    0    0  0.00000000000E+00  0.00000000000E+00 -0.19935123892E+04  0.39281636931E+04  0.33847272200E+04 0.  0.
        3    1    3    3  502    0 -0.22451139870E+03 -0.30269623273E+03  0.91800706309E+03  0.99235445055E+03  0.10100000352E+00 0.  1.
       -3    1    3    3    0  502  0.22451139870E+03  0.30269623273E+03 -0.29115194523E+04  0.29358092426E+04  0.10100000352E+00 0. -1.
</event>
<event>
 5   0  0.3159875E-07  0.3557209E+04  0.7818609E-02  0.8100364E-01
       -1   -1    0    0    0  501  0.00000000000E+00  0.00000000000E+00  0.10858964160E+04  0.10858964160E+04  0.50400001928E-02 0.  1.
        1   -1    0    0  501    0  0.00000000000E+00  0.00000000000E+00 -0.29132010580E+04  0.29132010580E+04  0.50400001928E-02 0. -1.
    10030    2    1    2    0    0  0.00000000000E+00  0.00000000000E+00 -0.18273046420E+04  0.39990974740E+04  0.35572093489E+04 0.  0.
        5    1    3    3  502    0 -0.60648370391E+03 -0.12905445908E+04 -0.21087628079E+04  0.25456296852E+04  0.46999998093E+01 0. -1.
       -5    1    3    3    0  502  0.60648370391E+03  0.12905445908E+04  0.28145816592E+03  0.14534677888E+04  0.46999998093E+01 0.  1.
</event>
<event>
 5   0  0.3365378E-07  0.3623637E+04  0.7818609E-02  0.8085099E-01
       -1   -1    0    0    0  501  0.00000000000E+00  0.00000000000E+00  0.17944403343E+04  0.17944403344E+04  0.50400001928E-02 0. -1.
        1   -1    0    0  501    0  0.00000000000E+00  0.00000000000E+00 -0.18293651026E+04  0.18293651026E+04  0.50400001928E-02 0.  1.
    10030    2    1    2    0    0  0.00000000000E+00  0.00000000000E+00 -0.34924768283E+02  0.36238054370E+04  0.36236371377E+04 0.  0.
        3    1    3    3  502    0 -0.14320862394E+04 -0.10080572456E+04  0.44692553528E+03  0.18074271359E+04  0.10100000352E+00 0. -1.
       -3    1    3    3    0  502  0.14320862394E+04  0.10080572456E+04 -0.48185030356E+03  0.18163783011E+04  0.10100000352E+00 0.  1.
</event>
<event>
 5   0  0.3159875E-07  0.3584177E+04  0.7818609E-02  0.8094126E-01
       -3   -1    0    0    0  501  0.00000000000E+00  0.00000000000E+00  0.19044545026E+04  0.19044545053E+04  0.10100000352E+00 0.  1.
        3   -1    0    0  501    0  0.00000000000E+00  0.00000000000E+00 -0.16863524772E+04  0.16863524802E+04  0.10100000352E+00 0. -1.
    10030    2    1    2    0    0  0.00000000000E+00  0.00000000000E+00  0.21810202548E+03  0.35908069855E+04  0.35841772157E+04 0.  0.
        4    1    3    3  502    0  0.10690712277E+04 -0.13599956722E+04  0.57797496171E+03  0.18238854645E+04  0.12699999809E+01 0.  1.
       -4    1    3    3    0  502 -0.10690712277E+04  0.13599956722E+04 -0.35987293624E+03  0.17669215210E+04  0.12699999809E+01 0. -1.
</event>
<event>
 5   0  0.1031659E-06  0.3573237E+04  0.7818609E-02  0.8096650E-01
       -2   -1    0    0    0  501  0.00000000000E+00  0.00000000000E+00  0.16065575077E+04  0.16065575077E+04  0.25500000920E-02 0.  1.
        2   -1    0    0  501    0  0.00000000000E+00  0.00000000000E+00 -0.19868602242E+04  0.19868602242E+04  0.25500000920E-02 0. -1.
    10030    2    1    2    0    0  0.00000000000E+00  0.00000000000E+00 -0.38030271648E+03  0.35934177319E+04  0.35732367455E+04 0.  0.
        2    1    3    3  502    0 -0.55705562347E+03  0.10495689282E+03  0.15137253953E+04  0.16163822225E+04  0.25500000920E-02 0.  1.
       -2    1    3    3    0  502  0.55705562347E+03 -0.10495689282E+03 -0.18940281118E+04  0.19770355093E+04  0.25500000920E-02 0. -1.
</event>
<event>
 5   0  0.3365378E-07  0.3424538E+04  0.7818609E-02  0.8131910E-01
        1   -1    0    0  501    0  0.00000000000E+00  0.00000000000E+00  0.17198805892E+04  0.17198805892E+04  0.50400001928E-02 0. -1.
       -1   -1    0    0    0  501  0.00000000000E+00  0.00000000000E+00 -0.17046908632E+04  0.17046908632E+04  0.50400001928E-02 0.  1.
    10030    2    1    2    0    0  0.00000000000E+00  0.00000000000E+00  0.15189725957E+02  0.34245714524E+04  0.34245377651E+04 0.  0.
        3    1    3    3  502    0  0.46038173967E+03  0.14992087685E+04 -0.67964289074E+03  0.17092374753E+04  0.10100000352E+00 0.  1.
       -3    1    3    3    0  502 -0.46038173967E+03 -0.14992087685E+04  0.69483261670E+03  0.17153339771E+04  0.10100000352E+00 0. -1.
</event>
<event>
 5   0  0.1006019E-06  0.3552451E+04  0.7818609E-02  0.8101471E-01
       -2   -1    0    0    0  501  0.00000000000E+00  0.00000000000E+00  0.19483913355E+04  0.19483913355E+04  0.25500000920E-02 0.  1.
        2   -1    0    0  501    0  0.00000000000E+00  0.00000000000E+00 -0.16192723204E+04  0.16192723204E+04  0.25500000920E-02 0. -1.
    10030    2    1    2    0    0  0.00000000000E+00  0.00000000000E+00  0.32911901516E+03  0.35676636559E+04  0.35524505114E+04 0.  0.
        1    1    3    3  502    0 -0.88426585082E+03  0.71250399400E+03  0.15362005487E+04  0.19103664994E+04  0.50400001928E-02 0.  1.
       -1    1    3    3    0  502  0.88426585082E+03 -0.71250399400E+03 -0.12070815335E+04  0.16572971565E+04  0.50400001928E-02 0. -1.
</event>
<event>
 5   0  0.9538919E-07  0.3235912E+04  0.7818609E-02  0.8179397E-01
        2   -1    0    0  501    0  0.00000000000E+00  0.00000000000E+00  0.13234960646E+04  0.13234960646E+04  0.25500000920E-02 0.  1.
       -2   -1    0    0    0  501  0.00000000000E+00  0.00000000000E+00 -0.19779291598E+04  0.19779291598E+04  0.25500000920E-02 0. -1.
    10030    2    1    2    0    0  0.00000000000E+00  0.00000000000E+00 -0.65443309520E+03  0.33014252244E+04  0.32359119018E+04 0.  0.
        4    1    3    3  502    0 -0.47146099188E+03 -0.48829038705E+03  0.11712173446E+04  0.13536818866E+04  0.12699999809E+01 0.  1.
       -4    1    3    3    0  502  0.47146099188E+03  0.48829038705E+03 -0.18256504398E+04  0.19477433378E+04  0.12699999809E+01 0. -1.
</event>
<event>
 5   0  0.3159875E-07  0.3623481E+04  0.7818609E-02  0.8085134E-01
        1   -1    0    0  501    0  0.00000000000E+00  0.00000000000E+00  0.16545222070E+04  0.16545222070E+04  0.50400001928E-02 0.  1.
       -1   -1    0    0    0  501  0.00000000000E+00  0.00000000000E+00 -0.19838981196E+04  0.19838981196E+04  0.50400001928E-02 0. -1.
    10030    2    1    2    0    0  0.00000000000E+00  0.00000000000E+00 -0.32937591263E+03  0.36384203266E+04  0.36234809205E+04 0.  0.
        5    1    3    3  502    0 -0.10272947716E+04 -0.34798485882E+03  0.12924855566E+04  0.16872963621E+04  0.46999998093E+01 0.  1.
       -5    1    3    3    0  502  0.10272947716E+04  0.34798485882E+03 -0.16218614692E+04  0.19511239645E+04  0.46999998093E+01 0. -1.
</event>
<event>
 5   0  0.9878336E-07  0.3591079E+04  0.7818609E-02  0.8092538E-01
       -2   -1    0    0    0  501  0.00000000000E+00  0.00000000000E+00  0.25549277430E+04  0.25549277430E+04  0.25500000920E-02 0. -1.
        2   -1    0    0  501    0  0.00000000000E+00  0.00000000000E+00 -0.12618602004E+04  0.12618602004E+04  0.25500000920E-02 0.  1.
    10030    2    1    2    0    0  0.00000000000E+00  0.00000000000E+00  0.12930675426E+04  0.38167879433E+04  0.35910787425E+04 0.  0.
        3    1    3    3  502    0 -0.19311401984E+03  0.10820701509E+04  0.21555574240E+04  0.24196273792E+04  0.10100000352E+00 0.  1.
       -3    1    3    3    0  502  0.19311401984E+03 -0.10820701509E+04 -0.86248988140E+03  0.13971605641E+04  0.10100000352E+00 0. -1.
</event>
<event>
 5   0  0.9878336E-07  0.3542812E+04  0.7818609E-02  0.8103718E-01
       -2   -1    0    0    0  501  0.00000000000E+00  0.00000000000E+00  0.17945668266E+04  0.17945668266E+04  0.25500000920E-02 0.  1.
        2   -1    0    0  501    0  0.00000000000E+00  0.00000000000E+00 -0.17485438905E+04  0.17485438905E+04  0.25500000920E-02 0. -1.
    10030    2    1    2    0    0  0.00000000000E+00  0.00000000000E+00  0.46022936103E+02  0.35431107171E+04  0.35428117989E+04 0.  0.
        3    1    3    3  502    0 -0.15382426886E+04  0.24842055138E+03 -0.81966007048E+03  0.17606095481E+04  0.10100000352E+00 0.  1.
       -3    1    3    3    0  502  0.15382426886E+04 -0.24842055138E+03  0.86568300658E+03  0.17825011690E+04  0.10100000352E+00 0. -1.
</event>
<event>
 5   0  0.3159875E-07  0.3227026E+04  0.7818609E-02  0.8181716E-01
        1   -1    0    0  501    0  0.00000000000E+00  0.00000000000E+00  0.25730795692E+04  0.25730795692E+04  0.50400001928E-02 0.  1.
       -1   -1    0    0    0  501  0.00000000000E+00  0.00000000000E+00 -0.10117930325E+04  0.10117930325E+04  0.50400001928E-02 0. -1.
    10030    2    1    2    0    0  0.00000000000E+00  0.00000000000E+00  0.15612865367E+04  0.35848726017E+04  0.32270258630E+04 0.  0.
        2    1    3    3  502    0  0.11923028403E+04 -0.10637168126E+04  0.10299001298E+04  0.19009928453E+04  0.25500000920E-02 0. -1.
       -2    1    3    3    0  502 -0.11923028403E+04  0.10637168126E+04  0.53138640689E+03  0.16838797564E+04  0.25500000920E-02 0.  1.
</event>
<event>
 5   0  0.3159875E-07  0.3596418E+04  0.7818609E-02  0.8091313E-01
        1   -1    0    0  501    0  0.00000000000E+00  0.00000000000E+00  0.20356066140E+04  0.20356066140E+04  0.50400001928E-02 0.  1.
       -1   -1    0    0    0  501  0.00000000000E+00  0.00000000000E+00 -0.15884976513E+04  0.15884976513E+04  0.50400001928E-02 0. -1.
    10030    2    1    2    0    0  0.00000000000E+00  0.00000000000E+00  0.44710896271E+03  0.36241042652E+04  0.35964183990E+04 0.  0.
        5    1    3    3  502    0  0.48667691035E+03 -0.11197640847E+04 -0.11067629206E+04  0.16479296929E+04  0.46999998093E+01 0. -1.
       -5    1    3    3    0  502 -0.48667691035E+03  0.11197640847E+04  0.15538718833E+04  0.19761745723E+04  0.46999998093E+01 0.  1.
</event>
<event>
 5   0  0.3242047E-07  0.3071935E+04  0.7818609E-02  0.8223482E-01
        1   -1    0    0  501    0  0.00000000000E+00  0.00000000000E+00  0.21998004196E+04  0.21998004196E+04  0.50400001928E-02 0.  1.
       -1   -1    0    0    0  501  0.00000000000E+00  0.00000000000E+00 -0.10724594232E+04  0.10724594232E+04  0.50400001928E-02 0. -1.
    10030    2    1    2    0    0  0.00000000000E+00  0.00000000000E+00  0.11273409964E+04  0.32722598428E+04  0.30719353439E+04 0.  0.
        1    1    3    3  502    0 -0.71720764429E+03  0.92694074122E+03 -0.49383837646E+03  0.12718027696E+04  0.50400001928E-02 0. -1.
       -1    1    3    3    0  502  0.71720764429E+03 -0.92694074122E+03  0.16211793728E+04  0.20004570732E+04  0.50400001928E-02 0.  1.
</event>
<event>
 5   0  0.9878977E-07  0.3673712E+04  0.7818609E-02  0.8073813E-01
        2   -1    0    0  501    0  0.00000000000E+00  0.00000000000E+00  0.24663140694E+04  0.24663140694E+04  0.25500000920E-02 0. -1.
       -2   -1    0    0    0  501  0.00000000000E+00  0.00000000000E+00 -0.13680498720E+04  0.13680498720E+04  0.25500000920E-02 0.  1.
    10030    2    1    2    0    0  0.00000000000E+00  0.00000000000E+00  0.10982641974E+04  0.38343639414E+04  0.36737123714E+04 0.  0.
        5    1    3    3  502    0 -0.14047010211E+04  0.19662933428E+03 -0.66902672947E+03  0.15682687616E+04  0.46999998093E+01 0.  1.
       -5    1    3    3    0  502  0.14047010211E+04 -0.19662933428E+03  0.17672909269E+04  0.22660951798E+04  0.46999998093E+01 0. -1.
</event>
<event>
 5   0  0.9878336E-07  0.3563611E+04  0.7818609E-02  0.8098878E-01
       -2   -1    0    0    0  501  0.00000000000E+00  0.00000000000E+00  0.14289550119E+04  0.14289550119E+04  0.25500000920E-02 0.  1.
        2   -1    0    0  501    0  0.00000000000E+00  0.00000000000E+00 -0.22217845418E+04  0.22217845418E+04  0.25500000920E-02 0. -1.
    10030    2    1    2    0    0  0.00000000000E+00  0.00000000000E+00 -0.79282952995E+03  0.36507395537E+04  0.35636106164E+04 0.  0.
        3    1    3    3  502    0 -0.15499108969E+04 -0.85804966313E+03 -0.59175217468E+03  0.18677911176E+04  0.10100000352E+00 0.  1.
       -3    1    3    3    0  502  0.15499108969E+04  0.85804966313E+03 -0.20107735527E+03  0.17829484361E+04  0.10100000352E+00 0. -1.
</event>
<event>
 5   0  0.9538919E-07  0.3613762E+04  0.7818609E-02  0.8087347E-01
       -2   -1    0    0    0  501  0.00000000000E+00  0.00000000000E+00  0.15047636454E+04  0.15047636454E+04  0.25500000920E-02 0.  1.
        2   -1    0    0  501    0  0.00000000000E+00  0.00000000000E+00 -0.21696554349E+04  0.21696554349E+04  0.25500000920E-02 0. -1.
    10030    2    1    2    0    0  0.00000000000E+00  0.00000000000E+00 -0.66489178947E+03  0.36744190803E+04  0.36137618192E+04 0.  0.
        4    1    3    3  502    0 -0.67662241773E+03  0.71787162013E+03 -0.18716783163E+04  0.21157360165E+04  0.12699999809E+01 0. -1.
       -4    1    3    3    0  502  0.67662241773E+03 -0.71787162013E+03  0.12067865268E+04  0.15586830638E+04  0.12699999809E+01 0.  1.
</event>
<event>
 5   0  0.9878336E-07  0.3643104E+04  0.7818609E-02  0.8080689E-01
       -2   -1    0    0    0  501  0.00000000000E+00  0.00000000000E+00  0.18479029744E+04  0.18479029744E+04  0.25500000920E-02 0. -1.
        2   -1    0    0  501    0  0.00000000000E+00  0.00000000000E+00 -0.17955766357E+04  0.17955766357E+04  0.25500000920E-02 0.  1.
    10030    2    1    2    0    0  0.00000000000E+00  0.00000000000E+00  0.52326338669E+02  0.36434796101E+04  0.36431038447E+04 0.  0.
        3    1    3    3  502    0 -0.15844812152E+04 -0.84654110506E+03 -0.27526272798E+03  0.18174108351E+04  0.10100000352E+00 0. -1.
       -3    1    3    3    0  502  0.15844812152E+04  0.84654110506E+03  0.32758906665E+03  0.18260687749E+04  0.10100000352E+00 0.  1.
</event>
<event>
 5   0  0.3159875E-07  0.3574186E+04  0.7818609E-02  0.8096430E-01
       -1   -1    0    0    0  501  0.00000000000E+00  0.00000000000E+00  0.25787349165E+04  0.25787349165E+04  0.50400001928E-02 0.  1.
        1   -1    0    0  501    0  0.00000000000E+00  0.00000000000E+00 -0.12384759809E+04  0.12384759809E+04  0.50400001928E-02 0. -1.
    10030    2    1    2    0    0  0.00000000000E+00  0.00000000000E+00  0.13402589356E+04  0.38172108974E+04  0.35741859242E+04 0.  0.
        5    1    3    3  502    0  0.96572902201E+03  0.40543560483E+03  0.22165724410E+04  0.24515762378E+04  0.46999998093E+01 0.  1.
       -5    1    3    3    0  502 -0.96572902201E+03 -0.40543560483E+03 -0.87631350540E+03  0.13656346595E+04  0.46999998093E+01 0. -1.
</event>
<event>
 5   0  0.3278988E-07  0.3632593E+04  0.7818609E-02  0.8083066E-01
       -1   -1    0    0    0  501  0.00000000000E+00  0.00000000000E+00  0.27933686054E+04  0.27933686054E+04  0.50400001928E-02 0.  1.
        1   -1    0    0  501    0  0.00000000000E+00  0.00000000000E+00 -0.11809876682E+04  0.11809876682E+04  0.50400001928E-02 0. -1.
    10030    2    1    2    0    0  0.00000000000E+00  0.00000000000E+00  0.16123809372E+04  0.39743562736E+04  0.36325934954E+04 0.  0.
        4    1    3    3  502    0  0.12866686861E+04 -0.11906857306E+04  0.28643406651E+03  0.17763149789E+04  0.12699999809E+01 0. -1.
       -4    1    3    3    0  502 -0.12866686861E+04  0.11906857306E+04  0.13259468707E+04  0.21980412948E+04  0.12699999809E+01 0.  1.
</event>
<event>
 5   0  0.3159875E-07  0.3609578E+04  0.7818609E-02  0.8088301E-01
       -1   -1    0    0    0  501  0.00000000000E+00  0.00000000000E+00  0.12487432120E+04  0.12487432120E+04  0.50400001928E-02 0. -1.
        1   -1    0    0  501    0  0.00000000000E+00  0.00000000000E+00 -0.26084338054E+04  0.26084338054E+04  0.50400001928E-02 0.  1.
    10030    2    1    2    0    0  0.00000000000E+00  0.00000000000E+00 -0.13596905934E+04  0.38571770175E+04  0.36095783735E+04 0.  0.
        5    1    3    3  502    0  0.51818590627E+03  0.73063687682E+03  0.99444036731E+03  0.13383873181E+04  0.46999998093E+01 0. -1.
       -5    1    3    3    0  502 -0.51818590627E+03 -0.73063687682E+03 -0.23541309607E+04  0.25187896993E+04  0.46999998093E+01 0.  1.
</event>
<event>
 5   0  0.3278988E-07  0.3610276E+04  0.7818609E-02  0.8088142E-01
        1   -1    0    0  501    0  0.00000000000E+00  0.00000000000E+00  0.15515873654E+04  0.15515873654E+04  0.50400001928E-02 0.  1.
       -1   -1    0    0    0  501  0.00000000000E+00  0.00000000000E+00 -0.21001227762E+04  0.21001227762E+04  0.50400001928E-02 0. -1.
    10030    2    1    2    0    0  0.00000000000E+00  0.00000000000E+00 -0.54853541081E+03  0.36517101416E+04  0.36102764245E+04 0.  0.
        4    1    3    3  502    0  0.10577523130E+04  0.14535654884E+04 -0.43994549765E+03  0.18507420778E+04  0.12699999809E+01 0. -1.
       -4    1    3    3    0  502 -0.10577523130E+04 -0.14535654884E+04 -0.10858991316E+03  0.18009680638E+04  0.12699999809E+01 0.  1.
</event>
<event>
 5   0  0.9878336E-07  0.3614517E+04  0.7818609E-02  0.8087175E-01
       -2   -1    0    0    0  501  0.00000000000E+00  0.00000000000E+00  0.13782486421E+04  0.13782486421E+04  0.25500000920E-02 0.  1.
        2   -1    0    0  501    0  0.00000000000E+00  0.00000000000E+00 -0.23698063992E+04  0.23698063992E+04  0.25500000920E-02 0. -1.
    10030    2    1    2    0    0  0.00000000000E+00  0.00000000000E+00 -0.99155775711E+03  0.37480550414E+04  0.36145165386E+04 0.  0.
        3    1    3    3  502    0 -0.16560891705E+04 -0.48620631377E+03  0.59886800660E+02  0.17270247130E+04  0.10100000352E+00 0. -1.
       -3    1    3    3    0  502  0.16560891705E+04  0.48620631377E+03 -0.10514445578E+04  0.20210303284E+04  0.10100000352E+00 0.  1.
</event>
<event>
 5   0  0.3365378E-07  0.3511570E+04  0.7818609E-02  0.8111053E-01
        1   -1    0    0  501    0  0.00000000000E+00  0.00000000000E+00  0.94754366419E+03  0.94754366420E+03  0.50400001928E-02 0. -1.
       -1   -1    0    0    0  501  0.00000000000E+00  0.00000000000E+00 -0.32534453846E+04  0.32534453846E+04  0.50400001928E-02 0.  1.
    10030    2    1    2    0    0  0.00000000000E+00  0.00000000000E+00 -0.23059017204E+04  0.42009890488E+04  0.35115703387E+04 0.  0.
        3    1    3    3  502    0  0.12008101137E+04  0.31579357917E+02  0.37902115241E+03  0.12596028062E+04  0.10100000352E+00 0. -1.
       -3    1    3    3    0  502 -0.12008101137E+04 -0.31579357917E+02 -0.26849228728E+04  0.29413862426E+04  0.10100000352E+00 0.  1.
</event>
<event>
 5   0  0.9878977E-07  0.3591807E+04  0.7818609E-02  0.8092371E-01
        2   -1    0    0  501    0  0.00000000000E+00  0.00000000000E+00  0.21434017096E+04  0.21434017096E+04  0.25500000920E-02 0.  1.
       -2   -1    0    0    0  501  0.00000000000E+00  0.00000000000E+00 -0.15047430249E+04  0.15047430249E+04  0.25500000920E-02 0. -1.
    10030    2    1    2    0    0  0.00000000000E+00  0.00000000000E+00  0.63865868466E+03  0.36481447346E+04  0.35918066608E+04 0.  0.
        5    1    3    3  502    0 -0.16051312512E+04  0.79689913498E+03  0.43843815392E+03  0.18449240282E+04  0.46999998093E+01 0. -1.
       -5    1    3    3    0  502  0.16051312512E+04 -0.79689913498E+03  0.20022053074E+03  0.18032207064E+04  0.46999998093E+01 0.  1.
</event>
<event>
 5   0  0.9878336E-07  0.3615764E+04  0.7818609E-02  0.8086890E-01
       -2   -1    0    0    0  501  0.00000000000E+00  0.00000000000E+00  0.17225366750E+04  0.17225366750E+04  0.25500000920E-02 0. -1.
        2   -1    0    0  501    0  0.00000000000E+00  0.00000000000E+00 -0.18974558858E+04  0.18974558858E+04  0.25500000920E-02 0.  1.
    10030    2    1    2    0    0  0.00000000000E+00  0.00000000000E+00 -0.17491921074E+03  0.36199925608E+04  0.36157640147E+04 0.  0.
        3    1    3    3  502    0 -0.60554145570E+03  0.10440730061E+04  0.12600968223E+04  0.17448819182E+04  0.10100000352E+00 0. -1.
       -3    1    3    3    0  502  0.60554145570E+03 -0.10440730061E+04 -0.14350160330E+04  0.18751106426E+04  0.10100000352E+00 0.  1.
</event>
<event>
 5   0  0.3365378E-07  0.3179329E+04  0.7818609E-02  0.8194298E-01
        1   -1    0    0  501    0  0.00000000000E+00  0.00000000000E+00  0.18657136191E+04  0.18657136191E+04  0.50400001928E-02 0.  1.
       -1   -1    0    0    0  501  0.00000000000E+00  0.00000000000E+00 -0.13544597145E+04  0.13544597145E+04  0.50400001928E-02 0. -1.
    10030    2    1    2    0    0  0.00000000000E+00  0.00000000000E+00  0.51125390459E+03  0.32201733335E+04  0.31793294487E+04 0.  0.
        3    1    3    3  502    0 -0.82406009775E+03  0.11957752340E+04  0.91052494182E+03  0.17140621735E+04  0.10100000352E+00 0. -1.
       -3    1    3    3    0  502  0.82406009775E+03 -0.11957752340E+04 -0.39927103723E+03  0.15061111600E+04  0.10100000352E+00 0.  1.
</event>
<event>
 5   0  0.9538919E-07  0.3013046E+04  0.7818609E-02  0.8240015E-01
        2   -1    0    0  501    0  0.00000000000E+00  0.00000000000E+00  0.20195163605E+04  0.20195163605E+04  0.25500000920E-02 0. -1.
       -2   -1    0    0    0  501  0.00000000000E+00  0.00000000000E+00 -0.11238391342E+04  0.11238391342E+04  0.25500000920E-02 0.  1.
    10030    2    1    2    0    0  0.00000000000E+00  0.00000000000E+00  0.89567722626E+03  0.31433554947E+04  0.30130459792E+04 0.  0.
        4    1    3    3  502    0  0.57304796271E+03 -0.20263723979E+03 -0.99024220558E+03  0.11619066473E+04  0.12699999809E+01 0.  1.
       -4    1    3    3    0  502 -0.57304796271E+03  0.20263723979E+03  0.18859194318E+04  0.19814488474E+04  0.12699999809E+01 0. -1.
</event>
<event>
 5   0  0.3159875E-07  0.3608674E+04  0.7818609E-02  0.8088508E-01
       -4   -1    0    0    0  501  0.00000000000E+00  0.00000000000E+00  0.14675498516E+04  0.14675504012E+04  0.12699999809E+01 0.  1.
        4   -1    0    0  501    0  0.00000000000E+00  0.00000000000E+00 -0.22184115874E+04  0.22184119509E+04  0.12699999809E+01 0. -1.
    10030    2    1    2    0    0  0.00000000000E+00  0.00000000000E+00 -0.75086173577E+03  0.36859623521E+04  0.36086735950E+04 0.  0.
        1    1    3    3  502    0 -0.10897981505E+03  0.17889171611E+04 -0.16232374180E+03  0.17995694504E+04  0.50400001928E-02 0.  1.
       -1    1    3    3    0  502  0.10897981505E+03 -0.17889171611E+04 -0.58853799396E+03  0.18863929018E+04  0.50400001928E-02 0. -1.
</event>
<event>
 5   0  0.3159875E-07  0.3562352E+04  0.7818609E-02  0.8099170E-01
        1   -1    0    0  501    0  0.00000000000E+00  0.00000000000E+00  0.22119949252E+04  0.22119949252E+04  0.50400001928E-02 0.  1.
       -1   -1    0    0    0  501  0.00000000000E+00  0.00000000000E+00 -0.14342655710E+04  0.14342655710E+04  0.50400001928E-02 0. -1.
    10030    2    1    2    0    0  0.00000000000E+00  0.00000000000E+00  0.77772935421E+03  0.36462604962E+04  0.35623521244E+04 0.  0.
        2    1    3    3  502    0  0.11425898732E+04  0.43572696906E+03  0.17144438620E+04  0.21058697410E+04  0.25500000920E-02 0.  1.
       -2    1    3    3    0  502 -0.11425898732E+04 -0.43572696906E+03 -0.93671450782E+03  0.15403907553E+04  0.25500000920E-02 0. -1.
</event>
<event>
 5   0  0.3278988E-07  0.3642348E+04  0.7818609E-02  0.8080860E-01
        1   -1    0    0  501    0  0.00000000000E+00  0.00000000000E+00  0.21870943208E+04  0.21870943208E+04  0.50400001928E-02 0.  1.
       -1   -1    0    0    0  501  0.00000000000E+00  0.00000000000E+00 -0.15164754276E+04  0.15164754276E+04  0.50400001928E-02 0. -1.
    10030    2    1    2    0    0  0.00000000000E+00  0.00000000000E+00  0.67061889319E+03  0.37035697484E+04  0.36423480313E+04 0.  0.
        4    1    3    3  502    0  0.92134470445E+03 -0.15403059933E+04  0.64913043501E+03  0.19086095861E+04  0.12699999809E+01 0.  1.
       -4    1    3    3    0  502 -0.92134470445E+03  0.15403059933E+04  0.21488458178E+02  0.17949601623E+04  0.12699999809E+01 0. -1.
</event>
<event>
 5   0  0.3365378E-07  0.4000873E+04  0.7818609E-02  0.8004371E-01
       -1   -1    0    0    0  501  0.00000000000E+00  0.00000000000E+00  0.22021817145E+04  0.22021817145E+04  0.50400001928E-02 0. -1.
        1   -1    0    0  501    0  0.00000000000E+00  0.00000000000E+00 -0.18171730773E+04  0.18171730773E+04  0.50400001928E-02 0.  1.
    10030    2    1    2    0    0  0.00000000000E+00  0.00000000000E+00  0.38500863723E+03  0.40193547919E+04  0.40008725663E+04 0.  0.
        3    1    3    3  502    0  0.89140563822E+03  0.11166729127E+04 -0.12140286737E+04  0.18749474757E+04  0.10100000352E+00 0.  1.
       -3    1    3    3    0  502 -0.89140563822E+03 -0.11166729127E+04  0.15990373109E+04  0.21444073162E+04  0.10100000352E+00 0. -1.
</event>
<event>
 5   0  0.3159875E-07  0.3591174E+04  0.7818609E-02  0.8092516E-01
       -1   -1    0    0    0  501  0.00000000000E+00  0.00000000000E+00  0.12379147736E+04  0.12379147736E+04  0.50400001928E-02 0.  1.
        1   -1    0    0  501    0  0.00000000000E+00  0.00000000000E+00 -0.26044871095E+04  0.26044871095E+04  0.50400001928E-02 0. -1.
    10030    2    1    2    0    0  0.00000000000E+00  0.00000000000E+00 -0.13665723360E+04  0.38424018831E+04  0.35911742205E+04 0.  0.
        5    1    3    3  502    0 -0.80683379837E+03 -0.14383266386E+04  0.76569130531E+02  0.16509540330E+04  0.46999998093E+01 0. -1.
       -5    1    3    3    0  502  0.80683379837E+03  0.14383266386E+04 -0.14431414665E+04  0.21914478501E+04  0.46999998093E+01 0.  1.
</event>
<event>
 5   0  0.9878336E-07  0.3573572E+04  0.7818609E-02  0.8096572E-01
        2   -1    0    0  501    0  0.00000000000E+00  0.00000000000E+00  0.23960865164E+04  0.23960865164E+04  0.25500000920E-02 0.  1.
       -2   -1    0    0    0  501  0.00000000000E+00  0.00000000000E+00 -0.13324245345E+04  0.13324245345E+04  0.25500000920E-02 0. -1.
    10030    2    1    2    0    0  0.00000000000E+00  0.00000000000E+00  0.10636619819E+04  0.37285110508E+04  0.35735721407E+04 0.  0.
        3    1    3    3  502    0 -0.64319076335E+03 -0.34765623227E+03 -0.11692072020E+04  0.13789868402E+04  0.10100000352E+00 0. -1.
       -3    1    3    3    0  502  0.64319076335E+03  0.34765623227E+03  0.22328691839E+04  0.23495242107E+04  0.10100000352E+00 0.  1.
</event>
<event>
 5   0  0.3242047E-07  0.3725864E+04  0.7818609E-02  0.8062254E-01
        1   -1    0    0  501    0  0.00000000000E+00  0.00000000000E+00  0.17845255512E+04  0.17845255512E+04  0.50400001928E-02 0. -1.
       -1   -1    0    0    0  501  0.00000000000E+00  0.00000000000E+00 -0.19447833562E+04  0.19447833562E+04  0.50400001928E-02 0.  1.
    10030    2    1    2    0    0  0.00000000000E+00  0.00000000000E+00 -0.16025780494E+03  0.37293089074E+04  0.37258639753E+04 0.  0.
        1    1    3    3  502    0 -0.72255351079E+03  0.14400470077E+04 -0.10162458109E+04  0.19048817571E+04  0.50400001928E-02 0.  1.
       -1    1    3    3    0  502  0.72255351079E+03 -0.14400470077E+04  0.85598800596E+03  0.18244271503E+04  0.50400001928E-02 0. -1.
</event>
<event>
 5   0  0.1006019E-06  0.3458516E+04  0.7818609E-02  0.8123692E-01
       -2   -1    0    0    0  501  0.00000000000E+00  0.00000000000E+00  0.15273518428E+04  0.15273518428E+04  0.25500000920E-02 0.  1.
        2   -1    0    0  501    0  0.00000000000E+00  0.00000000000E+00 -0.19578547425E+04  0.19578547425E+04  0.25500000920E-02 0. -1.
    10030    2    1    2    0    0  0.00000000000E+00  0.00000000000E+00 -0.43050289970E+03  0.34852065853E+04  0.34585158949E+04 0.  0.
        1    1    3    3  502    0  0.30065681155E+03  0.12736222004E+04 -0.13543844776E+04  0.18833123323E+04  0.50400001928E-02 0.  1.
       -1    1    3    3    0  502 -0.30065681155E+03 -0.12736222004E+04  0.92388157795E+03  0.16018942530E+04  0.50400001928E-02 0. -1.
</event>
<event>
 5   0  0.3365378E-07  0.2582245E+04  0.7818609E-02  0.8374257E-01
        1   -1    0    0  501    0  0.00000000000E+00  0.00000000000E+00  0.16491670801E+04  0.16491670801E+04  0.50400001928E-02 0.  1.
       -1   -1    0    0    0  501  0.00000000000E+00  0.00000000000E+00 -0.10108117308E+04  0.10108117308E+04  0.50400001928E-02 0. -1.
    10030    2    1    2    0    0  0.00000000000E+00  0.00000000000E+00  0.63835534931E+03  0.26599788110E+04  0.25822450935E+04 0.  0.
        3    1    3    3  502    0 -0.19754173090E+03 -0.25667053281E+03 -0.96828434640E+03  0.10210176705E+04  0.10100000352E+00 0. -1.
       -3    1    3    3    0  502  0.19754173090E+03  0.25667053281E+03  0.16066396957E+04  0.16389611404E+04  0.10100000352E+00 0.  1.
</event>
<event>
 5   0  0.3159875E-07  0.3649118E+04  0.7818609E-02  0.8079332E-01
        1   -1    0    0  501    0  0.00000000000E+00  0.00000000000E+00  0.19811012360E+04  0.19811012360E+04  0.50400001928E-02 0. -1.
       -1   -1    0    0    0  501  0.00000000000E+00  0.00000000000E+00 -0.16803867966E+04  0.16803867966E+04  0.50400001928E-02 0.  1.
    10030    2    1    2    0    0  0.00000000000E+00  0.00000000000E+00  0.30071443940E+03  0.36614880327E+04  0.36491184469E+04 0.  0.
        2    1    3    3  502    0 -0.16415912133E+04  0.16798392073E+03  0.93144058500E+03  0.18948936310E+04  0.25500000920E-02 0. -1.
       -2    1    3    3    0  502  0.16415912133E+04 -0.16798392073E+03 -0.63072614561E+03  0.17665944017E+04  0.25500000920E-02 0.  1.
</event>
<event>
 5   0  0.3159875E-07  0.3586808E+04  0.7818609E-02  0.8093520E-01
        1   -1    0    0  501    0  0.00000000000E+00  0.00000000000E+00  0.20834695201E+04  0.20834695201E+04  0.50400001928E-02 0.  1.
       -1   -1    0    0    0  501  0.00000000000E+00  0.00000000000E+00 -0.15437223108E+04  0.15437223108E+04  0.50400001928E-02 0. -1.
    10030    2    1    2    0    0  0.00000000000E+00  0.00000000000E+00  0.53974720936E+03  0.36271918309E+04  0.35868082648E+04 0.  0.
        5    1    3    3  502    0 -0.14988675105E+04 -0.77793881210E+03  0.88039573087E+03  0.19044451534E+04  0.46999998093E+01 0.  1.
       -5    1    3    3    0  502  0.14988675105E+04  0.77793881210E+03 -0.34064852152E+03  0.17227466775E+04  0.46999998093E+01 0. -1.
</event>
<event>
 5   0  0.9878977E-07  0.3638172E+04  0.7818609E-02  0.8081804E-01
       -2   -1    0    0    0  501  0.00000000000E+00  0.00000000000E+00  0.12940387358E+04  0.12940387358E+04  0.25500000920E-02 0. -1.
        2   -1    0    0  501    0  0.00000000000E+00  0.00000000000E+00 -0.25571669790E+04  0.25571669790E+04  0.25500000920E-02 0.  1.
    10030    2    1    2    0    0  0.00000000000E+00  0.00000000000E+00 -0.12631282432E+04  0.38512057149E+04  0.36381715874E+04 0.  0.
        5    1    3    3  502    0  0.10766494241E+04  0.34568476262E+03 -0.21399140478E+04  0.24203153016E+04  0.46999998093E+01 0.  1.
       -5    1    3    3    0  502 -0.10766494241E+04 -0.34568476262E+03  0.87678580458E+03  0.14308904132E+04  0.46999998093E+01 0. -1.
</event>
<event>
 5   0  0.9878977E-07  0.3589861E+04  0.7818609E-02  0.8092818E-01
        2   -1    0    0  501    0  0.00000000000E+00  0.00000000000E+00  0.27806149999E+04  0.27806149999E+04  0.25500000920E-02 0. -1.
       -2   -1    0    0    0  501  0.00000000000E+00  0.00000000000E+00 -0.11586557126E+04  0.11586557126E+04  0.25500000920E-02 0.  1.
    10030    2    1    2    0    0  0.00000000000E+00  0.00000000000E+00  0.16219592873E+04  0.39392707125E+04  0.35898609745E+04 0.  0.
        5    1    3    3  502    0  0.91050548486E+02 -0.23143955655E+03  0.27616091563E+04  0.27727895147E+04  0.46999998093E+01 0. -1.
       -5    1    3    3    0  502 -0.91050548486E+02  0.23143955655E+03 -0.11396498690E+04  0.11664811977E+04  0.46999998093E+01 0.  1.
</event>
<event>
 5   0  0.9878977E-07  0.3612736E+04  0.7818609E-02  0.8087581E-01
       -2   -1    0    0    0  501  0.00000000000E+00  0.00000000000E+00  0.24379870338E+04  0.24379870338E+04  0.25500000920E-02 0.  1.
        2   -1    0    0  501    0  0.00000000000E+00  0.00000000000E+00 -0.13383847055E+04  0.13383847056E+04  0.25500000920E-02 0. -1.
    10030    2    1    2    0    0  0.00000000000E+00  0.00000000000E+00  0.10996023282E+04  0.37763717393E+04  0.36127355610E+04 0.  0.
        5    1    3    3  502    0 -0.81424110814E+03  0.10751535439E+04 -0.70629234841E+03  0.15224370912E+04  0.46999998093E+01 0. -1.
       -5    1    3    3    0  502  0.81424110814E+03 -0.10751535439E+04  0.18058946766E+04  0.22539346482E+04  0.46999998093E+01 0.  1.
</event>
<event>
 5   0  0.3278988E-07  0.3698484E+04  0.7818609E-02  0.8068298E-01
        1   -1    0    0  501    0  0.00000000000E+00  0.00000000000E+00  0.16777949002E+04  0.16777949002E+04  0.50400001928E-02 0.  1.
       -1   -1    0    0    0  501  0.00000000000E+00  0.00000000000E+00 -0.20382082693E+04  0.20382082693E+04  0.50400001928E-02 0. -1.
    10030    2    1    2    0    0  0.00000000000E+00  0.00000000000E+00 -0.36041336906E+03  0.37160031695E+04  0.36984837108E+04 0.  0.
        4    1    3    3  502    0 -0.86933413843E+03  0.14511893922E+04 -0.93074001340E+03  0.19307954531E+04  0.12699999809E+01 0. -1.
       -4    1    3    3    0  502  0.86933413843E+03 -0.14511893922E+04  0.57032664434E+03  0.17852077163E+04  0.12699999809E+01 0.  1.
</event>
<event>
 5   0  0.1031659E-06  0.3513683E+04  0.7818609E-02  0.8110555E-01
        2   -1    0    0  501    0  0.00000000000E+00  0.00000000000E+00  0.13718383907E+04  0.13718383907E+04  0.25500000920E-02 0. -1.
       -2   -1    0    0    0  501  0.00000000000E+00  0.00000000000E+00 -0.22498953124E+04  0.22498953124E+04  0.25500000920E-02 0.  1.
    10030    2    1    2    0    0  0.00000000000E+00  0.00000000000E+00 -0.87805692166E+03  0.36217337031E+04  0.35136834033E+04 0.  0.
        2    1    3    3  502    0 -0.24692204357E+03  0.40067651253E+03 -0.21837042329E+04  0.22338478776E+04  0.25500000920E-02 0.  1.
       -2    1    3    3    0  502  0.24692204357E+03 -0.40067651253E+03  0.13056473113E+04  0.13878858255E+04  0.25500000920E-02 0. -1.
</event>
<event>
 5   0  0.9878336E-07  0.3637443E+04  0.7818609E-02  0.8081968E-01
       -2   -1    0    0    0  501  0.00000000000E+00  0.00000000000E+00  0.11238247451E+04  0.11238247451E+04  0.25500000920E-02 0.  1.
        2   -1    0    0  501    0  0.00000000000E+00  0.00000000000E+00 -0.29432958654E+04  0.29432958654E+04  0.25500000920E-02 0. -1.
    10030    2    1    2    0    0  0.00000000000E+00  0.00000000000E+00 -0.18194711203E+04  0.40671206106E+04  0.36374434571E+04 0.  0.
        3    1    3    3  502    0  0.15151366407E+03  0.17904017898E+04 -0.12245109195E+04  0.21743785230E+04  0.10100000352E+00 0. -1.
       -3    1    3    3    0  502 -0.15151366407E+03 -0.17904017898E+04 -0.59496020080E+03  0.18927420875E+04  0.10100000352E+00 0.  1.
</event>
<event>
 5   0  0.3365378E-07  0.3390159E+04  0.7818609E-02  0.8140326E-01
        1   -1    0    0  501    0  0.00000000000E+00  0.00000000000E+00  0.19963961075E+04  0.19963961075E+04  0.50400001928E-02 0.  1.
       -1   -1    0    0    0  501  0.00000000000E+00  0.00000000000E+00 -0.14392405395E+04  0.14392405395E+04  0.50400001928E-02 0. -1.
    10030    2    1    2    0    0  0.00000000000E+00  0.00000000000E+00  0.55715556799E+03  0.34356366469E+04  0.33901588227E+04 0.  0.
        3    1    3    3  502    0 -0.10110148861E+04 -0.88845250738E+03  0.13228352034E+04  0.18871650546E+04  0.10100000352E+00 0. -1.
       -3    1    3    3    0  502  0.10110148861E+04  0.88845250738E+03 -0.76567963543E+03  0.15484715923E+04  0.10100000352E+00 0.  1.
</event>
<event>
 5   0  0.9878336E-07  0.3597838E+04  0.7818609E-02  0.8090987E-01
       -2   -1    0    0    0  501  0.00000000000E+00  0.00000000000E+00  0.15425006030E+04  0.15425006030E+04  0.25500000920E-02 0. -1.
        2   -1    0    0  501    0  0.00000000000E+00  0.00000000000E+00 -0.20979627866E+04  0.20979627866E+04  0.25500000920E-02 0.  1.
    10030    2    1    2    0    0  0.00000000000E+00  0.00000000000E+00 -0.55546218357E+03  0.36404633897E+04  0.35978376081E+04 0.  0.
        3    1    3    3  502    0 -0.61578728410E+03 -0.15411211970E+04 -0.98011685094E+03  0.19274017679E+04  0.10100000352E+00 0.  1.
       -3    1    3    3    0  502  0.61578728410E+03  0.15411211970E+04  0.42465466737E+03  0.17130616218E+04  0.10100000352E+00 0. -1.
</event>
<event>
 5   0  0.3242047E-07  0.3643773E+04  0.7818609E-02  0.8080538E-01
        1   -1    0    0  501    0  0.00000000000E+00  0.00000000000E+00  0.22716943773E+04  0.22716943773E+04  0.50400001928E-02 0.  1.
       -1   -1    0    0    0  501  0.00000000000E+00  0.00000000000E+00 -0.14611431302E+04  0.14611431302E+04  0.50400001928E-02 0. -1.
    10030    2    1    2    0    0  0.00000000000E+00  0.00000000000E+00  0.81055124709E+03  0.37328375074E+04  0.36437731176E+04 0.  0.
        1    1    3    3  502    0 -0.15212221365E+04  0.95848632390E+03  0.70649983526E+03  0.19318268139E+04  0.50400001928E-02 0.  1.
       -1    1    3    3    0  502  0.15212221365E+04 -0.95848632390E+03  0.10405141183E+03  0.18010106935E+04  0.50400001928E-02 0. -1.
</event>
<event>
 5   0  0.9878977E-07  0.3302749E+04  0.7818609E-02  0.8162196E-01
       -2   -1    0    0    0  501  0.00000000000E+00  0.00000000000E+00  0.21158892930E+04  0.21158892930E+04  0.25500000920E-02 0. -1.
        2   -1    0    0  501    0  0.00000000000E+00  0.00000000000E+00 -0.12888377807E+04  0.12888377807E+04  0.25500000920E-02 0.  1.
    10030    2    1    2    0    0  0.00000000000E+00  0.00000000000E+00  0.82705151236E+03  0.34047270737E+04  0.33027491946E+04 0.  0.
        5    1    3    3  502    0 -0.57476715412E+03  0.13528633310E+04  0.11893722571E+04  0.18908265202E+04  0.46999998093E+01 0.  1.
       -5    1    3    3    0  502  0.57476715412E+03 -0.13528633310E+04 -0.36232074472E+03  0.15139005535E+04  0.46999998093E+01 0. -1.
</event>
<event>
 5   0  0.3365378E-07  0.3093664E+04  0.7818609E-02  0.8217479E-01
       -1   -1    0    0    0  501  0.00000000000E+00  0.00000000000E+00  0.15988259486E+04  0.15988259486E+04  0.50400001928E-02 0.  1.
        1   -1    0    0  501    0  0.00000000000E+00  0.00000000000E+00 -0.14965290495E+04  0.14965290495E+04  0.50400001928E-02 0. -1.
    10030    2    1    2    0    0  0.00000000000E+00  0.00000000000E+00  0.10229689907E+03  0.30953549981E+04  0.30936641557E+04 0.  0.
        3    1    3    3  502    0 -0.97863270183E+03  0.82013766749E+02 -0.11445952024E+04  0.15081599420E+04  0.10100000352E+00 0. -1.
       -3    1    3    3    0  502  0.97863270183E+03 -0.82013766749E+02  0.12468921015E+04  0.15871950561E+04  0.10100000352E+00 0.  1.
</event>
<event>
 5   0  0.1031659E-06  0.3539928E+04  0.7818609E-02  0.8104392E-01
        2   -1    0    0  501    0  0.00000000000E+00  0.00000000000E+00  0.18271811696E+04  0.18271811697E+04  0.25500000920E-02 0. -1.
       -2   -1    0    0    0  501  0.00000000000E+00  0.00000000000E+00 -0.17145389359E+04  0.17145389359E+04  0.25500000920E-02 0.  1.
    10030    2    1    2    0    0  0.00000000000E+00  0.00000000000E+00  0.11264223372E+03  0.35417201056E+04  0.35399283938E+04 0.  0.
        2    1    3    3  502    0  0.11792272138E+04  0.27252551107E+03  0.13484569958E+04  0.18119556412E+04  0.25500000920E-02 0. -1.
       -2    1    3    3    0  502 -0.11792272138E+04 -0.27252551107E+03 -0.12358147621E+04  0.17297644644E+04  0.25500000920E-02 0.  1.
</event>
<event>
 5   0  0.3159875E-07  0.2735610E+04  0.7818609E-02  0.8323542E-01
       -1   -1    0    0    0  501  0.00000000000E+00  0.00000000000E+00  0.17862312852E+04  0.17862312852E+04  0.50400001928E-02 0.  1.
        1   -1    0    0  501    0  0.00000000000E+00  0.00000000000E+00 -0.10473957483E+04  0.10473957483E+04  0.50400001928E-02 0. -1.
    10030    2    1    2    0    0  0.00000000000E+00  0.00000000000E+00  0.73883553694E+03  0.28336270335E+04  0.27356103916E+04 0.  0.
        5    1    3    3  502    0  0.85612859691E+03  0.10541150320E+04  0.19998978376E+03  0.13726371257E+04  0.46999998093E+01 0. -1.
       -5    1    3    3    0  502 -0.85612859691E+03 -0.10541150320E+04  0.53884575318E+03  0.14609899079E+04  0.46999998093E+01 0.  1.
</event>
<event>
 5   0  0.3159875E-07  0.3632946E+04  0.7818609E-02  0.8082986E-01
       -1   -1    0    0    0  501  0.00000000000E+00  0.00000000000E+00  0.30281546017E+04  0.30281546017E+04  0.50400001928E-02 0. -1.
        1   -1    0    0  501    0  0.00000000000E+00  0.00000000000E+00 -0.10896322251E+04  0.10896322251E+04  0.50400001928E-02 0.  1.
    10030    2    1    2    0    0  0.00000000000E+00  0.00000000000E+00  0.19385223766E+04  0.41177868268E+04  0.36329463727E+04 0.  0.
        2    1    3    3  502    0  0.50227329235E+03  0.84005997809E+03  0.27037073371E+04  0.28754152034E+04  0.25500000920E-02 0. -1.
       -2    1    3    3    0  502 -0.50227329235E+03 -0.84005997809E+03 -0.76518496050E+03  0.12423716235E+04  0.25500000920E-02 0.  1.
</event>
<event>
 5   0  0.3159875E-07  0.3616449E+04  0.7818609E-02  0.8086734E-01
       -1   -1    0    0    0  501  0.00000000000E+00  0.00000000000E+00  0.12012744990E+04  0.12012744990E+04  0.50400001928E-02 0.  1.
        1   -1    0    0  501    0  0.00000000000E+00  0.00000000000E+00 -0.27218393859E+04  0.27218393859E+04  0.50400001928E-02 0. -1.
    10030    2    1    2    0    0  0.00000000000E+00  0.00000000000E+00 -0.15205648869E+04  0.39231138850E+04  0.36164492225E+04 0.  0.
        5    1    3    3  502    0  0.55680544550E+03 -0.88721979750E+03 -0.23591950486E+04  0.25812815887E+04  0.46999998093E+01 0. -1.
       -5    1    3    3    0  502 -0.55680544550E+03  0.88721979750E+03  0.83863016163E+03  0.13418322962E+04  0.46999998093E+01 0.  1.
</event>
<event>
 5   0  0.9878977E-07  0.3560563E+04  0.7818609E-02  0.8099585E-01
       -2   -1    0    0    0  501  0.00000000000E+00  0.00000000000E+00  0.13963975861E+04  0.13963975861E+04  0.25500000920E-02 0. -1.
        2   -1    0    0  501    0  0.00000000000E+00  0.00000000000E+00 -0.22696988439E+04  0.22696988439E+04  0.25500000920E-02 0.  1.
    10030    2    1    2    0    0  0.00000000000E+00  0.00000000000E+00 -0.87330125780E+03  0.36660964301E+04  0.35605628695E+04 0.  0.
        5    1    3    3  502    0 -0.14878358382E+04 -0.76204370415E+03  0.19388387256E+03  0.16828485180E+04  0.46999998093E+01 0. -1.
       -5    1    3    3    0  502  0.14878358382E+04  0.76204370415E+03 -0.10671851304E+04  0.19832479121E+04  0.46999998093E+01 0.  1.
</event>
<event>
 5   0  0.3159875E-07  0.3542392E+04  0.7818609E-02  0.8103816E-01
        1   -1    0    0  501    0  0.00000000000E+00  0.00000000000E+00  0.17141111082E+04  0.17141111082E+04  0.50400001928E-02 0. -1.
       -1   -1    0    0    0  501  0.00000000000E+00  0.00000000000E+00 -0.18301821961E+04  0.18301821961E+04  0.50400001928E-02 0.  1.
    10030    2    1    2    0    0  0.00000000000E+00  0.00000000000E+00 -0.11607108792E+03  0.35442933043E+04  0.35423922044E+04 0.  0.
        5    1    3    3  502    0  0.94470222057E+03 -0.58295742058E+03 -0.14389254623E+04  0.18173690368E+04  0.46999998093E+01 0.  1.
       -5    1    3    3    0  502 -0.94470222057E+03  0.58295742058E+03  0.13228543744E+04  0.17269242675E+04  0.46999998093E+01 0. -1.
</event>
<event>
 5   0  0.1006019E-06  0.3426669E+04  0.7818609E-02  0.8131392E-01
       -2   -1    0    0    0  501  0.00000000000E+00  0.00000000000E+00  0.13090047289E+04  0.13090047289E+04  0.25500000920E-02 0.  1.
        2   -1    0    0  501    0  0.00000000000E+00  0.00000000000E+00 -0.22425551172E+04  0.22425551172E+04  0.25500000920E-02 0. -1.
    10030    2    1    2    0    0  0.00000000000E+00  0.00000000000E+00 -0.93355038826E+03  0.35515598461E+04  0.34266690842E+04 0.  0.
        1    1    3    3  502    0  0.15180106315E+04 -0.13061472316E+03  0.34543060238E+03  0.15622863964E+04  0.50400001928E-02 0.  1.
       -1    1    3    3    0  502 -0.15180106315E+04  0.13061472316E+03 -0.12789809906E+04  0.19892734497E+04  0.50400001928E-02 0. -1.
</event>
<event>
 5   0  0.9878977E-07  0.3146167E+04  0.7818609E-02  0.8203181E-01
        2   -1    0    0  501    0  0.00000000000E+00  0.00000000000E+00  0.16217058605E+04  0.16217058605E+04  0.25500000920E-02 0.  1.
       -2   -1    0    0    0  501  0.00000000000E+00  0.00000000000E+00 -0.15259194222E+04  0.15259194222E+04  0.25500000920E-02 0. -1.
    10030    2    1    2    0    0  0.00000000000E+00  0.00000000000E+00  0.95786438264E+02  0.31476252827E+04  0.31461674906E+04 0.  0.
        5    1    3    3  502    0  0.15574708007E+04 -0.21754713475E+03  0.87812588854E+01  0.15726224122E+04  0.46999998093E+01 0.  1.
       -5    1    3    3    0  502 -0.15574708007E+04  0.21754713475E+03  0.87005179379E+02  0.15750028705E+04  0.46999998093E+01 0. -1.
</event>
<event>
 5   0  0.9878977E-07  0.3643211E+04  0.7818609E-02  0.8080665E-01
        2   -1    0    0  501    0  0.00000000000E+00  0.00000000000E+00  0.15411003775E+04  0.15411003775E+04  0.25500000920E-02 0. -1.
       -2   -1    0    0    0  501  0.00000000000E+00  0.00000000000E+00 -0.21531675168E+04  0.21531675168E+04  0.25500000920E-02 0.  1.
    10030    2    1    2    0    0  0.00000000000E+00  0.00000000000E+00 -0.61206713925E+03  0.36942678943E+04  0.36432113708E+04 0.  0.
        5    1    3    3  502    0 -0.13279911600E+04 -0.90426786927E+03  0.56446334655E+03  0.17029098215E+04  0.46999998093E+01 0. -1.
       -5    1    3    3    0  502  0.13279911600E+04  0.90426786927E+03 -0.11765304858E+04  0.19913580729E+04  0.46999998093E+01 0.  1.
</event>
<event>
 5   0  0.3159875E-07  0.3449814E+04  0.7818609E-02  0.8125787E-01
        1   -1    0    0  501    0  0.00000000000E+00  0.00000000000E+00  0.14190591139E+04  0.14190591139E+04  0.50400001928E-02 0.  1.
       -1   -1    0    0    0  501  0.00000000000E+00  0.00000000000E+00 -0.20966738362E+04  0.20966738362E+04  0.50400001928E-02 0. -1.
    10030    2    1    2    0    0  0.00000000000E+00  0.00000000000E+00 -0.67761472231E+03  0.35157329501E+04  0.34498139753E+04 0.  0.
        5    1    3    3  502    0 -0.48474183536E+03 -0.13558107687E+03  0.13425432704E+04  0.14338066111E+04  0.46999998093E+01 0.  1.
       -5    1    3    3    0  502  0.48474183536E+03  0.13558107687E+03 -0.20201579927E+04  0.20819263389E+04  0.46999998093E+01 0. -1.
</event>
<event>
 5   0  0.3159875E-07  0.3581436E+04  0.7818609E-02  0.8094757E-01
       -1   -1    0    0    0  501  0.00000000000E+00  0.00000000000E+00  0.21675006806E+04  0.21675006806E+04  0.50400001928E-02 0. -1.
        1   -1    0    0  501    0  0.00000000000E+00  0.00000000000E+00 -0.14794326801E+04  0.14794326801E+04  0.50400001928E-02 0.  1.
    10030    2    1    2    0    0  0.00000000000E+00  0.00000000000E+00  0.68806800045E+03  0.36469333607E+04  0.35814362153E+04 0.  0.
        5    1    3    3  502    0  0.11796122965E+04 -0.12774413758E+04  0.78000826835E+03  0.19057220750E+04  0.46999998093E+01 0.  1.
       -5    1    3    3    0  502 -0.11796122965E+04  0.12774413758E+04 -0.91940267899E+02  0.17412112857E+04  0.46999998093E+01 0. -1.
</event>
<event>
 5   0  0.9878977E-07  0.3573640E+04  0.7818609E-02  0.8096556E-01
       -2   -1    0    0    0  501  0.00000000000E+00  0.00000000000E+00  0.14852081876E+04  0.14852081876E+04  0.25500000920E-02 0. -1.
        2   -1    0    0  501    0  0.00000000000E+00  0.00000000000E+00 -0.21496827837E+04  0.21496827837E+04  0.25500000920E-02 0.  1.
    10030    2    1    2    0    0  0.00000000000E+00  0.00000000000E+00 -0.66447459607E+03  0.36348909713E+04  0.35736404246E+04 0.  0.
        5    1    3    3  502    0  0.15339457456E+04 -0.90077727389E+03 -0.16108219846E+03  0.17861575553E+04  0.46999998093E+01 0. -1.
       -5    1    3    3    0  502 -0.15339457456E+04  0.90077727389E+03 -0.50339239761E+03  0.18487334160E+04  0.46999998093E+01 0.  1.
</event>
<event>
 5   0  0.3278988E-07  0.3149723E+04  0.7818609E-02  0.8202223E-01
        1   -1    0    0  501    0  0.00000000000E+00  0.00000000000E+00  0.15014334189E+04  0.15014334189E+04  0.50400001928E-02 0.  1.
       -1   -1    0    0    0  501  0.00000000000E+00  0.00000000000E+00 -0.16518802730E+04  0.16518802730E+04  0.50400001928E-02 0. -1.
    10030    2    1    2    0    0  0.00000000000E+00  0.00000000000E+00 -0.15044685411E+03  0.31533136919E+04  0.31497226836E+04 0.  0.
        4    1    3    3  502    0  0.15412996666E+04  0.32322742797E+03 -0.64916023941E+02  0.15761650724E+04  0.12699999809E+01 0.  1.
       -4    1    3    3    0  502 -0.15412996666E+04 -0.32322742797E+03 -0.85530830165E+02  0.15771486196E+04  0.12699999809E+01 0. -1.
</event>
<event>
 5   0  0.1006019E-06  0.3606081E+04  0.7818609E-02  0.8089100E-01
        2   -1    0    0  501    0  0.00000000000E+00  0.00000000000E+00  0.26106623295E+04  0.26106623295E+04  0.25500000920E-02 0. -1.
       -2   -1    0    0    0  501  0.00000000000E+00  0.00000000000E+00 -0.12452606248E+04  0.12452606248E+04  0.25500000920E-02 0.  1.
    10030    2    1    2    0    0  0.00000000000E+00  0.00000000000E+00  0.13654017046E+04  0.38559229543E+04  0.36060809773E+04 0.  0.
        1    1    3    3  502    0 -0.14190751057E+04 -0.66825013756E+03 -0.26807356033E+03  0.15912874774E+04  0.50400001928E-02 0.  1.
       -1    1    3    3    0  502  0.14190751057E+04  0.66825013756E+03  0.16334752650E+04  0.22646354769E+04  0.50400001928E-02 0. -1.
</event>
<event>
 5   0  0.3159875E-07  0.3608862E+04  0.7818609E-02  0.8088465E-01
       -1   -1    0    0    0  501  0.00000000000E+00  0.00000000000E+00  0.15198438785E+04  0.15198438786E+04  0.50400001928E-02 0.  1.
        1   -1    0    0  501    0  0.00000000000E+00  0.00000000000E+00 -0.21423061801E+04  0.21423061801E+04  0.50400001928E-02 0. -1.
    10030    2    1    2    0    0  0.00000000000E+00  0.00000000000E+00 -0.62246230153E+03  0.36621500586E+04  0.36088618338E+04 0.  0.
        5    1    3    3  502    0  0.53243722273E+03  0.72888725086E+03  0.12742680711E+04  0.15615848449E+04  0.46999998093E+01 0.  1.
       -5    1    3    3    0  502 -0.53243722273E+03 -0.72888725086E+03 -0.18967303727E+04  0.21005652138E+04  0.46999998093E+01 0. -1.
</event>
<event>
 5   0  0.3242047E-07  0.3529036E+04  0.7818609E-02  0.8106943E-01
        1   -1    0    0  501    0  0.00000000000E+00  0.00000000000E+00  0.15384103158E+04  0.15384103159E+04  0.50400001928E-02 0. -1.
       -1   -1    0    0    0  501  0.00000000000E+00  0.00000000000E+00 -0.20238577332E+04  0.20238577332E+04  0.50400001928E-02 0.  1.
    10030    2    1    2    0    0  0.00000000000E+00  0.00000000000E+00 -0.48544741738E+03  0.35622680491E+04  0.35290359106E+04 0.  0.
        1    1    3    3  502    0  0.15063055777E+04  0.41857224633E+03  0.58312752511E+03  0.16685913009E+04  0.50400001928E-02 0. -1.
       -1    1    3    3    0  502 -0.15063055777E+04 -0.41857224633E+03 -0.10685749425E+04  0.18936767482E+04  0.50400001928E-02 0.  1.
</event>
<event>
 5   0  0.3242047E-07  0.3570819E+04  0.7818609E-02  0.8097209E-01
        1   -1    0    0  501    0  0.00000000000E+00  0.00000000000E+00  0.18472397817E+04  0.18472397817E+04  0.50400001928E-02 0.  1.
       -1   -1    0    0    0  501  0.00000000000E+00  0.00000000000E+00 -0.17256492147E+04  0.17256492147E+04  0.50400001928E-02 0. -1.
    10030    2    1    2    0    0  0.00000000000E+00  0.00000000000E+00  0.12159056704E+03  0.35728889965E+04  0.35708194459E+04 0.  0.
        1    1    3    3  502    0  0.64277828173E+03  0.61594741373E+03 -0.14877233169E+04  0.17337461763E+04  0.50400001928E-02 0. -1.
       -1    1    3    3    0  502 -0.64277828173E+03 -0.61594741373E+03  0.16093138840E+04  0.18391428202E+04  0.50400001928E-02 0.  1.
</event>
<event>
 5   0  0.3278988E-07  0.3581486E+04  0.7818609E-02  0.8094746E-01
       -1   -1    0    0    0  501  0.00000000000E+00  0.00000000000E+00  0.13602784488E+04  0.13602784488E+04  0.50400001928E-02 0.  1.
        1   -1    0    0  501    0  0.00000000000E+00  0.00000000000E+00 -0.23574292865E+04  0.23574292865E+04  0.50400001928E-02 0. -1.
    10030    2    1    2    0    0  0.00000000000E+00  0.00000000000E+00 -0.99715083772E+03  0.37177077353E+04  0.35814858664E+04 0.  0.
        4    1    3    3  502    0  0.12619150835E+04 -0.12565107891E+04 -0.69418264154E+03  0.19113189671E+04  0.12699999809E+01 0. -1.
       -4    1    3    3    0  502 -0.12619150835E+04  0.12565107891E+04 -0.30296819618E+03  0.18063887682E+04  0.12699999809E+01 0.  1.
</event>
<event>
 5   0  0.9538919E-07  0.3511725E+04  0.7818609E-02  0.8111017E-01
       -2   -1    0    0    0  501  0.00000000000E+00  0.00000000000E+00  0.11890561368E+04  0.11890561368E+04  0.25500000920E-02 0.  1.
        2   -1    0    0  501    0  0.00000000000E+00  0.00000000000E+00 -0.25928571742E+04  0.25928571742E+04  0.25500000920E-02 0. -1.
    10030    2    1    2    0    0  0.00000000000E+00  0.00000000000E+00 -0.14038010374E+04  0.37819133110E+04  0.35117247812E+04 0.  0.
        4    1    3    3  502    0  0.13914946292E+03 -0.12728598360E+04 -0.19958042242E+04  0.23712382523E+04  0.12699999809E+01 0. -1.
       -4    1    3    3    0  502 -0.13914946292E+03  0.12728598360E+04  0.59200318672E+03  0.14106750587E+04  0.12699999809E+01 0.  1.
</event>
<event>
 5   0  0.9878336E-07  0.3527812E+04  0.7818609E-02  0.8107230E-01
        2   -1    0    0  501    0  0.00000000000E+00  0.00000000000E+00  0.18625153593E+04  0.18625153593E+04  0.25500000920E-02 0.  1.
       -2   -1    0    0    0  501  0.00000000000E+00  0.00000000000E+00 -0.16705175821E+04  0.16705175821E+04  0.25500000920E-02 0. -1.
    10030    2    1    2    0    0  0.00000000000E+00  0.00000000000E+00  0.19199777716E+03  0.35330329414E+04  0.35278121575E+04 0.  0.
        3    1    3    3  502    0  0.93537830206E+03 -0.23852919622E+03  0.15745088248E+04  0.18468640434E+04  0.10100000352E+00 0.  1.
       -3    1    3    3    0  502 -0.93537830206E+03  0.23852919622E+03 -0.13825110476E+04  0.16861688980E+04  0.10100000352E+00 0. -1.
</event>
<event>
 5   0  0.3242047E-07  0.3651613E+04  0.7818609E-02  0.8078770E-01
       -1   -1    0    0    0  501  0.00000000000E+00  0.00000000000E+00  0.13823957693E+04  0.13823957693E+04  0.50400001928E-02 0. -1.
        1   -1    0    0  501    0  0.00000000000E+00  0.00000000000E+00 -0.24114436948E+04  0.24114436948E+04  0.50400001928E-02 0.  1.
    10030    2    1    2    0    0  0.00000000000E+00  0.00000000000E+00 -0.10290479255E+04  0.37938394642E+04  0.36516131020E+04 0.  0.
        1    1    3    3  502    0  0.40686799890E+03  0.17796931315E+04 -0.48663924510E+03  0.18893562305E+04  0.50400001928E-02 0.  1.
       -1    1    3    3    0  502 -0.40686799890E+03 -0.17796931315E+04 -0.54240868039E+03  0.19044832337E+04  0.50400001928E-02 0. -1.
</event>
<event>
 5   0  0.9878977E-07  0.3614507E+04  0.7818609E-02  0.8087177E-01
        2   -1    0    0  501    0  0.00000000000E+00  0.00000000000E+00  0.25806024391E+04  0.25806024391E+04  0.25500000920E-02 0. -1.
       -2   -1    0    0    0  501  0.00000000000E+00  0.00000000000E+00 -0.12656599423E+04  0.12656599423E+04  0.25500000920E-02 0.  1.
    10030    2    1    2    0    0  0.00000000000E+00  0.00000000000E+00  0.13149424968E+04  0.38462623815E+04  0.36145069563E+04 0.  0.
        5    1    3    3  502    0  0.24992116174E+03 -0.13678856216E+03  0.25565483934E+04  0.25723789526E+04  0.46999998093E+01 0. -1.
       -5    1    3    3    0  502 -0.24992116174E+03  0.13678856216E+03 -0.12416058966E+04  0.12738834289E+04  0.46999998093E+01 0.  1.
</event>
<event>
 5   0  0.9878336E-07  0.3576224E+04  0.7818609E-02  0.8095960E-01
        2   -1    0    0  501    0  0.00000000000E+00  0.00000000000E+00  0.14971426349E+04  0.14971426349E+04  0.25500000920E-02 0.  1.
       -2   -1    0    0    0  501  0.00000000000E+00  0.00000000000E+00 -0.21356309073E+04  0.21356309073E+04  0.25500000920E-02 0. -1.
    10030    2    1    2    0    0  0.00000000000E+00  0.00000000000E+00 -0.63848827243E+03  0.36327735423E+04  0.35762237535E+04 0.  0.
        3    1    3    3  502    0 -0.10021397935E+04  0.14434149620E+04  0.17069891743E+02  0.17572769587E+04  0.10100000352E+00 0.  1.
       -3    1    3    3    0  502  0.10021397935E+04 -0.14434149620E+04 -0.65555816418E+03  0.18754965836E+04  0.10100000352E+00 0. -1.
</event>
<event>
 5   0  0.9538919E-07  0.3567647E+04  0.7818609E-02  0.8097943E-01
       -2   -1    0    0    0  501  0.00000000000E+00  0.00000000000E+00  0.18215493687E+04  0.18215493687E+04  0.25500000920E-02 0.  1.
        2   -1    0    0  501    0  0.00000000000E+00  0.00000000000E+00 -0.17468788959E+04  0.17468788960E+04  0.25500000920E-02 0. -1.
    10030    2    1    2    0    0  0.00000000000E+00  0.00000000000E+00  0.74670472779E+02  0.35684282647E+04  0.35676469277E+04 0.  0.
        4    1    3    3  502    0 -0.61452267006E+03 -0.13387891936E+04  0.10435525344E+04  0.18052695427E+04  0.12699999809E+01 0.  1.
       -4    1    3    3    0  502  0.61452267006E+03  0.13387891936E+04 -0.96888206160E+03  0.17631587220E+04  0.12699999809E+01 0. -1.
</event>
<event>
 5   0  0.1031659E-06  0.3217405E+04  0.7818609E-02  0.8184236E-01
       -2   -1    0    0    0  501  0.00000000000E+00  0.00000000000E+00  0.22278586693E+04  0.22278586693E+04  0.25500000920E-02 0. -1.
        2   -1    0    0  501    0  0.00000000000E+00  0.00000000000E+00 -0.11616190343E+04  0.11616190343E+04  0.25500000920E-02 0.  1.
    10030    2    1    2    0    0  0.00000000000E+00  0.00000000000E+00  0.10662396350E+04  0.33894777035E+04  0.32174045663E+04 0.  0.
        2    1    3    3  502    0  0.10809134295E+04  0.11306712606E+04  0.92888664078E+03  0.18192365798E+04  0.25500000920E-02 0. -1.
       -2    1    3    3    0  502 -0.10809134295E+04 -0.11306712606E+04  0.13735299421E+03  0.15702411238E+04  0.25500000920E-02 0.  1.
</event>
<event>
 5   0  0.1031659E-06  0.2898616E+04  0.7818609E-02  0.8273289E-01
        2   -1    0    0  501    0  0.00000000000E+00  0.00000000000E+00  0.10329732017E+04  0.10329732017E+04  0.25500000920E-02 0.  1.
       -2   -1    0    0    0  501  0.00000000000E+00  0.00000000000E+00 -0.20334442141E+04  0.20334442141E+04  0.25500000920E-02 0. -1.
    10030    2    1    2    0    0  0.00000000000E+00  0.00000000000E+00 -0.10004710124E+04  0.30664174158E+04  0.28986157941E+04 0.  0.
        2    1    3    3  502    0 -0.69585183633E+03 -0.11346165501E+04 -0.11069601370E+04  0.17311629729E+04  0.25500000920E-02 0. -1.
       -2    1    3    3    0  502  0.69585183633E+03  0.11346165501E+04  0.10648912457E+03  0.13352544430E+04  0.25500000920E-02 0.  1.
</event>
<event>
 5   0  0.1031659E-06  0.3486907E+04  0.7818609E-02  0.8116900E-01
        2   -1    0    0  501    0  0.00000000000E+00  0.00000000000E+00  0.28094226697E+04  0.28094226697E+04  0.25500000920E-02 0.  1.
       -2   -1    0    0    0  501  0.00000000000E+00  0.00000000000E+00 -0.10819414271E+04  0.10819414271E+04  0.25500000920E-02 0. -1.
    10030    2    1    2    0    0  0.00000000000E+00  0.00000000000E+00  0.17274812427E+04  0.38913640968E+04  0.34869073819E+04 0.  0.
        2    1    3    3  502    0 -0.13699001490E+04  0.27295072789E+03 -0.30058947121E+03  0.14288045872E+04  0.25500000920E-02 0. -1.
       -2    1    3    3    0  502  0.13699001490E+04 -0.27295072789E+03  0.20280707139E+04  0.24625595096E+04  0.25500000920E-02 0.  1.
</event>
<event>
 5   0  0.9878336E-07  0.3610980E+04  0.7818609E-02  0.8087981E-01
        2   -1    0    0  501    0  0.00000000000E+00  0.00000000000E+00  0.24865185511E+04  0.24865185511E+04  0.25500000920E-02 0. -1.
       -2   -1    0    0    0  501  0.00000000000E+00  0.00000000000E+00 -0.13109871114E+04  0.13109871114E+04  0.25500000920E-02 0.  1.
    10030    2    1    2    0    0  0.00000000000E+00  0.00000000000E+00  0.11755314397E+04  0.37975056626E+04  0.36109797966E+04 0.  0.
        3    1    3    3  502    0 -0.48642304404E+03  0.89645284867E+03  0.21545409129E+04  0.23837536877E+04  0.10100000352E+00 0. -1.
       -3    1    3    3    0  502  0.48642304404E+03 -0.89645284867E+03 -0.97900947325E+03  0.14137519749E+04  0.10100000352E+00 0.  1.
</event>
<event>
 5   0  0.9538919E-07  0.3592345E+04  0.7818609E-02  0.8092247E-01
        2   -1    0    0  501    0  0.00000000000E+00  0.00000000000E+00  0.15341166370E+04  0.15341166370E+04  0.25500000920E-02 0.  1.
       -2   -1    0    0    0  501  0.00000000000E+00  0.00000000000E+00 -0.21029928330E+04  0.21029928330E+04  0.25500000920E-02 0. -1.
    10030    2    1    2    0    0  0.00000000000E+00  0.00000000000E+00 -0.56887619599E+03  0.36371094700E+04  0.35923453579E+04 0.  0.
        4    1    3    3  502    0  0.52987436765E+03 -0.12977936458E+04 -0.14214635427E+04  0.19963956042E+04  0.12699999809E+01 0. -1.
       -4    1    3    3    0  502 -0.52987436765E+03  0.12977936458E+04  0.85258734670E+03  0.16407138657E+04  0.12699999809E+01 0.  1.
</event>
<event>
 5   0  0.1006019E-06  0.3615078E+04  0.7818609E-02  0.8087047E-01
       -2   -1    0    0    0  501  0.00000000000E+00  0.00000000000E+00  0.15766830588E+04  0.15766830588E+04  0.25500000920E-02 0.  1.
        2   -1    0    0  501    0  0.00000000000E+00  0.00000000000E+00 -0.20721962097E+04  0.20721962097E+04  0.25500000920E-02 0. -1.
    10030    2    1    2    0    0  0.00000000000E+00  0.00000000000E+00 -0.49551315094E+03  0.36488792685E+04  0.36150776801E+04 0.  0.
        1    1    3    3  502    0  0.59269729581E+03  0.18043515657E+03  0.14661633244E+04  0.15916914977E+04  0.50400001928E-02 0.  1.
       -1    1    3    3    0  502 -0.59269729581E+03 -0.18043515657E+03 -0.19616764753E+04  0.20571877707E+04  0.50400001928E-02 0. -1.
</event>
<event>
 5   0  0.3242047E-07  0.3575293E+04  0.7818609E-02  0.8096175E-01
       -1   -1    0    0    0  501  0.00000000000E+00  0.00000000000E+00  0.13014725615E+04  0.13014725615E+04  0.50400001928E-02 0.  1.
        1   -1    0    0  501    0  0.00000000000E+00  0.00000000000E+00 -0.24554339634E+04  0.24554339635E+04  0.50400001928E-02 0. -1.
    10030    2    1    2    0    0  0.00000000000E+00  0.00000000000E+00 -0.11539614019E+04  0.37569065250E+04  0.35752929559E+04 0.  0.
        1    1    3    3  502    0  0.22021394315E+03 -0.86855337428E+03  0.10484633585E+04  0.13791861944E+04  0.50400001928E-02 0.  1.
       -1    1    3    3    0  502 -0.22021394315E+03  0.86855337428E+03 -0.22024247605E+04  0.23777203305E+04  0.50400001928E-02 0. -1.
</event>
<event>
 5   0  0.3365378E-07  0.3598782E+04  0.7818609E-02  0.8090771E-01
       -1   -1    0    0    0  501  0.00000000000E+00  0.00000000000E+00  0.10096971542E+04  0.10096971542E+04  0.50400001928E-02 0.  1.
        1   -1    0    0  501    0  0.00000000000E+00  0.00000000000E+00 -0.32067117736E+04  0.32067117736E+04  0.50400001928E-02 0. -1.
    10030    2    1    2    0    0  0.00000000000E+00  0.00000000000E+00 -0.21970146194E+04  0.42164089278E+04  0.35987818784E+04 0.  0.
        3    1    3    3  502    0 -0.15872993126E+04  0.83666382883E+03 -0.94009012939E+03  0.20256591351E+04  0.10100000352E+00 0.  1.
       -3    1    3    3    0  502  0.15872993126E+04 -0.83666382883E+03 -0.12569244900E+04  0.21907497926E+04  0.10100000352E+00 0. -1.
</event>
<event>
 5   0  0.3242047E-07  0.3528251E+04  0.7818609E-02  0.8107127E-01
        1   -1    0    0  501    0  0.00000000000E+00  0.00000000000E+00  0.24188793527E+04  0.24188793527E+04  0.50400001928E-02 0.  1.
       -1   -1    0    0    0  501  0.00000000000E+00  0.00000000000E+00 -0.12866032511E+04  0.12866032512E+04  0.50400001928E-02 0. -1.
    10030    2    1    2    0    0  0.00000000000E+00  0.00000000000E+00  0.11322761015E+04  0.37054826038E+04  0.35282505803E+04 0.  0.
        1    1    3    3  502    0  0.84889401451E+03 -0.72076859222E+03  0.20030805710E+04  0.22918246411E+04  0.50400001928E-02 0.  1.
       -1    1    3    3    0  502 -0.84889401451E+03  0.72076859222E+03 -0.87080446953E+03  0.14136579627E+04  0.50400001928E-02 0. -1.
</event>
<event>
 5   0  0.9538919E-07  0.2860388E+04  0.7818609E-02  0.8284762E-01
        2   -1    0    0  501    0  0.00000000000E+00  0.00000000000E+00  0.16855742029E+04  0.16855742029E+04  0.25500000920E-02 0.  1.
       -2   -1    0    0    0  501  0.00000000000E+00  0.00000000000E+00 -0.12135066869E+04  0.12135066869E+04  0.25500000920E-02 0. -1.
    10030    2    1    2    0    0  0.00000000000E+00  0.00000000000E+00  0.47206751599E+03  0.28990808898E+04  0.28603884816E+04 0.  0.
        4    1    3    3  502    0  0.10550049775E+04 -0.75774375257E+03  0.84266403500E+03  0.15483201819E+04  0.12699999809E+01 0.  1.
       -4    1    3    3    0  502 -0.10550049775E+04  0.75774375257E+03 -0.37059651901E+03  0.13507607078E+04  0.12699999809E+01 0. -1.
</event>
<event>
 5   0  0.1031659E-06  0.3604307E+04  0.7818609E-02  0.8089506E-01
        2   -1    0    0  501    0  0.00000000000E+00  0.00000000000E+00  0.16068644248E+04  0.16068644248E+04  0.25500000920E-02 0. -1.
       -2   -1    0    0    0  501  0.00000000000E+00  0.00000000000E+00 -0.20211768139E+04  0.20211768139E+04  0.25500000920E-02 0.  1.
    10030    2    1    2    0    0  0.00000000000E+00  0.00000000000E+00 -0.41431238904E+03  0.36280412387E+04  0.36043069339E+04 0.  0.
        2    1    3    3  502    0 -0.51201650514E+03  0.12387171926E+03 -0.19419469417E+04  0.20121289791E+04  0.25500000920E-02 0.  1.
       -2    1    3    3    0  502  0.51201650514E+03 -0.12387171926E+03  0.15276345526E+04  0.16159122596E+04  0.25500000920E-02 0. -1.
</event>
<event>
 5   0  0.1031659E-06  0.3615294E+04  0.7818609E-02  0.8086997E-01
       -2   -1    0    0    0  501  0.00000000000E+00  0.00000000000E+00  0.19759644064E+04  0.19759644064E+04  0.25500000920E-02 0. -1.
        2   -1    0    0  501    0  0.00000000000E+00  0.00000000000E+00 -0.16536673937E+04  0.16536673937E+04  0.25500000920E-02 0.  1.
    10030    2    1    2    0    0  0.00000000000E+00  0.00000000000E+00  0.32229701271E+03  0.36296318002E+04  0.36152941292E+04 0.  0.
        2    1    3    3  502    0  0.59976699932E+03 -0.11447382200E+04  0.14300603946E+04  0.19274902796E+04  0.25500000920E-02 0. -1.
       -2    1    3    3    0  502 -0.59976699932E+03  0.11447382200E+04 -0.11077633819E+04  0.17021415206E+04  0.25500000920E-02 0.  1.
</event>
<event>
 5   0  0.1006019E-06  0.4032517E+04  0.7818609E-02  0.7998019E-01
       -2   -1    0    0    0  501  0.00000000000E+00  0.00000000000E+00  0.20890659566E+04  0.20890659566E+04  0.25500000920E-02 0.  1.
        2   -1    0    0  501    0  0.00000000000E+00  0.00000000000E+00 -0.19459888856E+04  0.19459888856E+04  0.25500000920E-02 0. -1.
    10030    2    1    2    0    0  0.00000000000E+00  0.00000000000E+00  0.14307707093E+03  0.40350548422E+04  0.40325173938E+04 0.  0.
        1    1    3    3  502    0  0.12599948224E+04  0.12455072079E+04 -0.89157632823E+03  0.19833767939E+04  0.50400001928E-02 0.  1.
       -1    1    3    3    0  502 -0.12599948224E+04 -0.12455072079E+04  0.10346533992E+04  0.20516780483E+04  0.50400001928E-02 0. -1.
</event>
<event>
 5   0  0.9878977E-07  0.3621375E+04  0.7818609E-02  0.8085613E-01
        2   -1    0    0  501    0  0.00000000000E+00  0.00000000000E+00  0.29433238212E+04  0.29433238212E+04  0.25500000920E-02 0. -1.
       -2   -1    0    0    0  501  0.00000000000E+00  0.00000000000E+00 -0.11139071501E+04  0.11139071501E+04  0.25500000920E-02 0.  1.
    10030    2    1    2    0    0  0.00000000000E+00  0.00000000000E+00  0.18294166710E+04  0.40572309713E+04  0.36213751253E+04 0.  0.
        5    1    3    3  502    0 -0.15856522745E+04  0.77258894084E+03  0.13730704522E+04  0.22352922323E+04  0.46999998093E+01 0. -1.
       -5    1    3    3    0  502  0.15856522745E+04 -0.77258894084E+03  0.45634621888E+03  0.18219387390E+04  0.46999998093E+01 0.  1.
</event>
<event>
 5   0  0.3159875E-07  0.3564544E+04  0.7818609E-02  0.8098662E-01
       -1   -1    0    0    0  501  0.00000000000E+00  0.00000000000E+00  0.11052562450E+04  0.11052562450E+04  0.50400001928E-02 0. -1.
        1   -1    0    0  501    0  0.00000000000E+00  0.00000000000E+00 -0.28739883500E+04  0.28739883500E+04  0.50400001928E-02 0.  1.
    10030    2    1    2    0    0  0.00000000000E+00  0.00000000000E+00 -0.17687321050E+04  0.39792445950E+04  0.35645440505E+04 0.  0.
        2    1    3    3  502    0 -0.41068549532E+02  0.11230067510E+04 -0.24286578134E+04  0.26760436400E+04  0.25500000920E-02 0.  1.
       -2    1    3    3    0  502  0.41068549532E+02 -0.11230067510E+04  0.65992570836E+03  0.13032009550E+04  0.25500000920E-02 0. -1.
</event>
<event>
 5   0  0.3365378E-07  0.3620421E+04  0.7818609E-02  0.8085830E-01
        1   -1    0    0  501    0  0.00000000000E+00  0.00000000000E+00  0.18322591724E+04  0.18322591724E+04  0.50400001928E-02 0. -1.
       -1   -1    0    0    0  501  0.00000000000E+00  0.00000000000E+00 -0.17884268891E+04  0.17884268891E+04  0.50400001928E-02 0.  1.
    10030    2    1    2    0    0  0.00000000000E+00  0.00000000000E+00  0.43832283239E+02  0.36206860615E+04  0.36204207334E+04 0.  0.
        3    1    3    3  502    0  0.11714997216E+04  0.13793728850E+04 -0.20281830993E+02  0.18098321791E+04  0.10100000352E+00 0. -1.
       -3    1    3    3    0  502 -0.11714997216E+04 -0.13793728850E+04  0.64114114233E+02  0.18108538824E+04  0.10100000352E+00 0.  1.
</event>
<event>
 5   0  0.3242047E-07  0.3583303E+04  0.7818609E-02  0.8094327E-01
       -1   -1    0    0    0  501  0.00000000000E+00  0.00000000000E+00  0.11902891030E+04  0.11902891030E+04  0.50400001928E-02 0.  1.
        1   -1    0    0  501    0  0.00000000000E+00  0.00000000000E+00 -0.26968372191E+04  0.26968372191E+04  0.50400001928E-02 0. -1.
    10030    2    1    2    0    0  0.00000000000E+00  0.00000000000E+00 -0.15065481161E+04  0.38871263221E+04  0.35833034784E+04 0.  0.
        1    1    3    3  502    0 -0.11863987355E+04 -0.55798879097E+03  0.57137771628E+03  0.14301629086E+04  0.50400001928E-02 0.  1.
       -1    1    3    3    0  502  0.11863987355E+04  0.55798879097E+03 -0.20779258324E+04  0.24569634135E+04  0.50400001928E-02 0. -1.
</event>
<event>
 5   0  0.3159875E-07  0.3578986E+04  0.7818609E-02  0.8095322E-01
        1   -1    0    0  501    0  0.00000000000E+00  0.00000000000E+00  0.15315718117E+04  0.15315718117E+04  0.50400001928E-02 0. -1.
       -1   -1    0    0    0  501  0.00000000000E+00  0.00000000000E+00 -0.20908486301E+04  0.20908486301E+04  0.50400001928E-02 0.  1.
    10030    2    1    2    0    0  0.00000000000E+00  0.00000000000E+00 -0.55927681840E+03  0.36224204418E+04  0.35789857917E+04 0.  0.
        2    1    3    3  502    0  0.17054622980E+04 -0.41833420927E+03  0.69041588981E+02  0.17573764257E+04  0.25500000920E-02 0. -1.
       -2    1    3    3    0  502 -0.17054622980E+04  0.41833420927E+03 -0.62831840738E+03  0.18650440160E+04  0.25500000920E-02 0.  1.
</event>
<event>
 5   0  0.9878336E-07  0.3640212E+04  0.7818609E-02  0.8081342E-01
       -2   -1    0    0    0  501  0.00000000000E+00  0.00000000000E+00  0.20222910295E+04  0.20222910295E+04  0.25500000920E-02 0.  1.
        2   -1    0    0  501    0  0.00000000000E+00  0.00000000000E+00 -0.16381352318E+04  0.16381352318E+04  0.25500000920E-02 0. -1.
    10030    2    1    2    0    0  0.00000000000E+00  0.00000000000E+00  0.38415579768E+03  0.36604262613E+04  0.36402121831E+04 0.  0.
        3    1    3    3  502    0  0.89967230948E+03 -0.17359779336E+02  0.17829741401E+04  0.19971751102E+04  0.10100000352E+00 0.  1.
       -3    1    3    3    0  502 -0.89967230948E+03  0.17359779336E+02 -0.13988183424E+04  0.16632511511E+04  0.10100000352E+00 0. -1.
</event>
<event>
 5   0  0.3159875E-07  0.3597833E+04  0.7818609E-02  0.8090988E-01
        1   -1    0    0  501    0  0.00000000000E+00  0.00000000000E+00  0.19143537138E+04  0.19143537138E+04  0.50400001928E-02 0. -1.
       -1   -1    0    0    0  501  0.00000000000E+00  0.00000000000E+00 -0.16904399079E+04  0.16904399079E+04  0.50400001928E-02 0.  1.
    10030    2    1    2    0    0  0.00000000000E+00  0.00000000000E+00  0.22391380590E+03  0.36047936217E+04  0.35978326341E+04 0.  0.
        2    1    3    3  502    0  0.17155826158E+04 -0.18378898609E+03  0.62195824934E+03  0.18340758345E+04  0.25500000920E-02 0. -1.
       -2    1    3    3    0  502 -0.17155826158E+04  0.18378898609E+03 -0.39804444343E+03  0.17707177872E+04  0.25500000920E-02 0.  1.
</event>
<event>
 5   0  0.9878977E-07  0.3584851E+04  0.7818609E-02  0.8093971E-01
       -2   -1    0    0    0  501  0.00000000000E+00  0.00000000000E+00  0.15577766125E+04  0.15577766125E+04  0.25500000920E-02 0.  1.
        2   -1    0    0  501    0  0.00000000000E+00  0.00000000000E+00 -0.20624193517E+04  0.20624193517E+04  0.25500000920E-02 0. -1.
    10030    2    1    2    0    0  0.00000000000E+00  0.00000000000E+00 -0.50464273916E+03  0.36201959642E+04  0.35848506977E+04 0.  0.
        5    1    3    3  502    0  0.26646248590E+03 -0.21186672780E+03 -0.20294668015E+04  0.20578258807E+04  0.46999998093E+01 0. -1.
       -5    1    3    3    0  502 -0.26646248590E+03  0.21186672780E+03  0.15248240623E+04  0.15623700835E+04  0.46999998093E+01 0.  1.
</event>
<event>
 5   0  0.1006019E-06  0.3649217E+04  0.7818609E-02  0.8079310E-01
       -2   -1    0    0    0  501  0.00000000000E+00  0.00000000000E+00  0.18514224821E+04  0.18514224821E+04  0.25500000920E-02 0. -1.
        2   -1    0    0  501    0  0.00000000000E+00  0.00000000000E+00 -0.17981825197E+04  0.17981825197E+04  0.25500000920E-02 0.  1.
    10030    2    1    2    0    0  0.00000000000E+00  0.00000000000E+00  0.53239962316E+02  0.36496050018E+04  0.36492166523E+04 0.  0.
        1    1    3    3  502    0  0.94993360859E+03 -0.15554349942E+04 -0.59665860363E+02  0.18235437743E+04  0.50400001928E-02 0. -1.
       -1    1    3    3    0  502 -0.94993360859E+03  0.15554349942E+04  0.11290582268E+03  0.18260612275E+04  0.50400001928E-02 0.  1.
</event>
<event>
 5   0  0.3159875E-07  0.3622632E+04  0.7818609E-02  0.8085327E-01
       -1   -1    0    0    0  501  0.00000000000E+00  0.00000000000E+00  0.11960934462E+04  0.11960934462E+04  0.50400001928E-02 0.  1.
        1   -1    0    0  501    0  0.00000000000E+00  0.00000000000E+00 -0.27429847219E+04  0.27429847219E+04  0.50400001928E-02 0. -1.
    10030    2    1    2    0    0  0.00000000000E+00  0.00000000000E+00 -0.15468912757E+04  0.39390781681E+04  0.36226322192E+04 0.  0.
        5    1    3    3  502    0 -0.12420527509E+04 -0.11357626560E+04 -0.45494115941E+02  0.16836696978E+04  0.46999998093E+01 0.  1.
       -5    1    3    3    0  502  0.12420527509E+04  0.11357626560E+04 -0.15013971597E+04  0.22554084703E+04  0.46999998093E+01 0. -1.
</event>
<event>
 5   0  0.3365378E-07  0.3555807E+04  0.7818609E-02  0.8100690E-01
       -1   -1    0    0    0  501  0.00000000000E+00  0.00000000000E+00  0.20672080490E+04  0.20672080490E+04  0.50400001928E-02 0. -1.
        1   -1    0    0  501    0  0.00000000000E+00  0.00000000000E+00 -0.15290872943E+04  0.15290872943E+04  0.50400001928E-02 0.  1.
    10030    2    1    2    0    0  0.00000000000E+00  0.00000000000E+00  0.53812075469E+03  0.35962953432E+04  0.35558073977E+04 0.  0.
        3    1    3    3  502    0  0.99171893587E+03  0.16743818349E+03 -0.12137161391E+04  0.15762769013E+04  0.10100000352E+00 0.  1.
       -3    1    3    3    0  502 -0.99171893587E+03 -0.16743818349E+03  0.17518368938E+04  0.20200184419E+04  0.10100000352E+00 0. -1.
</event>
<event>
 5   0  0.3242047E-07  0.3469748E+04  0.7818609E-02  0.8120997E-01
       -1   -1    0    0    0  501  0.00000000000E+00  0.00000000000E+00  0.25474850318E+04  0.25474850318E+04  0.50400001928E-02 0. -1.
        1   -1    0    0  501    0  0.00000000000E+00  0.00000000000E+00 -0.11814742241E+04  0.11814742241E+04  0.50400001928E-02 0.  1.
    10030    2    1    2    0    0  0.00000000000E+00  0.00000000000E+00  0.13660108077E+04  0.37289592559E+04  0.34697480608E+04 0.  0.
        1    1    3    3  502    0  0.12932880268E+00  0.22766297962E+03 -0.11653507501E+04  0.11873806549E+04  0.50400001928E-02 0.  1.
       -1    1    3    3    0  502 -0.12932880268E+00 -0.22766297962E+03  0.25313615577E+04  0.25415786010E+04  0.50400001928E-02 0. -1.
</event>
<event>
 5   0  0.3159875E-07  0.3300395E+04  0.7818609E-02  0.8162795E-01
        1   -1    0    0  501    0  0.00000000000E+00  0.00000000000E+00  0.20790045876E+04  0.20790045876E+04  0.50400001928E-02 0. -1.
       -1   -1    0    0    0  501  0.00000000000E+00  0.00000000000E+00 -0.13098346165E+04  0.13098346165E+04  0.50400001928E-02 0.  1.
    10030    2    1    2    0    0  0.00000000000E+00  0.00000000000E+00  0.76916997104E+03  0.33888392041E+04  0.33003952350E+04 0.  0.
        5    1    3    3  502    0  0.10788377522E+04  0.12457726176E+04  0.47225319057E+03  0.17143177874E+04  0.46999998093E+01 0. -1.
       -5    1    3    3    0  502 -0.10788377522E+04 -0.12457726176E+04  0.29691678047E+03  0.16745214167E+04  0.46999998093E+01 0.  1.
</event>
<event>
 5   0  0.1031659E-06  0.3682646E+04  0.7818609E-02  0.8071819E-01
        2   -1    0    0  501    0  0.00000000000E+00  0.00000000000E+00  0.13752312514E+04  0.13752312514E+04  0.25500000920E-02 0. -1.
       -2   -1    0    0    0  501  0.00000000000E+00  0.00000000000E+00 -0.24653819246E+04  0.24653819246E+04  0.25500000920E-02 0.  1.
    10030    2    1    2    0    0  0.00000000000E+00  0.00000000000E+00 -0.10901506732E+04  0.38406131761E+04  0.36826459344E+04 0.  0.
        2    1    3    3  502    0  0.75868220789E+03 -0.98384225397E+03  0.87223628658E+03  0.15180054061E+04  0.25500000920E-02 0. -1.
       -2    1    3    3    0  502 -0.75868220789E+03  0.98384225397E+03 -0.19623869598E+04  0.23226077700E+04  0.25500000920E-02 0.  1.
</event>
<event>
 5   0  0.3159875E-07  0.3584151E+04  0.7818609E-02  0.8094132E-01
        1   -1    0    0  501    0  0.00000000000E+00  0.00000000000E+00  0.13259053325E+04  0.13259053325E+04  0.50400001928E-02 0. -1.
       -1   -1    0    0    0  501  0.00000000000E+00  0.00000000000E+00 -0.24221453622E+04  0.24221453622E+04  0.50400001928E-02 0.  1.
    10030    2    1    2    0    0  0.00000000000E+00  0.00000000000E+00 -0.10962400297E+04  0.37480506948E+04  0.35841514767E+04 0.  0.
        2    1    3    3  502    0  0.35868390275E+03 -0.11462592559E+04 -0.19389673429E+04  0.22808241450E+04  0.25500000920E-02 0.  1.
       -2    1    3    3    0  502 -0.35868390275E+03  0.11462592559E+04  0.84272731324E+03  0.14672265497E+04  0.25500000920E-02 0. -1.
</event>
<event>
 5   0  0.9878977E-07  0.3544875E+04  0.7818609E-02  0.8103237E-01
       -2   -1    0    0    0  501  0.00000000000E+00  0.00000000000E+00  0.24277886452E+04  0.24277886452E+04  0.25500000920E-02 0. -1.
        2   -1    0    0  501    0  0.00000000000E+00  0.00000000000E+00 -0.12939904212E+04  0.12939904212E+04  0.25500000920E-02 0.  1.
    10030    2    1    2    0    0  0.00000000000E+00  0.00000000000E+00  0.11337982239E+04  0.37217790664E+04  0.35448753160E+04 0.  0.
        5    1    3    3  502    0  0.56936876728E+03  0.16706446798E+04  0.73709605185E+03  0.19127381208E+04  0.46999998093E+01 0. -1.
       -5    1    3    3    0  502 -0.56936876728E+03 -0.16706446798E+04  0.39670217209E+03  0.18090409455E+04  0.46999998093E+01 0.  1.
</event>
<event>
 5   0  0.3242047E-07  0.3581502E+04  0.7818609E-02  0.8094742E-01
        1   -1    0    0  501    0  0.00000000000E+00  0.00000000000E+00  0.20271474525E+04  0.20271474525E+04  0.50400001928E-02 0.  1.
       -1   -1    0    0    0  501  0.00000000000E+00  0.00000000000E+00 -0.15819223344E+04  0.15819223344E+04  0.50400001928E-02 0. -1.
    10030    2    1    2    0    0  0.00000000000E+00  0.00000000000E+00  0.44522511811E+03  0.36090697870E+04  0.35815023833E+04 0.  0.
        1    1    3    3  502    0 -0.89667167296E+03 -0.13220002400E+04 -0.59299059827E+03  0.17039197673E+04  0.50400001928E-02 0. -1.
       -1    1    3    3    0  502  0.89667167296E+03  0.13220002400E+04  0.10382157164E+04  0.19051500197E+04  0.50400001928E-02 0.  1.
</event>
<event>
 5   0  0.9878336E-07  0.2645467E+04  0.7818609E-02  0.8352919E-01
       -2   -1    0    0    0  501  0.00000000000E+00  0.00000000000E+00  0.80367249630E+03  0.80367249630E+03  0.25500000920E-02 0. -1.
        2   -1    0    0  501    0  0.00000000000E+00  0.00000000000E+00 -0.21770358894E+04  0.21770358894E+04  0.25500000920E-02 0.  1.
    10030    2    1    2    0    0  0.00000000000E+00  0.00000000000E+00 -0.13733633931E+04  0.29807083857E+04  0.26454669666E+04 0.  0.
        3    1    3    3  502    0  0.80865006939E+03  0.10243432437E+04 -0.44390010794E+03  0.13784924126E+04  0.10100000352E+00 0.  1.
       -3    1    3    3    0  502 -0.80865006939E+03 -0.10243432437E+04 -0.92946328518E+03  0.16022159731E+04  0.10100000352E+00 0. -1.
</event>
<event>
 5   0  0.9878977E-07  0.3570129E+04  0.7818609E-02  0.8097368E-01
        2   -1    0    0  501    0  0.00000000000E+00  0.00000000000E+00  0.21780330793E+04  0.21780330793E+04  0.25500000920E-02 0.  1.
       -2   -1    0    0    0  501  0.00000000000E+00  0.00000000000E+00 -0.14629966757E+04  0.14629966757E+04  0.25500000920E-02 0. -1.
    10030    2    1    2    0    0  0.00000000000E+00  0.00000000000E+00  0.71503640361E+03  0.36410297550E+04  0.35701289358E+04 0.  0.
        5    1    3    3  502    0  0.86165742503E+03 -0.15439120255E+04  0.60798705489E+03  0.18697027062E+04  0.46999998093E+01 0.  1.
       -5    1    3    3    0  502 -0.86165742503E+03  0.15439120255E+04  0.10704934872E+03  0.17713270488E+04  0.46999998093E+01 0. -1.
</event>
<event>
 5   0  0.9878977E-07  0.3499433E+04  0.7818609E-02  0.8113924E-01
       -2   -1    0    0    0  501  0.00000000000E+00  0.00000000000E+00  0.15964638340E+04  0.15964638340E+04  0.25500000920E-02 0. -1.
        2   -1    0    0  501    0  0.00000000000E+00  0.00000000000E+00 -0.19176807934E+04  0.19176807934E+04  0.25500000920E-02 0.  1.
    10030    2    1    2    0    0  0.00000000000E+00  0.00000000000E+00 -0.32121695941E+03  0.35141446274E+04  0.34994331151E+04 0.  0.
        5    1    3    3  502    0  0.39244138032E+03  0.90106481298E+03 -0.16142983602E+04  0.18899495549E+04  0.46999998093E+01 0.  1.
       -5    1    3    3    0  502 -0.39244138032E+03 -0.90106481298E+03  0.12930814008E+04  0.16241950725E+04  0.46999998093E+01 0. -1.
</event>
<event>
 5   0  0.9878336E-07  0.3603159E+04  0.7818609E-02  0.8089768E-01
        2   -1    0    0  501    0  0.00000000000E+00  0.00000000000E+00  0.18529342136E+04  0.18529342136E+04  0.25500000920E-02 0.  1.
       -2   -1    0    0    0  501  0.00000000000E+00  0.00000000000E+00 -0.17516481327E+04  0.17516481327E+04  0.25500000920E-02 0. -1.
    10030    2    1    2    0    0  0.00000000000E+00  0.00000000000E+00  0.10128608097E+03  0.36045823463E+04  0.36031590335E+04 0.  0.
        3    1    3    3  502    0  0.12627512586E+04 -0.11891461035E+04 -0.43645744902E+03  0.17886040119E+04  0.10100000352E+00 0. -1.
       -3    1    3    3    0  502 -0.12627512586E+04  0.11891461035E+04  0.53774353000E+03  0.18159783343E+04  0.10100000352E+00 0.  1.
</event>
<event>
 5   0  0.3242047E-07  0.3587376E+04  0.7818609E-02  0.8093390E-01
        1   -1    0    0  501    0  0.00000000000E+00  0.00000000000E+00  0.19493484965E+04  0.19493484965E+04  0.50400001928E-02 0.  1.
       -1   -1    0    0    0  501  0.00000000000E+00  0.00000000000E+00 -0.16504571314E+04  0.16504571314E+04  0.50400001928E-02 0. -1.
    10030    2    1    2    0    0  0.00000000000E+00  0.00000000000E+00  0.29889136515E+03  0.35998056279E+04  0.35873757136E+04 0.  0.
        1    1    3    3  502    0 -0.94901320422E+03 -0.92708215258E+03  0.13607773553E+04  0.19004795158E+04  0.50400001928E-02 0.  1.
       -1    1    3    3    0  502  0.94901320422E+03  0.92708215258E+03 -0.10618859901E+04  0.16993261121E+04  0.50400001928E-02 0. -1.
</event>
<event>
 5   0  0.3278988E-07  0.3133511E+04  0.7818609E-02  0.8206601E-01
       -1   -1    0    0    0  501  0.00000000000E+00  0.00000000000E+00  0.29554365697E+04  0.29554365697E+04  0.50400001928E-02 0. -1.
        1   -1    0    0  501    0  0.00000000000E+00  0.00000000000E+00 -0.83057880619E+03  0.83057880621E+03  0.50400001928E-02 0.  1.
    10030    2    1    2    0    0  0.00000000000E+00  0.00000000000E+00  0.21248577635E+04  0.37860153759E+04  0.31335111156E+04 0.  0.
        4    1    3    3  502    0  0.10294680235E+04 -0.46772243630E+02  0.24883138531E+04  0.26932692956E+04  0.12699999809E+01 0. -1.
       -4    1    3    3    0  502 -0.10294680235E+04  0.46772243630E+02 -0.36345608958E+03  0.10927460803E+04  0.12699999809E+01 0.  1.
</event>
<event>
 5   0  0.3159875E-07  0.2619843E+04  0.7818609E-02  0.8361492E-01
        1   -1    0    0  501    0  0.00000000000E+00  0.00000000000E+00  0.10425189267E+04  0.10425189267E+04  0.50400001928E-02 0. -1.
       -1   -1    0    0    0  501  0.00000000000E+00  0.00000000000E+00 -0.16459114647E+04  0.16459114647E+04  0.50400001928E-02 0.  1.
    10030    2    1    2    0    0  0.00000000000E+00  0.00000000000E+00 -0.60339253799E+03  0.26884303914E+04  0.26198426316E+04 0.  0.
        5    1    3    3  502    0 -0.69191101472E+03 -0.26555666992E+03  0.80667827838E+03  0.10954511089E+04  0.46999998093E+01 0. -1.
       -5    1    3    3    0  502  0.69191101472E+03  0.26555666992E+03 -0.14100708164E+04  0.15929792825E+04  0.46999998093E+01 0.  1.
</event>
<event>
 5   0  0.1031659E-06  0.3588650E+04  0.7818609E-02  0.8093097E-01
        2   -1    0    0  501    0  0.00000000000E+00  0.00000000000E+00  0.21347153194E+04  0.21347153194E+04  0.25500000920E-02 0.  1.
       -2   -1    0    0    0  501  0.00000000000E+00  0.00000000000E+00 -0.15082113134E+04  0.15082113134E+04  0.25500000920E-02 0. -1.
    10030    2    1    2    0    0  0.00000000000E+00  0.00000000000E+00  0.62650400596E+03  0.36429266328E+04  0.35886497715E+04 0.  0.
        2    1    3    3  502    0  0.13667831306E+04  0.54617646340E+03 -0.72852350514E+03  0.16423006280E+04  0.25500000920E-02 0. -1.
       -2    1    3    3    0  502 -0.13667831306E+04 -0.54617646340E+03  0.13550275111E+04  0.20006260048E+04  0.25500000920E-02 0.  1.
</event>
<event>
 5   0  0.3365378E-07  0.3571933E+04  0.7818609E-02  0.8096951E-01
       -1   -1    0    0    0  501  0.00000000000E+00  0.00000000000E+00  0.22966002586E+04  0.22966002586E+04  0.50400001928E-02 0.  1.
        1   -1    0    0  501    0  0.00000000000E+00  0.00000000000E+00 -0.13888685272E+04  0.13888685272E+04  0.50400001928E-02 0. -1.
    10030    2    1    2    0    0  0.00000000000E+00  0.00000000000E+00  0.90773173146E+03  0.36854687858E+04  0.35719327086E+04 0.  0.
        3    1    3    3  502    0  0.65757826410E+03  0.56875520883E+03 -0.11557805899E+04  0.14462781348E+04  0.10100000352E+00 0. -1.
       -3    1    3    3    0  502 -0.65757826410E+03 -0.56875520883E+03  0.20635123213E+04  0.22391906510E+04  0.10100000352E+00 0.  1.
</event>
<event>
 5   0  0.3278988E-07  0.2592838E+04  0.7818609E-02  0.8370638E-01
       -1   -1    0    0    0  501  0.00000000000E+00  0.00000000000E+00  0.11610093531E+04  0.11610093531E+04  0.50400001928E-02 0. -1.
        1   -1    0    0  501    0  0.00000000000E+00  0.00000000000E+00 -0.14476213325E+04  0.14476213325E+04  0.50400001928E-02 0.  1.
    10030    2    1    2    0    0  0.00000000000E+00  0.00000000000E+00 -0.28661197938E+03  0.26086306856E+04  0.25928377556E+04 0.  0.
        4    1    3    3  502    0 -0.20758945475E+03  0.12727598011E+04 -0.27711760663E+03  0.13190173137E+04  0.12699999809E+01 0. -1.
       -4    1    3    3    0  502  0.20758945475E+03 -0.12727598011E+04 -0.94943727456E+01  0.12896133719E+04  0.12699999809E+01 0.  1.
</event>
<event>
 5   0  0.9538919E-07  0.3524450E+04  0.7818609E-02  0.8108020E-01
       -2   -1    0    0    0  501  0.00000000000E+00  0.00000000000E+00  0.16282614802E+04  0.16282614802E+04  0.25500000920E-02 0.  1.
        2   -1    0    0  501    0  0.00000000000E+00  0.00000000000E+00 -0.19072103955E+04  0.19072103955E+04  0.25500000920E-02 0. -1.
    10030    2    1    2    0    0  0.00000000000E+00  0.00000000000E+00 -0.27894891533E+03  0.35354718757E+04  0.35244501538E+04 0.  0.
        4    1    3    3  502    0 -0.98781608832E+02  0.71030280985E+03 -0.17542125868E+04  0.18951388604E+04  0.12699999809E+01 0. -1.
       -4    1    3    3    0  502  0.98781608832E+02 -0.71030280985E+03  0.14752636714E+04  0.16403330153E+04  0.12699999809E+01 0.  1.
</event>
<event>
 5   0  0.3278988E-07  0.3596156E+04  0.7818609E-02  0.8091373E-01
        1   -1    0    0  501    0  0.00000000000E+00  0.00000000000E+00  0.25172589787E+04  0.25172589787E+04  0.50400001928E-02 0. -1.
       -1   -1    0    0    0  501  0.00000000000E+00  0.00000000000E+00 -0.12843671287E+04  0.12843671287E+04  0.50400001928E-02 0.  1.
    10030    2    1    2    0    0  0.00000000000E+00  0.00000000000E+00  0.12328918500E+04  0.38016261075E+04  0.35961561071E+04 0.  0.
        4    1    3    3  502    0  0.13483173661E+03  0.26541880291E+03 -0.12581326529E+04  0.12928751383E+04  0.12699999809E+01 0.  1.
       -4    1    3    3    0  502 -0.13483173661E+03 -0.26541880291E+03  0.24910245029E+04  0.25087509691E+04  0.12699999809E+01 0. -1.
</event>
<event>
 5   0  0.3278988E-07  0.3558318E+04  0.7818609E-02  0.8100107E-01
       -1   -1    0    0    0  501  0.00000000000E+00  0.00000000000E+00  0.14948080722E+04  0.14948080722E+04  0.50400001928E-02 0.  1.
        1   -1    0    0  501    0  0.00000000000E+00  0.00000000000E+00 -0.21176013316E+04  0.21176013316E+04  0.50400001928E-02 0. -1.
    10030    2    1    2    0    0  0.00000000000E+00  0.00000000000E+00 -0.62279325937E+03  0.36124094038E+04  0.35583184592E+04 0.  0.
        4    1    3    3  502    0  0.38007690895E+03 -0.45995962027E+03 -0.20129977098E+04  0.20995672653E+04  0.12699999809E+01 0. -1.
       -4    1    3    3    0  502 -0.38007690895E+03  0.45995962027E+03  0.13902044505E+04  0.15128421385E+04  0.12699999809E+01 0.  1.
</event>
<event>
 5   0  0.3242047E-07  0.3423132E+04  0.7818609E-02  0.8132252E-01
        1   -1    0    0  501    0  0.00000000000E+00  0.00000000000E+00  0.22162480738E+04  0.22162480738E+04  0.50400001928E-02 0.  1.
       -1   -1    0    0    0  501  0.00000000000E+00  0.00000000000E+00 -0.13218099382E+04  0.13218099382E+04  0.50400001928E-02 0. -1.
    10030    2    1    2    0    0  0.00000000000E+00  0.00000000000E+00  0.89443813564E+03  0.35380580121E+04  0.34231323255E+04 0.  0.
        1    1    3    3  502    0  0.89638799082E+03  0.80487842183E+03 -0.80937735339E+03  0.14513553680E+04  0.50400001928E-02 0. -1.
       -1    1    3    3    0  502 -0.89638799082E+03 -0.80487842183E+03  0.17038154890E+04  0.20867026441E+04  0.50400001928E-02 0.  1.
</event>
<event>
 5   0  0.1006019E-06  0.3622546E+04  0.7818609E-02  0.8085347E-01
       -2   -1    0    0    0  501  0.00000000000E+00  0.00000000000E+00  0.22000739296E+04  0.22000739296E+04  0.25500000920E-02 0.  1.
        2   -1    0    0  501    0  0.00000000000E+00  0.00000000000E+00 -0.14911817078E+04  0.14911817078E+04  0.25500000920E-02 0. -1.
    10030    2    1    2    0    0  0.00000000000E+00  0.00000000000E+00  0.70889222173E+03  0.36912556374E+04  0.36225460658E+04 0.  0.
        1    1    3    3  502    0  0.44788014601E+03  0.99865136231E+03  0.18250134345E+04  0.21280449254E+04  0.50400001928E-02 0.  1.
       -1    1    3    3    0  502 -0.44788014601E+03 -0.99865136231E+03 -0.11161212127E+04  0.15632107120E+04  0.50400001928E-02 0. -1.
</event>
<event>
 5   0  0.3365378E-07  0.3740332E+04  0.7818609E-02  0.8059082E-01
       -1   -1    0    0    0  501  0.00000000000E+00  0.00000000000E+00  0.12447770456E+04  0.12447770456E+04  0.50400001928E-02 0.  1.
        1   -1    0    0  501    0  0.00000000000E+00  0.00000000000E+00 -0.28097563864E+04  0.28097563864E+04  0.50400001928E-02 0. -1.
    10030    2    1    2    0    0  0.00000000000E+00  0.00000000000E+00 -0.15649793408E+04  0.40545334321E+04  0.37403316717E+04 0.  0.
        3    1    3    3  502    0 -0.96602808294E+03 -0.16011343420E+04 -0.81073218856E+03  0.20381678365E+04  0.10100000352E+00 0. -1.
       -3    1    3    3    0  502  0.96602808294E+03  0.16011343420E+04 -0.75424715224E+03  0.20163655955E+04  0.10100000352E+00 0.  1.
</event>
<event>
 5   0  0.1031659E-06  0.3570798E+04  0.7818609E-02  0.8097214E-01
       -2   -1    0    0    0  501  0.00000000000E+00  0.00000000000E+00  0.11921921606E+04  0.11921921606E+04  0.25500000920E-02 0.  1.
        2   -1    0    0  501    0  0.00000000000E+00  0.00000000000E+00 -0.26737720130E+04  0.26737720130E+04  0.25500000920E-02 0. -1.
    10030    2    1    2    0    0  0.00000000000E+00  0.00000000000E+00 -0.14815798524E+04  0.38659641736E+04  0.35707982487E+04 0.  0.
        2    1    3    3  502    0 -0.10327471188E+04  0.14199226657E+04 -0.10914501934E+04  0.20673680158E+04  0.25500000920E-02 0. -1.
       -2    1    3    3    0  502  0.10327471188E+04 -0.14199226657E+04 -0.39012965901E+03  0.17985961578E+04  0.25500000920E-02 0.  1.
</event>
<event>
 5   0  0.9878336E-07  0.3609659E+04  0.7818609E-02  0.8088283E-01
       -2   -1    0    0    0  501  0.00000000000E+00  0.00000000000E+00  0.22782681305E+04  0.22782681305E+04  0.25500000920E-02 0.  1.
        2   -1    0    0  501    0  0.00000000000E+00  0.00000000000E+00 -0.14297746419E+04  0.14297746420E+04  0.25500000920E-02 0. -1.
    10030    2    1    2    0    0  0.00000000000E+00  0.00000000000E+00  0.84849348856E+03  0.37080427725E+04  0.36096592640E+04 0.  0.
        3    1    3    3  502    0 -0.15341085225E+03  0.24265148238E+03 -0.14061703970E+04  0.14351758871E+04  0.10100000352E+00 0. -1.
       -3    1    3    3    0  502  0.15341085225E+03 -0.24265148238E+03  0.22546638855E+04  0.22728668853E+04  0.10100000352E+00 0.  1.
</event>
<event>
 5   0  0.3159875E-07  0.3561947E+04  0.7818609E-02  0.8099264E-01
       -1   -1    0    0    0  501  0.00000000000E+00  0.00000000000E+00  0.22929659283E+04  0.22929659284E+04  0.50400001928E-02 0.  1.
        1   -1    0    0  501    0  0.00000000000E+00  0.00000000000E+00 -0.13833027707E+04  0.13833027707E+04  0.50400001928E-02 0. -1.
    10030    2    1    2    0    0  0.00000000000E+00  0.00000000000E+00  0.90966315762E+03  0.36762686991E+04  0.35619467272E+04 0.  0.
        5    1    3    3  502    0  0.13658714681E+04 -0.41015583381E+03 -0.64618313961E+03  0.15656971021E+04  0.46999998093E+01 0. -1.
       -5    1    3    3    0  502 -0.13658714681E+04  0.41015583381E+03  0.15558462972E+04  0.21105715970E+04  0.46999998093E+01 0.  1.
</event>
<event>
 5   0  0.9538919E-07  0.3649539E+04  0.7818609E-02  0.8079238E-01
       -2   -1    0    0    0  501  0.00000000000E+00  0.00000000000E+00  0.13791189707E+04  0.13791189707E+04  0.25500000920E-02 0.  1.
        2   -1    0    0  501    0  0.00000000000E+00  0.00000000000E+00 -0.24144279050E+04  0.24144279050E+04  0.25500000920E-02 0. -1.
    10030    2    1    2    0    0  0.00000000000E+00  0.00000000000E+00 -0.10353089343E+04  0.37935468758E+04  0.36495387803E+04 0.  0.
        4    1    3    3  502    0 -0.15344169378E+04  0.97191906662E+03 -0.33546805613E+03  0.18470523654E+04  0.12699999809E+01 0. -1.
       -4    1    3    3    0  502  0.15344169378E+04 -0.97191906662E+03 -0.69984087821E+03  0.19464945103E+04  0.12699999809E+01 0.  1.
</event>
<event>
 5   0  0.9538919E-07  0.3531397E+04  0.7818609E-02  0.8106389E-01
        2   -1    0    0  501    0  0.00000000000E+00  0.00000000000E+00  0.20092878006E+04  0.20092878006E+04  0.25500000920E-02 0.  1.
       -2   -1    0    0    0  501  0.00000000000E+00  0.00000000000E+00 -0.15516402347E+04  0.15516402347E+04  0.25500000920E-02 0. -1.
    10030    2    1    2    0    0  0.00000000000E+00  0.00000000000E+00  0.45764756596E+03  0.35609280353E+04  0.35313973407E+04 0.  0.
        4    1    3    3  502    0 -0.74247036658E+03  0.44131976093E+03  0.17817229809E+04  0.19800413556E+04  0.12699999809E+01 0.  1.
       -4    1    3    3    0  502  0.74247036658E+03 -0.44131976093E+03 -0.13240754149E+04  0.15808866796E+04  0.12699999809E+01 0. -1.
</event>
<event>
 5   0  0.1031659E-06  0.3620863E+04  0.7818609E-02  0.8085729E-01
        2   -1    0    0  501    0  0.00000000000E+00  0.00000000000E+00  0.18337477837E+04  0.18337477837E+04  0.25500000920E-02 0. -1.
       -2   -1    0    0    0  501  0.00000000000E+00  0.00000000000E+00 -0.17874118608E+04  0.17874118608E+04  0.25500000920E-02 0.  1.
    10030    2    1    2    0    0  0.00000000000E+00  0.00000000000E+00  0.46335922913E+02  0.36211596445E+04  0.36208631779E+04 0.  0.
        2    1    3    3  502    0  0.67508894614E+03  0.83958010426E+03 -0.14319503802E+04  0.17919603031E+04  0.25500000920E-02 0.  1.
       -2    1    3    3    0  502 -0.67508894614E+03 -0.83958010426E+03  0.14782863031E+04  0.18291993414E+04  0.25500000920E-02 0. -1.
</event>
<event>
 5   0  0.3159875E-07  0.3585343E+04  0.7818609E-02  0.8093857E-01
        1   -1    0    0  501    0  0.00000000000E+00  0.00000000000E+00  0.16572443774E+04  0.16572443774E+04  0.50400001928E-02 0.  1.
       -1   -1    0    0    0  501  0.00000000000E+00  0.00000000000E+00 -0.19391658504E+04  0.19391658504E+04  0.50400001928E-02 0. -1.
    10030    2    1    2    0    0  0.00000000000E+00  0.00000000000E+00 -0.28192147298E+03  0.35964102278E+04  0.35853433322E+04 0.  0.
        5    1    3    3  502    0  0.10027346378E+04 -0.99532245947E+03 -0.12477731973E+04  0.18849677966E+04  0.46999998093E+01 0. -1.
       -5    1    3    3    0  502 -0.10027346378E+04  0.99532245947E+03  0.96585172429E+03  0.17114424313E+04  0.46999998093E+01 0.  1.
</event>
<event>
 5   0  0.9878336E-07  0.2923774E+04  0.7818609E-02  0.8265839E-01
       -2   -1    0    0    0  501  0.00000000000E+00  0.00000000000E+00  0.73567825103E+03  0.73567825103E+03  0.25500000920E-02 0. -1.
        2   -1    0    0  501    0  0.00000000000E+00  0.00000000000E+00 -0.29049567130E+04  0.29049567130E+04  0.25500000920E-02 0.  1.
    10030    2    1    2    0    0  0.00000000000E+00  0.00000000000E+00 -0.21692784620E+04  0.36406349640E+04  0.29237739133E+04 0.  0.
        3    1    3    3  502    0  0.14452966522E+04  0.20507375510E+03 -0.11824935878E+04  0.18786241650E+04  0.10100000352E+00 0. -1.
       -3    1    3    3    0  502 -0.14452966522E+04 -0.20507375510E+03 -0.98678487421E+03  0.17620107991E+04  0.10100000352E+00 0.  1.
</event>
<event>
 5   0  0.3365378E-07  0.3583207E+04  0.7818609E-02  0.8094349E-01
       -1   -1    0    0    0  501  0.00000000000E+00  0.00000000000E+00  0.13611876630E+04  0.13611876630E+04  0.50400001928E-02 0. -1.
        1   -1    0    0  501    0  0.00000000000E+00  0.00000000000E+00 -0.23581193286E+04  0.23581193286E+04  0.50400001928E-02 0.  1.
    10030    2    1    2    0    0  0.00000000000E+00  0.00000000000E+00 -0.99693166563E+03  0.37193069916E+04  0.35832069089E+04 0.  0.
        3    1    3    3  502    0  0.17626924730E+04  0.32008553372E+03 -0.51654654149E+03  0.18644998908E+04  0.10100000352E+00 0. -1.
       -3    1    3    3    0  502 -0.17626924730E+04 -0.32008553372E+03 -0.48038512414E+03  0.18548071007E+04  0.10100000352E+00 0.  1.
</event>
<event>
 5   0  0.9538919E-07  0.3591210E+04  0.7818609E-02  0.8092508E-01
       -2   -1    0    0    0  501  0.00000000000E+00  0.00000000000E+00  0.14304464225E+04  0.14304464225E+04  0.25500000920E-02 0. -1.
        2   -1    0    0  501    0  0.00000000000E+00  0.00000000000E+00 -0.22539796023E+04  0.22539796023E+04  0.25500000920E-02 0.  1.
    10030    2    1    2    0    0  0.00000000000E+00  0.00000000000E+00 -0.82353317977E+03  0.36844260248E+04  0.35912098565E+04 0.  0.
        4    1    3    3  502    0  0.10386955758E+04  0.50238026964E+03  0.99978027840E+03  0.15267077823E+04  0.12699999809E+01 0. -1.
       -4    1    3    3    0  502 -0.10386955758E+04 -0.50238026964E+03 -0.18233134582E+04  0.21577182425E+04  0.12699999809E+01 0.  1.
</event>
<event>
 5   0  0.3278988E-07  0.3454992E+04  0.7818609E-02  0.8124540E-01
        1   -1    0    0  501    0  0.00000000000E+00  0.00000000000E+00  0.14806116980E+04  0.14806116980E+04  0.50400001928E-02 0.  1.
       -1   -1    0    0    0  501  0.00000000000E+00  0.00000000000E+00 -0.20155467767E+04  0.20155467767E+04  0.50400001928E-02 0. -1.
    10030    2    1    2    0    0  0.00000000000E+00  0.00000000000E+00 -0.53493507863E+03  0.34961584747E+04  0.34549918295E+04 0.  0.
        4    1    3    3  502    0 -0.37059411601E+03 -0.14077015213E+04 -0.12087536557E+04  0.18921021603E+04  0.12699999809E+01 0. -1.
       -4    1    3    3    0  502  0.37059411601E+03  0.14077015213E+04  0.67381857711E+03  0.16040563144E+04  0.12699999809E+01 0.  1.
</event>
<event>
 5   0  0.3365378E-07  0.3613825E+04  0.7818609E-02  0.8087332E-01
        1   -1    0    0  501    0  0.00000000000E+00  0.00000000000E+00  0.20685295265E+04  0.20685295265E+04  0.50400001928E-02 0. -1.
       -1   -1    0    0    0  501  0.00000000000E+00  0.00000000000E+00 -0.15783833989E+04  0.15783833990E+04  0.50400001928E-02 0.  1.
    10030    2    1    2    0    0  0.00000000000E+00  0.00000000000E+00  0.49014612756E+03  0.36469129255E+04  0.36138249348E+04 0.  0.
        3    1    3    3  502    0  0.99757619872E+03 -0.12656336475E+04  0.10698355761E+04  0.19343047774E+04  0.10100000352E+00 0. -1.
       -3    1    3    3    0  502 -0.99757619872E+03  0.12656336475E+04 -0.57968944852E+03  0.17126081481E+04  0.10100000352E+00 0.  1.
</event>
<event>
 5   0  0.1031659E-06  0.3586524E+04  0.7818609E-02  0.8093586E-01
       -2   -1    0    0    0  501  0.00000000000E+00  0.00000000000E+00  0.12929721315E+04  0.12929721315E+04  0.25500000920E-02 0.  1.
        2   -1    0    0  501    0  0.00000000000E+00  0.00000000000E+00 -0.24871288011E+04  0.24871288011E+04  0.25500000920E-02 0. -1.
    10030    2    1    2    0    0  0.00000000000E+00  0.00000000000E+00 -0.11941566696E+04  0.37801009327E+04  0.35865237919E+04 0.  0.
        2    1    3    3  502    0 -0.33903596390E+02  0.10789054363E+04 -0.21063601888E+04  0.23668417014E+04  0.25500000920E-02 0. -1.
       -2    1    3    3    0  502  0.33903596390E+02 -0.10789054363E+04  0.91220351921E+03  0.14132592313E+04  0.25500000920E-02 0.  1.
</event>
<event>
 5   0  0.3365378E-07  0.3615668E+04  0.7818609E-02  0.8086912E-01
        1   -1    0    0  501    0  0.00000000000E+00  0.00000000000E+00  0.21279995152E+04  0.21279995152E+04  0.50400001928E-02 0. -1.
       -1   -1    0    0    0  501  0.00000000000E+00  0.00000000000E+00 -0.15358386517E+04  0.15358386517E+04  0.50400001928E-02 0.  1.
    10030    2    1    2    0    0  0.00000000000E+00  0.00000000000E+00  0.59216086350E+03  0.36638381669E+04  0.36156680745E+04 0.  0.
        3    1    3    3  502    0  0.85734114687E+03  0.13104226638E+04 -0.61929403415E+03  0.16839734293E+04  0.10100000352E+00 0.  1.
       -3    1    3    3    0  502 -0.85734114687E+03 -0.13104226638E+04  0.12114548977E+04  0.19798647376E+04  0.10100000352E+00 0. -1.
</event>
<event>
 5   0  0.9538919E-07  0.3557514E+04  0.7818609E-02  0.8100293E-01
        2   -1    0    0  501    0  0.00000000000E+00  0.00000000000E+00  0.31066024739E+04  0.31066024739E+04  0.25500000920E-02 0.  1.
       -2   -1    0    0    0  501  0.00000000000E+00  0.00000000000E+00 -0.10184684785E+04  0.10184684785E+04  0.25500000920E-02 0. -1.
    10030    2    1    2    0    0  0.00000000000E+00  0.00000000000E+00  0.20881339954E+04  0.41250709524E+04  0.35575141292E+04 0.  0.
        4    1    3    3  502    0 -0.43378559191E+03  0.13587050924E+04 -0.18838858687E+03  0.14386595638E+04  0.12699999809E+01 0. -1.
       -4    1    3    3    0  502  0.43378559191E+03 -0.13587050924E+04  0.22765225823E+04  0.26864113885E+04  0.12699999809E+01 0.  1.
</event>
<event>
 5   0  0.1006019E-06  0.3611920E+04  0.7818609E-02  0.8087767E-01
        2   -1    0    0  501    0  0.00000000000E+00  0.00000000000E+00  0.15477036292E+04  0.15477036292E+04  0.25500000920E-02 0.  1.
       -2   -1    0    0    0  501  0.00000000000E+00  0.00000000000E+00 -0.21073103177E+04  0.21073103177E+04  0.25500000920E-02 0. -1.
    10030    2    1    2    0    0  0.00000000000E+00  0.00000000000E+00 -0.55960668852E+03  0.36550139469E+04  0.36119201688E+04 0.  0.
        1    1    3    3  502    0  0.48107545177E+02 -0.12583666504E+04 -0.15897326143E+04  0.20280657652E+04  0.50400001928E-02 0. -1.
       -1    1    3    3    0  502 -0.48107545177E+02  0.12583666504E+04  0.10301259258E+04  0.16269481817E+04  0.50400001928E-02 0.  1.
</event>
<event>
 5   0  0.9878336E-07  0.3248576E+04  0.7818609E-02  0.8176105E-01
       -2   -1    0    0    0  501  0.00000000000E+00  0.00000000000E+00  0.93187179232E+03  0.93187179232E+03  0.25500000920E-02 0.  1.
        2   -1    0    0  501    0  0.00000000000E+00  0.00000000000E+00 -0.28311961962E+04  0.28311961962E+04  0.25500000920E-02 0. -1.
    10030    2    1    2    0    0  0.00000000000E+00  0.00000000000E+00 -0.18993244039E+04  0.37630679885E+04  0.32485762258E+04 0.  0.
        3    1    3    3  502    0 -0.11892073808E+04 -0.52761093345E+03 -0.20761624556E+04  0.24501098025E+04  0.10100000352E+00 0. -1.
       -3    1    3    3    0  502  0.11892073808E+04  0.52761093345E+03  0.17683805175E+03  0.13129581861E+04  0.10100000352E+00 0.  1.
</event>
<event>
 5   0  0.9878336E-07  0.3609556E+04  0.7818609E-02  0.8088306E-01
       -2   -1    0    0    0  501  0.00000000000E+00  0.00000000000E+00  0.22384008972E+04  0.22384008972E+04  0.25500000920E-02 0. -1.
        2   -1    0    0  501    0  0.00000000000E+00  0.00000000000E+00 -0.14551566929E+04  0.14551566929E+04  0.25500000920E-02 0.  1.
    10030    2    1    2    0    0  0.00000000000E+00  0.00000000000E+00  0.78324420431E+03  0.36935575901E+04  0.36095562314E+04 0.  0.
        3    1    3    3  502    0 -0.27991496308E+03  0.14709859183E+04 -0.63933241062E+03  0.16281578240E+04  0.10100000352E+00 0. -1.
       -3    1    3    3    0  502  0.27991496308E+03 -0.14709859183E+04  0.14225766149E+04  0.20653997661E+04  0.10100000352E+00 0.  1.
</event>
<event>
 5   0  0.9878977E-07  0.3491195E+04  0.7818609E-02  0.8115880E-01
        2   -1    0    0  501    0  0.00000000000E+00  0.00000000000E+00  0.20686927954E+04  0.20686927954E+04  0.25500000920E-02 0. -1.
       -2   -1    0    0    0  501  0.00000000000E+00  0.00000000000E+00 -0.14729644564E+04  0.14729644564E+04  0.25500000920E-02 0.  1.
    10030    2    1    2    0    0  0.00000000000E+00  0.00000000000E+00  0.59572833904E+03  0.35416572518E+04  0.34911951872E+04 0.  0.
        5    1    3    3  502    0 -0.55044390105E+03  0.99669930440E+03 -0.10443973308E+04  0.15450520593E+04  0.46999998093E+01 0.  1.
       -5    1    3    3    0  502  0.55044390105E+03 -0.99669930440E+03  0.16401256698E+04  0.19966051924E+04  0.46999998093E+01 0. -1.
</event>
<event>
 5   0  0.3365378E-07  0.3628394E+04  0.7818609E-02  0.8084018E-01
        1   -1    0    0  501    0  0.00000000000E+00  0.00000000000E+00  0.16068910136E+04  0.16068910136E+04  0.50400001928E-02 0. -1.
       -1   -1    0    0    0  501  0.00000000000E+00  0.00000000000E+00 -0.20482477133E+04  0.20482477133E+04  0.50400001928E-02 0.  1.
    10030    2    1    2    0    0  0.00000000000E+00  0.00000000000E+00 -0.44135669962E+03  0.36551387269E+04  0.36283940492E+04 0.  0.
        3    1    3    3  502    0  0.12600512915E+04 -0.28274666894E+03 -0.15042902691E+04  0.19825650456E+04  0.10100000352E+00 0. -1.
       -3    1    3    3    0  502 -0.12600512915E+04  0.28274666894E+03  0.10629335695E+04  0.16725736813E+04  0.10100000352E+00 0.  1.
</event>
<event>
 5   0  0.3278988E-07  0.2904410E+04  0.7818609E-02  0.8271567E-01
        1   -1    0    0  501    0  0.00000000000E+00  0.00000000000E+00  0.12140258135E+04  0.12140258135E+04  0.50400001928E-02 0. -1.
       -1   -1    0    0    0  501  0.00000000000E+00  0.00000000000E+00 -0.17371125049E+04  0.17371125049E+04  0.50400001928E-02 0.  1.
    10030    2    1    2    0    0  0.00000000000E+00  0.00000000000E+00 -0.52308669146E+03  0.29511383184E+04  0.29044100413E+04 0.  0.
        4    1    3    3  502    0  0.64919452341E+03 -0.40053025642E+03 -0.15171510414E+04  0.16981245275E+04  0.12699999809E+01 0.  1.
       -4    1    3    3    0  502 -0.64919452341E+03  0.40053025642E+03  0.99406434996E+03  0.12530137909E+04  0.12699999809E+01 0. -1.
</event>
<event>
 5   0  0.9538919E-07  0.3575612E+04  0.7818609E-02  0.8096101E-01
       -2   -1    0    0    0  501  0.00000000000E+00  0.00000000000E+00  0.13897072279E+04  0.13897072279E+04  0.25500000920E-02 0.  1.
        2   -1    0    0  501    0  0.00000000000E+00  0.00000000000E+00 -0.22999452798E+04  0.22999452798E+04  0.25500000920E-02 0. -1.
    10030    2    1    2    0    0  0.00000000000E+00  0.00000000000E+00 -0.91023805194E+03  0.36896525077E+04  0.35756121597E+04 0.  0.
        4    1    3    3  502    0 -0.12611840847E+04  0.48580780105E+01 -0.17626715985E+04  0.21673997493E+04  0.12699999809E+01 0. -1.
       -4    1    3    3    0  502  0.12611840847E+04 -0.48580780105E+01  0.85243354653E+03  0.15222527584E+04  0.12699999809E+01 0.  1.
</event>
<event>
 5   0  0.3365378E-07  0.3613551E+04  0.7818609E-02  0.8087395E-01
       -1   -1    0    0    0  501  0.00000000000E+00  0.00000000000E+00  0.11744945668E+04  0.11744945668E+04  0.50400001928E-02 0.  1.
        1   -1    0    0  501    0  0.00000000000E+00  0.00000000000E+00 -0.27794401864E+04  0.27794401864E+04  0.50400001928E-02 0. -1.
    10030    2    1    2    0    0  0.00000000000E+00  0.00000000000E+00 -0.16049456196E+04  0.39539347532E+04  0.36135508286E+04 0.  0.
        3    1    3    3  502    0  0.14805022987E+04  0.35160169632E+03 -0.18683609645E+04  0.24096231061E+04  0.10100000352E+00 0. -1.
       -3    1    3    3    0  502 -0.14805022987E+04 -0.35160169632E+03  0.26341534496E+03  0.15443116471E+04  0.10100000352E+00 0.  1.
</event>
<event>
 5   0  0.3159875E-07  0.3499958E+04  0.7818609E-02  0.8113800E-01
        1   -1    0    0  501    0  0.00000000000E+00  0.00000000000E+00  0.24105710976E+04  0.24105710976E+04  0.50400001928E-02 0.  1.
       -1   -1    0    0    0  501  0.00000000000E+00  0.00000000000E+00 -0.12704155421E+04  0.12704155421E+04  0.50400001928E-02 0. -1.
    10030    2    1    2    0    0  0.00000000000E+00  0.00000000000E+00  0.11401555555E+04  0.36809866397E+04  0.34999582785E+04 0.  0.
        2    1    3    3  502    0  0.72066171150E+03  0.75865356505E+03  0.20453113290E+04  0.22974348667E+04  0.25500000920E-02 0.  1.
       -2    1    3    3    0  502 -0.72066171150E+03 -0.75865356505E+03 -0.90515577352E+03  0.13835517730E+04  0.25500000920E-02 0. -1.
</event>
<event>
 5   0  0.3159875E-07  0.3582950E+04  0.7818609E-02  0.8094408E-01
       -1   -1    0    0    0  501  0.00000000000E+00  0.00000000000E+00  0.15858390851E+04  0.15858390851E+04  0.50400001928E-02 0.  1.
        1   -1    0    0  501    0  0.00000000000E+00  0.00000000000E+00 -0.20237760820E+04  0.20237760820E+04  0.50400001928E-02 0. -1.
    10030    2    1    2    0    0  0.00000000000E+00  0.00000000000E+00 -0.43793699689E+03  0.36096151670E+04  0.35829502984E+04 0.  0.
        5    1    3    3  502    0 -0.16333059452E+04  0.73527254212E+03 -0.25156821980E+03  0.18087627487E+04  0.46999998093E+01 0.  1.
       -5    1    3    3    0  502  0.16333059452E+04 -0.73527254212E+03 -0.18636877710E+03  0.18008524184E+04  0.46999998093E+01 0. -1.
</event>
<event>
 5   0  0.3365378E-07  0.2988727E+04  0.7818609E-02  0.8246957E-01
        1   -1    0    0  501    0  0.00000000000E+00  0.00000000000E+00  0.14431778140E+04  0.14431778140E+04  0.50400001928E-02 0. -1.
       -1   -1    0    0    0  501  0.00000000000E+00  0.00000000000E+00 -0.15473641153E+04  0.15473641153E+04  0.50400001928E-02 0.  1.
    10030    2    1    2    0    0  0.00000000000E+00  0.00000000000E+00 -0.10418630133E+03  0.29905419293E+04  0.29887265257E+04 0.  0.
        3    1    3    3  502    0 -0.19512104243E+02  0.71536042315E+03 -0.13647590102E+04  0.15410024086E+04  0.10100000352E+00 0.  1.
       -3    1    3    3    0  502  0.19512104243E+02 -0.71536042315E+03  0.12605727089E+04  0.14495395206E+04  0.10100000352E+00 0. -1.
</event>
<event>
 5   0  0.3159875E-07  0.3640238E+04  0.7818609E-02  0.8081336E-01
       -1   -1    0    0    0  501  0.00000000000E+00  0.00000000000E+00  0.26407296002E+04  0.26407296002E+04  0.50400001928E-02 0. -1.
        1   -1    0    0  501    0  0.00000000000E+00  0.00000000000E+00 -0.12545143885E+04  0.12545143885E+04  0.50400001928E-02 0.  1.
    10030    2    1    2    0    0  0.00000000000E+00  0.00000000000E+00  0.13862152118E+04  0.38952439887E+04  0.36402380579E+04 0.  0.
        5    1    3    3  502    0 -0.16942312706E+04 -0.47190208001E+03  0.19155103245E+03  0.17691311595E+04  0.46999998093E+01 0.  1.
       -5    1    3    3    0  502  0.16942312706E+04  0.47190208001E+03  0.11946641793E+04  0.21261128292E+04  0.46999998093E+01 0. -1.
</event>
<event>
 5   0  0.3159875E-07  0.2577646E+04  0.7818609E-02  0.8375834E-01
        1   -1    0    0  501    0  0.00000000000E+00  0.00000000000E+00  0.94840086941E+03  0.94840086943E+03  0.50400001928E-02 0.  1.
       -1   -1    0    0    0  501  0.00000000000E+00  0.00000000000E+00 -0.17514374523E+04  0.17514374523E+04  0.50400001928E-02 0. -1.
    10030    2    1    2    0    0  0.00000000000E+00  0.00000000000E+00 -0.80303658289E+03  0.26998383217E+04  0.25776460599E+04 0.  0.
        2    1    3    3  502    0  0.32146013789E+03 -0.12411838751E+04 -0.26418932674E+03  0.13090722029E+04  0.25500000920E-02 0.  1.
       -2    1    3    3    0  502 -0.32146013789E+03  0.12411838751E+04 -0.53884725614E+03  0.13907661189E+04  0.25500000920E-02 0. -1.
</event>
<event>
 5   0  0.3159875E-07  0.3611854E+04  0.7818609E-02  0.8087782E-01
        1   -1    0    0  501    0  0.00000000000E+00  0.00000000000E+00  0.20896706522E+04  0.20896706522E+04  0.50400001928E-02 0. -1.
       -1   -1    0    0    0  501  0.00000000000E+00  0.00000000000E+00 -0.15607112405E+04  0.15607112405E+04  0.50400001928E-02 0.  1.
    10030    2    1    2    0    0  0.00000000000E+00  0.00000000000E+00  0.52895941163E+03  0.36503818927E+04  0.36118540811E+04 0.  0.
        2    1    3    3  502    0 -0.10045394542E+04  0.47668200403E+03 -0.11737414841E+04  0.16167851804E+04  0.25500000920E-02 0.  1.
       -2    1    3    3    0  502  0.10045394542E+04 -0.47668200403E+03  0.17027008957E+04  0.20335967123E+04  0.25500000920E-02 0. -1.
</event>
<event>
 5   0  0.9878977E-07  0.3581927E+04  0.7818609E-02  0.8094644E-01
        2   -1    0    0  501    0  0.00000000000E+00  0.00000000000E+00  0.15871759603E+04  0.15871759603E+04  0.25500000920E-02 0. -1.
       -2   -1    0    0    0  501  0.00000000000E+00  0.00000000000E+00 -0.20209162808E+04  0.20209162808E+04  0.25500000920E-02 0.  1.
    10030    2    1    2    0    0  0.00000000000E+00  0.00000000000E+00 -0.43374032049E+03  0.36080922412E+04  0.35819267099E+04 0.  0.
        5    1    3    3  502    0  0.14127801123E+04  0.24415875993E+03 -0.12980074868E+04  0.19340131001E+04  0.46999998093E+01 0.  1.
       -5    1    3    3    0  502 -0.14127801123E+04 -0.24415875993E+03  0.86426716629E+03  0.16740791410E+04  0.46999998093E+01 0. -1.
</event>
<event>
 5   0  0.3365378E-07  0.3510644E+04  0.7818609E-02  0.8111272E-01
        1   -1    0    0  501    0  0.00000000000E+00  0.00000000000E+00  0.17821637487E+04  0.17821637487E+04  0.50400001928E-02 0. -1.
       -1   -1    0    0    0  501  0.00000000000E+00  0.00000000000E+00 -0.17288847734E+04  0.17288847734E+04  0.50400001928E-02 0.  1.
    10030    2    1    2    0    0  0.00000000000E+00  0.00000000000E+00  0.53278975318E+02  0.35110485221E+04  0.35106442536E+04 0.  0.
        3    1    3    3  502    0 -0.33898337538E+03 -0.13958390464E+04 -0.98237677977E+03  0.17402127800E+04  0.10100000352E+00 0.  1.
       -3    1    3    3    0  502  0.33898337538E+03  0.13958390464E+04  0.10356557551E+04  0.17708357421E+04  0.10100000352E+00 0. -1.
</event>
<event>
 5   0  0.9878977E-07  0.3612233E+04  0.7818609E-02  0.8087695E-01
       -2   -1    0    0    0  501  0.00000000000E+00  0.00000000000E+00  0.10661912966E+04  0.10661912966E+04  0.25500000920E-02 0.  1.
        2   -1    0    0  501    0  0.00000000000E+00  0.00000000000E+00 -0.30595414799E+04  0.30595414799E+04  0.25500000920E-02 0. -1.
    10030    2    1    2    0    0  0.00000000000E+00  0.00000000000E+00 -0.19933501833E+04  0.41257327764E+04  0.36122328260E+04 0.  0.
        5    1    3    3  502    0  0.17041467412E+04  0.55870835094E+03 -0.75234110213E+03  0.19448162795E+04  0.46999998093E+01 0.  1.
       -5    1    3    3    0  502 -0.17041467412E+04 -0.55870835094E+03 -0.12410090812E+04  0.21809164969E+04  0.46999998093E+01 0. -1.
</event>
<event>
 5   0  0.3365378E-07  0.3653464E+04  0.7818609E-02  0.8078354E-01
       -1   -1    0    0    0  501  0.00000000000E+00  0.00000000000E+00  0.14619619277E+04  0.14619619277E+04  0.50400001928E-02 0.  1.
        1   -1    0    0  501    0  0.00000000000E+00  0.00000000000E+00 -0.22825150355E+04  0.22825150355E+04  0.50400001928E-02 0. -1.
    10030    2    1    2    0    0  0.00000000000E+00  0.00000000000E+00 -0.82055310782E+03  0.37444769632E+04  0.36534641540E+04 0.  0.
        3    1    3    3  502    0  0.43349247619E+03 -0.66306913296E+03  0.12767455206E+04  0.15025496786E+04  0.10100000352E+00 0.  1.
       -3    1    3    3    0  502 -0.43349247619E+03  0.66306913296E+03 -0.20972986285E+04  0.22419272845E+04  0.10100000352E+00 0. -1.
</event>
<event>
 5   0  0.9538919E-07  0.3132187E+04  0.7818609E-02  0.8206959E-01
        2   -1    0    0  501    0  0.00000000000E+00  0.00000000000E+00  0.21757810620E+04  0.21757810620E+04  0.25500000920E-02 0.  1.
       -2   -1    0    0    0  501  0.00000000000E+00  0.00000000000E+00 -0.11272501441E+04  0.11272501441E+04  0.25500000920E-02 0. -1.
    10030    2    1    2    0    0  0.00000000000E+00  0.00000000000E+00  0.10485309179E+04  0.33030312060E+04  0.31321874245E+04 0.  0.
        4    1    3    3  502    0 -0.13252992197E+04  0.49548369490E+02  0.14026288126E+04  0.19303477048E+04  0.12699999809E+01 0.  1.
       -4    1    3    3    0  502  0.13252992197E+04 -0.49548369490E+02 -0.35409789477E+03  0.13726835012E+04  0.12699999809E+01 0. -1.
</event>
<event>
 5   0  0.3278988E-07  0.3475238E+04  0.7818609E-02  0.8119683E-01
       -1   -1    0    0    0  501  0.00000000000E+00  0.00000000000E+00  0.18015443851E+04  0.18015443851E+04  0.50400001928E-02 0.  1.
        1   -1    0    0  501    0  0.00000000000E+00  0.00000000000E+00 -0.16759615612E+04  0.16759615612E+04  0.50400001928E-02 0. -1.
    10030    2    1    2    0    0  0.00000000000E+00  0.00000000000E+00  0.12558282390E+03  0.34775059463E+04  0.34752376266E+04 0.  0.
        4    1    3    3  502    0 -0.11078384598E+04  0.12517268834E+04  0.53764438766E+03  0.17559012911E+04  0.12699999809E+01 0.  1.
       -4    1    3    3    0  502  0.11078384598E+04 -0.12517268834E+04 -0.41206156376E+03  0.17216046552E+04  0.12699999809E+01 0. -1.
</event>
<event>
 5   0  0.9538919E-07  0.3604418E+04  0.7818609E-02  0.8089480E-01
        2   -1    0    0  501    0  0.00000000000E+00  0.00000000000E+00  0.16537572666E+04  0.16537572666E+04  0.25500000920E-02 0.  1.
       -2   -1    0    0    0  501  0.00000000000E+00  0.00000000000E+00 -0.19639867185E+04  0.19639867185E+04  0.25500000920E-02 0. -1.
    10030    2    1    2    0    0  0.00000000000E+00  0.00000000000E+00 -0.31022945193E+03  0.36177439850E+04  0.36044180152E+04 0.  0.
        4    1    3    3  502    0  0.12069490695E+04 -0.79269122757E+03 -0.12374661914E+04  0.19016859958E+04  0.12699999809E+01 0. -1.
       -4    1    3    3    0  502 -0.12069490695E+04  0.79269122757E+03  0.92723673947E+03  0.17160579893E+04  0.12699999809E+01 0.  1.
</event>
<event>
 5   0  0.1031659E-06  0.3574453E+04  0.7818609E-02  0.8096369E-01
       -2   -1    0    0    0  501  0.00000000000E+00  0.00000000000E+00  0.17967190683E+04  0.17967190683E+04  0.25500000920E-02 0. -1.
        2   -1    0    0  501    0  0.00000000000E+00  0.00000000000E+00 -0.17777839959E+04  0.17777839959E+04  0.25500000920E-02 0.  1.
    10030    2    1    2    0    0  0.00000000000E+00  0.00000000000E+00  0.18935072459E+02  0.35745030642E+04  0.35744529119E+04 0.  0.
        2    1    3    3  502    0  0.12818186156E+04  0.58300074641E+03  0.11100417320E+04  0.17930815599E+04  0.25500000920E-02 0. -1.
       -2    1    3    3    0  502 -0.12818186156E+04 -0.58300074641E+03 -0.10911066595E+04  0.17814215043E+04  0.25500000920E-02 0.  1.
</event>
<event>
 5   0  0.3242047E-07  0.3507918E+04  0.7818609E-02  0.8111916E-01
        1   -1    0    0  501    0  0.00000000000E+00  0.00000000000E+00  0.27920615606E+04  0.27920615606E+04  0.50400001928E-02 0. -1.
       -1   -1    0    0    0  501  0.00000000000E+00  0.00000000000E+00 -0.11018282021E+04  0.11018282022E+04  0.50400001928E-02 0.  1.
    10030    2    1    2    0    0  0.00000000000E+00  0.00000000000E+00  0.16902333584E+04  0.38938897627E+04  0.35079179977E+04 0.  0.
        1    1    3    3  502    0  0.52734229626E+03 -0.10335141053E+04 -0.61495338545E+03  0.13131675329E+04  0.50400001928E-02 0.  1.
       -1    1    3    3    0  502 -0.52734229626E+03  0.10335141053E+04  0.23051867439E+04  0.25807222298E+04  0.50400001928E-02 0. -1.
</event>
<event>
 5   0  0.3242047E-07  0.3387351E+04  0.7818609E-02  0.8141018E-01
        1   -1    0    0  501    0  0.00000000000E+00  0.00000000000E+00  0.19779907997E+04  0.19779907997E+04  0.50400001928E-02 0. -1.
       -1   -1    0    0    0  501  0.00000000000E+00  0.00000000000E+00 -0.14502274967E+04  0.14502274967E+04  0.50400001928E-02 0.  1.
    10030    2    1    2    0    0  0.00000000000E+00  0.00000000000E+00  0.52776330303E+03  0.34282182964E+04  0.33873509685E+04 0.  0.
        1    1    3    3  502    0 -0.96344437562E+03  0.82120691740E+02 -0.11434225072E+04  0.14974591490E+04  0.50400001928E-02 0.  1.
       -1    1    3    3    0  502  0.96344437562E+03 -0.82120691740E+02  0.16711858102E+04  0.19307591474E+04  0.50400001928E-02 0. -1.
</event>
<event>
 5   0  0.9878977E-07  0.3519445E+04  0.7818609E-02  0.8109197E-01
       -2   -1    0    0    0  501  0.00000000000E+00  0.00000000000E+00  0.22089471985E+04  0.22089471985E+04  0.25500000920E-02 0. -1.
        2   -1    0    0  501    0  0.00000000000E+00  0.00000000000E+00 -0.14018546631E+04  0.14018546631E+04  0.25500000920E-02 0.  1.
    10030    2    1    2    0    0  0.00000000000E+00  0.00000000000E+00  0.80709253537E+03  0.36108018617E+04  0.35194448033E+04 0.  0.
        5    1    3    3  502    0  0.28643116919E+02 -0.16144579362E+04 -0.31411542205E+03  0.16449879769E+04  0.46999998093E+01 0.  1.
       -5    1    3    3    0  502 -0.28643116919E+02  0.16144579362E+04  0.11212079574E+04  0.19658138848E+04  0.46999998093E+01 0. -1.
</event>
<event>
 5   0  0.9878336E-07  0.3623106E+04  0.7818609E-02  0.8085219E-01
        2   -1    0    0  501    0  0.00000000000E+00  0.00000000000E+00  0.25098861165E+04  0.25098861165E+04  0.25500000920E-02 0.  1.
       -2   -1    0    0    0  501  0.00000000000E+00  0.00000000000E+00 -0.13075193491E+04  0.13075193491E+04  0.25500000920E-02 0. -1.
    10030    2    1    2    0    0  0.00000000000E+00  0.00000000000E+00  0.12023667674E+04  0.38174054656E+04  0.36231062150E+04 0.  0.
        3    1    3    3  502    0  0.83068818058E+03 -0.13246643536E+03 -0.10892685932E+04  0.13762617077E+04  0.10100000352E+00 0. -1.
       -3    1    3    3    0  502 -0.83068818058E+03  0.13246643536E+03  0.22916353607E+04  0.24411437578E+04  0.10100000352E+00 0.  1.
</event>
<event>
 5   0  0.9878977E-07  0.3613648E+04  0.7818609E-02  0.8087372E-01
        2   -1    0    0  501    0  0.00000000000E+00  0.00000000000E+00  0.25794969372E+04  0.25794969372E+04  0.25500000920E-02 0. -1.
       -2   -1    0    0    0  501  0.00000000000E+00  0.00000000000E+00 -0.12656009732E+04  0.12656009732E+04  0.25500000920E-02 0.  1.
    10030    2    1    2    0    0  0.00000000000E+00  0.00000000000E+00  0.13138959640E+04  0.38450979105E+04  0.36136484800E+04 0.  0.
        5    1    3    3  502    0  0.99457414587E+03  0.35323613908E+03  0.22173811793E+04  0.24557595334E+04  0.46999998093E+01 0. -1.
       -5    1    3    3    0  502 -0.99457414587E+03 -0.35323613908E+03 -0.90348521535E+03  0.13893383770E+04  0.46999998093E+01 0.  1.
</event>
<event>
 5   0  0.3159875E-07  0.3593457E+04  0.7818609E-02  0.8091992E-01
       -1   -1    0    0    0  501  0.00000000000E+00  0.00000000000E+00  0.14079008383E+04  0.14079008383E+04  0.50400001928E-02 0.  1.
        1   -1    0    0  501    0  0.00000000000E+00  0.00000000000E+00 -0.22929411411E+04  0.22929411411E+04  0.50400001928E-02 0. -1.
    10030    2    1    2    0    0  0.00000000000E+00  0.00000000000E+00 -0.88504030278E+03  0.37008419794E+04  0.35934572515E+04 0.  0.
        2    1    3    3  502    0  0.14310312679E+04  0.11088491898E+01  0.67640066769E+03  0.15828359304E+04  0.25500000920E-02 0.  1.
       -2    1    3    3    0  502 -0.14310312679E+04 -0.11088491898E+01 -0.15614409705E+04  0.21180060490E+04  0.25500000920E-02 0. -1.
</event>
<event>
 5   0  0.9538919E-07  0.2701110E+04  0.7818609E-02  0.8334645E-01
       -2   -1    0    0    0  501  0.00000000000E+00  0.00000000000E+00  0.87991394054E+03  0.87991394055E+03  0.25500000920E-02 0. -1.
        2   -1    0    0  501    0  0.00000000000E+00  0.00000000000E+00 -0.20729287378E+04  0.20729287378E+04  0.25500000920E-02 0.  1.
    10030    2    1    2    0    0  0.00000000000E+00  0.00000000000E+00 -0.11930147972E+04  0.29528426783E+04  0.27011100638E+04 0.  0.
        4    1    3    3  502    0 -0.10138634426E+04  0.33178222548E+03  0.30893263403E+03  0.11106032193E+04  0.12699999809E+01 0. -1.
       -4    1    3    3    0  502  0.10138634426E+04 -0.33178222548E+03 -0.15019474313E+04  0.18422394591E+04  0.12699999809E+01 0.  1.
</event>
<event>
 5   0  0.3365378E-07  0.3176563E+04  0.7818609E-02  0.8195034E-01
       -1   -1    0    0    0  501  0.00000000000E+00  0.00000000000E+00  0.11218062824E+04  0.11218062824E+04  0.50400001928E-02 0. -1.
        1   -1    0    0  501    0  0.00000000000E+00  0.00000000000E+00 -0.22487286849E+04  0.22487286849E+04  0.50400001928E-02 0.  1.
    10030    2    1    2    0    0  0.00000000000E+00  0.00000000000E+00 -0.11269224025E+04  0.33705349673E+04  0.31765629011E+04 0.  0.
        3    1    3    3  502    0 -0.91097821887E+03 -0.19604224450E+03 -0.19282067078E+04  0.21415636799E+04  0.10100000352E+00 0.  1.
       -3    1    3    3    0  502  0.91097821887E+03  0.19604224450E+03  0.80128430536E+03  0.12289712873E+04  0.10100000352E+00 0. -1.
</event>
<event>
 5   0  0.9878336E-07  0.3503731E+04  0.7818609E-02  0.8112906E-01
       -2   -1    0    0    0  501  0.00000000000E+00  0.00000000000E+00  0.15971710807E+04  0.15971710807E+04  0.25500000920E-02 0.  1.
        2   -1    0    0  501    0  0.00000000000E+00  0.00000000000E+00 -0.19215424171E+04  0.19215424171E+04  0.25500000920E-02 0. -1.
    10030    2    1    2    0    0  0.00000000000E+00  0.00000000000E+00 -0.32437133636E+03  0.35187134979E+04  0.35037305713E+04 0.  0.
        3    1    3    3  502    0 -0.10641121920E+04 -0.38743468295E+03  0.11801645745E+04  0.16356126753E+04  0.10100000352E+00 0.  1.
       -3    1    3    3    0  502  0.10641121920E+04  0.38743468295E+03 -0.15045359108E+04  0.18831008225E+04  0.10100000352E+00 0. -1.
</event>
<event>
 5   0  0.3242047E-07  0.2902026E+04  0.7818609E-02  0.8272275E-01
        1   -1    0    0  501    0  0.00000000000E+00  0.00000000000E+00  0.14690823690E+04  0.14690823690E+04  0.50400001928E-02 0. -1.
       -1   -1    0    0    0  501  0.00000000000E+00  0.00000000000E+00 -0.14331655545E+04  0.14331655545E+04  0.50400001928E-02 0.  1.
    10030    2    1    2    0    0  0.00000000000E+00  0.00000000000E+00  0.35916814535E+02  0.29022479235E+04  0.29020256704E+04 0.  0.
        1    1    3    3  502    0 -0.12500460206E+04  0.53821797165E+03  0.52113172245E+03  0.14573509910E+04  0.50400001928E-02 0.  1.
       -1    1    3    3    0  502  0.12500460206E+04 -0.53821797165E+03 -0.48521490791E+03  0.14448969325E+04  0.50400001928E-02 0. -1.
</event>
<event>
 5   0  0.9878977E-07  0.3598902E+04  0.7818609E-02  0.8090743E-01
        2   -1    0    0  501    0  0.00000000000E+00  0.00000000000E+00  0.13917666089E+04  0.13917666089E+04  0.25500000920E-02 0. -1.
       -2   -1    0    0    0  501  0.00000000000E+00  0.00000000000E+00 -0.23265562311E+04  0.23265562311E+04  0.25500000920E-02 0.  1.
    10030    2    1    2    0    0  0.00000000000E+00  0.00000000000E+00 -0.93478962217E+03  0.37183228400E+04  0.35989016526E+04 0.  0.
        5    1    3    3  502    0  0.10619416447E+03 -0.13688538885E+04 -0.16691612687E+04  0.21612865612E+04  0.46999998093E+01 0.  1.
       -5    1    3    3    0  502 -0.10619416447E+03  0.13688538885E+04  0.73437164651E+03  0.15570362789E+04  0.46999998093E+01 0. -1.
</event>
<event>
 5   0  0.3278988E-07  0.3588074E+04  0.7818609E-02  0.8093229E-01
        1   -1    0    0  501    0  0.00000000000E+00  0.00000000000E+00  0.17866385376E+04  0.17866385376E+04  0.50400001928E-02 0.  1.
       -1   -1    0    0    0  501  0.00000000000E+00  0.00000000000E+00 -0.18014656531E+04  0.18014656531E+04  0.50400001928E-02 0. -1.
    10030    2    1    2    0    0  0.00000000000E+00  0.00000000000E+00 -0.14827115472E+02  0.35881041907E+04  0.35880735555E+04 0.  0.
        4    1    3    3  502    0 -0.68389461774E+03  0.15656273404E+04  0.54000826042E+03  0.17917899853E+04  0.12699999809E+01 0.  1.
       -4    1    3    3    0  502  0.68389461774E+03 -0.15656273404E+04 -0.55483537589E+03  0.17963142054E+04  0.12699999809E+01 0. -1.
</event>
<event>
 5   0  0.1031659E-06  0.3579614E+04  0.7818609E-02  0.8095177E-01
        2   -1    0    0  501    0  0.00000000000E+00  0.00000000000E+00  0.16624790303E+04  0.16624790303E+04  0.25500000920E-02 0. -1.
       -2   -1    0    0    0  501  0.00000000000E+00  0.00000000000E+00 -0.19268868714E+04  0.19268868714E+04  0.25500000920E-02 0.  1.
    10030    2    1    2    0    0  0.00000000000E+00  0.00000000000E+00 -0.26440784113E+03  0.35893659017E+04  0.35796139554E+04 0.  0.
        2    1    3    3  502    0  0.20944661293E+03 -0.50251825719E+02  0.16494359539E+04  0.16634398383E+04  0.25500000920E-02 0. -1.
       -2    1    3    3    0  502 -0.20944661293E+03  0.50251825719E+02 -0.19138437950E+04  0.19259260633E+04  0.25500000920E-02 0.  1.
</event>
<event>
 5   0  0.9878336E-07  0.3635427E+04  0.7818609E-02  0.8082425E-01
        2   -1    0    0  501    0  0.00000000000E+00  0.00000000000E+00  0.16670278900E+04  0.16670278900E+04  0.25500000920E-02 0. -1.
       -2   -1    0    0    0  501  0.00000000000E+00  0.00000000000E+00 -0.19820195854E+04  0.19820195854E+04  0.25500000920E-02 0.  1.
    10030    2    1    2    0    0  0.00000000000E+00  0.00000000000E+00 -0.31499169546E+03  0.36490474754E+04  0.36354267576E+04 0.  0.
        3    1    3    3  502    0 -0.50329254076E+03  0.99506276532E+03  0.12833714312E+04  0.17001457377E+04  0.10100000352E+00 0. -1.
       -3    1    3    3    0  502  0.50329254076E+03 -0.99506276532E+03 -0.15983631267E+04  0.19489017378E+04  0.10100000352E+00 0.  1.
</event>
<event>
 5   0  0.3159875E-07  0.3541431E+04  0.7818609E-02  0.8104041E-01
        1   -1    0    0  501    0  0.00000000000E+00  0.00000000000E+00  0.21085888270E+04  0.21085888270E+04  0.50400001928E-02 0. -1.
       -1   -1    0    0    0  501  0.00000000000E+00  0.00000000000E+00 -0.14869821189E+04  0.14869821189E+04  0.50400001928E-02 0.  1.
    10030    2    1    2    0    0  0.00000000000E+00  0.00000000000E+00  0.62160670809E+03  0.35955709460E+04  0.35414312824E+04 0.  0.
        5    1    3    3  502    0  0.73659339971E+01 -0.75571262794E+03 -0.13150064194E+04  0.15167134885E+04  0.46999998093E+01 0.  1.
       -5    1    3    3    0  502 -0.73659339971E+01  0.75571262794E+03  0.19366131275E+04  0.20788574575E+04  0.46999998093E+01 0. -1.
</event>
<event>
 5   0  0.3159875E-07  0.3550846E+04  0.7818609E-02  0.8101845E-01
       -1   -1    0    0    0  501  0.00000000000E+00  0.00000000000E+00  0.21513773330E+04  0.21513773330E+04  0.50400001928E-02 0.  1.
        1   -1    0    0  501    0  0.00000000000E+00  0.00000000000E+00 -0.14651668816E+04  0.14651668816E+04  0.50400001928E-02 0. -1.
    10030    2    1    2    0    0  0.00000000000E+00  0.00000000000E+00  0.68621045138E+03  0.36165442146E+04  0.35508459940E+04 0.  0.
        2    1    3    3  502    0 -0.88820508132E+03 -0.14734915300E+04 -0.10322800116E+03  0.17235839335E+04  0.25500000920E-02 0. -1.
       -2    1    3    3    0  502  0.88820508132E+03  0.14734915300E+04  0.78943845254E+03  0.18929602811E+04  0.25500000920E-02 0.  1.
</event>
<event>
 5   0  0.9538919E-07  0.3605310E+04  0.7818609E-02  0.8089276E-01
        2   -1    0    0  501    0  0.00000000000E+00  0.00000000000E+00  0.10358490654E+04  0.10358490654E+04  0.25500000920E-02 0.  1.
       -2   -1    0    0    0  501  0.00000000000E+00  0.00000000000E+00 -0.31371035996E+04  0.31371035996E+04  0.25500000920E-02 0. -1.
    10030    2    1    2    0    0  0.00000000000E+00  0.00000000000E+00 -0.21012545342E+04  0.41729526650E+04  0.36053104342E+04 0.  0.
        4    1    3    3  502    0 -0.15358341284E+04 -0.69264649316E+03 -0.17926744533E+04  0.24601278306E+04  0.12699999809E+01 0. -1.
       -4    1    3    3    0  502  0.15358341284E+04  0.69264649316E+03 -0.30858008089E+03  0.17128248345E+04  0.12699999809E+01 0.  1.
</event>
<event>
 5   0  0.1031659E-06  0.3590292E+04  0.7818609E-02  0.8092719E-01
        2   -1    0    0  501    0  0.00000000000E+00  0.00000000000E+00  0.24573629958E+04  0.24573629958E+04  0.25500000920E-02 0. -1.
       -2   -1    0    0    0  501  0.00000000000E+00  0.00000000000E+00 -0.13113853875E+04  0.13113853875E+04  0.25500000920E-02 0.  1.
    10030    2    1    2    0    0  0.00000000000E+00  0.00000000000E+00  0.11459776083E+04  0.37687483834E+04  0.35902924252E+04 0.  0.
        2    1    3    3  502    0  0.10484046731E+04 -0.96243127451E+03  0.17215041915E+04  0.22336076196E+04  0.25500000920E-02 0. -1.
       -2    1    3    3    0  502 -0.10484046731E+04  0.96243127451E+03 -0.57552658320E+03  0.15351407638E+04  0.25500000920E-02 0.  1.
</event>
<event>
 5   0  0.3159875E-07  0.3617756E+04  0.7818609E-02  0.8086436E-01
        1   -1    0    0  501    0  0.00000000000E+00  0.00000000000E+00  0.11908294347E+04  0.11908294347E+04  0.50400001928E-02 0. -1.
       -1   -1    0    0    0  501  0.00000000000E+00  0.00000000000E+00 -0.27476986456E+04  0.27476986456E+04  0.50400001928E-02 0.  1.
    10030    2    1    2    0    0  0.00000000000E+00  0.00000000000E+00 -0.15568692109E+04  0.39385280802E+04  0.36177564455E+04 0.  0.
        2    1    3    3  502    0  0.14278402976E+04  0.47624100624E+03 -0.18706367448E+04  0.24010029660E+04  0.25500000920E-02 0.  1.
       -2    1    3    3    0  502 -0.14278402976E+04 -0.47624100624E+03  0.31376753390E+03  0.15375251142E+04  0.25500000920E-02 0. -1.
</event>
<event>
 5   0  0.9538919E-07  0.3479691E+04  0.7818609E-02  0.8118620E-01
       -2   -1    0    0    0  501  0.00000000000E+00  0.00000000000E+00  0.13447366657E+04  0.13447366657E+04  0.25500000920E-02 0. -1.
        2   -1    0    0  501    0  0.00000000000E+00  0.00000000000E+00 -0.22510447888E+04  0.22510447888E+04  0.25500000920E-02 0.  1.
    10030    2    1    2    0    0  0.00000000000E+00  0.00000000000E+00 -0.90630812314E+03  0.35957814545E+04  0.34796910573E+04 0.  0.
        4    1    3    3  502    0 -0.44932494045E+02 -0.16703542616E+04  0.47742717953E+02  0.16716408909E+04  0.12699999809E+01 0. -1.
       -4    1    3    3    0  502  0.44932494045E+02  0.16703542616E+04 -0.95405084109E+03  0.19241405636E+04  0.12699999809E+01 0.  1.
</event>
<event>
 5   0  0.9878977E-07  0.3677675E+04  0.7818609E-02  0.8072927E-01
        2   -1    0    0  501    0  0.00000000000E+00  0.00000000000E+00  0.18026544620E+04  0.18026544620E+04  0.25500000920E-02 0.  1.
       -2   -1    0    0    0  501  0.00000000000E+00  0.00000000000E+00 -0.18757467330E+04  0.18757467330E+04  0.25500000920E-02 0. -1.
    10030    2    1    2    0    0  0.00000000000E+00  0.00000000000E+00 -0.73092270973E+02  0.36784011950E+04  0.36776749274E+04 0.  0.
        5    1    3    3  502    0 -0.45200733952E+03  0.12053548885E+04 -0.13498591628E+04  0.18652969983E+04  0.46999998093E+01 0. -1.
       -5    1    3    3    0  502  0.45200733952E+03 -0.12053548885E+04  0.12767668918E+04  0.18131041968E+04  0.46999998093E+01 0.  1.
</event>
<event>
 5   0  0.9538919E-07  0.3636319E+04  0.7818609E-02  0.8082223E-01
        2   -1    0    0  501    0  0.00000000000E+00  0.00000000000E+00  0.16578124690E+04  0.16578124690E+04  0.25500000920E-02 0. -1.
       -2   -1    0    0    0  501  0.00000000000E+00  0.00000000000E+00 -0.19940155718E+04  0.19940155718E+04  0.25500000920E-02 0.  1.
    10030    2    1    2    0    0  0.00000000000E+00  0.00000000000E+00 -0.33620310279E+03  0.36518280407E+04  0.36363189509E+04 0.  0.
        4    1    3    3  502    0 -0.17792550036E+03 -0.15072549487E+04 -0.11734843818E+04  0.19184739173E+04  0.12699999809E+01 0.  1.
       -4    1    3    3    0  502  0.17792550036E+03  0.15072549487E+04  0.83728127903E+03  0.17333541234E+04  0.12699999809E+01 0. -1.
</event>
<event>
 5   0  0.1031659E-06  0.3615601E+04  0.7818609E-02  0.8086928E-01
       -2   -1    0    0    0  501  0.00000000000E+00  0.00000000000E+00  0.19185474104E+04  0.19185474104E+04  0.25500000920E-02 0.  1.
        2   -1    0    0  501    0  0.00000000000E+00  0.00000000000E+00 -0.17034460306E+04  0.17034460306E+04  0.25500000920E-02 0. -1.
    10030    2    1    2    0    0  0.00000000000E+00  0.00000000000E+00  0.21510137980E+03  0.36219934410E+04  0.36156006255E+04 0.  0.
        2    1    3    3  502    0 -0.11827011210E+04 -0.91381920773E+03 -0.91125018936E+03  0.17504926145E+04  0.25500000920E-02 0. -1.
       -2    1    3    3    0  502  0.11827011210E+04  0.91381920773E+03  0.11263515692E+04  0.18715008264E+04  0.25500000920E-02 0.  1.
</event>
<event>
 5   0  0.9878977E-07  0.3597372E+04  0.7818609E-02  0.8091094E-01
       -2   -1    0    0    0  501  0.00000000000E+00  0.00000000000E+00  0.14310418706E+04  0.14310418706E+04  0.25500000920E-02 0. -1.
        2   -1    0    0  501    0  0.00000000000E+00  0.00000000000E+00 -0.22607801505E+04  0.22607801505E+04  0.25500000920E-02 0.  1.
    10030    2    1    2    0    0  0.00000000000E+00  0.00000000000E+00 -0.82973827991E+03  0.36918220212E+04  0.35973718494E+04 0.  0.
        5    1    3    3  502    0 -0.68590375872E+03 -0.94953512858E+03  0.98594796768E+03  0.15310768797E+04  0.46999998093E+01 0. -1.
       -5    1    3    3    0  502  0.68590375872E+03  0.94953512858E+03 -0.18156862476E+04  0.21607451415E+04  0.46999998093E+01 0.  1.
</event>
<event>
 5   0  0.3242047E-07  0.3593150E+04  0.7818609E-02  0.8092063E-01
        1   -1    0    0  501    0  0.00000000000E+00  0.00000000000E+00  0.27990914718E+04  0.27990914718E+04  0.50400001928E-02 0. -1.
       -1   -1    0    0    0  501  0.00000000000E+00  0.00000000000E+00 -0.11531174845E+04  0.11531174845E+04  0.50400001928E-02 0.  1.
    10030    2    1    2    0    0  0.00000000000E+00  0.00000000000E+00  0.16459739873E+04  0.39522089563E+04  0.35931497697E+04 0.  0.
        1    1    3    3  502    0  0.78173828126E+03  0.26491385327E+02 -0.95599775016E+03  0.12352118167E+04  0.50400001928E-02 0.  1.
       -1    1    3    3    0  502 -0.78173828126E+03 -0.26491385327E+02  0.26019717374E+04  0.27169971396E+04  0.50400001928E-02 0. -1.
</event>
<event>
 5   0  0.9878336E-07  0.3532384E+04  0.7818609E-02  0.8106158E-01
        2   -1    0    0  501    0  0.00000000000E+00  0.00000000000E+00  0.22785795528E+04  0.22785795528E+04  0.25500000920E-02 0. -1.
       -2   -1    0    0    0  501  0.00000000000E+00  0.00000000000E+00 -0.13690256308E+04  0.13690256308E+04  0.25500000920E-02 0.  1.
    10030    2    1    2    0    0  0.00000000000E+00  0.00000000000E+00  0.90955392197E+03  0.36476051837E+04  0.35323837899E+04 0.  0.
        3    1    3    3  502    0  0.21968225924E+03 -0.17483177446E+04  0.33018234493E+03  0.17927341192E+04  0.10100000352E+00 0.  1.
       -3    1    3    3    0  502 -0.21968225924E+03  0.17483177446E+04  0.57937157704E+03  0.18548710644E+04  0.10100000352E+00 0. -1.
</event>
<event>
 5   0  0.3242047E-07  0.3585464E+04  0.7818609E-02  0.8093830E-01
       -1   -1    0    0    0  501  0.00000000000E+00  0.00000000000E+00  0.22036586070E+04  0.22036586070E+04  0.50400001928E-02 0. -1.
        1   -1    0    0  501    0  0.00000000000E+00  0.00000000000E+00 -0.14584324206E+04  0.14584324206E+04  0.50400001928E-02 0.  1.
    10030    2    1    2    0    0  0.00000000000E+00  0.00000000000E+00  0.74522618646E+03  0.36620910276E+04  0.35854635162E+04 0.  0.
        1    1    3    3  502    0 -0.10141521038E+04 -0.24977081336E+03  0.18608036314E+04  0.21338884937E+04  0.50400001928E-02 0. -1.
       -1    1    3    3    0  502  0.10141521038E+04  0.24977081336E+03 -0.11155774450E+04  0.15282025339E+04  0.50400001928E-02 0.  1.
</event>
<event>
 5   0  0.1031659E-06  0.3619086E+04  0.7818609E-02  0.8086134E-01
        2   -1    0    0  501    0  0.00000000000E+00  0.00000000000E+00  0.15573463263E+04  0.15573463263E+04  0.25500000920E-02 0.  1.
       -2   -1    0    0    0  501  0.00000000000E+00  0.00000000000E+00 -0.21025799275E+04  0.21025799275E+04  0.25500000920E-02 0. -1.
    10030    2    1    2    0    0  0.00000000000E+00  0.00000000000E+00 -0.54523360120E+03  0.36599262538E+04  0.36190855894E+04 0.  0.
        2    1    3    3  502    0  0.28683057021E+03  0.15609927019E+04  0.60637245791E+03  0.16990166418E+04  0.25500000920E-02 0.  1.
       -2    1    3    3    0  502 -0.28683057021E+03 -0.15609927019E+04 -0.11516060591E+04  0.19609096121E+04  0.25500000920E-02 0. -1.
</event>
<event>
 5   0  0.9878977E-07  0.3618925E+04  0.7818609E-02  0.8086170E-01
       -2   -1    0    0    0  501  0.00000000000E+00  0.00000000000E+00  0.14878463142E+04  0.14878463142E+04  0.25500000920E-02 0. -1.
        2   -1    0    0  501    0  0.00000000000E+00  0.00000000000E+00 -0.22006002545E+04  0.22006002545E+04  0.25500000920E-02 0.  1.
    10030    2    1    2    0    0  0.00000000000E+00  0.00000000000E+00 -0.71275394024E+03  0.36884465687E+04  0.36189252425E+04 0.  0.
        5    1    3    3  502    0  0.64710521344E+03  0.15554422983E+04  0.31660069076E+03  0.17141773502E+04  0.46999998093E+01 0. -1.
       -5    1    3    3    0  502 -0.64710521344E+03 -0.15554422983E+04 -0.10293546310E+04  0.19742692185E+04  0.46999998093E+01 0.  1.
</event>
<event>
 5   0  0.3365378E-07  0.3546076E+04  0.7818609E-02  0.8102956E-01
       -1   -1    0    0    0  501  0.00000000000E+00  0.00000000000E+00  0.20499730972E+04  0.20499730972E+04  0.50400001928E-02 0.  1.
        1   -1    0    0  501    0  0.00000000000E+00  0.00000000000E+00 -0.15335147560E+04  0.15335147560E+04  0.50400001928E-02 0. -1.
    10030    2    1    2    0    0  0.00000000000E+00  0.00000000000E+00  0.51645834115E+03  0.35834878532E+04  0.35460761379E+04 0.  0.
        3    1    3    3  502    0  0.14604117875E+03  0.17052175575E+04 -0.20987381308E+03  0.17242801315E+04  0.10100000352E+00 0. -1.
       -3    1    3    3    0  502 -0.14604117875E+03 -0.17052175575E+04  0.72633215423E+03  0.18592077218E+04  0.10100000352E+00 0.  1.
</event>
<event>
 5   0  0.3242047E-07  0.3587399E+04  0.7818609E-02  0.8093384E-01
        1   -1    0    0  501    0  0.00000000000E+00  0.00000000000E+00  0.16530570172E+04  0.16530570172E+04  0.50400001928E-02 0.  1.
       -1   -1    0    0    0  501  0.00000000000E+00  0.00000000000E+00 -0.19463079586E+04  0.19463079586E+04  0.50400001928E-02 0. -1.
    10030    2    1    2    0    0  0.00000000000E+00  0.00000000000E+00 -0.29325094135E+03  0.35993649758E+04  0.35873990738E+04 0.  0.
        1    1    3    3  502    0  0.26349662525E+02  0.17821632106E+04 -0.34868742013E+03  0.18161450743E+04  0.50400001928E-02 0. -1.
       -1    1    3    3    0  502 -0.26349662525E+02 -0.17821632106E+04  0.55436478785E+02  0.17832199015E+04  0.50400001928E-02 0.  1.
</event>
<event>
 5   0  0.3159875E-07  0.3597367E+04  0.7818609E-02  0.8091095E-01
        1   -1    0    0  501    0  0.00000000000E+00  0.00000000000E+00  0.19659465619E+04  0.19659465619E+04  0.50400001928E-02 0.  1.
       -1   -1    0    0    0  501  0.00000000000E+00  0.00000000000E+00 -0.16456513721E+04  0.16456513721E+04  0.50400001928E-02 0. -1.
    10030    2    1    2    0    0  0.00000000000E+00  0.00000000000E+00  0.32029518976E+03  0.36115979340E+04  0.35973671801E+04 0.  0.
        5    1    3    3  502    0 -0.16231387771E+04 -0.11249213956E+03 -0.60970171834E+03  0.17375247470E+04  0.46999998093E+01 0. -1.
       -5    1    3    3    0  502  0.16231387771E+04  0.11249213956E+03  0.92999690811E+03  0.18740731870E+04  0.46999998093E+01 0.  1.
</event>
<event>
 5   0  0.3159875E-07  0.3598144E+04  0.7818609E-02  0.8090917E-01
       -3   -1    0    0    0  501  0.00000000000E+00  0.00000000000E+00  0.11817548316E+04  0.11817548359E+04  0.10100000352E+00 0.  1.
        3   -1    0    0  501    0  0.00000000000E+00  0.00000000000E+00 -0.27388591284E+04  0.27388591302E+04  0.10100000352E+00 0. -1.
    10030    2    1    2    0    0  0.00000000000E+00  0.00000000000E+00 -0.15571042968E+04  0.39206139661E+04  0.35981439771E+04 0.  0.
        5    1    3    3  502    0  0.12964395619E+04  0.62320937639E+03 -0.19558940167E+04  0.24278980537E+04  0.46999998093E+01 0. -1.
       -5    1    3    3    0  502 -0.12964395619E+04 -0.62320937639E+03  0.39878971990E+03  0.14927159124E+04  0.46999998093E+01 0.  1.
</event>
<event>
 5   0  0.3365378E-07  0.3602016E+04  0.7818609E-02  0.8090030E-01
        1   -1    0    0  501    0  0.00000000000E+00  0.00000000000E+00  0.98607861587E+03  0.98607861589E+03  0.50400001928E-02 0.  1.
       -1   -1    0    0    0  501  0.00000000000E+00  0.00000000000E+00 -0.32894231346E+04  0.32894231346E+04  0.50400001928E-02 0. -1.
    10030    2    1    2    0    0  0.00000000000E+00  0.00000000000E+00 -0.23033445187E+04  0.42755017505E+04  0.36020159975E+04 0.  0.
        3    1    3    3  502    0 -0.16983205082E+04 -0.59231460908E+03 -0.12611101442E+04  0.21967084355E+04  0.10100000352E+00 0.  1.
       -3    1    3    3    0  502  0.16983205082E+04  0.59231460908E+03 -0.10422343745E+04  0.20787933150E+04  0.10100000352E+00 0. -1.
</event>
<event>
 5   0  0.9878977E-07  0.3524134E+04  0.7818609E-02  0.8108094E-01
        2   -1    0    0  501    0  0.00000000000E+00  0.00000000000E+00  0.19474754247E+04  0.19474754247E+04  0.25500000920E-02 0. -1.
       -2   -1    0    0    0  501  0.00000000000E+00  0.00000000000E+00 -0.15943104466E+04  0.15943104466E+04  0.25500000920E-02 0.  1.
    10030    2    1    2    0    0  0.00000000000E+00  0.00000000000E+00  0.35316497810E+03  0.35417858713E+04  0.35241341712E+04 0.  0.
        5    1    3    3  502    0 -0.49784893680E+03  0.12311632588E+04  0.13405032236E+04  0.18869519114E+04  0.46999998093E+01 0. -1.
       -5    1    3    3    0  502  0.49784893680E+03 -0.12311632588E+04 -0.98733824547E+03  0.16548339599E+04  0.46999998093E+01 0.  1.
</event>
<event>
 5   0  0.3159875E-07  0.3644315E+04  0.7818609E-02  0.8080416E-01
        3   -1    0    0  501    0  0.00000000000E+00  0.00000000000E+00  0.19084073981E+04  0.19084074008E+04  0.10100000352E+00 0.  1.
       -3   -1    0    0    0  501  0.00000000000E+00  0.00000000000E+00 -0.17398053149E+04  0.17398053178E+04  0.10100000352E+00 0. -1.
    10030    2    1    2    0    0  0.00000000000E+00  0.00000000000E+00  0.16860208316E+03  0.36482127186E+04  0.36443146650E+04 0.  0.
        5    1    3    3  502    0 -0.21915790695E+03 -0.84090965177E+02 -0.17245998554E+04  0.17405080379E+04  0.46999998093E+01 0. -1.
       -5    1    3    3    0  502  0.21915790695E+03  0.84090965177E+02  0.18932019386E+04  0.19077046807E+04  0.46999998093E+01 0.  1.
</event>
<event>
 5   0  0.9878977E-07  0.3519183E+04  0.7818609E-02  0.8109259E-01
       -2   -1    0    0    0  501  0.00000000000E+00  0.00000000000E+00  0.20325242667E+04  0.20325242667E+04  0.25500000920E-02 0. -1.
        2   -1    0    0  501    0  0.00000000000E+00  0.00000000000E+00 -0.15233092579E+04  0.15233092579E+04  0.25500000920E-02 0.  1.
    10030    2    1    2    0    0  0.00000000000E+00  0.00000000000E+00  0.50921500877E+03  0.35558335246E+04  0.35191834464E+04 0.  0.
        5    1    3    3  502    0  0.14435151091E+04 -0.50264293035E+01 -0.76204199494E+03  0.16323269364E+04  0.46999998093E+01 0.  1.
       -5    1    3    3    0  502 -0.14435151091E+04  0.50264293035E+01  0.12712570037E+04  0.19235065882E+04  0.46999998093E+01 0. -1.
</event>
<event>
 5   0  0.3242047E-07  0.3617417E+04  0.7818609E-02  0.8086514E-01
        1   -1    0    0  501    0  0.00000000000E+00  0.00000000000E+00  0.12388941952E+04  0.12388941953E+04  0.50400001928E-02 0.  1.
       -1   -1    0    0    0  501  0.00000000000E+00  0.00000000000E+00 -0.26406012795E+04  0.26406012795E+04  0.50400001928E-02 0. -1.
    10030    2    1    2    0    0  0.00000000000E+00  0.00000000000E+00 -0.14017070843E+04  0.38794954748E+04  0.36174165351E+04 0.  0.
        1    1    3    3  502    0 -0.20970433108E+03  0.98248660061E+03  0.91216488014E+03  0.13569453178E+04  0.50400001928E-02 0.  1.
       -1    1    3    3    0  502  0.20970433108E+03 -0.98248660061E+03 -0.23138719644E+04  0.25225501570E+04  0.50400001928E-02 0. -1.
</event>
<event>
 5   0  0.3159875E-07  0.3653474E+04  0.7818609E-02  0.8078351E-01
        1   -1    0    0  501    0  0.00000000000E+00  0.00000000000E+00  0.21746710122E+04  0.21746710122E+04  0.50400001928E-02 0. -1.
       -1   -1    0    0    0  501  0.00000000000E+00  0.00000000000E+00 -0.15344703256E+04  0.15344703256E+04  0.50400001928E-02 0.  1.
    10030    2    1    2    0    0  0.00000000000E+00  0.00000000000E+00  0.64020068665E+03  0.37091413378E+04  0.36534740378E+04 0.  0.
        5    1    3    3  502    0  0.14025679168E+04 -0.10091828052E+04  0.92183639292E+03  0.19584307802E+04  0.46999998093E+01 0.  1.
       -5    1    3    3    0  502 -0.14025679168E+04  0.10091828052E+04 -0.28163570626E+03  0.17507105576E+04  0.46999998093E+01 0. -1.
</event>
<event>
 5   0  0.9878336E-07  0.2696393E+04  0.7818609E-02  0.8336176E-01
        2   -1    0    0  501    0  0.00000000000E+00  0.00000000000E+00  0.16209137709E+04  0.16209137709E+04  0.25500000920E-02 0.  1.
       -2   -1    0    0    0  501  0.00000000000E+00  0.00000000000E+00 -0.11213638155E+04  0.11213638155E+04  0.25500000920E-02 0. -1.
    10030    2    1    2    0    0  0.00000000000E+00  0.00000000000E+00  0.49954995550E+03  0.27422775864E+04  0.26963931840E+04 0.  0.
        3    1    3    3  502    0  0.40166916633E+03  0.21890993193E+03 -0.10400232159E+04  0.11361813135E+04  0.10100000352E+00 0. -1.
       -3    1    3    3    0  502 -0.40166916633E+03 -0.21890993193E+03  0.15395731714E+04  0.16060962729E+04  0.10100000352E+00 0.  1.
</event>
<event>
 5   0  0.9878977E-07  0.3572881E+04  0.7818609E-02  0.8096732E-01
       -2   -1    0    0    0  501  0.00000000000E+00  0.00000000000E+00  0.15280957916E+04  0.15280957916E+04  0.25500000920E-02 0.  1.
        2   -1    0    0  501    0  0.00000000000E+00  0.00000000000E+00 -0.20884621713E+04  0.20884621713E+04  0.25500000920E-02 0. -1.
    10030    2    1    2    0    0  0.00000000000E+00  0.00000000000E+00 -0.56036637968E+03  0.36165579630E+04  0.35728813330E+04 0.  0.
        5    1    3    3  502    0 -0.17843360948E+04  0.84173692728E+02 -0.25974589623E+03  0.18051123318E+04  0.46999998093E+01 0.  1.
       -5    1    3    3    0  502  0.17843360948E+04 -0.84173692728E+02 -0.30062048346E+03  0.18114456312E+04  0.46999998093E+01 0. -1.
</event>
<event>
 5   0  0.9538919E-07  0.3521473E+04  0.7818609E-02  0.8108720E-01
        2   -1    0    0  501    0  0.00000000000E+00  0.00000000000E+00  0.20340790605E+04  0.20340790605E+04  0.25500000920E-02 0.  1.
       -2   -1    0    0    0  501  0.00000000000E+00  0.00000000000E+00 -0.15241260373E+04  0.15241260373E+04  0.25500000920E-02 0. -1.
    10030    2    1    2    0    0  0.00000000000E+00  0.00000000000E+00  0.50995302319E+03  0.35582050978E+04  0.35214729066E+04 0.  0.
        4    1    3    3  502    0  0.27710488210E+03  0.20375935651E+03  0.19998026664E+04  0.20291666537E+04  0.12699999809E+01 0.  1.
       -4    1    3    3    0  502 -0.27710488210E+03 -0.20375935651E+03 -0.14898496432E+04  0.15290384441E+04  0.12699999809E+01 0. -1.
</event>
<event>
 5   0  0.3365378E-07  0.3634826E+04  0.7818609E-02  0.8082561E-01
        1   -1    0    0  501    0  0.00000000000E+00  0.00000000000E+00  0.19517250909E+04  0.19517250909E+04  0.50400001928E-02 0.  1.
       -1   -1    0    0    0  501  0.00000000000E+00  0.00000000000E+00 -0.16923435985E+04  0.16923435985E+04  0.50400001928E-02 0. -1.
    10030    2    1    2    0    0  0.00000000000E+00  0.00000000000E+00  0.25938149237E+03  0.36440686894E+04  0.36348256979E+04 0.  0.
        3    1    3    3  502    0 -0.15563617623E+04 -0.46251372449E+03 -0.68896921813E+03  0.17637628736E+04  0.10100000352E+00 0. -1.
       -3    1    3    3    0  502  0.15563617623E+04  0.46251372449E+03  0.94835071051E+03  0.18803058158E+04  0.10100000352E+00 0.  1.
</event>
<event>
 5   0  0.3278988E-07  0.3565079E+04  0.7818609E-02  0.8098538E-01
       -1   -1    0    0    0  501  0.00000000000E+00  0.00000000000E+00  0.13232993454E+04  0.13232993454E+04  0.50400001928E-02 0.  1.
        1   -1    0    0  501    0  0.00000000000E+00  0.00000000000E+00 -0.24011557482E+04  0.24011557482E+04  0.50400001928E-02 0. -1.
    10030    2    1    2    0    0  0.00000000000E+00  0.00000000000E+00 -0.10778564028E+04  0.37244550937E+04  0.35650794268E+04 0.  0.
        4    1    3    3  502    0 -0.76690418709E+03  0.13417278254E+04 -0.14669356690E+04  0.21307926834E+04  0.12699999809E+01 0. -1.
       -4    1    3    3    0  502  0.76690418709E+03 -0.13417278254E+04  0.38907926621E+03  0.15936624103E+04  0.12699999809E+01 0.  1.
</event>
<event>
 5   0  0.3278988E-07  0.3583938E+04  0.7818609E-02  0.8094181E-01
       -1   -1    0    0    0  501  0.00000000000E+00  0.00000000000E+00  0.15175490289E+04  0.15175490289E+04  0.50400001928E-02 0. -1.
        1   -1    0    0  501    0  0.00000000000E+00  0.00000000000E+00 -0.21160121708E+04  0.21160121708E+04  0.50400001928E-02 0.  1.
    10030    2    1    2    0    0  0.00000000000E+00  0.00000000000E+00 -0.59846314193E+03  0.36335611997E+04  0.35839376194E+04 0.  0.
        4    1    3    3  502    0 -0.36155006638E+03 -0.10305734175E+04 -0.17395892080E+04  0.20540136915E+04  0.12699999809E+01 0.  1.
       -4    1    3    3    0  502  0.36155006638E+03  0.10305734175E+04  0.11411260660E+04  0.15795475083E+04  0.12699999809E+01 0. -1.
</event>
<event>
 5   0  0.3278988E-07  0.3709494E+04  0.7818609E-02  0.8065861E-01
       -1   -1    0    0    0  501  0.00000000000E+00  0.00000000000E+00  0.15619777248E+04  0.15619777248E+04  0.50400001928E-02 0. -1.
        1   -1    0    0  501    0  0.00000000000E+00  0.00000000000E+00 -0.22023911277E+04  0.22023911277E+04  0.50400001928E-02 0.  1.
    10030    2    1    2    0    0  0.00000000000E+00  0.00000000000E+00 -0.64041340290E+03  0.37643688525E+04  0.37094937028E+04 0.  0.
        4    1    3    3  502    0 -0.15575395886E+02  0.63967400326E+03  0.14464251610E+04  0.15816361094E+04  0.12699999809E+01 0. -1.
       -4    1    3    3    0  502  0.15575395886E+02 -0.63967400326E+03 -0.20868385639E+04  0.21827327431E+04  0.12699999809E+01 0.  1.
</event>
<event>
 5   0  0.3242047E-07  0.3401411E+04  0.7818609E-02  0.8137560E-01
       -1   -1    0    0    0  501  0.00000000000E+00  0.00000000000E+00  0.19712647383E+04  0.19712647383E+04  0.50400001928E-02 0.  1.
        1   -1    0    0  501    0  0.00000000000E+00  0.00000000000E+00 -0.14672808080E+04  0.14672808080E+04  0.50400001928E-02 0. -1.
    10030    2    1    2    0    0  0.00000000000E+00  0.00000000000E+00  0.50398393035E+03  0.34385455463E+04  0.34014108355E+04 0.  0.
        1    1    3    3  502    0 -0.19913552053E+03  0.94097237522E+03  0.16699149309E+04  0.19270962205E+04  0.50400001928E-02 0.  1.
       -1    1    3    3    0  502  0.19913552053E+03 -0.94097237522E+03 -0.11659310005E+04  0.15114493258E+04  0.50400001928E-02 0. -1.
</event>
<event>
 5   0  0.3159875E-07  0.3601682E+04  0.7818609E-02  0.8090106E-01
       -1   -1    0    0    0  501  0.00000000000E+00  0.00000000000E+00  0.15880284359E+04  0.15880284359E+04  0.50400001928E-02 0.  1.
        1   -1    0    0  501    0  0.00000000000E+00  0.00000000000E+00 -0.20421731813E+04  0.20421731813E+04  0.50400001928E-02 0. -1.
    10030    2    1    2    0    0  0.00000000000E+00  0.00000000000E+00 -0.45414474538E+03  0.36302016172E+04  0.36016824307E+04 0.  0.
        5    1    3    3  502    0 -0.10952375487E+04 -0.14259175914E+04 -0.32897050661E+03  0.18278484482E+04  0.46999998093E+01 0.  1.
       -5    1    3    3    0  502  0.10952375487E+04  0.14259175914E+04 -0.12517423878E+03  0.18023531689E+04  0.46999998093E+01 0. -1.
</event>
<event>
 5   0  0.9538919E-07  0.3545112E+04  0.7818609E-02  0.8103181E-01
       -2   -1    0    0    0  501  0.00000000000E+00  0.00000000000E+00  0.16502717710E+04  0.16502717710E+04  0.25500000920E-02 0.  1.
        2   -1    0    0  501    0  0.00000000000E+00  0.00000000000E+00 -0.19039015935E+04  0.19039015935E+04  0.25500000920E-02 0. -1.
    10030    2    1    2    0    0  0.00000000000E+00  0.00000000000E+00 -0.25362982254E+03  0.35541733645E+04  0.35451121588E+04 0.  0.
        4    1    3    3  502    0 -0.16779434928E+04 -0.30500011110E+03 -0.61119991862E+03  0.18116529431E+04  0.12699999809E+01 0.  1.
       -4    1    3    3    0  502  0.16779434928E+04  0.30500011110E+03  0.35757009608E+03  0.17425204215E+04  0.12699999809E+01 0. -1.
</event>
<event>
 5   0  0.3159875E-07  0.3629697E+04  0.7818609E-02  0.8083723E-01
        1   -1    0    0  501    0  0.00000000000E+00  0.00000000000E+00  0.16690208594E+04  0.16690208594E+04  0.50400001928E-02 0. -1.
       -1   -1    0    0    0  501  0.00000000000E+00  0.00000000000E+00 -0.19734173523E+04  0.19734173523E+04  0.50400001928E-02 0.  1.
    10030    2    1    2    0    0  0.00000000000E+00  0.00000000000E+00 -0.30439649289E+03  0.36424382117E+04  0.36296968057E+04 0.  0.
        5    1    3    3  502    0 -0.23752731601E+03  0.13119177832E+04 -0.13878227271E+04  0.19244795420E+04  0.46999998093E+01 0.  1.
       -5    1    3    3    0  502  0.23752731601E+03 -0.13119177832E+04  0.10834262342E+04  0.17179586697E+04  0.46999998093E+01 0. -1.
</event>
<event>
 5   0  0.9538919E-07  0.3426491E+04  0.7818609E-02  0.8131435E-01
        2   -1    0    0  501    0  0.00000000000E+00  0.00000000000E+00  0.19021632282E+04  0.19021632282E+04  0.25500000920E-02 0.  1.
       -2   -1    0    0    0  501  0.00000000000E+00  0.00000000000E+00 -0.15430907906E+04  0.15430907906E+04  0.25500000920E-02 0. -1.
    10030    2    1    2    0    0  0.00000000000E+00  0.00000000000E+00  0.35907243764E+03  0.34452540188E+04  0.34264912431E+04 0.  0.
        4    1    3    3  502    0  0.12370739992E+04 -0.93057004188E+03 -0.55857908220E+03  0.16456989051E+04  0.12699999809E+01 0. -1.
       -4    1    3    3    0  502 -0.12370739992E+04  0.93057004188E+03  0.91765151984E+03  0.17995551137E+04  0.12699999809E+01 0.  1.
</event>
<event>
 5   0  0.3242047E-07  0.3592485E+04  0.7818609E-02  0.8092215E-01
        1   -1    0    0  501    0  0.00000000000E+00  0.00000000000E+00  0.12718790542E+04  0.12718790542E+04  0.50400001928E-02 0. -1.
       -1   -1    0    0    0  501  0.00000000000E+00  0.00000000000E+00 -0.25367877709E+04  0.25367877709E+04  0.50400001928E-02 0.  1.
    10030    2    1    2    0    0  0.00000000000E+00  0.00000000000E+00 -0.12649087167E+04  0.38086668251E+04  0.35924850624E+04 0.  0.
        1    1    3    3  502    0  0.20514297479E+03  0.13080679325E+03  0.12543294665E+04  0.12777075048E+04  0.50400001928E-02 0. -1.
       -1    1    3    3    0  502 -0.20514297479E+03 -0.13080679325E+03 -0.25192381832E+04  0.25309593203E+04  0.50400001928E-02 0.  1.
</event>
<event>
 5   0  0.1006019E-06  0.3684238E+04  0.7818609E-02  0.8071464E-01
       -2   -1    0    0    0  501  0.00000000000E+00  0.00000000000E+00  0.16368144795E+04  0.16368144795E+04  0.25500000920E-02 0.  1.
        2   -1    0    0  501    0  0.00000000000E+00  0.00000000000E+00 -0.20731747173E+04  0.20731747173E+04  0.25500000920E-02 0. -1.
    10030    2    1    2    0    0  0.00000000000E+00  0.00000000000E+00 -0.43636023781E+03  0.37099891968E+04  0.36842379922E+04 0.  0.
        1    1    3    3  502    0  0.11696197108E+04  0.11693967780E+04 -0.10349618245E+04  0.19510625491E+04  0.50400001928E-02 0. -1.
       -1    1    3    3    0  502 -0.11696197108E+04 -0.11693967780E+04  0.59860158670E+03  0.17589266477E+04  0.50400001928E-02 0.  1.
</event>
<event>
 5   0  0.3365378E-07  0.3611899E+04  0.7818609E-02  0.8087771E-01
        1   -1    0    0  501    0  0.00000000000E+00  0.00000000000E+00  0.14539000454E+04  0.14539000454E+04  0.50400001928E-02 0. -1.
       -1   -1    0    0    0  501  0.00000000000E+00  0.00000000000E+00 -0.22432450947E+04  0.22432450947E+04  0.50400001928E-02 0.  1.
    10030    2    1    2    0    0  0.00000000000E+00  0.00000000000E+00 -0.78934504932E+03  0.36971451402E+04  0.36118993038E+04 0.  0.
        3    1    3    3  502    0  0.68656446221E+02  0.31001243501E+03 -0.22144483097E+04  0.22370969456E+04  0.10100000352E+00 0.  1.
       -3    1    3    3    0  502 -0.68656446221E+02 -0.31001243501E+03  0.14251032604E+04  0.14600481946E+04  0.10100000352E+00 0. -1.
</event>
<event>
 5   0  0.1031659E-06  0.3639490E+04  0.7818609E-02  0.8081505E-01
       -2   -1    0    0    0  501  0.00000000000E+00  0.00000000000E+00  0.20164633623E+04  0.20164633623E+04  0.25500000920E-02 0.  1.
        2   -1    0    0  501    0  0.00000000000E+00  0.00000000000E+00 -0.16422176421E+04  0.16422176421E+04  0.25500000920E-02 0. -1.
    10030    2    1    2    0    0  0.00000000000E+00  0.00000000000E+00  0.37424572022E+03  0.36586810043E+04  0.36394899138E+04 0.  0.
        2    1    3    3  502    0  0.17106981259E+04  0.33996178453E+03  0.70890663595E+03  0.18827136563E+04  0.25500000920E-02 0.  1.
       -2    1    3    3    0  502 -0.17106981259E+04 -0.33996178453E+03 -0.33466091573E+03  0.17759673481E+04  0.25500000920E-02 0. -1.
</event>
<event>
 5   0  0.3242047E-07  0.3581608E+04  0.7818609E-02  0.8094718E-01
       -1   -1    0    0    0  501  0.00000000000E+00  0.00000000000E+00  0.24821456892E+04  0.24821456892E+04  0.50400001928E-02 0.  1.
        1   -1    0    0  501    0  0.00000000000E+00  0.00000000000E+00 -0.12920191677E+04  0.12920191677E+04  0.50400001928E-02 0. -1.
    10030    2    1    2    0    0  0.00000000000E+00  0.00000000000E+00  0.11901265216E+04  0.37741648569E+04  0.35816084696E+04 0.  0.
        1    1    3    3  502    0  0.21267864183E+03 -0.45976236011E+03  0.24050721935E+04  0.24578417134E+04  0.50400001928E-02 0.  1.
       -1    1    3    3    0  502 -0.21267864183E+03  0.45976236011E+03 -0.12149456719E+04  0.13163231435E+04  0.50400001928E-02 0. -1.
</event>
<event>
 5   0  0.3159875E-07  0.3532868E+04  0.7818609E-02  0.8106045E-01
       -1   -1    0    0    0  501  0.00000000000E+00  0.00000000000E+00  0.15356325204E+04  0.15356325204E+04  0.50400001928E-02 0.  1.
        1   -1    0    0  501    0  0.00000000000E+00  0.00000000000E+00 -0.20319241339E+04  0.20319241339E+04  0.50400001928E-02 0. -1.
    10030    2    1    2    0    0  0.00000000000E+00  0.00000000000E+00 -0.49629161347E+03  0.35675566543E+04  0.35328678317E+04 0.  0.
        5    1    3    3  502    0 -0.30870930777E+03  0.16623543382E+04 -0.76458036143E+03  0.18556208130E+04  0.46999998093E+01 0. -1.
       -5    1    3    3    0  502  0.30870930777E+03 -0.16623543382E+04  0.26828874796E+03  0.17119358413E+04  0.46999998093E+01 0.  1.
</event>
<event>
 5   0  0.3242047E-07  0.3603206E+04  0.7818609E-02  0.8089758E-01
        1   -1    0    0  501    0  0.00000000000E+00  0.00000000000E+00  0.16392596853E+04  0.16392596853E+04  0.50400001928E-02 0.  1.
       -1   -1    0    0    0  501  0.00000000000E+00  0.00000000000E+00 -0.19800240488E+04  0.19800240488E+04  0.50400001928E-02 0. -1.
    10030    2    1    2    0    0  0.00000000000E+00  0.00000000000E+00 -0.34076436350E+03  0.36192837341E+04  0.36032061274E+04 0.  0.
        1    1    3    3  502    0  0.85548353257E+03 -0.15751342394E+04  0.11737760602E+02  0.17924948317E+04  0.50400001928E-02 0. -1.
       -1    1    3    3    0  502 -0.85548353257E+03  0.15751342394E+04 -0.35250212410E+03  0.18267889024E+04  0.50400001928E-02 0.  1.
</event>
<event>
 5   0  0.9878977E-07  0.3385594E+04  0.7818609E-02  0.8141451E-01
        2   -1    0    0  501    0  0.00000000000E+00  0.00000000000E+00  0.17938056924E+04  0.17938056924E+04  0.25500000920E-02 0.  1.
       -2   -1    0    0    0  501  0.00000000000E+00  0.00000000000E+00 -0.15974762262E+04  0.15974762262E+04  0.25500000920E-02 0. -1.
    10030    2    1    2    0    0  0.00000000000E+00  0.00000000000E+00  0.19632946618E+03  0.33912819186E+04  0.33855941565E+04 0.  0.
        5    1    3    3  502    0  0.42840700616E+03  0.12707759649E+04 -0.93659335820E+03  0.16357363249E+04  0.46999998093E+01 0. -1.
       -5    1    3    3    0  502 -0.42840700616E+03 -0.12707759649E+04  0.11329228244E+04  0.17555455938E+04  0.46999998093E+01 0.  1.
</event>
<event>
 5   0  0.9878336E-07  0.3488604E+04  0.7818609E-02  0.8116496E-01
       -2   -1    0    0    0  501  0.00000000000E+00  0.00000000000E+00  0.16892776372E+04  0.16892776372E+04  0.25500000920E-02 0. -1.
        2   -1    0    0  501    0  0.00000000000E+00  0.00000000000E+00 -0.18011190949E+04  0.18011190949E+04  0.25500000920E-02 0.  1.
    10030    2    1    2    0    0  0.00000000000E+00  0.00000000000E+00 -0.11184145767E+03  0.34903967321E+04  0.34886044252E+04 0.  0.
        3    1    3    3  502    0  0.69426786769E+03  0.15222315447E+03  0.15378227730E+04  0.16941306479E+04  0.10100000352E+00 0. -1.
       -3    1    3    3    0  502 -0.69426786769E+03 -0.15222315447E+03 -0.16496642307E+04  0.17962660841E+04  0.10100000352E+00 0.  1.
</event>
<event>
 5   0  0.1006019E-06  0.2814046E+04  0.7818609E-02  0.8298921E-01
        2   -1    0    0  501    0  0.00000000000E+00  0.00000000000E+00  0.21695615335E+04  0.21695615335E+04  0.25500000920E-02 0.  1.
       -2   -1    0    0    0  501  0.00000000000E+00  0.00000000000E+00 -0.91249490928E+03  0.91249490928E+03  0.25500000920E-02 0. -1.
    10030    2    1    2    0    0  0.00000000000E+00  0.00000000000E+00  0.12570666242E+04  0.30820564427E+04  0.28140460939E+04 0.  0.
        1    1    3    3  502    0  0.65132750695E+03 -0.74846073878E+03  0.17211927575E+04  0.19866870683E+04  0.50400001928E-02 0.  1.
       -1    1    3    3    0  502 -0.65132750695E+03  0.74846073878E+03 -0.46412613334E+03  0.10953693744E+04  0.50400001928E-02 0. -1.
</event>
<event>
 5   0  0.3159875E-07  0.3597128E+04  0.7818609E-02  0.8091150E-01
       -1   -1    0    0    0  501  0.00000000000E+00  0.00000000000E+00  0.13872955347E+04  0.13872955347E+04  0.50400001928E-02 0.  1.
        1   -1    0    0  501    0  0.00000000000E+00  0.00000000000E+00 -0.23317547063E+04  0.23317547063E+04  0.50400001928E-02 0. -1.
    10030    2    1    2    0    0  0.00000000000E+00  0.00000000000E+00 -0.94445917154E+03  0.37190502410E+04  0.35971282391E+04 0.  0.
        2    1    3    3  502    0  0.12596226448E+04 -0.10807860226E+04 -0.11885961538E+04  0.20414476361E+04  0.25500000920E-02 0.  1.
       -2    1    3    3    0  502 -0.12596226448E+04  0.10807860226E+04  0.24413698222E+03  0.16776026049E+04  0.25500000920E-02 0. -1.
</event>
<event>
 5   0  0.3242047E-07  0.3569844E+04  0.7818609E-02  0.8097434E-01
       -1   -1    0    0    0  501  0.00000000000E+00  0.00000000000E+00  0.13803034876E+04  0.13803034876E+04  0.50400001928E-02 0. -1.
        1   -1    0    0  501    0  0.00000000000E+00  0.00000000000E+00 -0.23081497236E+04  0.23081497236E+04  0.50400001928E-02 0.  1.
    10030    2    1    2    0    0  0.00000000000E+00  0.00000000000E+00 -0.92784623600E+03  0.36884532112E+04  0.35698443179E+04 0.  0.
        1    1    3    3  502    0 -0.42384813405E+03 -0.11683569063E+04  0.85975172392E+03  0.15112505180E+04  0.50400001928E-02 0. -1.
       -1    1    3    3    0  502  0.42384813405E+03  0.11683569063E+04 -0.17875979599E+04  0.21772026933E+04  0.50400001928E-02 0.  1.
</event>
<event>
 5   0  0.9878977E-07  0.3481115E+04  0.7818609E-02  0.8118280E-01
        2   -1    0    0  501    0  0.00000000000E+00  0.00000000000E+00  0.25595327046E+04  0.25595327046E+04  0.25500000920E-02 0. -1.
       -2   -1    0    0    0  501  0.00000000000E+00  0.00000000000E+00 -0.11836304266E+04  0.11836304266E+04  0.25500000920E-02 0.  1.
    10030    2    1    2    0    0  0.00000000000E+00  0.00000000000E+00  0.13759022780E+04  0.37431631312E+04  0.34811152162E+04 0.  0.
        5    1    3    3  502    0 -0.10860185037E+03  0.55990473030E+03  0.24561953819E+04  0.25215482373E+04  0.46999998093E+01 0. -1.
       -5    1    3    3    0  502  0.10860185037E+03 -0.55990473030E+03 -0.10802931039E+04  0.12216148940E+04  0.46999998093E+01 0.  1.
</event>
<event>
 5   0  0.3159875E-07  0.3597340E+04  0.7818609E-02  0.8091101E-01
        1   -1    0    0  501    0  0.00000000000E+00  0.00000000000E+00  0.26946762676E+04  0.26946762676E+04  0.50400001928E-02 0.  1.
       -1   -1    0    0    0  501  0.00000000000E+00  0.00000000000E+00 -0.12005946547E+04  0.12005946547E+04  0.50400001928E-02 0. -1.
    10030    2    1    2    0    0  0.00000000000E+00  0.00000000000E+00  0.14940816129E+04  0.38952709223E+04  0.35973400857E+04 0.  0.
        5    1    3    3  502    0  0.92272657460E+03 -0.34439974077E+03  0.23767317833E+04  0.25727245427E+04  0.46999998093E+01 0.  1.
       -5    1    3    3    0  502 -0.92272657460E+03  0.34439974077E+03 -0.88265017041E+03  0.13225463796E+04  0.46999998093E+01 0. -1.
</event>
<event>
 5   0  0.3278988E-07  0.3639233E+04  0.7818609E-02  0.8081564E-01
        1   -1    0    0  501    0  0.00000000000E+00  0.00000000000E+00  0.16646380345E+04  0.16646380345E+04  0.50400001928E-02 0.  1.
       -1   -1    0    0    0  501  0.00000000000E+00  0.00000000000E+00 -0.19890236246E+04  0.19890236246E+04  0.50400001928E-02 0. -1.
    10030    2    1    2    0    0  0.00000000000E+00  0.00000000000E+00 -0.32438559013E+03  0.36536616592E+04  0.36392330935E+04 0.  0.
        4    1    3    3  502    0 -0.10205142617E+04 -0.25223763196E+03  0.13289329794E+04  0.16944431705E+04  0.12699999809E+01 0.  1.
       -4    1    3    3    0  502  0.10205142617E+04  0.25223763196E+03 -0.16533185695E+04  0.19592184887E+04  0.12699999809E+01 0. -1.
</event>
<event>
 5   0  0.9878977E-07  0.3674898E+04  0.7818609E-02  0.8073548E-01
        2   -1    0    0  501    0  0.00000000000E+00  0.00000000000E+00  0.32957016751E+04  0.32957016751E+04  0.25500000920E-02 0.  1.
       -2   -1    0    0    0  501  0.00000000000E+00  0.00000000000E+00 -0.10244309624E+04  0.10244309624E+04  0.25500000920E-02 0. -1.
    10030    2    1    2    0    0  0.00000000000E+00  0.00000000000E+00  0.22712707126E+04  0.43201326375E+04  0.36748980062E+04 0.  0.
        5    1    3    3  502    0  0.15699964140E+04 -0.44937537070E+03  0.21257560418E+04  0.26806133259E+04  0.46999998093E+01 0.  1.
       -5    1    3    3    0  502 -0.15699964140E+04  0.44937537070E+03  0.14551467081E+03  0.16395193116E+04  0.46999998093E+01 0. -1.
</event>
<event>
 5   0  0.3159875E-07  0.3487155E+04  0.7818609E-02  0.8116841E-01
       -3   -1    0    0    0  501  0.00000000000E+00  0.00000000000E+00  0.24234508293E+04  0.24234508314E+04  0.10100000352E+00 0. -1.
        3   -1    0    0  501    0  0.00000000000E+00  0.00000000000E+00 -0.12544351266E+04  0.12544351307E+04  0.10100000352E+00 0.  1.
    10030    2    1    2    0    0  0.00000000000E+00  0.00000000000E+00  0.11690157027E+04  0.36778859621E+04  0.34871546333E+04 0.  0.
        1    1    3    3  502    0  0.16937551987E+04 -0.35353999568E+03  0.81136461309E+03  0.19110493811E+04  0.50400001928E-02 0. -1.
       -1    1    3    3    0  502 -0.16937551987E+04  0.35353999568E+03  0.35765108958E+03  0.17668365809E+04  0.50400001928E-02 0.  1.
</event>
<event>
 5   0  0.9878977E-07  0.3170165E+04  0.7818609E-02  0.8196741E-01
        2   -1    0    0  501    0  0.00000000000E+00  0.00000000000E+00  0.22144076290E+04  0.22144076290E+04  0.25500000920E-02 0.  1.
       -2   -1    0    0    0  501  0.00000000000E+00  0.00000000000E+00 -0.11346092064E+04  0.11346092064E+04  0.25500000920E-02 0. -1.
    10030    2    1    2    0    0  0.00000000000E+00  0.00000000000E+00  0.10797984226E+04  0.33490168354E+04  0.31701654736E+04 0.  0.
        5    1    3    3  502    0 -0.11817119641E+04 -0.93973339004E+03  0.30049994597E+02  0.15101215522E+04  0.46999998093E+01 0. -1.
       -5    1    3    3    0  502  0.11817119641E+04  0.93973339004E+03  0.10497484280E+04  0.18388952832E+04  0.46999998093E+01 0.  1.
</event>
<event>
 5   0  0.9538919E-07  0.3629163E+04  0.7818609E-02  0.8083844E-01
       -2   -1    0    0    0  501  0.00000000000E+00  0.00000000000E+00  0.14562099202E+04  0.14562099202E+04  0.25500000920E-02 0.  1.
        2   -1    0    0  501    0  0.00000000000E+00  0.00000000000E+00 -0.22611478217E+04  0.22611478217E+04  0.25500000920E-02 0. -1.
    10030    2    1    2    0    0  0.00000000000E+00  0.00000000000E+00 -0.80493790158E+03  0.37173577419E+04  0.36291629277E+04 0.  0.
        4    1    3    3  502    0  0.16983784603E+03 -0.15609525002E+04  0.52918773776E+03  0.16569426293E+04  0.12699999809E+01 0.  1.
       -4    1    3    3    0  502 -0.16983784603E+03  0.15609525002E+04 -0.13341256393E+04  0.20604151126E+04  0.12699999809E+01 0. -1.
</event>
<event>
 5   0  0.1006019E-06  0.3570052E+04  0.7818609E-02  0.8097386E-01
       -2   -1    0    0    0  501  0.00000000000E+00  0.00000000000E+00  0.12488851460E+04  0.12488851460E+04  0.25500000920E-02 0.  1.
        2   -1    0    0  501    0  0.00000000000E+00  0.00000000000E+00 -0.25513299237E+04  0.25513299237E+04  0.25500000920E-02 0. -1.
    10030    2    1    2    0    0  0.00000000000E+00  0.00000000000E+00 -0.13024447777E+04  0.38002150698E+04  0.35700521253E+04 0.  0.
        1    1    3    3  502    0 -0.11458306319E+04 -0.71589002331E+03 -0.18930044978E+04  0.23257025586E+04  0.50400001928E-02 0. -1.
       -1    1    3    3    0  502  0.11458306319E+04  0.71589002331E+03  0.59055972012E+03  0.14745125111E+04  0.50400001928E-02 0.  1.
</event>
<event>
 5   0  0.1006019E-06  0.3599039E+04  0.7818609E-02  0.8090712E-01
       -2   -1    0    0    0  501  0.00000000000E+00  0.00000000000E+00  0.17416101784E+04  0.17416101784E+04  0.25500000920E-02 0.  1.
        2   -1    0    0  501    0  0.00000000000E+00  0.00000000000E+00 -0.18593540107E+04  0.18593540107E+04  0.25500000920E-02 0. -1.
    10030    2    1    2    0    0  0.00000000000E+00  0.00000000000E+00 -0.11774383225E+03  0.36009641891E+04  0.35990386885E+04 0.  0.
        1    1    3    3  502    0 -0.69060740712E+03  0.73059808075E+03 -0.15521709039E+04  0.18493097797E+04  0.50400001928E-02 0. -1.
       -1    1    3    3    0  502  0.69060740712E+03 -0.73059808075E+03  0.14344270716E+04  0.17516544095E+04  0.50400001928E-02 0.  1.
</event>
<event>
 5   0  0.3159875E-07  0.3607978E+04  0.7818609E-02  0.8088667E-01
       -1   -1    0    0    0  501  0.00000000000E+00  0.00000000000E+00  0.27211095772E+04  0.27211095772E+04  0.50400001928E-02 0. -1.
        1   -1    0    0  501    0  0.00000000000E+00  0.00000000000E+00 -0.11959741488E+04  0.11959741488E+04  0.50400001928E-02 0.  1.
    10030    2    1    2    0    0  0.00000000000E+00  0.00000000000E+00  0.15251354284E+04  0.39170837261E+04  0.36079782208E+04 0.  0.
        2    1    3    3  502    0  0.90866509401E+03  0.10930682140E+04  0.19685475448E+04  0.24280959227E+04  0.25500000920E-02 0. -1.
       -2    1    3    3    0  502 -0.90866509401E+03 -0.10930682140E+04 -0.44341211639E+03  0.14889878034E+04  0.25500000920E-02 0.  1.
</event>
<event>
 5   0  0.1006019E-06  0.3611925E+04  0.7818609E-02  0.8087766E-01
        2   -1    0    0  501    0  0.00000000000E+00  0.00000000000E+00  0.16019268869E+04  0.16019268869E+04  0.25500000920E-02 0.  1.
       -2   -1    0    0    0  501  0.00000000000E+00  0.00000000000E+00 -0.20359855762E+04  0.20359855762E+04  0.25500000920E-02 0. -1.
    10030    2    1    2    0    0  0.00000000000E+00  0.00000000000E+00 -0.43405868930E+03  0.36379124632E+04  0.36119247146E+04 0.  0.
        1    1    3    3  502    0  0.14696189492E+03  0.13085538509E+04  0.10278200844E+04  0.16704266237E+04  0.50400001928E-02 0.  1.
       -1    1    3    3    0  502 -0.14696189492E+03 -0.13085538509E+04 -0.14618787738E+04  0.19674858395E+04  0.50400001928E-02 0. -1.
</event>
<event>
 5   0  0.3159875E-07  0.3662300E+04  0.7818609E-02  0.8076368E-01
       -1   -1    0    0    0  501  0.00000000000E+00  0.00000000000E+00  0.19676601401E+04  0.19676601401E+04  0.50400001928E-02 0.  1.
        1   -1    0    0  501    0  0.00000000000E+00  0.00000000000E+00 -0.17041105700E+04  0.17041105700E+04  0.50400001928E-02 0. -1.
    10030    2    1    2    0    0  0.00000000000E+00  0.00000000000E+00  0.26354957016E+03  0.36717707101E+04  0.36623000657E+04 0.  0.
        5    1    3    3  502    0  0.15703394435E+04  0.71152432680E+03  0.75050561182E+03  0.18802961465E+04  0.46999998093E+01 0.  1.
       -5    1    3    3    0  502 -0.15703394435E+04 -0.71152432680E+03 -0.48695604166E+03  0.17914745635E+04  0.46999998093E+01 0. -1.
</event>
<event>
 5   0  0.3365378E-07  0.3336641E+04  0.7818609E-02  0.8153634E-01
        1   -1    0    0  501    0  0.00000000000E+00  0.00000000000E+00  0.19589668380E+04  0.19589668380E+04  0.50400001928E-02 0.  1.
       -1   -1    0    0    0  501  0.00000000000E+00  0.00000000000E+00 -0.14207964145E+04  0.14207964145E+04  0.50400001928E-02 0. -1.
    10030    2    1    2    0    0  0.00000000000E+00  0.00000000000E+00  0.53817042352E+03  0.33797632525E+04  0.33366408614E+04 0.  0.
        3    1    3    3  502    0  0.16089306707E+04  0.42910985607E+03  0.16529200453E+03  0.16733543046E+04  0.10100000352E+00 0.  1.
       -3    1    3    3    0  502 -0.16089306707E+04 -0.42910985607E+03  0.37287841899E+03  0.17064089479E+04  0.10100000352E+00 0. -1.
</event>
<event>
 5   0  0.9538919E-07  0.3471762E+04  0.7818609E-02  0.8120515E-01
       -2   -1    0    0    0  501  0.00000000000E+00  0.00000000000E+00  0.14891801102E+04  0.14891801102E+04  0.25500000920E-02 0.  1.
        2   -1    0    0  501    0  0.00000000000E+00  0.00000000000E+00 -0.20234512381E+04  0.20234512381E+04  0.25500000920E-02 0. -1.
    10030    2    1    2    0    0  0.00000000000E+00  0.00000000000E+00 -0.53427112792E+03  0.35126313483E+04  0.34717622832E+04 0.  0.
        4    1    3    3  502    0 -0.94493338125E+03 -0.79821573636E+03 -0.14993533338E+04  0.19437359618E+04  0.12699999809E+01 0. -1.
       -4    1    3    3    0  502  0.94493338125E+03  0.79821573636E+03  0.96508220588E+03  0.15688953865E+04  0.12699999809E+01 0.  1.
</event>
<event>
 5   0  0.3242047E-07  0.3511036E+04  0.7818609E-02  0.8111179E-01
        1   -1    0    0  501    0  0.00000000000E+00  0.00000000000E+00  0.13655850013E+04  0.13655850013E+04  0.50400001928E-02 0.  1.
       -1   -1    0    0    0  501  0.00000000000E+00  0.00000000000E+00 -0.22567941022E+04  0.22567941022E+04  0.50400001928E-02 0. -1.
    10030    2    1    2    0    0  0.00000000000E+00  0.00000000000E+00 -0.89120910095E+03  0.36223791035E+04  0.35110364151E+04 0.  0.
        1    1    3    3  502    0 -0.13308342229E+04  0.95724858450E+03 -0.10935326225E+04  0.19705984314E+04  0.50400001928E-02 0.  1.
       -1    1    3    3    0  502  0.13308342229E+04 -0.95724858450E+03  0.20232352152E+03  0.16517806721E+04  0.50400001928E-02 0. -1.
</event>
<event>
 5   0  0.9878336E-07  0.3597570E+04  0.7818609E-02  0.8091049E-01
        2   -1    0    0  501    0  0.00000000000E+00  0.00000000000E+00  0.11710503115E+04  0.11710503115E+04  0.25500000920E-02 0.  1.
       -2   -1    0    0    0  501  0.00000000000E+00  0.00000000000E+00 -0.27630131242E+04  0.27630131242E+04  0.25500000920E-02 0. -1.
    10030    2    1    2    0    0  0.00000000000E+00  0.00000000000E+00 -0.15919628127E+04  0.39340634358E+04  0.35975699465E+04 0.  0.
        3    1    3    3  502    0  0.11172366865E+04 -0.60487291346E+03  0.59652024676E+03  0.14035403344E+04  0.10100000352E+00 0.  1.
       -3    1    3    3    0  502 -0.11172366865E+04  0.60487291346E+03 -0.21884830595E+04  0.25305231014E+04  0.10100000352E+00 0. -1.
</event>
<event>
 5   0  0.9878336E-07  0.3806866E+04  0.7818609E-02  0.8044683E-01
        2   -1    0    0  501    0  0.00000000000E+00  0.00000000000E+00  0.19647098695E+04  0.19647098695E+04  0.25500000920E-02 0.  1.
       -2   -1    0    0    0  501  0.00000000000E+00  0.00000000000E+00 -0.18440673948E+04  0.18440673948E+04  0.25500000920E-02 0. -1.
    10030    2    1    2    0    0  0.00000000000E+00  0.00000000000E+00  0.12064247473E+03  0.38087772644E+04  0.38068661183E+04 0.  0.
        3    1    3    3  502    0 -0.39799534673E+03  0.24247161723E+03 -0.17861037255E+04  0.18459033857E+04  0.10100000352E+00 0. -1.
       -3    1    3    3    0  502  0.39799534673E+03 -0.24247161723E+03  0.19067462002E+04  0.19628738786E+04  0.10100000352E+00 0.  1.
</event>
<event>
 5   0  0.9878336E-07  0.3635605E+04  0.7818609E-02  0.8082384E-01
       -2   -1    0    0    0  501  0.00000000000E+00  0.00000000000E+00  0.15991234038E+04  0.15991234038E+04  0.25500000920E-02 0. -1.
        2   -1    0    0  501    0  0.00000000000E+00  0.00000000000E+00 -0.20663861244E+04  0.20663861244E+04  0.25500000920E-02 0.  1.
    10030    2    1    2    0    0  0.00000000000E+00  0.00000000000E+00 -0.46726272059E+03  0.36655095283E+04  0.36356052662E+04 0.  0.
        3    1    3    3  502    0 -0.23013222132E+03  0.27438046472E+03 -0.20304691722E+04  0.20618075924E+04  0.10100000352E+00 0.  1.
       -3    1    3    3    0  502  0.23013222132E+03 -0.27438046472E+03  0.15632064516E+04  0.16037019359E+04  0.10100000352E+00 0. -1.
</event>
<event>
 5   0  0.3159875E-07  0.3597870E+04  0.7818609E-02  0.8090980E-01
        1   -1    0    0  501    0  0.00000000000E+00  0.00000000000E+00  0.23590659009E+04  0.23590659009E+04  0.50400001928E-02 0. -1.
       -1   -1    0    0    0  501  0.00000000000E+00  0.00000000000E+00 -0.13718005952E+04  0.13718005952E+04  0.50400001928E-02 0.  1.
    10030    2    1    2    0    0  0.00000000000E+00  0.00000000000E+00  0.98726530573E+03  0.37308664961E+04  0.35978704851E+04 0.  0.
        2    1    3    3  502    0  0.16067941966E+04  0.73463825557E+03  0.84480586042E+03  0.19583610235E+04  0.25500000920E-02 0. -1.
       -2    1    3    3    0  502 -0.16067941966E+04 -0.73463825557E+03  0.14245944532E+03  0.17725054726E+04  0.25500000920E-02 0.  1.
</event>
<event>
 5   0  0.9878977E-07  0.3656066E+04  0.7818609E-02  0.8077768E-01
        2   -1    0    0  501    0  0.00000000000E+00  0.00000000000E+00  0.24581664654E+04  0.24581664654E+04  0.25500000920E-02 0.  1.
       -2   -1    0    0    0  501  0.00000000000E+00  0.00000000000E+00 -0.13594300742E+04  0.13594300742E+04  0.25500000920E-02 0. -1.
    10030    2    1    2    0    0  0.00000000000E+00  0.00000000000E+00  0.10987363911E+04  0.38175965396E+04  0.36560664220E+04 0.  0.
        5    1    3    3  502    0  0.14686460353E+04 -0.79607312278E+03  0.13244784265E+04  0.21318815131E+04  0.46999998093E+01 0.  1.
       -5    1    3    3    0  502 -0.14686460353E+04  0.79607312278E+03 -0.22574203535E+03  0.16857150265E+04  0.46999998093E+01 0. -1.
</event>
<event>
 5   0  0.9878977E-07  0.3610476E+04  0.7818609E-02  0.8088096E-01
       -2   -1    0    0    0  501  0.00000000000E+00  0.00000000000E+00  0.24082189494E+04  0.24082189494E+04  0.25500000920E-02 0.  1.
        2   -1    0    0  501    0  0.00000000000E+00  0.00000000000E+00 -0.13532345500E+04  0.13532345500E+04  0.25500000920E-02 0. -1.
    10030    2    1    2    0    0  0.00000000000E+00  0.00000000000E+00  0.10549843994E+04  0.37614534994E+04  0.36104764707E+04 0.  0.
        5    1    3    3  502    0 -0.18693054312E+03 -0.56052916640E+03  0.23046144393E+04  0.23791607298E+04  0.46999998093E+01 0.  1.
       -5    1    3    3    0  502  0.18693054312E+03  0.56052916640E+03 -0.12496300399E+04  0.13822927696E+04  0.46999998093E+01 0. -1.
</event>
<event>
 5   0  0.9538919E-07  0.3697807E+04  0.7818609E-02  0.8068448E-01
       -2   -1    0    0    0  501  0.00000000000E+00  0.00000000000E+00  0.32670699312E+04  0.32670699312E+04  0.25500000920E-02 0.  1.
        2   -1    0    0  501    0  0.00000000000E+00  0.00000000000E+00 -0.10463333139E+04  0.10463333139E+04  0.25500000920E-02 0. -1.
    10030    2    1    2    0    0  0.00000000000E+00  0.00000000000E+00  0.22207366173E+04  0.43134032451E+04  0.36978069759E+04 0.  0.
        4    1    3    3  502    0  0.49556340497E+03 -0.94688577858E+03  0.28702659069E+04  0.30627771311E+04  0.12699999809E+01 0.  1.
       -4    1    3    3    0  502 -0.49556340497E+03  0.94688577858E+03 -0.64952928952E+03  0.12506261139E+04  0.12699999809E+01 0. -1.
</event>
<event>
 5   0  0.9538919E-07  0.3569936E+04  0.7818609E-02  0.8097413E-01
        2   -1    0    0  501    0  0.00000000000E+00  0.00000000000E+00  0.26176677950E+04  0.26176677950E+04  0.25500000920E-02 0. -1.
       -2   -1    0    0    0  501  0.00000000000E+00  0.00000000000E+00 -0.12171564267E+04  0.12171564267E+04  0.25500000920E-02 0.  1.
    10030    2    1    2    0    0  0.00000000000E+00  0.00000000000E+00  0.14005113683E+04  0.38348242217E+04  0.35699362345E+04 0.  0.
        4    1    3    3  502    0 -0.74509567713E+03 -0.83552147204E+03 -0.79316999471E+03  0.13719999824E+04  0.12699999809E+01 0.  1.
       -4    1    3    3    0  502  0.74509567713E+03  0.83552147204E+03  0.21936813630E+04  0.24628242393E+04  0.12699999809E+01 0. -1.
</event>
<event>
 5   0  0.3278988E-07  0.3604633E+04  0.7818609E-02  0.8089431E-01
        1   -1    0    0  501    0  0.00000000000E+00  0.00000000000E+00  0.11301269519E+04  0.11301269519E+04  0.50400001928E-02 0. -1.
       -1   -1    0    0    0  501  0.00000000000E+00  0.00000000000E+00 -0.28743184302E+04  0.28743184302E+04  0.50400001928E-02 0.  1.
    10030    2    1    2    0    0  0.00000000000E+00  0.00000000000E+00 -0.17441914783E+04  0.40044453821E+04  0.36046329778E+04 0.  0.
        4    1    3    3  502    0  0.11449574888E+04 -0.13200913373E+04 -0.13623791233E+04  0.22157723887E+04  0.12699999809E+01 0.  1.
       -4    1    3    3    0  502 -0.11449574888E+04  0.13200913373E+04 -0.38181235504E+03  0.17886729934E+04  0.12699999809E+01 0. -1.
</event>
<event>
 5   0  0.9878336E-07  0.3568323E+04  0.7818609E-02  0.8097787E-01
       -2   -1    0    0    0  501  0.00000000000E+00  0.00000000000E+00  0.15204797671E+04  0.15204797671E+04  0.25500000920E-02 0. -1.
        2   -1    0    0  501    0  0.00000000000E+00  0.00000000000E+00 -0.20935704241E+04  0.20935704241E+04  0.25500000920E-02 0.  1.
    10030    2    1    2    0    0  0.00000000000E+00  0.00000000000E+00 -0.57309065703E+03  0.36140501912E+04  0.35683225588E+04 0.  0.
        3    1    3    3  502    0  0.14251346729E+04  0.66903542495E+03  0.56362467440E+03  0.16722111169E+04  0.10100000352E+00 0. -1.
       -3    1    3    3    0  502 -0.14251346729E+04 -0.66903542495E+03 -0.11367153314E+04  0.19418390743E+04  0.10100000352E+00 0.  1.
</event>
<event>
 5   0  0.3278988E-07  0.3631810E+04  0.7818609E-02  0.8083244E-01
        1   -1    0    0  501    0  0.00000000000E+00  0.00000000000E+00  0.13373613353E+04  0.13373613353E+04  0.50400001928E-02 0.  1.
       -1   -1    0    0    0  501  0.00000000000E+00  0.00000000000E+00 -0.24656839509E+04  0.24656839509E+04  0.50400001928E-02 0. -1.
    10030    2    1    2    0    0  0.00000000000E+00  0.00000000000E+00 -0.11283226156E+04  0.38030452862E+04  0.36318096762E+04 0.  0.
        4    1    3    3  502    0 -0.10401575236E+04  0.20496870682E+03  0.97965322064E+03  0.14434894840E+04  0.12699999809E+01 0.  1.
       -4    1    3    3    0  502  0.10401575236E+04 -0.20496870682E+03 -0.21079758363E+04  0.23595558023E+04  0.12699999809E+01 0. -1.
</event>
<event>
 5   0  0.1006019E-06  0.3535346E+04  0.7818609E-02  0.8105464E-01
        2   -1    0    0  501    0  0.00000000000E+00  0.00000000000E+00  0.22083880259E+04  0.22083880259E+04  0.25500000920E-02 0.  1.
       -2   -1    0    0    0  501  0.00000000000E+00  0.00000000000E+00 -0.14149090588E+04  0.14149090588E+04  0.25500000920E-02 0. -1.
    10030    2    1    2    0    0  0.00000000000E+00  0.00000000000E+00  0.79347896711E+03  0.36232970847E+04  0.35353462197E+04 0.  0.
        1    1    3    3  502    0 -0.28742815376E+03  0.56846071305E+03  0.20866708461E+04  0.21817327394E+04  0.50400001928E-02 0.  1.
       -1    1    3    3    0  502  0.28742815376E+03 -0.56846071305E+03 -0.12931918790E+04  0.14415643454E+04  0.50400001928E-02 0. -1.
</event>
<event>
 5   0  0.1031659E-06  0.3555737E+04  0.7818609E-02  0.8100707E-01
       -2   -1    0    0    0  501  0.00000000000E+00  0.00000000000E+00  0.22639546340E+04  0.22639546340E+04  0.25500000920E-02 0.  1.
        2   -1    0    0  501    0  0.00000000000E+00  0.00000000000E+00 -0.13961479710E+04  0.13961479710E+04  0.25500000920E-02 0. -1.
    10030    2    1    2    0    0  0.00000000000E+00  0.00000000000E+00  0.86780666300E+03  0.36601026050E+04  0.35557365868E+04 0.  0.
        2    1    3    3  502    0  0.11735919070E+04  0.13295708521E+04  0.30476564908E+03  0.17994328873E+04  0.25500000920E-02 0. -1.
       -2    1    3    3    0  502 -0.11735919070E+04 -0.13295708521E+04  0.56304101392E+03  0.18606697177E+04  0.25500000920E-02 0.  1.
</event>
<event>
 5   0  0.3242047E-07  0.3598126E+04  0.7818609E-02  0.8090921E-01
       -1   -1    0    0    0  501  0.00000000000E+00  0.00000000000E+00  0.15154042770E+04  0.15154042771E+04  0.50400001928E-02 0.  1.
        1   -1    0    0  501    0  0.00000000000E+00  0.00000000000E+00 -0.21358178485E+04  0.21358178485E+04  0.50400001928E-02 0. -1.
    10030    2    1    2    0    0  0.00000000000E+00  0.00000000000E+00 -0.62041357148E+03  0.36512221256E+04  0.35981259026E+04 0.  0.
        1    1    3    3  502    0  0.84688993092E+03  0.15147072320E+04  0.17120615523E+03  0.17438096517E+04  0.50400001928E-02 0.  1.
       -1    1    3    3    0  502 -0.84688993092E+03 -0.15147072320E+04 -0.79161972670E+03  0.19074124739E+04  0.50400001928E-02 0. -1.
</event>
<event>
 5   0  0.3159875E-07  0.2767631E+04  0.7818609E-02  0.8313389E-01
       -1   -1    0    0    0  501  0.00000000000E+00  0.00000000000E+00  0.10088086102E+04  0.10088086102E+04  0.50400001928E-02 0. -1.
        1   -1    0    0  501    0  0.00000000000E+00  0.00000000000E+00 -0.18982244399E+04  0.18982244399E+04  0.50400001928E-02 0.  1.
    10030    2    1    2    0    0  0.00000000000E+00  0.00000000000E+00 -0.88941582966E+03  0.29070330501E+04  0.27676308707E+04 0.  0.
        2    1    3    3  502    0  0.10680887212E+04  0.21692187150E+03  0.45092876302E+03  0.11794936897E+04  0.25500000920E-02 0. -1.
       -2    1    3    3    0  502 -0.10680887212E+04 -0.21692187150E+03 -0.13403445927E+04  0.17275393604E+04  0.25500000920E-02 0.  1.
</event>
<event>
 5   0  0.9538919E-07  0.3910024E+04  0.7818609E-02  0.8022948E-01
        2   -1    0    0  501    0  0.00000000000E+00  0.00000000000E+00  0.12070726099E+04  0.12070726099E+04  0.25500000920E-02 0. -1.
       -2   -1    0    0    0  501  0.00000000000E+00  0.00000000000E+00 -0.31663975748E+04  0.31663975748E+04  0.25500000920E-02 0.  1.
    10030    2    1    2    0    0  0.00000000000E+00  0.00000000000E+00 -0.19593249649E+04  0.43734701846E+04  0.39100239306E+04 0.  0.
        4    1    3    3  502    0 -0.17275450681E+04  0.73675136097E+03 -0.37229508574E+03  0.19146330651E+04  0.12699999809E+01 0. -1.
       -4    1    3    3    0  502  0.17275450681E+04 -0.73675136097E+03 -0.15870298792E+04  0.24588371195E+04  0.12699999809E+01 0.  1.
</event>
<event>
 5   0  0.9538919E-07  0.3636179E+04  0.7818609E-02  0.8082254E-01
       -2   -1    0    0    0  501  0.00000000000E+00  0.00000000000E+00  0.10429037828E+04  0.10429037828E+04  0.25500000920E-02 0. -1.
        2   -1    0    0  501    0  0.00000000000E+00  0.00000000000E+00 -0.31694677484E+04  0.31694677484E+04  0.25500000920E-02 0.  1.
    10030    2    1    2    0    0  0.00000000000E+00  0.00000000000E+00 -0.21265639656E+04  0.42123715311E+04  0.36361792608E+04 0.  0.
        4    1    3    3  502    0  0.79112999435E+03 -0.16348820701E+04 -0.96830062070E+03  0.20582355929E+04  0.12699999809E+01 0.  1.
       -4    1    3    3    0  502 -0.79112999435E+03  0.16348820701E+04 -0.11582633449E+04  0.21541359382E+04  0.12699999809E+01 0. -1.
</event>
<event>
 5   0  0.3278988E-07  0.3557968E+04  0.7818609E-02  0.8100188E-01
        1   -1    0    0  501    0  0.00000000000E+00  0.00000000000E+00  0.13806464952E+04  0.13806464952E+04  0.50400001928E-02 0. -1.
       -1   -1    0    0    0  501  0.00000000000E+00  0.00000000000E+00 -0.22922480791E+04  0.22922480791E+04  0.50400001928E-02 0.  1.
    10030    2    1    2    0    0  0.00000000000E+00  0.00000000000E+00 -0.91160158388E+03  0.36728945743E+04  0.35579681148E+04 0.  0.
        4    1    3    3  502    0  0.26379127882E+03  0.17465001409E+04 -0.23697709509E+03  0.17821358920E+04  0.12699999809E+01 0. -1.
       -4    1    3    3    0  502 -0.26379127882E+03 -0.17465001409E+04 -0.67462448879E+03  0.18907586823E+04  0.12699999809E+01 0.  1.
</event>
<event>
 5   0  0.3159875E-07  0.3616259E+04  0.7818609E-02  0.8086777E-01
        1   -1    0    0  501    0  0.00000000000E+00  0.00000000000E+00  0.13632790113E+04  0.13632790113E+04  0.50400001928E-02 0.  1.
       -1   -1    0    0    0  501  0.00000000000E+00  0.00000000000E+00 -0.23981393627E+04  0.23981393627E+04  0.50400001928E-02 0. -1.
    10030    2    1    2    0    0  0.00000000000E+00  0.00000000000E+00 -0.10348603514E+04  0.37614183740E+04  0.36162594262E+04 0.  0.
        2    1    3    3  502    0  0.17637539506E+04 -0.20582179929E+03 -0.87190675916E+03  0.19782345685E+04  0.25500000920E-02 0. -1.
       -2    1    3    3    0  502 -0.17637539506E+04  0.20582179929E+03 -0.16295359227E+03  0.17831838056E+04  0.25500000920E-02 0.  1.
</event>
<event>
 5   0  0.9878977E-07  0.3493485E+04  0.7818609E-02  0.8115336E-01
        2   -1    0    0  501    0  0.00000000000E+00  0.00000000000E+00  0.16528393766E+04  0.16528393766E+04  0.25500000920E-02 0.  1.
       -2   -1    0    0    0  501  0.00000000000E+00  0.00000000000E+00 -0.18459802952E+04  0.18459802952E+04  0.25500000920E-02 0. -1.
    10030    2    1    2    0    0  0.00000000000E+00  0.00000000000E+00 -0.19314091856E+03  0.34988196718E+04  0.34934847475E+04 0.  0.
        5    1    3    3  502    0  0.82037737357E+03  0.89213150487E+03  0.11631934652E+04  0.16798686808E+04  0.46999998093E+01 0.  1.
       -5    1    3    3    0  502 -0.82037737357E+03 -0.89213150487E+03 -0.13563343838E+04  0.18189509910E+04  0.46999998093E+01 0. -1.
</event>
<event>
 5   0  0.9878977E-07  0.2979768E+04  0.7818609E-02  0.8249532E-01
       -2   -1    0    0    0  501  0.00000000000E+00  0.00000000000E+00  0.10404739933E+04  0.10404739933E+04  0.25500000920E-02 0.  1.
        2   -1    0    0  501    0  0.00000000000E+00  0.00000000000E+00 -0.21334067654E+04  0.21334067654E+04  0.25500000920E-02 0. -1.
    10030    2    1    2    0    0  0.00000000000E+00  0.00000000000E+00 -0.10929327720E+04  0.31738807587E+04  0.29797679484E+04 0.  0.
        5    1    3    3  502    0 -0.64747353627E+03 -0.11165505925E+04  0.24620726973E+03  0.13139814745E+04  0.46999998093E+01 0.  1.
       -5    1    3    3    0  502  0.64747353627E+03  0.11165505925E+04 -0.13391400418E+04  0.18598992841E+04  0.46999998093E+01 0. -1.
</event>
<event>
 5   0  0.3159875E-07  0.3609358E+04  0.7818609E-02  0.8088352E-01
        1   -1    0    0  501    0  0.00000000000E+00  0.00000000000E+00  0.17853031690E+04  0.17853031690E+04  0.50400001928E-02 0.  1.
       -1   -1    0    0    0  501  0.00000000000E+00  0.00000000000E+00 -0.18242650110E+04  0.18242650110E+04  0.50400001928E-02 0. -1.
    10030    2    1    2    0    0  0.00000000000E+00  0.00000000000E+00 -0.38961842072E+02  0.36095681800E+04  0.36093578959E+04 0.  0.
        5    1    3    3  502    0  0.19280195162E+03 -0.60807160339E+03  0.16687881437E+04  0.17865608374E+04  0.46999998093E+01 0.  1.
       -5    1    3    3    0  502 -0.19280195162E+03  0.60807160339E+03 -0.17077499857E+04  0.18230073426E+04  0.46999998093E+01 0. -1.
</event>
<event>
 5   0  0.1031659E-06  0.3201550E+04  0.7818609E-02  0.8188408E-01
       -2   -1    0    0    0  501  0.00000000000E+00  0.00000000000E+00  0.15668080679E+04  0.15668080679E+04  0.25500000920E-02 0. -1.
        2   -1    0    0  501    0  0.00000000000E+00  0.00000000000E+00 -0.16354778220E+04  0.16354778220E+04  0.25500000920E-02 0.  1.
    10030    2    1    2    0    0  0.00000000000E+00  0.00000000000E+00 -0.68669754134E+02  0.32022858899E+04  0.32015495288E+04 0.  0.
        2    1    3    3  502    0  0.64054695878E+03  0.14520919581E+04  0.17453936113E+03  0.15966638500E+04  0.25500000920E-02 0.  1.
       -2    1    3    3    0  502 -0.64054695878E+03 -0.14520919581E+04 -0.24320911526E+03  0.16056220399E+04  0.25500000920E-02 0. -1.
</event>
<event>
 5   0  0.3278988E-07  0.3515397E+04  0.7818609E-02  0.8110151E-01
       -1   -1    0    0    0  501  0.00000000000E+00  0.00000000000E+00  0.14903410737E+04  0.14903410737E+04  0.50400001928E-02 0.  1.
        1   -1    0    0  501    0  0.00000000000E+00  0.00000000000E+00 -0.20730176661E+04  0.20730176661E+04  0.50400001928E-02 0. -1.
    10030    2    1    2    0    0  0.00000000000E+00  0.00000000000E+00 -0.58267659233E+03  0.35633587398E+04  0.35153966344E+04 0.  0.
        4    1    3    3  502    0  0.78144387617E+03  0.11176959650E+04 -0.14153417981E+04  0.19654752148E+04  0.12699999809E+01 0. -1.
       -4    1    3    3    0  502 -0.78144387617E+03 -0.11176959650E+04  0.83266520574E+03  0.15978835250E+04  0.12699999809E+01 0.  1.
</event>
<event>
 5   0  0.9878336E-07  0.3594264E+04  0.7818609E-02  0.8091807E-01
        2   -1    0    0  501    0  0.00000000000E+00  0.00000000000E+00  0.14112814606E+04  0.14112814606E+04  0.25500000920E-02 0.  1.
       -2   -1    0    0    0  501  0.00000000000E+00  0.00000000000E+00 -0.22884756662E+04  0.22884756662E+04  0.25500000920E-02 0. -1.
    10030    2    1    2    0    0  0.00000000000E+00  0.00000000000E+00 -0.87719420553E+03  0.36997571268E+04  0.35942639195E+04 0.  0.
        3    1    3    3  502    0  0.49429326011E+03  0.15729072890E+04 -0.11746511183E+04  0.20243933478E+04  0.10100000352E+00 0. -1.
       -3    1    3    3    0  502 -0.49429326011E+03 -0.15729072890E+04  0.29745691278E+03  0.16753637790E+04  0.10100000352E+00 0.  1.
</event>
<event>
 5   0  0.3159875E-07  0.3382582E+04  0.7818609E-02  0.8142194E-01
       -1   -1    0    0    0  501  0.00000000000E+00  0.00000000000E+00  0.14753422923E+04  0.14753422923E+04  0.50400001928E-02 0. -1.
        1   -1    0    0  501    0  0.00000000000E+00  0.00000000000E+00 -0.19388487206E+04  0.19388487206E+04  0.50400001928E-02 0.  1.
    10030    2    1    2    0    0  0.00000000000E+00  0.00000000000E+00 -0.46350642830E+03  0.34141910129E+04  0.33825821592E+04 0.  0.
        2    1    3    3  502    0  0.17491346647E+03 -0.15663520783E+04  0.38750413473E+03  0.16230258803E+04  0.25500000920E-02 0. -1.
       -2    1    3    3    0  502 -0.17491346647E+03  0.15663520783E+04 -0.85101056303E+03  0.17911651326E+04  0.25500000920E-02 0.  1.
</event>
<event>
 5   0  0.1031659E-06  0.3606447E+04  0.7818609E-02  0.8089017E-01
        2   -1    0    0  501    0  0.00000000000E+00  0.00000000000E+00  0.28483900469E+04  0.28483900469E+04  0.25500000920E-02 0. -1.
       -2   -1    0    0    0  501  0.00000000000E+00  0.00000000000E+00 -0.11415623693E+04  0.11415623693E+04  0.25500000920E-02 0.  1.
    10030    2    1    2    0    0  0.00000000000E+00  0.00000000000E+00  0.17068276776E+04  0.39899524162E+04  0.36064469443E+04 0.  0.
        2    1    3    3  502    0  0.12679752028E+04 -0.16915226406E+03  0.22594836128E+04  0.25964667916E+04  0.25500000920E-02 0. -1.
       -2    1    3    3    0  502 -0.12679752028E+04  0.16915226406E+03 -0.55265593518E+03  0.13934856246E+04  0.25500000920E-02 0.  1.
</event>
<event>
 5   0  0.3365378E-07  0.3397822E+04  0.7818609E-02  0.8138441E-01
       -1   -1    0    0    0  501  0.00000000000E+00  0.00000000000E+00  0.18027393452E+04  0.18027393452E+04  0.50400001928E-02 0.  1.
        1   -1    0    0  501    0  0.00000000000E+00  0.00000000000E+00 -0.16010622023E+04  0.16010622023E+04  0.50400001928E-02 0. -1.
    10030    2    1    2    0    0  0.00000000000E+00  0.00000000000E+00  0.20167714289E+03  0.34038015475E+04  0.33978215529E+04 0.  0.
        3    1    3    3  502    0  0.11785037700E+04  0.12085056187E+04 -0.91699716148E+02  0.16904927727E+04  0.10100000352E+00 0. -1.
       -3    1    3    3    0  502 -0.11785037700E+04 -0.12085056187E+04  0.29337685904E+03  0.17133087749E+04  0.10100000352E+00 0.  1.
</event>
<event>
 5   0  0.1031659E-06  0.3613989E+04  0.7818609E-02  0.8087295E-01
        2   -1    0    0  501    0  0.00000000000E+00  0.00000000000E+00  0.19544926300E+04  0.19544926300E+04  0.25500000920E-02 0. -1.
       -2   -1    0    0    0  501  0.00000000000E+00  0.00000000000E+00 -0.16706271728E+04  0.16706271728E+04  0.25500000920E-02 0.  1.
    10030    2    1    2    0    0  0.00000000000E+00  0.00000000000E+00  0.28386545719E+03  0.36251198028E+04  0.36139886534E+04 0.  0.
        2    1    3    3  502    0 -0.43742625694E+03  0.42889878028E+03 -0.15632834178E+04  0.16790327389E+04  0.25500000920E-02 0.  1.
       -2    1    3    3    0  502  0.43742625694E+03 -0.42889878028E+03  0.18471488750E+04  0.19460870639E+04  0.25500000920E-02 0. -1.
</event>
<event>
 5   0  0.3159875E-07  0.3598587E+04  0.7818609E-02  0.8090815E-01
        1   -1    0    0  501    0  0.00000000000E+00  0.00000000000E+00  0.23340722538E+04  0.23340722538E+04  0.50400001928E-02 0.  1.
       -1   -1    0    0    0  501  0.00000000000E+00  0.00000000000E+00 -0.13870421809E+04  0.13870421809E+04  0.50400001928E-02 0. -1.
    10030    2    1    2    0    0  0.00000000000E+00  0.00000000000E+00  0.94703007291E+03  0.37211144347E+04  0.35985867611E+04 0.  0.
        5    1    3    3  502    0 -0.25333484390E+03  0.17672338588E+04  0.24196999536E+03  0.18016286031E+04  0.46999998093E+01 0. -1.
       -5    1    3    3    0  502  0.25333484390E+03 -0.17672338588E+04  0.70506007755E+03  0.19194858316E+04  0.46999998093E+01 0.  1.
</event>
<event>
 5   0  0.3278988E-07  0.3402216E+04  0.7818609E-02  0.8137363E-01
        1   -1    0    0  501    0  0.00000000000E+00  0.00000000000E+00  0.19943669243E+04  0.19943669243E+04  0.50400001928E-02 0. -1.
       -1   -1    0    0    0  501  0.00000000000E+00  0.00000000000E+00 -0.14509706644E+04  0.14509706644E+04  0.50400001928E-02 0.  1.
    10030    2    1    2    0    0  0.00000000000E+00  0.00000000000E+00  0.54339625988E+03  0.34453375887E+04  0.34022156906E+04 0.  0.
        4    1    3    3  502    0 -0.15539870668E+04  0.33490117910E+03 -0.34156118863E+03  0.16259459591E+04  0.12699999809E+01 0.  1.
       -4    1    3    3    0  502  0.15539870668E+04 -0.33490117910E+03  0.88495744851E+03  0.18193916296E+04  0.12699999809E+01 0. -1.
</event>
<event>
 5   0  0.9878336E-07  0.3600464E+04  0.7818609E-02  0.8090385E-01
       -2   -1    0    0    0  501  0.00000000000E+00  0.00000000000E+00  0.14388599709E+04  0.14388599709E+04  0.25500000920E-02 0.  1.
        2   -1    0    0  501    0  0.00000000000E+00  0.00000000000E+00 -0.22523632865E+04  0.22523632865E+04  0.25500000920E-02 0. -1.
    10030    2    1    2    0    0  0.00000000000E+00  0.00000000000E+00 -0.81350331567E+03  0.36912232574E+04  0.36004640661E+04 0.  0.
        3    1    3    3  502    0 -0.50585484141E+03 -0.13645996203E+03  0.13589657265E+04  0.14564677470E+04  0.10100000352E+00 0.  1.
       -3    1    3    3    0  502  0.50585484141E+03  0.13645996203E+03 -0.21724690422E+04  0.22347555104E+04  0.10100000352E+00 0. -1.
</event>
<event>
 5   0  0.3365378E-07  0.3556312E+04  0.7818609E-02  0.8100573E-01
        1   -1    0    0  501    0  0.00000000000E+00  0.00000000000E+00  0.27083899607E+04  0.27083899607E+04  0.50400001928E-02 0. -1.
       -1   -1    0    0    0  501  0.00000000000E+00  0.00000000000E+00 -0.11674237365E+04  0.11674237365E+04  0.50400001928E-02 0.  1.
    10030    2    1    2    0    0  0.00000000000E+00  0.00000000000E+00  0.15409662243E+04  0.38758136972E+04  0.35563119817E+04 0.  0.
        3    1    3    3  502    0  0.95395690014E+03 -0.13315120605E+04  0.16300258751E+02  0.16380548963E+04  0.10100000352E+00 0.  1.
       -3    1    3    3    0  502 -0.95395690014E+03  0.13315120605E+04  0.15246659655E+04  0.22377588009E+04  0.10100000352E+00 0. -1.
</event>
<event>
 5   0  0.3159875E-07  0.3529783E+04  0.7818609E-02  0.8106768E-01
       -1   -1    0    0    0  501  0.00000000000E+00  0.00000000000E+00  0.16588112539E+04  0.16588112539E+04  0.50400001928E-02 0.  1.
        1   -1    0    0  501    0  0.00000000000E+00  0.00000000000E+00 -0.18777553318E+04  0.18777553318E+04  0.50400001928E-02 0. -1.
    10030    2    1    2    0    0  0.00000000000E+00  0.00000000000E+00 -0.21894407786E+03  0.35365665857E+04  0.35297828129E+04 0.  0.
        2    1    3    3  502    0 -0.17189883035E+02  0.73002526492E+03  0.15003546137E+04  0.16686210913E+04  0.25500000920E-02 0.  1.
       -2    1    3    3    0  502  0.17189883035E+02 -0.73002526492E+03 -0.17192986915E+04  0.18679454945E+04  0.25500000920E-02 0. -1.
</event>
<event>
 5   0  0.3159875E-07  0.3644734E+04  0.7818609E-02  0.8080321E-01
       -1   -1    0    0    0  501  0.00000000000E+00  0.00000000000E+00  0.10692768490E+04  0.10692768490E+04  0.50400001928E-02 0.  1.
        1   -1    0    0  501    0  0.00000000000E+00  0.00000000000E+00 -0.31058581416E+04  0.31058581417E+04  0.50400001928E-02 0. -1.
    10030    2    1    2    0    0  0.00000000000E+00  0.00000000000E+00 -0.20365812926E+04  0.41751349907E+04  0.36447343976E+04 0.  0.
        2    1    3    3  502    0  0.11238345659E+04 -0.11287626627E+04 -0.40557494929E+01  0.15928357509E+04  0.25500000920E-02 0.  1.
       -2    1    3    3    0  502 -0.11238345659E+04  0.11287626627E+04 -0.20325255431E+04  0.25822992398E+04  0.25500000920E-02 0. -1.
</event>
<event>
 5   0  0.9538919E-07  0.3135905E+04  0.7818609E-02  0.8205953E-01
       -2   -1    0    0    0  501  0.00000000000E+00  0.00000000000E+00  0.11646947532E+04  0.11646947532E+04  0.25500000920E-02 0.  1.
        2   -1    0    0  501    0  0.00000000000E+00  0.00000000000E+00 -0.21108319867E+04  0.21108319867E+04  0.25500000920E-02 0. -1.
    10030    2    1    2    0    0  0.00000000000E+00  0.00000000000E+00 -0.94613723349E+03  0.32755267398E+04  0.31359049346E+04 0.  0.
        4    1    3    3  502    0  0.74430476035E+03  0.13208576577E+04 -0.55495826500E+02  0.15171472993E+04  0.12699999809E+01 0.  1.
       -4    1    3    3    0  502 -0.74430476035E+03 -0.13208576577E+04 -0.89064140699E+03  0.17583794405E+04  0.12699999809E+01 0. -1.
</event>
<event>
 5   0  0.3242047E-07  0.3575764E+04  0.7818609E-02  0.8096066E-01
        1   -1    0    0  501    0  0.00000000000E+00  0.00000000000E+00  0.16043097315E+04  0.16043097315E+04  0.50400001928E-02 0. -1.
       -1   -1    0    0    0  501  0.00000000000E+00  0.00000000000E+00 -0.19924597348E+04  0.19924597348E+04  0.50400001928E-02 0.  1.
    10030    2    1    2    0    0  0.00000000000E+00  0.00000000000E+00 -0.38815000336E+03  0.35967694663E+04  0.35757642775E+04 0.  0.
        1    1    3    3  502    0  0.16725377147E+04 -0.52733499669E+03  0.15590268371E+03  0.17606164411E+04  0.50400001928E-02 0. -1.
       -1    1    3    3    0  502 -0.16725377147E+04  0.52733499669E+03 -0.54405268708E+03  0.18361530252E+04  0.50400001928E-02 0.  1.
</event>
<event>
 5   0  0.3242047E-07  0.3577399E+04  0.7818609E-02  0.8095688E-01
        1   -1    0    0  501    0  0.00000000000E+00  0.00000000000E+00  0.23635009143E+04  0.23635009143E+04  0.50400001928E-02 0.  1.
       -1   -1    0    0    0  501  0.00000000000E+00  0.00000000000E+00 -0.13536895455E+04  0.13536895455E+04  0.50400001928E-02 0. -1.
    10030    2    1    2    0    0  0.00000000000E+00  0.00000000000E+00  0.10098113688E+04  0.37171904598E+04  0.35773993227E+04 0.  0.
        1    1    3    3  502    0 -0.11570716620E+04 -0.73071367271E+03  0.17017343605E+04  0.21837255176E+04  0.50400001928E-02 0.  1.
       -1    1    3    3    0  502  0.11570716620E+04  0.73071367271E+03 -0.69192299175E+03  0.15334649422E+04  0.50400001928E-02 0. -1.
</event>
<event>
 5   0  0.9878977E-07  0.3493902E+04  0.7818609E-02  0.8115237E-01
       -2   -1    0    0    0  501  0.00000000000E+00  0.00000000000E+00  0.11825589295E+04  0.11825589295E+04  0.25500000920E-02 0. -1.
        2   -1    0    0  501    0  0.00000000000E+00  0.00000000000E+00 -0.25807064885E+04  0.25807064885E+04  0.25500000920E-02 0.  1.
    10030    2    1    2    0    0  0.00000000000E+00  0.00000000000E+00 -0.13981475590E+04  0.37632654181E+04  0.34939018318E+04 0.  0.
        5    1    3    3  502    0 -0.15960433566E+04 -0.63264252399E+03 -0.35134633874E+03  0.17524432370E+04  0.46999998093E+01 0. -1.
       -5    1    3    3    0  502  0.15960433566E+04  0.63264252399E+03 -0.10468012203E+04  0.20108221811E+04  0.46999998093E+01 0.  1.
</event>
<event>
 5   0  0.1006019E-06  0.3610442E+04  0.7818609E-02  0.8088104E-01
        2   -1    0    0  501    0  0.00000000000E+00  0.00000000000E+00  0.21132972579E+04  0.21132972579E+04  0.25500000920E-02 0. -1.
       -2   -1    0    0    0  501  0.00000000000E+00  0.00000000000E+00 -0.15420559398E+04  0.15420559398E+04  0.25500000920E-02 0.  1.
    10030    2    1    2    0    0  0.00000000000E+00  0.00000000000E+00  0.57124131809E+03  0.36553531977E+04  0.36104418506E+04 0.  0.
        1    1    3    3  502    0  0.88770074755E+03 -0.61484761021E+03 -0.11790163051E+04  0.15987900577E+04  0.50400001928E-02 0.  1.
       -1    1    3    3    0  502 -0.88770074755E+03  0.61484761021E+03  0.17502576232E+04  0.20565631399E+04  0.50400001928E-02 0. -1.
</event>
<event>
 5   0  0.1006019E-06  0.3620665E+04  0.7818609E-02  0.8085774E-01
       -2   -1    0    0    0  501  0.00000000000E+00  0.00000000000E+00  0.15968727091E+04  0.15968727091E+04  0.25500000920E-02 0. -1.
        2   -1    0    0  501    0  0.00000000000E+00  0.00000000000E+00 -0.20523266260E+04  0.20523266260E+04  0.25500000920E-02 0.  1.
    10030    2    1    2    0    0  0.00000000000E+00  0.00000000000E+00 -0.45545391689E+03  0.36491993351E+04  0.36206653417E+04 0.  0.
        1    1    3    3  502    0 -0.55763787955E+03 -0.65627385351E+03  0.13771944505E+04  0.16242905929E+04  0.50400001928E-02 0. -1.
       -1    1    3    3    0  502  0.55763787955E+03  0.65627385351E+03 -0.18326483674E+04  0.20249087422E+04  0.50400001928E-02 0.  1.
</event>
<event>
 5   0  0.3365378E-07  0.3580324E+04  0.7818609E-02  0.8095014E-01
       -1   -1    0    0    0  501  0.00000000000E+00  0.00000000000E+00  0.25150883968E+04  0.25150883968E+04  0.50400001928E-02 0. -1.
        1   -1    0    0  501    0  0.00000000000E+00  0.00000000000E+00 -0.12741820912E+04  0.12741820913E+04  0.50400001928E-02 0.  1.
    10030    2    1    2    0    0  0.00000000000E+00  0.00000000000E+00  0.12409063055E+04  0.37892704880E+04  0.35803243390E+04 0.  0.
        3    1    3    3  502    0 -0.22684642977E+03 -0.63177325030E+03  0.23768466281E+04  0.24698171281E+04  0.10100000352E+00 0. -1.
       -3    1    3    3    0  502  0.22684642977E+03  0.63177325030E+03 -0.11359403226E+04  0.13194533600E+04  0.10100000352E+00 0.  1.
</event>
<event>
 5   0  0.9878977E-07  0.3596627E+04  0.7818609E-02  0.8091265E-01
        2   -1    0    0  501    0  0.00000000000E+00  0.00000000000E+00  0.28519457218E+04  0.28519457218E+04  0.25500000920E-02 0. -1.
       -2   -1    0    0    0  501  0.00000000000E+00  0.00000000000E+00 -0.11339386551E+04  0.11339386551E+04  0.25500000920E-02 0.  1.
    10030    2    1    2    0    0  0.00000000000E+00  0.00000000000E+00  0.17180070667E+04  0.39858843769E+04  0.35966270289E+04 0.  0.
        5    1    3    3  502    0 -0.14644406732E+04  0.24096871811E+03  0.19844186571E+04  0.24780217725E+04  0.46999998093E+01 0. -1.
       -5    1    3    3    0  502  0.14644406732E+04 -0.24096871811E+03 -0.26641159040E+03  0.15078626044E+04  0.46999998093E+01 0.  1.
</event>
<event>
 5   0  0.1031659E-06  0.3559748E+04  0.7818609E-02  0.8099775E-01
        2   -1    0    0  501    0  0.00000000000E+00  0.00000000000E+00  0.20260953470E+04  0.20260953470E+04  0.25500000920E-02 0.  1.
       -2   -1    0    0    0  501  0.00000000000E+00  0.00000000000E+00 -0.15635748905E+04  0.15635748905E+04  0.25500000920E-02 0. -1.
    10030    2    1    2    0    0  0.00000000000E+00  0.00000000000E+00  0.46252045644E+03  0.35896702375E+04  0.35597481991E+04 0.  0.
        2    1    3    3  502    0 -0.31260359992E+03  0.10050389453E+04 -0.12161189708E+04  0.16083437578E+04  0.25500000920E-02 0. -1.
       -2    1    3    3    0  502  0.31260359992E+03 -0.10050389453E+04  0.16786394272E+04  0.19813264796E+04  0.25500000920E-02 0.  1.
</event>
<event>
 5   0  0.3159875E-07  0.3596378E+04  0.7818609E-02  0.8091322E-01
        1   -1    0    0  501    0  0.00000000000E+00  0.00000000000E+00  0.18855522531E+04  0.18855522531E+04  0.50400001928E-02 0.  1.
       -1   -1    0    0    0  501  0.00000000000E+00  0.00000000000E+00 -0.17148734832E+04  0.17148734832E+04  0.50400001928E-02 0. -1.
    10030    2    1    2    0    0  0.00000000000E+00  0.00000000000E+00  0.17067876989E+03  0.36004257362E+04  0.35963779334E+04 0.  0.
        5    1    3    3  502    0  0.14510854668E+04  0.46042641322E+03 -0.87272254804E+03  0.17547957857E+04  0.46999998093E+01 0. -1.
       -5    1    3    3    0  502 -0.14510854668E+04 -0.46042641322E+03  0.10434013179E+04  0.18456299505E+04  0.46999998093E+01 0.  1.
</event>
<event>
 5   0  0.1006019E-06  0.3582330E+04  0.7818609E-02  0.8094551E-01
       -2   -1    0    0    0  501  0.00000000000E+00  0.00000000000E+00  0.16666134427E+04  0.16666134427E+04  0.25500000920E-02 0. -1.
        2   -1    0    0  501    0  0.00000000000E+00  0.00000000000E+00 -0.19250249032E+04  0.19250249032E+04  0.25500000920E-02 0.  1.
    10030    2    1    2    0    0  0.00000000000E+00  0.00000000000E+00 -0.25841146050E+03  0.35916383458E+04  0.35823301808E+04 0.  0.
        1    1    3    3  502    0 -0.82662628762E+03 -0.12144345721E+03  0.14592761373E+04  0.16815309624E+04  0.50400001928E-02 0. -1.
       -1    1    3    3    0  502  0.82662628762E+03  0.12144345721E+03 -0.17176875978E+04  0.19101073834E+04  0.50400001928E-02 0.  1.
</event>
<event>
 5   0  0.9538919E-07  0.3711781E+04  0.7818609E-02  0.8065356E-01
       -2   -1    0    0    0  501  0.00000000000E+00  0.00000000000E+00  0.13553233777E+04  0.13553233777E+04  0.25500000920E-02 0.  1.
        2   -1    0    0  501    0  0.00000000000E+00  0.00000000000E+00 -0.25413346821E+04  0.25413346821E+04  0.25500000920E-02 0. -1.
    10030    2    1    2    0    0  0.00000000000E+00  0.00000000000E+00 -0.11860113044E+04  0.38966580599E+04  0.37117814081E+04 0.  0.
        4    1    3    3  502    0 -0.94543332930E+03 -0.27872842374E+03 -0.22438417628E+04  0.24507878700E+04  0.12699999809E+01 0. -1.
       -4    1    3    3    0  502  0.94543332930E+03  0.27872842374E+03  0.10578304584E+04  0.14458701899E+04  0.12699999809E+01 0.  1.
</event>
<event>
 5   0  0.1006019E-06  0.3615765E+04  0.7818609E-02  0.8086890E-01
       -2   -1    0    0    0  501  0.00000000000E+00  0.00000000000E+00  0.16897237469E+04  0.16897237469E+04  0.25500000920E-02 0. -1.
        2   -1    0    0  501    0  0.00000000000E+00  0.00000000000E+00 -0.19343039101E+04  0.19343039101E+04  0.25500000920E-02 0.  1.
    10030    2    1    2    0    0  0.00000000000E+00  0.00000000000E+00 -0.24458016328E+03  0.36240276570E+04  0.36157650646E+04 0.  0.
        1    1    3    3  502    0  0.13456953327E+04 -0.12021413591E+04 -0.10682693639E+02  0.18044816141E+04  0.50400001928E-02 0. -1.
       -1    1    3    3    0  502 -0.13456953327E+04  0.12021413591E+04 -0.23389746964E+03  0.18195460429E+04  0.50400001928E-02 0.  1.
</event>
<event>
 5   0  0.1031659E-06  0.3614275E+04  0.7818609E-02  0.8087230E-01
       -2   -1    0    0    0  501  0.00000000000E+00  0.00000000000E+00  0.15033586838E+04  0.15033586838E+04  0.25500000920E-02 0.  1.
        2   -1    0    0  501    0  0.00000000000E+00  0.00000000000E+00 -0.21722996547E+04  0.21722996547E+04  0.25500000920E-02 0. -1.
    10030    2    1    2    0    0  0.00000000000E+00  0.00000000000E+00 -0.66894097087E+03  0.36756583386E+04  0.36142747819E+04 0.  0.
        2    1    3    3  502    0  0.15138725952E+04 -0.32734770826E+03  0.61235100547E+03  0.16655150886E+04  0.25500000920E-02 0.  1.
       -2    1    3    3    0  502 -0.15138725952E+04  0.32734770826E+03 -0.12812919763E+04  0.20101432499E+04  0.25500000920E-02 0. -1.
</event>
<event>
 5   0  0.3159875E-07  0.3239266E+04  0.7818609E-02  0.8178524E-01
       -1   -1    0    0    0  501  0.00000000000E+00  0.00000000000E+00  0.11935456987E+04  0.11935456987E+04  0.50400001928E-02 0.  1.
        1   -1    0    0  501    0  0.00000000000E+00  0.00000000000E+00 -0.21978297878E+04  0.21978297878E+04  0.50400001928E-02 0. -1.
    10030    2    1    2    0    0  0.00000000000E+00  0.00000000000E+00 -0.10042840891E+04  0.33913754865E+04  0.32392655277E+04 0.  0.
        2    1    3    3  502    0 -0.94912164889E+03  0.12207819641E+04  0.22156187541E+01  0.15463328934E+04  0.25500000920E-02 0.  1.
       -2    1    3    3    0  502  0.94912164889E+03 -0.12207819641E+04 -0.10064997078E+04  0.18450425930E+04  0.25500000920E-02 0. -1.
</event>
<event>
 5   0  0.3159875E-07  0.3670122E+04  0.7818609E-02  0.8074616E-01
        1   -1    0    0  501    0  0.00000000000E+00  0.00000000000E+00  0.17481479185E+04  0.17481479185E+04  0.50400001928E-02 0.  1.
       -1   -1    0    0    0  501  0.00000000000E+00  0.00000000000E+00 -0.19262947342E+04  0.19262947342E+04  0.50400001928E-02 0. -1.
    10030    2    1    2    0    0  0.00000000000E+00  0.00000000000E+00 -0.17814681568E+03  0.36744426526E+04  0.36701215947E+04 0.  0.
        2    1    3    3  502    0  0.11767004848E+04 -0.61630667453E+03 -0.13566565413E+04  0.18986771497E+04  0.25500000920E-02 0. -1.
       -2    1    3    3    0  502 -0.11767004848E+04  0.61630667453E+03  0.11785097256E+04  0.17757655029E+04  0.25500000920E-02 0.  1.
</event>
<event>
 5   0  0.1006019E-06  0.3615195E+04  0.7818609E-02  0.8087020E-01
       -2   -1    0    0    0  501  0.00000000000E+00  0.00000000000E+00  0.17950835601E+04  0.17950835601E+04  0.25500000920E-02 0.  1.
        2   -1    0    0  501    0  0.00000000000E+00  0.00000000000E+00 -0.18201986588E+04  0.18201986588E+04  0.25500000920E-02 0. -1.
    10030    2    1    2    0    0  0.00000000000E+00  0.00000000000E+00 -0.25115098688E+02  0.36152822188E+04  0.36151949814E+04 0.  0.
        1    1    3    3  502    0  0.29941515160E+03  0.31177439511E+03  0.17426360742E+04  0.17954479089E+04  0.50400001928E-02 0.  1.
       -1    1    3    3    0  502 -0.29941515160E+03 -0.31177439511E+03 -0.17677511729E+04  0.18198343100E+04  0.50400001928E-02 0. -1.
</event>
<event>
 5   0  0.3242047E-07  0.3584833E+04  0.7818609E-02  0.8093975E-01
        1   -1    0    0  501    0  0.00000000000E+00  0.00000000000E+00  0.17439039249E+04  0.17439039249E+04  0.50400001928E-02 0. -1.
       -1   -1    0    0    0  501  0.00000000000E+00  0.00000000000E+00 -0.18422782456E+04  0.18422782456E+04  0.50400001928E-02 0.  1.
    10030    2    1    2    0    0  0.00000000000E+00  0.00000000000E+00 -0.98374320736E+02  0.35861821705E+04  0.35848326394E+04 0.  0.
        1    1    3    3  502    0 -0.12481416945E+04  0.59102306346E+03 -0.11922416172E+04  0.18244467723E+04  0.50400001928E-02 0.  1.
       -1    1    3    3    0  502  0.12481416945E+04 -0.59102306346E+03  0.10938672965E+04  0.17617353982E+04  0.50400001928E-02 0. -1.
</event>
<event>
 5   0  0.3159875E-07  0.3310014E+04  0.7818609E-02  0.8160352E-01
       -1   -1    0    0    0  501  0.00000000000E+00  0.00000000000E+00  0.13849686903E+04  0.13849686903E+04  0.50400001928E-02 0.  1.
        1   -1    0    0  501    0  0.00000000000E+00  0.00000000000E+00 -0.19776972970E+04  0.19776972970E+04  0.50400001928E-02 0. -1.
    10030    2    1    2    0    0  0.00000000000E+00  0.00000000000E+00 -0.59272860666E+03  0.33626659873E+04  0.33100144019E+04 0.  0.
        5    1    3    3  502    0 -0.61636133731E+03  0.14796628782E+04 -0.71489225819E+03  0.17551058550E+04  0.46999998093E+01 0. -1.
       -5    1    3    3    0  502  0.61636133731E+03 -0.14796628782E+04  0.12216365152E+03  0.16075601323E+04  0.46999998093E+01 0.  1.
</event>
<event>
 5   0  0.1006019E-06  0.3599021E+04  0.7818609E-02  0.8090716E-01
       -2   -1    0    0    0  501  0.00000000000E+00  0.00000000000E+00  0.15013614570E+04  0.15013614570E+04  0.25500000920E-02 0. -1.
        2   -1    0    0  501    0  0.00000000000E+00  0.00000000000E+00 -0.21568679631E+04  0.21568679631E+04  0.25500000920E-02 0.  1.
    10030    2    1    2    0    0  0.00000000000E+00  0.00000000000E+00 -0.65550650609E+03  0.36582294201E+04  0.35990212156E+04 0.  0.
        1    1    3    3  502    0 -0.92565932013E+03  0.66429410019E+03  0.10880383355E+04  0.15754235138E+04  0.50400001928E-02 0. -1.
       -1    1    3    3    0  502  0.92565932013E+03 -0.66429410019E+03 -0.17435448416E+04  0.20828059062E+04  0.50400001928E-02 0.  1.
</event>
<event>
 5   0  0.3278988E-07  0.3455886E+04  0.7818609E-02  0.8124325E-01
        1   -1    0    0  501    0  0.00000000000E+00  0.00000000000E+00  0.13242056115E+04  0.13242056115E+04  0.50400001928E-02 0. -1.
       -1   -1    0    0    0  501  0.00000000000E+00  0.00000000000E+00 -0.22547763160E+04  0.22547763160E+04  0.50400001928E-02 0.  1.
    10030    2    1    2    0    0  0.00000000000E+00  0.00000000000E+00 -0.93057070449E+03  0.35789819275E+04  0.34558862541E+04 0.  0.
        4    1    3    3  502    0  0.52334253670E+03  0.32373417169E+03  0.12068770784E+04  0.13547121908E+04  0.12699999809E+01 0. -1.
       -4    1    3    3    0  502 -0.52334253670E+03 -0.32373417169E+03 -0.21374477828E+04  0.22242697368E+04  0.12699999809E+01 0.  1.
</event>
<event>
 5   0  0.1031659E-06  0.3622158E+04  0.7818609E-02  0.8085435E-01
       -2   -1    0    0    0  501  0.00000000000E+00  0.00000000000E+00  0.10843807203E+04  0.10843807203E+04  0.25500000920E-02 0.  1.
        2   -1    0    0  501    0  0.00000000000E+00  0.00000000000E+00 -0.30247742296E+04  0.30247742296E+04  0.25500000920E-02 0. -1.
    10030    2    1    2    0    0  0.00000000000E+00  0.00000000000E+00 -0.19403935093E+04  0.41091549499E+04  0.36221578419E+04 0.  0.
        2    1    3    3  502    0 -0.11180202435E+04  0.17951215581E+03 -0.25736731154E+04  0.28117587350E+04  0.25500000920E-02 0. -1.
       -2    1    3    3    0  502  0.11180202435E+04 -0.17951215581E+03  0.63327960614E+03  0.12973962149E+04  0.25500000920E-02 0.  1.
</event>
<event>
 5   0  0.3242047E-07  0.3592126E+04  0.7818609E-02  0.8092298E-01
        1   -1    0    0  501    0  0.00000000000E+00  0.00000000000E+00  0.15782528576E+04  0.15782528576E+04  0.50400001928E-02 0.  1.
       -1   -1    0    0    0  501  0.00000000000E+00  0.00000000000E+00 -0.20439327173E+04  0.20439327173E+04  0.50400001928E-02 0. -1.
    10030    2    1    2    0    0  0.00000000000E+00  0.00000000000E+00 -0.46567985970E+03  0.36221855748E+04  0.35921261958E+04 0.  0.
        1    1    3    3  502    0 -0.11460586854E+04 -0.13816703273E+04 -0.29145767947E+03  0.18186288744E+04  0.50400001928E-02 0.  1.
       -1    1    3    3    0  502  0.11460586854E+04  0.13816703273E+04 -0.17422218023E+03  0.18035567005E+04  0.50400001928E-02 0. -1.
</event>
<event>
 5   0  0.3242047E-07  0.3592042E+04  0.7818609E-02  0.8092317E-01
        1   -1    0    0  501    0  0.00000000000E+00  0.00000000000E+00  0.12828937849E+04  0.12828937850E+04  0.50400001928E-02 0. -1.
       -1   -1    0    0    0  501  0.00000000000E+00  0.00000000000E+00 -0.25143874299E+04  0.25143874299E+04  0.50400001928E-02 0.  1.
    10030    2    1    2    0    0  0.00000000000E+00  0.00000000000E+00 -0.12314936450E+04  0.37972812149E+04  0.35920423198E+04 0.  0.
        1    1    3    3  502    0 -0.17462883139E+04  0.18842971901E+03 -0.10122273196E+04  0.20272229233E+04  0.50400001928E-02 0.  1.
       -1    1    3    3    0  502  0.17462883139E+04 -0.18842971901E+03 -0.21926632539E+03  0.17700582916E+04  0.50400001928E-02 0. -1.
</event>
<event>
 5   0  0.9878977E-07  0.3577256E+04  0.7818609E-02  0.8095721E-01
       -2   -1    0    0    0  501  0.00000000000E+00  0.00000000000E+00  0.12324652083E+04  0.12324652083E+04  0.25500000920E-02 0. -1.
        2   -1    0    0  501    0  0.00000000000E+00  0.00000000000E+00 -0.25957652575E+04  0.25957652575E+04  0.25500000920E-02 0.  1.
    10030    2    1    2    0    0  0.00000000000E+00  0.00000000000E+00 -0.13633000491E+04  0.38282304658E+04  0.35772561378E+04 0.  0.
        5    1    3    3  502    0 -0.30048713492E+03  0.13751750088E+04 -0.18625974836E+04  0.23346713471E+04  0.46999998093E+01 0.  1.
       -5    1    3    3    0  502  0.30048713492E+03 -0.13751750088E+04  0.49929743450E+03  0.14935591187E+04  0.46999998093E+01 0. -1.
</event>
<event>
 5   0  0.3365378E-07  0.3600326E+04  0.7818609E-02  0.8090417E-01
       -1   -1    0    0    0  501  0.00000000000E+00  0.00000000000E+00  0.14471059968E+04  0.14471059968E+04  0.50400001928E-02 0. -1.
        1   -1    0    0  501    0  0.00000000000E+00  0.00000000000E+00 -0.22393571502E+04  0.22393571502E+04  0.50400001928E-02 0.  1.
    10030    2    1    2    0    0  0.00000000000E+00  0.00000000000E+00 -0.79225115343E+03  0.36864631470E+04  0.36003261857E+04 0.  0.
        3    1    3    3  502    0  0.15373473214E+04  0.38444015850E+03  0.47833022964E+03  0.16553038515E+04  0.10100000352E+00 0. -1.
       -3    1    3    3    0  502 -0.15373473214E+04 -0.38444015850E+03 -0.12705813831E+04  0.20311592954E+04  0.10100000352E+00 0.  1.
</event>
<event>
 5   0  0.3159875E-07  0.2711746E+04  0.7818609E-02  0.8331204E-01
       -1   -1    0    0    0  501  0.00000000000E+00  0.00000000000E+00  0.14678867068E+04  0.14678867069E+04  0.50400001928E-02 0. -1.
        1   -1    0    0  501    0  0.00000000000E+00  0.00000000000E+00 -0.12524067885E+04  0.12524067885E+04  0.50400001928E-02 0.  1.
    10030    2    1    2    0    0  0.00000000000E+00  0.00000000000E+00  0.21547991840E+03  0.27202934953E+04  0.27117457671E+04 0.  0.
        5    1    3    3  502    0 -0.89070851115E+03 -0.15233150302E+03 -0.90628887388E+03  0.12798234845E+04  0.46999998093E+01 0.  1.
       -5    1    3    3    0  502  0.89070851115E+03  0.15233150302E+03  0.11217687923E+04  0.14404700108E+04  0.46999998093E+01 0. -1.
</event>
<event>
 5   0  0.1031659E-06  0.3513337E+04  0.7818609E-02  0.8110636E-01
        2   -1    0    0  501    0  0.00000000000E+00  0.00000000000E+00  0.19058089055E+04  0.19058089055E+04  0.25500000920E-02 0.  1.
       -2   -1    0    0    0  501  0.00000000000E+00  0.00000000000E+00 -0.16191993161E+04  0.16191993161E+04  0.25500000920E-02 0. -1.
    10030    2    1    2    0    0  0.00000000000E+00  0.00000000000E+00  0.28660958943E+03  0.35250082216E+04  0.35133371466E+04 0.  0.
        2    1    3    3  502    0 -0.14922187377E+04 -0.24956534999E+02  0.10729597953E+04  0.18380920304E+04  0.25500000920E-02 0.  1.
       -2    1    3    3    0  502  0.14922187377E+04  0.24956534999E+02 -0.78635020589E+03  0.16869161912E+04  0.25500000920E-02 0. -1.
</event>
<event>
 5   0  0.9538919E-07  0.3564885E+04  0.7818609E-02  0.8098583E-01
       -2   -1    0    0    0  501  0.00000000000E+00  0.00000000000E+00  0.16500027384E+04  0.16500027384E+04  0.25500000920E-02 0. -1.
        2   -1    0    0  501    0  0.00000000000E+00  0.00000000000E+00 -0.19255130705E+04  0.19255130705E+04  0.25500000920E-02 0.  1.
    10030    2    1    2    0    0  0.00000000000E+00  0.00000000000E+00 -0.27551033204E+03  0.35755158089E+04  0.35648853217E+04 0.  0.
        4    1    3    3  502    0 -0.12710710420E+04  0.97347547628E+03 -0.92356076196E+03  0.18483079264E+04  0.12699999809E+01 0.  1.
       -4    1    3    3    0  502  0.12710710420E+04 -0.97347547628E+03  0.64805042992E+03  0.17272078825E+04  0.12699999809E+01 0. -1.
</event>
<event>
 5   0  0.3365378E-07  0.3643246E+04  0.7818609E-02  0.8080657E-01
       -1   -1    0    0    0  501  0.00000000000E+00  0.00000000000E+00  0.13172750613E+04  0.13172750613E+04  0.50400001928E-02 0.  1.
        1   -1    0    0  501    0  0.00000000000E+00  0.00000000000E+00 -0.25190714507E+04  0.25190714507E+04  0.50400001928E-02 0. -1.
    10030    2    1    2    0    0  0.00000000000E+00  0.00000000000E+00 -0.12017963894E+04  0.38363465120E+04  0.36432458054E+04 0.  0.
        3    1    3    3  502    0 -0.84896738799E+03 -0.20015524119E+03 -0.22848798856E+04  0.24457072287E+04  0.10100000352E+00 0. -1.
       -3    1    3    3    0  502  0.84896738799E+03  0.20015524119E+03  0.10830834962E+04  0.13906392834E+04  0.10100000352E+00 0.  1.
</event>
<event>
 5   0  0.1031659E-06  0.3523059E+04  0.7818609E-02  0.8108347E-01
        2   -1    0    0  501    0  0.00000000000E+00  0.00000000000E+00  0.24417358378E+04  0.24417358378E+04  0.25500000920E-02 0. -1.
       -2   -1    0    0    0  501  0.00000000000E+00  0.00000000000E+00 -0.12708118849E+04  0.12708118849E+04  0.25500000920E-02 0.  1.
    10030    2    1    2    0    0  0.00000000000E+00  0.00000000000E+00  0.11709239529E+04  0.37125477227E+04  0.35230594218E+04 0.  0.
        2    1    3    3  502    0  0.85874072695E+03 -0.14273789110E+04 -0.18183773192E+02  0.16658862030E+04  0.25500000920E-02 0. -1.
       -2    1    3    3    0  502 -0.85874072695E+03  0.14273789110E+04  0.11891077261E+04  0.20466615197E+04  0.25500000920E-02 0.  1.
</event>
<event>
 5   0  0.9538919E-07  0.3528090E+04  0.7818609E-02  0.8107165E-01
        2   -1    0    0  501    0  0.00000000000E+00  0.00000000000E+00  0.19779374119E+04  0.19779374119E+04  0.25500000920E-02 0. -1.
       -2   -1    0    0    0  501  0.00000000000E+00  0.00000000000E+00 -0.15732828998E+04  0.15732828998E+04  0.25500000920E-02 0.  1.
    10030    2    1    2    0    0  0.00000000000E+00  0.00000000000E+00  0.40465451203E+03  0.35512203117E+04  0.35280901956E+04 0.  0.
        4    1    3    3  502    0  0.12951202706E+04  0.69410746853E+03  0.11848062360E+04  0.18875616872E+04  0.12699999809E+01 0. -1.
       -4    1    3    3    0  502 -0.12951202706E+04 -0.69410746853E+03 -0.78015172400E+03  0.16636586244E+04  0.12699999809E+01 0.  1.
</event>
<event>
 5   0  0.9878336E-07  0.3589023E+04  0.7818609E-02  0.8093011E-01
        2   -1    0    0  501    0  0.00000000000E+00  0.00000000000E+00  0.18634040556E+04  0.18634040556E+04  0.25500000920E-02 0.  1.
       -2   -1    0    0    0  501  0.00000000000E+00  0.00000000000E+00 -0.17281662844E+04  0.17281662844E+04  0.25500000920E-02 0. -1.
    10030    2    1    2    0    0  0.00000000000E+00  0.00000000000E+00  0.13523777127E+03  0.35915703400E+04  0.35890233006E+04 0.  0.
        3    1    3    3  502    0  0.13587131990E+04  0.99254547344E+03 -0.55654161934E+03  0.17722828945E+04  0.10100000352E+00 0.  1.
       -3    1    3    3    0  502 -0.13587131990E+04 -0.99254547344E+03  0.69177939061E+03  0.18192874455E+04  0.10100000352E+00 0. -1.
</event>
<event>
 5   0  0.3159875E-07  0.3603987E+04  0.7818609E-02  0.8089579E-01
        1   -1    0    0  501    0  0.00000000000E+00  0.00000000000E+00  0.25075586829E+04  0.25075586829E+04  0.50400001928E-02 0. -1.
       -1   -1    0    0    0  501  0.00000000000E+00  0.00000000000E+00 -0.12949569482E+04  0.12949569482E+04  0.50400001928E-02 0.  1.
    10030    2    1    2    0    0  0.00000000000E+00  0.00000000000E+00  0.12126017347E+04  0.38025156311E+04  0.36039869808E+04 0.  0.
        5    1    3    3  502    0  0.15274718705E+04  0.83847411166E+03  0.10908935336E+04  0.20557918043E+04  0.46999998093E+01 0. -1.
       -5    1    3    3    0  502 -0.15274718705E+04 -0.83847411166E+03  0.12170820111E+03  0.17467238268E+04  0.46999998093E+01 0.  1.
</event>
<event>
 5   0  0.1031659E-06  0.3599192E+04  0.7818609E-02  0.8090677E-01
        2   -1    0    0  501    0  0.00000000000E+00  0.00000000000E+00  0.14457175174E+04  0.14457175174E+04  0.25500000920E-02 0. -1.
       -2   -1    0    0    0  501  0.00000000000E+00  0.00000000000E+00 -0.22400958087E+04  0.22400958087E+04  0.25500000920E-02 0.  1.
    10030    2    1    2    0    0  0.00000000000E+00  0.00000000000E+00 -0.79437829126E+03  0.36858133261E+04  0.35991919934E+04 0.  0.
        2    1    3    3  502    0  0.55439196694E+03  0.52446888835E+02 -0.21496439636E+04  0.22206013374E+04  0.25500000920E-02 0.  1.
       -2    1    3    3    0  502 -0.55439196694E+03 -0.52446888835E+02  0.13552656724E+04  0.14652119887E+04  0.25500000920E-02 0. -1.
</event>
<event>
 5   0  0.3159875E-07  0.3582412E+04  0.7818609E-02  0.8094532E-01
        3   -1    0    0  501    0  0.00000000000E+00  0.00000000000E+00  0.15888297853E+04  0.15888297885E+04  0.10100000352E+00 0. -1.
       -3   -1    0    0    0  501  0.00000000000E+00  0.00000000000E+00 -0.20193602880E+04  0.20193602905E+04  0.10100000352E+00 0.  1.
    10030    2    1    2    0    0  0.00000000000E+00  0.00000000000E+00 -0.43053050270E+03  0.36081900791E+04  0.35824124739E+04 0.  0.
        5    1    3    3  502    0  0.40768013622E+03 -0.46251675983E+03  0.14785828889E+04  0.16019844868E+04  0.46999998093E+01 0. -1.
       -5    1    3    3    0  502 -0.40768013622E+03  0.46251675983E+03 -0.19091133916E+04  0.20062055923E+04  0.46999998093E+01 0.  1.
</event>
<event>
 5   0  0.3278988E-07  0.3535174E+04  0.7818609E-02  0.8105504E-01
        1   -1    0    0  501    0  0.00000000000E+00  0.00000000000E+00  0.26088860094E+04  0.26088860095E+04  0.50400001928E-02 0. -1.
       -1   -1    0    0    0  501  0.00000000000E+00  0.00000000000E+00 -0.11975856551E+04  0.11975856551E+04  0.50400001928E-02 0.  1.
    10030    2    1    2    0    0  0.00000000000E+00  0.00000000000E+00  0.14113003544E+04  0.38064716645E+04  0.35351743723E+04 0.  0.
        4    1    3    3  502    0  0.61613479849E+03 -0.57933252445E+03  0.23768965949E+04  0.25228728267E+04  0.12699999809E+01 0. -1.
       -4    1    3    3    0  502 -0.61613479849E+03  0.57933252445E+03 -0.96559624057E+03  0.12835988378E+04  0.12699999809E+01 0.  1.
</event>
<event>
 5   0  0.1031659E-06  0.2817512E+04  0.7818609E-02  0.8297852E-01
       -2   -1    0    0    0  501  0.00000000000E+00  0.00000000000E+00  0.79311553858E+03  0.79311553859E+03  0.25500000920E-02 0.  1.
        2   -1    0    0  501    0  0.00000000000E+00  0.00000000000E+00 -0.25022756508E+04  0.25022756508E+04  0.25500000920E-02 0. -1.
    10030    2    1    2    0    0  0.00000000000E+00  0.00000000000E+00 -0.17091601122E+04  0.32953911893E+04  0.28175121653E+04 0.  0.
        2    1    3    3  502    0  0.25947165528E+03 -0.39970225339E+03 -0.24051437747E+04  0.24518980419E+04  0.25500000920E-02 0. -1.
       -2    1    3    3    0  502 -0.25947165528E+03  0.39970225339E+03  0.69598366249E+03  0.84349314740E+03  0.25500000920E-02 0.  1.
</event>
<event>
 5   0  0.3159875E-07  0.4025879E+04  0.7818609E-02  0.7999346E-01
        1   -1    0    0  501    0  0.00000000000E+00  0.00000000000E+00  0.17363777730E+04  0.17363777730E+04  0.50400001928E-02 0. -1.
       -1   -1    0    0    0  501  0.00000000000E+00  0.00000000000E+00 -0.23335507211E+04  0.23335507211E+04  0.50400001928E-02 0.  1.
    10030    2    1    2    0    0  0.00000000000E+00  0.00000000000E+00 -0.59717294814E+03  0.40699284941E+04  0.40258790862E+04 0.  0.
        5    1    3    3  502    0  0.94747169557E+03 -0.74788245733E+03 -0.19270726752E+04  0.22739089624E+04  0.46999998093E+01 0.  1.
       -5    1    3    3    0  502 -0.94747169557E+03  0.74788245733E+03  0.13298997271E+04  0.17960195316E+04  0.46999998093E+01 0. -1.
</event>
<event>
 5   0  0.3159875E-07  0.3569134E+04  0.7818609E-02  0.8097599E-01
        1   -1    0    0  501    0  0.00000000000E+00  0.00000000000E+00  0.26356922514E+04  0.26356922514E+04  0.50400001928E-02 0. -1.
       -1   -1    0    0    0  501  0.00000000000E+00  0.00000000000E+00 -0.12082893190E+04  0.12082893190E+04  0.50400001928E-02 0.  1.
    10030    2    1    2    0    0  0.00000000000E+00  0.00000000000E+00  0.14274029323E+04  0.38439815704E+04  0.35691336739E+04 0.  0.
        5    1    3    3  502    0  0.13237712527E+04 -0.10103354186E+04  0.22812903572E+02  0.16654400338E+04  0.46999998093E+01 0.  1.
       -5    1    3    3    0  502 -0.13237712527E+04  0.10103354186E+04  0.14045900288E+04  0.21785415366E+04  0.46999998093E+01 0. -1.
</event>
<event>
 5   0  0.3365378E-07  0.2978440E+04  0.7818609E-02  0.8249914E-01
       -1   -1    0    0    0  501  0.00000000000E+00  0.00000000000E+00  0.13781917061E+04  0.13781917061E+04  0.50400001928E-02 0.  1.
        1   -1    0    0  501    0  0.00000000000E+00  0.00000000000E+00 -0.16091932200E+04  0.16091932200E+04  0.50400001928E-02 0. -1.
    10030    2    1    2    0    0  0.00000000000E+00  0.00000000000E+00 -0.23100151394E+03  0.29873849261E+04  0.29784403632E+04 0.  0.
        3    1    3    3  502    0 -0.54623036227E+03 -0.50227272484E+03  0.11795511373E+04  0.13935517193E+04  0.10100000352E+00 0.  1.
       -3    1    3    3    0  502  0.54623036227E+03  0.50227272484E+03 -0.14105526512E+04  0.15938332067E+04  0.10100000352E+00 0. -1.
</event>
<event>
 5   0  0.3159875E-07  0.3570003E+04  0.7818609E-02  0.8097398E-01
       -1   -1    0    0    0  501  0.00000000000E+00  0.00000000000E+00  0.11857620635E+04  0.11857620635E+04  0.50400001928E-02 0.  1.
        1   -1    0    0  501    0  0.00000000000E+00  0.00000000000E+00 -0.26870736368E+04  0.26870736368E+04  0.50400001928E-02 0. -1.
    10030    2    1    2    0    0  0.00000000000E+00  0.00000000000E+00 -0.15013115733E+04  0.38728357003E+04  0.35700027901E+04 0.  0.
        2    1    3    3  502    0  0.50155789240E+03 -0.72971244325E+03 -0.24320290675E+04  0.25882051608E+04  0.25500000920E-02 0. -1.
       -2    1    3    3    0  502 -0.50155789240E+03  0.72971244325E+03  0.93071749415E+03  0.12846305396E+04  0.25500000920E-02 0.  1.
</event>
<event>
 5   0  0.9878977E-07  0.3514964E+04  0.7818609E-02  0.8110253E-01
       -2   -1    0    0    0  501  0.00000000000E+00  0.00000000000E+00  0.13253615809E+04  0.13253615809E+04  0.25500000920E-02 0. -1.
        2   -1    0    0  501    0  0.00000000000E+00  0.00000000000E+00 -0.23304914565E+04  0.23304914565E+04  0.25500000920E-02 0.  1.
    10030    2    1    2    0    0  0.00000000000E+00  0.00000000000E+00 -0.10051298756E+04  0.36558530374E+04  0.35149644897E+04 0.  0.
        5    1    3    3  502    0  0.14375745887E+04 -0.58300076889E+03 -0.13616322532E+04  0.20641160523E+04  0.46999998093E+01 0.  1.
       -5    1    3    3    0  502 -0.14375745887E+04  0.58300076889E+03  0.35650237755E+03  0.15917369851E+04  0.46999998093E+01 0. -1.
</event>
<event>
 5   0  0.3278988E-07  0.3539580E+04  0.7818609E-02  0.8104474E-01
       -1   -1    0    0    0  501  0.00000000000E+00  0.00000000000E+00  0.25362256541E+04  0.25362256541E+04  0.50400001928E-02 0.  1.
        1   -1    0    0  501    0  0.00000000000E+00  0.00000000000E+00 -0.12349673649E+04  0.12349673649E+04  0.50400001928E-02 0. -1.
    10030    2    1    2    0    0  0.00000000000E+00  0.00000000000E+00  0.13012582891E+04  0.37711930190E+04  0.35395795868E+04 0.  0.
        4    1    3    3  502    0 -0.12103940789E+04 -0.12658162343E+04  0.37939322550E+03  0.17920059703E+04  0.12699999809E+01 0. -1.
       -4    1    3    3    0  502  0.12103940789E+04  0.12658162343E+04  0.92186506363E+03  0.19791870487E+04  0.12699999809E+01 0.  1.
</event>
<event>
 5   0  0.3159875E-07  0.3703557E+04  0.7818609E-02  0.8067174E-01
       -1   -1    0    0    0  501  0.00000000000E+00  0.00000000000E+00  0.12747938453E+04  0.12747938453E+04  0.50400001928E-02 0.  1.
        1   -1    0    0  501    0  0.00000000000E+00  0.00000000000E+00 -0.26899125975E+04  0.26899125975E+04  0.50400001928E-02 0. -1.
    10030    2    1    2    0    0  0.00000000000E+00  0.00000000000E+00 -0.14151187521E+04  0.39647064428E+04  0.37035572218E+04 0.  0.
        5    1    3    3  502    0 -0.44098381211E+03 -0.13083669862E+04  0.61346028675E+03  0.15108429788E+04  0.46999998093E+01 0.  1.
       -5    1    3    3    0  502  0.44098381211E+03  0.13083669862E+04 -0.20285790389E+04  0.24538634640E+04  0.46999998093E+01 0. -1.
</event>
<event>
 5   0  0.1031659E-06  0.3613050E+04  0.7818609E-02  0.8087509E-01
       -2   -1    0    0    0  501  0.00000000000E+00  0.00000000000E+00  0.15160004369E+04  0.15160004369E+04  0.25500000920E-02 0. -1.
        2   -1    0    0  501    0  0.00000000000E+00  0.00000000000E+00 -0.21527255275E+04  0.21527255275E+04  0.25500000920E-02 0.  1.
    10030    2    1    2    0    0  0.00000000000E+00  0.00000000000E+00 -0.63672509052E+03  0.36687259644E+04  0.36130501465E+04 0.  0.
        2    1    3    3  502    0  0.24008412589E+03 -0.13321865155E+04  0.89638807584E+03  0.16235371515E+04  0.25500000920E-02 0. -1.
       -2    1    3    3    0  502 -0.24008412589E+03  0.13321865155E+04 -0.15331131664E+04  0.20451888129E+04  0.25500000920E-02 0.  1.
</event>
<event>
 5   0  0.3159875E-07  0.3558840E+04  0.7818609E-02  0.8099986E-01
        1   -1    0    0  501    0  0.00000000000E+00  0.00000000000E+00  0.10024809298E+04  0.10024809298E+04  0.50400001928E-02 0. -1.
       -1   -1    0    0    0  501  0.00000000000E+00  0.00000000000E+00 -0.31584992188E+04  0.31584992188E+04  0.50400001928E-02 0.  1.
    10030    2    1    2    0    0  0.00000000000E+00  0.00000000000E+00 -0.21560182889E+04  0.41609801486E+04  0.35588398299E+04 0.  0.
        2    1    3    3  502    0 -0.15833919398E+03  0.10792123041E+04  0.56576718696E+03  0.12287648300E+04  0.25500000920E-02 0. -1.
       -2    1    3    3    0  502  0.15833919398E+03 -0.10792123041E+04 -0.27217854759E+04  0.29322153186E+04  0.25500000920E-02 0.  1.
</event>
<event>
 5   0  0.9878977E-07  0.3642277E+04  0.7818609E-02  0.8080876E-01
       -2   -1    0    0    0  501  0.00000000000E+00  0.00000000000E+00  0.20949631643E+04  0.20949631643E+04  0.25500000920E-02 0. -1.
        2   -1    0    0  501    0  0.00000000000E+00  0.00000000000E+00 -0.15831048117E+04  0.15831048117E+04  0.25500000920E-02 0.  1.
    10030    2    1    2    0    0  0.00000000000E+00  0.00000000000E+00  0.51185835260E+03  0.36780679760E+04  0.36422774555E+04 0.  0.
        5    1    3    3  502    0 -0.21914250360E+03 -0.12208763621E+04  0.16024340197E+04  0.20264203429E+04  0.46999998093E+01 0. -1.
       -5    1    3    3    0  502  0.21914250360E+03  0.12208763621E+04 -0.10905756672E+04  0.16516476332E+04  0.46999998093E+01 0.  1.
</event>
<event>
 5   0  0.3242047E-07  0.3608266E+04  0.7818609E-02  0.8088601E-01
        1   -1    0    0  501    0  0.00000000000E+00  0.00000000000E+00  0.10856668931E+04  0.10856668931E+04  0.50400001928E-02 0.  1.
       -1   -1    0    0    0  501  0.00000000000E+00  0.00000000000E+00 -0.29980612697E+04  0.29980612697E+04  0.50400001928E-02 0. -1.
    10030    2    1    2    0    0  0.00000000000E+00  0.00000000000E+00 -0.19123943766E+04  0.40837281628E+04  0.36082659902E+04 0.  0.
        1    1    3    3  502    0 -0.12342027790E+04 -0.88662708051E+03  0.14431877487E+03  0.15264966389E+04  0.50400001928E-02 0.  1.
       -1    1    3    3    0  502  0.12342027790E+04  0.88662708051E+03 -0.20567131515E+04  0.25572315240E+04  0.50400001928E-02 0. -1.
</event>
<event>
 5   0  0.9878336E-07  0.3643787E+04  0.7818609E-02  0.8080535E-01
        2   -1    0    0  501    0  0.00000000000E+00  0.00000000000E+00  0.32207063148E+04  0.32207063148E+04  0.25500000920E-02 0.  1.
       -2   -1    0    0    0  501  0.00000000000E+00  0.00000000000E+00 -0.10306113080E+04  0.10306113080E+04  0.25500000920E-02 0. -1.
    10030    2    1    2    0    0  0.00000000000E+00  0.00000000000E+00  0.21900950067E+04  0.42513176228E+04  0.36437872319E+04 0.  0.
        3    1    3    3  502    0 -0.12021031862E+04  0.91467541872E+03 -0.93422640070E+02  0.15134103845E+04  0.10100000352E+00 0. -1.
       -3    1    3    3    0  502  0.12021031862E+04 -0.91467541872E+03  0.22835176468E+04  0.27379072383E+04  0.10100000352E+00 0.  1.
</event>
<event>
 5   0  0.9878977E-07  0.3620857E+04  0.7818609E-02  0.8085731E-01
       -2   -1    0    0    0  501  0.00000000000E+00  0.00000000000E+00  0.15902182264E+04  0.15902182264E+04  0.25500000920E-02 0. -1.
        2   -1    0    0  501    0  0.00000000000E+00  0.00000000000E+00 -0.20611331100E+04  0.20611331100E+04  0.25500000920E-02 0.  1.
    10030    2    1    2    0    0  0.00000000000E+00  0.00000000000E+00 -0.47091488363E+03  0.36513513364E+04  0.36208570469E+04 0.  0.
        5    1    3    3  502    0  0.13946990472E+04  0.10793193397E+04 -0.64818872054E+03  0.18789056327E+04  0.46999998093E+01 0.  1.
       -5    1    3    3    0  502 -0.13946990472E+04 -0.10793193397E+04  0.17727383691E+03  0.17724457037E+04  0.46999998093E+01 0. -1.
</event>
<event>
 5   0  0.3242047E-07  0.3572097E+04  0.7818609E-02  0.8096913E-01
       -1   -1    0    0    0  501  0.00000000000E+00  0.00000000000E+00  0.33547348436E+04  0.33547348436E+04  0.50400001928E-02 0. -1.
        1   -1    0    0  501    0  0.00000000000E+00  0.00000000000E+00 -0.95088555949E+03  0.95088555950E+03  0.50400001928E-02 0.  1.
    10030    2    1    2    0    0  0.00000000000E+00  0.00000000000E+00  0.24038492841E+04  0.43056204031E+04  0.35720968177E+04 0.  0.
        1    1    3    3  502    0 -0.18459565185E+03  0.55426194321E+03 -0.83246852533E+03  0.10169983786E+04  0.50400001928E-02 0.  1.
       -1    1    3    3    0  502  0.18459565185E+03 -0.55426194321E+03  0.32363178095E+04  0.32886220245E+04  0.50400001928E-02 0. -1.
</event>
<event>
 5   0  0.1031659E-06  0.3580010E+04  0.7818609E-02  0.8095086E-01
        2   -1    0    0  501    0  0.00000000000E+00  0.00000000000E+00  0.19662504327E+04  0.19662504327E+04  0.25500000920E-02 0.  1.
       -2   -1    0    0    0  501  0.00000000000E+00  0.00000000000E+00 -0.16295577492E+04  0.16295577492E+04  0.25500000920E-02 0. -1.
    10030    2    1    2    0    0  0.00000000000E+00  0.00000000000E+00  0.33669268353E+03  0.35958081819E+04  0.35800104075E+04 0.  0.
        2    1    3    3  502    0  0.10807864135E+04 -0.32439677366E+03 -0.12273126177E+04  0.16672218808E+04  0.25500000920E-02 0. -1.
       -2    1    3    3    0  502 -0.10807864135E+04  0.32439677366E+03  0.15640053012E+04  0.19285863010E+04  0.25500000920E-02 0.  1.
</event>
<event>
 5   0  0.9878977E-07  0.3661500E+04  0.7818609E-02  0.8076548E-01
        2   -1    0    0  501    0  0.00000000000E+00  0.00000000000E+00  0.15335145524E+04  0.15335145524E+04  0.25500000920E-02 0.  1.
       -2   -1    0    0    0  501  0.00000000000E+00  0.00000000000E+00 -0.21855975154E+04  0.21855975154E+04  0.25500000920E-02 0. -1.
    10030    2    1    2    0    0  0.00000000000E+00  0.00000000000E+00 -0.65208296308E+03  0.37191120678E+04  0.36615000181E+04 0.  0.
        5    1    3    3  502    0  0.87343223600E+03  0.34721988678E+03 -0.19218047407E+04  0.21393459449E+04  0.46999998093E+01 0. -1.
       -5    1    3    3    0  502 -0.87343223600E+03 -0.34721988678E+03  0.12697217776E+04  0.15797661229E+04  0.46999998093E+01 0.  1.
</event>
<event>
 5   0  0.3159875E-07  0.3538457E+04  0.7818609E-02  0.8104736E-01
       -1   -1    0    0    0  501  0.00000000000E+00  0.00000000000E+00  0.22456082733E+04  0.22456082733E+04  0.50400001928E-02 0.  1.
        1   -1    0    0  501    0  0.00000000000E+00  0.00000000000E+00 -0.13939069639E+04  0.13939069639E+04  0.50400001928E-02 0. -1.
    10030    2    1    2    0    0  0.00000000000E+00  0.00000000000E+00  0.85170130935E+03  0.36395152372E+04  0.35384567316E+04 0.  0.
        2    1    3    3  502    0 -0.14722277613E+04 -0.97049025411E+03  0.27728479204E+03  0.17849909721E+04  0.25500000920E-02 0. -1.
       -2    1    3    3    0  502  0.14722277613E+04  0.97049025411E+03  0.57441651731E+03  0.18545242651E+04  0.25500000920E-02 0.  1.
</event>
<event>
 5   0  0.9878977E-07  0.3694777E+04  0.7818609E-02  0.8069120E-01
        2   -1    0    0  501    0  0.00000000000E+00  0.00000000000E+00  0.24195481141E+04  0.24195481141E+04  0.25500000920E-02 0.  1.
       -2   -1    0    0    0  501  0.00000000000E+00  0.00000000000E+00 -0.14105299864E+04  0.14105299864E+04  0.25500000920E-02 0. -1.
    10030    2    1    2    0    0  0.00000000000E+00  0.00000000000E+00  0.10090181277E+04  0.38300781006E+04  0.36947774865E+04 0.  0.
        5    1    3    3  502    0  0.27610510565E+03  0.11979971850E+04 -0.92489544894E+03  0.15384683832E+04  0.46999998093E+01 0. -1.
       -5    1    3    3    0  502 -0.27610510565E+03 -0.11979971850E+04  0.19339135766E+04  0.22916097173E+04  0.46999998093E+01 0.  1.
</event>
<event>
 5   0  0.3278988E-07  0.3485903E+04  0.7818609E-02  0.8117139E-01
        1   -1    0    0  501    0  0.00000000000E+00  0.00000000000E+00  0.16869363882E+04  0.16869363882E+04  0.50400001928E-02 0. -1.
       -1   -1    0    0    0  501  0.00000000000E+00  0.00000000000E+00 -0.18008268739E+04  0.18008268739E+04  0.50400001928E-02 0.  1.
    10030    2    1    2    0    0  0.00000000000E+00  0.00000000000E+00 -0.11389048564E+03  0.34877632621E+04  0.34859032588E+04 0.  0.
        4    1    3    3  502    0  0.86933047148E+03 -0.59145974907E+03 -0.14477656137E+04  0.17892979038E+04  0.12699999809E+01 0.  1.
       -4    1    3    3    0  502 -0.86933047148E+03  0.59145974907E+03  0.13338751280E+04  0.16984653583E+04  0.12699999809E+01 0. -1.
</event>
<event>
 5   0  0.3159875E-07  0.3696361E+04  0.7818609E-02  0.8068769E-01
       -1   -1    0    0    0  501  0.00000000000E+00  0.00000000000E+00  0.28008332333E+04  0.28008332333E+04  0.50400001928E-02 0.  1.
        1   -1    0    0  501    0  0.00000000000E+00  0.00000000000E+00 -0.12195552920E+04  0.12195552920E+04  0.50400001928E-02 0. -1.
    10030    2    1    2    0    0  0.00000000000E+00  0.00000000000E+00  0.15812779413E+04  0.40203885253E+04  0.36963609086E+04 0.  0.
        5    1    3    3  502    0 -0.12546617206E+04 -0.11924464203E+04  0.14952255616E+04  0.22873185323E+04  0.46999998093E+01 0. -1.
       -5    1    3    3    0  502  0.12546617206E+04  0.11924464203E+04  0.86052379787E+02  0.17330699930E+04  0.46999998093E+01 0.  1.
</event>
<event>
 5   0  0.3159875E-07  0.3650859E+04  0.7818609E-02  0.8078940E-01
        1   -1    0    0  501    0  0.00000000000E+00  0.00000000000E+00  0.14935013058E+04  0.14935013058E+04  0.50400001928E-02 0.  1.
       -1   -1    0    0    0  501  0.00000000000E+00  0.00000000000E+00 -0.22311278772E+04  0.22311278772E+04  0.50400001928E-02 0. -1.
    10030    2    1    2    0    0  0.00000000000E+00  0.00000000000E+00 -0.73762657141E+03  0.37246291830E+04  0.36508587472E+04 0.  0.
        5    1    3    3  502    0 -0.86490149275E+03 -0.81620179483E+02 -0.20066984961E+04  0.21866818218E+04  0.46999998093E+01 0. -1.
       -5    1    3    3    0  502  0.86490149275E+03  0.81620179483E+02  0.12690719247E+04  0.15379473612E+04  0.46999998093E+01 0.  1.
</event>
<event>
 5   0  0.9878336E-07  0.3702903E+04  0.7818609E-02  0.8067319E-01
       -2   -1    0    0    0  501  0.00000000000E+00  0.00000000000E+00  0.14233185918E+04  0.14233185918E+04  0.25500000920E-02 0.  1.
        2   -1    0    0  501    0  0.00000000000E+00  0.00000000000E+00 -0.24083669507E+04  0.24083669507E+04  0.25500000920E-02 0. -1.
    10030    2    1    2    0    0  0.00000000000E+00  0.00000000000E+00 -0.98504835883E+03  0.38316855425E+04  0.37029034321E+04 0.  0.
        3    1    3    3  502    0 -0.28713796156E+03  0.60409811656E+03  0.12939278542E+04  0.14565823167E+04  0.10100000352E+00 0.  1.
       -3    1    3    3    0  502  0.28713796156E+03 -0.60409811656E+03 -0.22789762130E+04  0.23751032258E+04  0.10100000352E+00 0. -1.
</event>
<event>
 5   0  0.3159875E-07  0.3049508E+04  0.7818609E-02  0.8229733E-01
       -1   -1    0    0    0  501  0.00000000000E+00  0.00000000000E+00  0.12165041404E+04  0.12165041405E+04  0.50400001928E-02 0. -1.
        1   -1    0    0  501    0  0.00000000000E+00  0.00000000000E+00 -0.19111107236E+04  0.19111107236E+04  0.50400001928E-02 0.  1.
    10030    2    1    2    0    0  0.00000000000E+00  0.00000000000E+00 -0.69460658320E+03  0.31276148641E+04  0.30495075722E+04 0.  0.
        5    1    3    3  502    0  0.93205212222E+03 -0.91502340806E+03 -0.11541310276E+04  0.17429944104E+04  0.46999998093E+01 0.  1.
       -5    1    3    3    0  502 -0.93205212222E+03  0.91502340806E+03  0.45952444439E+03  0.13846204537E+04  0.46999998093E+01 0. -1.
</event>
<event>
 5   0  0.3159875E-07  0.3643446E+04  0.7818609E-02  0.8080612E-01
       -1   -1    0    0    0  501  0.00000000000E+00  0.00000000000E+00  0.17844800602E+04  0.17844800602E+04  0.50400001928E-02 0. -1.
        1   -1    0    0  501    0  0.00000000000E+00  0.00000000000E+00 -0.18597433414E+04  0.18597433414E+04  0.50400001928E-02 0.  1.
    10030    2    1    2    0    0  0.00000000000E+00  0.00000000000E+00 -0.75263281153E+02  0.36442234016E+04  0.36434461213E+04 0.  0.
        5    1    3    3  502    0  0.89020582947E+03  0.15504449698E+04  0.31216685465E+03  0.18148873955E+04  0.46999998093E+01 0. -1.
       -5    1    3    3    0  502 -0.89020582947E+03 -0.15504449698E+04 -0.38743013580E+03  0.18293360061E+04  0.46999998093E+01 0.  1.
</event>
<event>
 5   0  0.9878336E-07  0.3507995E+04  0.7818609E-02  0.8111898E-01
        2   -1    0    0  501    0  0.00000000000E+00  0.00000000000E+00  0.22989545357E+04  0.22989545357E+04  0.25500000920E-02 0.  1.
       -2   -1    0    0    0  501  0.00000000000E+00  0.00000000000E+00 -0.13382197762E+04  0.13382197762E+04  0.25500000920E-02 0. -1.
    10030    2    1    2    0    0  0.00000000000E+00  0.00000000000E+00  0.96073475944E+03  0.36371743119E+04  0.35079945406E+04 0.  0.
        3    1    3    3  502    0  0.16632884026E+04  0.52688381899E+03  0.29382095849E+03  0.17693121925E+04  0.10100000352E+00 0. -1.
       -3    1    3    3    0  502 -0.16632884026E+04 -0.52688381899E+03  0.66691380095E+03  0.18678621194E+04  0.10100000352E+00 0.  1.
</event>
<event>
 5   0  0.1006019E-06  0.3656628E+04  0.7818609E-02  0.8077642E-01
        2   -1    0    0  501    0  0.00000000000E+00  0.00000000000E+00  0.17571468760E+04  0.17571468760E+04  0.25500000920E-02 0.  1.
       -2   -1    0    0    0  501  0.00000000000E+00  0.00000000000E+00 -0.19023635029E+04  0.19023635029E+04  0.25500000920E-02 0. -1.
    10030    2    1    2    0    0  0.00000000000E+00  0.00000000000E+00 -0.14521662689E+03  0.36595103788E+04  0.36566280019E+04 0.  0.
        1    1    3    3  502    0 -0.38935479417E+03 -0.11517454453E+04 -0.14391946181E+04  0.18839840433E+04  0.50400001928E-02 0. -1.
       -1    1    3    3    0  502  0.38935479417E+03  0.11517454453E+04  0.12939779913E+04  0.17755263356E+04  0.50400001928E-02 0.  1.
</event>
<event>
 5   0  0.9538919E-07  0.3594025E+04  0.7818609E-02  0.8091862E-01
        2   -1    0    0  501    0  0.00000000000E+00  0.00000000000E+00  0.30802066406E+04  0.30802066406E+04  0.25500000920E-02 0. -1.
       -2   -1    0    0    0  501  0.00000000000E+00  0.00000000000E+00 -0.10483886701E+04  0.10483886701E+04  0.25500000920E-02 0.  1.
    10030    2    1    2    0    0  0.00000000000E+00  0.00000000000E+00  0.20318179706E+04  0.41285953107E+04  0.35940248990E+04 0.  0.
        4    1    3    3  502    0  0.16735894248E+03 -0.30165353060E+02  0.30709421243E+04  0.30756472665E+04  0.12699999809E+01 0. -1.
       -4    1    3    3    0  502 -0.16735894248E+03  0.30165353060E+02 -0.10391241537E+04  0.10529480443E+04  0.12699999809E+01 0.  1.
</event>
<event>
 5   0  0.3159875E-07  0.3471910E+04  0.7818609E-02  0.8120479E-01
        1   -1    0    0  501    0  0.00000000000E+00  0.00000000000E+00  0.28644394545E+04  0.28644394545E+04  0.50400001928E-02 0. -1.
       -1   -1    0    0    0  501  0.00000000000E+00  0.00000000000E+00 -0.10520521801E+04  0.10520521801E+04  0.50400001928E-02 0.  1.
    10030    2    1    2    0    0  0.00000000000E+00  0.00000000000E+00  0.18123872744E+04  0.39164916346E+04  0.34719100062E+04 0.  0.
        2    1    3    3  502    0  0.63575828976E+03  0.33018343315E+03  0.26899166513E+04  0.27836776561E+04  0.25500000920E-02 0. -1.
       -2    1    3    3    0  502 -0.63575828976E+03 -0.33018343315E+03 -0.87752937685E+03  0.11328139784E+04  0.25500000920E-02 0.  1.
</event>
<event>
 5   0  0.9878977E-07  0.3613798E+04  0.7818609E-02  0.8087338E-01
       -2   -1    0    0    0  501  0.00000000000E+00  0.00000000000E+00  0.15431410183E+04  0.15431410183E+04  0.25500000920E-02 0.  1.
        2   -1    0    0  501    0  0.00000000000E+00  0.00000000000E+00 -0.21157389486E+04  0.21157389486E+04  0.25500000920E-02 0. -1.
    10030    2    1    2    0    0  0.00000000000E+00  0.00000000000E+00 -0.57259793026E+03  0.36588799669E+04  0.36137977562E+04 0.  0.
        5    1    3    3  502    0 -0.15881887166E+04 -0.61984261218E+03 -0.89235910751E+03  0.19242856155E+04  0.46999998093E+01 0. -1.
       -5    1    3    3    0  502  0.15881887166E+04  0.61984261218E+03  0.31976117725E+03  0.17345943514E+04  0.46999998093E+01 0.  1.
</event>
<event>
 5   0  0.3278988E-07  0.2707071E+04  0.7818609E-02  0.8332714E-01
       -1   -1    0    0    0  501  0.00000000000E+00  0.00000000000E+00  0.86572752562E+03  0.86572752564E+03  0.50400001928E-02 0.  1.
        1   -1    0    0  501    0  0.00000000000E+00  0.00000000000E+00 -0.21162061827E+04  0.21162061827E+04  0.50400001928E-02 0. -1.
    10030    2    1    2    0    0  0.00000000000E+00  0.00000000000E+00 -0.12504786571E+04  0.29819337084E+04  0.27070706990E+04 0.  0.
        4    1    3    3  502    0  0.77368324757E+03 -0.70970674816E+02  0.59564424838E+03  0.97898737876E+03  0.12699999809E+01 0.  1.
       -4    1    3    3    0  502 -0.77368324757E+03  0.70970674816E+02 -0.18461229055E+04  0.20029463296E+04  0.12699999809E+01 0. -1.
</event>
<event>
 5   0  0.1006019E-06  0.3237106E+04  0.7818609E-02  0.8179086E-01
       -2   -1    0    0    0  501  0.00000000000E+00  0.00000000000E+00  0.11788088643E+04  0.11788088644E+04  0.25500000920E-02 0.  1.
        2   -1    0    0  501    0  0.00000000000E+00  0.00000000000E+00 -0.22223392694E+04  0.22223392694E+04  0.25500000920E-02 0. -1.
    10030    2    1    2    0    0  0.00000000000E+00  0.00000000000E+00 -0.10435304050E+04  0.34011481337E+04  0.32371056395E+04 0.  0.
        1    1    3    3  502    0 -0.63444230391E+03  0.44642696848E+03 -0.20142791714E+04  0.21585028736E+04  0.50400001928E-02 0. -1.
       -1    1    3    3    0  502  0.63444230391E+03 -0.44642696848E+03  0.97074876633E+03  0.12426452601E+04  0.50400001928E-02 0.  1.
</event>
<event>
 5   0  0.9878977E-07  0.3630465E+04  0.7818609E-02  0.8083549E-01
        2   -1    0    0  501    0  0.00000000000E+00  0.00000000000E+00  0.97128384281E+03  0.97128384282E+03  0.25500000920E-02 0.  1.
       -2   -1    0    0    0  501  0.00000000000E+00  0.00000000000E+00 -0.33924880463E+04  0.33924880463E+04  0.25500000920E-02 0. -1.
    10030    2    1    2    0    0  0.00000000000E+00  0.00000000000E+00 -0.24212042035E+04  0.43637718891E+04  0.36304648883E+04 0.  0.
        5    1    3    3  502    0  0.45691804402E+03 -0.87578590300E+03 -0.30411268836E+04  0.31975380935E+04  0.46999998093E+01 0. -1.
       -5    1    3    3    0  502 -0.45691804402E+03  0.87578590300E+03  0.61992268012E+03  0.11662337957E+04  0.46999998093E+01 0.  1.
</event>
<event>
 5   0  0.1031659E-06  0.3517315E+04  0.7818609E-02  0.8109699E-01
       -2   -1    0    0    0  501  0.00000000000E+00  0.00000000000E+00  0.15362808214E+04  0.15362808214E+04  0.25500000920E-02 0.  1.
        2   -1    0    0  501    0  0.00000000000E+00  0.00000000000E+00 -0.20132237420E+04  0.20132237420E+04  0.25500000920E-02 0. -1.
    10030    2    1    2    0    0  0.00000000000E+00  0.00000000000E+00 -0.47694292062E+03  0.35495045634E+04  0.35173154673E+04 0.  0.
        2    1    3    3  502    0 -0.55998202986E+03 -0.52002701959E+02 -0.19200320448E+04  0.20007016789E+04  0.25500000920E-02 0. -1.
       -2    1    3    3    0  502  0.55998202986E+03  0.52002701959E+02  0.14430891242E+04  0.15488028845E+04  0.25500000920E-02 0.  1.
</event>
<event>
 5   0  0.3242047E-07  0.3561705E+04  0.7818609E-02  0.8099320E-01
        1   -1    0    0  501    0  0.00000000000E+00  0.00000000000E+00  0.24769649802E+04  0.24769649802E+04  0.50400001928E-02 0. -1.
       -1   -1    0    0    0  501  0.00000000000E+00  0.00000000000E+00 -0.12803717475E+04  0.12803717475E+04  0.50400001928E-02 0.  1.
    10030    2    1    2    0    0  0.00000000000E+00  0.00000000000E+00  0.11965932327E+04  0.37573367277E+04  0.35617051985E+04 0.  0.
        1    1    3    3  502    0  0.51421000152E+03 -0.71109603306E+03  0.22330467074E+04  0.23992847041E+04  0.50400001928E-02 0. -1.
       -1    1    3    3    0  502 -0.51421000152E+03  0.71109603306E+03 -0.10364534746E+04  0.13580520237E+04  0.50400001928E-02 0.  1.
</event>
<event>
 5   0  0.3278988E-07  0.3543394E+04  0.7818609E-02  0.8103582E-01
        1   -1    0    0  501    0  0.00000000000E+00  0.00000000000E+00  0.18175789672E+04  0.18175789672E+04  0.50400001928E-02 0.  1.
       -1   -1    0    0    0  501  0.00000000000E+00  0.00000000000E+00 -0.17269734954E+04  0.17269734954E+04  0.50400001928E-02 0. -1.
    10030    2    1    2    0    0  0.00000000000E+00  0.00000000000E+00  0.90605471745E+02  0.35445524626E+04  0.35433942496E+04 0.  0.
        4    1    3    3  502    0  0.10397289525E+02 -0.76734853454E+03  0.16426895028E+04  0.18131084613E+04  0.12699999809E+01 0.  1.
       -4    1    3    3    0  502 -0.10397289525E+02  0.76734853454E+03 -0.15520840310E+04  0.17314440012E+04  0.12699999809E+01 0. -1.
</event>
<event>
 5   0  0.1031659E-06  0.3676961E+04  0.7818609E-02  0.8073087E-01
       -2   -1    0    0    0  501  0.00000000000E+00  0.00000000000E+00  0.11693274958E+04  0.11693274958E+04  0.25500000920E-02 0.  1.
        2   -1    0    0  501    0  0.00000000000E+00  0.00000000000E+00 -0.28905594937E+04  0.28905594937E+04  0.25500000920E-02 0. -1.
    10030    2    1    2    0    0  0.00000000000E+00  0.00000000000E+00 -0.17212319979E+04  0.40598869895E+04  0.36769610791E+04 0.  0.
        2    1    3    3  502    0  0.14757013583E+04 -0.10085860203E+04 -0.38561619007E+03  0.18285623055E+04  0.25500000920E-02 0. -1.
       -2    1    3    3    0  502 -0.14757013583E+04  0.10085860203E+04 -0.13356158079E+04  0.22313246840E+04  0.25500000920E-02 0.  1.
</event>
<event>
 5   0  0.9878977E-07  0.3579380E+04  0.7818609E-02  0.8095231E-01
       -2   -1    0    0    0  501  0.00000000000E+00  0.00000000000E+00  0.16990594014E+04  0.16990594014E+04  0.25500000920E-02 0.  1.
        2   -1    0    0  501    0  0.00000000000E+00  0.00000000000E+00 -0.18851553338E+04  0.18851553338E+04  0.25500000920E-02 0. -1.
    10030    2    1    2    0    0  0.00000000000E+00  0.00000000000E+00 -0.18609593245E+03  0.35842147352E+04  0.35793803335E+04 0.  0.
        5    1    3    3  502    0 -0.13814418895E+03 -0.51588443855E+03  0.16174008415E+04  0.17032991936E+04  0.46999998093E+01 0.  1.
       -5    1    3    3    0  502  0.13814418895E+03  0.51588443855E+03 -0.18034967740E+04  0.18809155416E+04  0.46999998093E+01 0. -1.
</event>
<event>
 5   0  0.3242047E-07  0.3620729E+04  0.7818609E-02  0.8085760E-01
        1   -1    0    0  501    0  0.00000000000E+00  0.00000000000E+00  0.16034646854E+04  0.16034646854E+04  0.50400001928E-02 0. -1.
       -1   -1    0    0    0  501  0.00000000000E+00  0.00000000000E+00 -0.20439616145E+04  0.20439616145E+04  0.50400001928E-02 0.  1.
    10030    2    1    2    0    0  0.00000000000E+00  0.00000000000E+00 -0.44049692908E+03  0.36474263000E+04  0.36207293560E+04 0.  0.
        1    1    3    3  502    0 -0.13628712243E+04 -0.11729091467E+04 -0.82533841412E+01  0.17981106637E+04  0.50400001928E-02 0.  1.
       -1    1    3    3    0  502  0.13628712243E+04  0.11729091467E+04 -0.43224354494E+03  0.18493156363E+04  0.50400001928E-02 0. -1.
</event>
<event>
 5   0  0.3159875E-07  0.3199864E+04  0.7818609E-02  0.8188853E-01
        1   -1    0    0  501    0  0.00000000000E+00  0.00000000000E+00  0.18158143964E+04  0.18158143964E+04  0.50400001928E-02 0. -1.
       -1   -1    0    0    0  501  0.00000000000E+00  0.00000000000E+00 -0.14097156670E+04  0.14097156670E+04  0.50400001928E-02 0.  1.
    10030    2    1    2    0    0  0.00000000000E+00  0.00000000000E+00  0.40609872933E+03  0.32255300634E+04  0.31998637490E+04 0.  0.
        2    1    3    3  502    0 -0.90395289057E+03 -0.90087366900E+03  0.11757128117E+04  0.17352247150E+04  0.25500000920E-02 0. -1.
       -2    1    3    3    0  502  0.90395289057E+03  0.90087366900E+03 -0.76961408233E+03  0.14903053484E+04  0.25500000920E-02 0.  1.
</event>
<event>
 5   0  0.9538919E-07  0.3642322E+04  0.7818609E-02  0.8080866E-01
       -2   -1    0    0    0  501  0.00000000000E+00  0.00000000000E+00  0.14203846572E+04  0.14203846572E+04  0.25500000920E-02 0. -1.
        2   -1    0    0  501    0  0.00000000000E+00  0.00000000000E+00 -0.23350202703E+04  0.23350202703E+04  0.25500000920E-02 0.  1.
    10030    2    1    2    0    0  0.00000000000E+00  0.00000000000E+00 -0.91463561306E+03  0.37554049276E+04  0.36423217685E+04 0.  0.
        4    1    3    3  502    0 -0.16451887171E+04  0.61658682134E+02 -0.12600643063E+04  0.20732128152E+04  0.12699999809E+01 0.  1.
       -4    1    3    3    0  502  0.16451887171E+04 -0.61658682134E+02  0.34542869322E+03  0.16821921124E+04  0.12699999809E+01 0. -1.
</event>
<event>
 5   0  0.3159875E-07  0.3585824E+04  0.7818609E-02  0.8093747E-01
        3   -1    0    0  501    0  0.00000000000E+00  0.00000000000E+00  0.15486428289E+04  0.15486428322E+04  0.10100000352E+00 0. -1.
       -3   -1    0    0    0  501  0.00000000000E+00  0.00000000000E+00 -0.20757095424E+04  0.20757095449E+04  0.10100000352E+00 0.  1.
    10030    2    1    2    0    0  0.00000000000E+00  0.00000000000E+00 -0.52706671352E+03  0.36243523771E+04  0.35858235920E+04 0.  0.
        1    1    3    3  502    0 -0.10816614589E+04  0.75348774140E+02 -0.17067635240E+04  0.20220560518E+04  0.50400001928E-02 0.  1.
       -1    1    3    3    0  502  0.10816614589E+04 -0.75348774140E+02  0.11796968105E+04  0.16022963254E+04  0.50400001928E-02 0. -1.
</event>
<event>
 5   0  0.9538919E-07  0.3641347E+04  0.7818609E-02  0.8081086E-01
       -2   -1    0    0    0  501  0.00000000000E+00  0.00000000000E+00  0.20466058335E+04  0.20466058335E+04  0.25500000920E-02 0. -1.
        2   -1    0    0  501    0  0.00000000000E+00  0.00000000000E+00 -0.16196822601E+04  0.16196822601E+04  0.25500000920E-02 0.  1.
    10030    2    1    2    0    0  0.00000000000E+00  0.00000000000E+00  0.42692357333E+03  0.36662880936E+04  0.36413465432E+04 0.  0.
        4    1    3    3  502    0 -0.22554318448E+03 -0.54396435494E+03 -0.15211510970E+04  0.16311557928E+04  0.12699999809E+01 0.  1.
       -4    1    3    3    0  502  0.22554318448E+03  0.54396435494E+03  0.19480746704E+04  0.20351323008E+04  0.12699999809E+01 0. -1.
</event>
<event>
 5   0  0.9538919E-07  0.3547640E+04  0.7818609E-02  0.8102592E-01
       -2   -1    0    0    0  501  0.00000000000E+00  0.00000000000E+00  0.98916841016E+03  0.98916841016E+03  0.25500000920E-02 0.  1.
        2   -1    0    0  501    0  0.00000000000E+00  0.00000000000E+00 -0.31808917651E+04  0.31808917651E+04  0.25500000920E-02 0. -1.
    10030    2    1    2    0    0  0.00000000000E+00  0.00000000000E+00 -0.21917233549E+04  0.41700601753E+04  0.35476401453E+04 0.  0.
        4    1    3    3  502    0 -0.13973117385E+04 -0.49628265887E+03  0.48409380897E+02  0.14836177584E+04  0.12699999809E+01 0.  1.
       -4    1    3    3    0  502  0.13973117385E+04  0.49628265887E+03 -0.22401327358E+04  0.26864424168E+04  0.12699999809E+01 0. -1.
</event>
<event>
 5   0  0.9878336E-07  0.3638433E+04  0.7818609E-02  0.8081744E-01
        2   -1    0    0  501    0  0.00000000000E+00  0.00000000000E+00  0.14018325116E+04  0.14018325116E+04  0.25500000920E-02 0.  1.
       -2   -1    0    0    0  501  0.00000000000E+00  0.00000000000E+00 -0.23608735175E+04  0.23608735175E+04  0.25500000920E-02 0. -1.
    10030    2    1    2    0    0  0.00000000000E+00  0.00000000000E+00 -0.95904100586E+03  0.37627060291E+04  0.36384333181E+04 0.  0.
        3    1    3    3  502    0  0.17311834180E+04 -0.44273894743E+03 -0.12648784742E+03  0.17913718174E+04  0.10100000352E+00 0. -1.
       -3    1    3    3    0  502 -0.17311834180E+04  0.44273894743E+03 -0.83255315844E+03  0.19713342117E+04  0.10100000352E+00 0.  1.
</event>
<event>
 5   0  0.3159875E-07  0.3592611E+04  0.7818609E-02  0.8092186E-01
        1   -1    0    0  501    0  0.00000000000E+00  0.00000000000E+00  0.18629506662E+04  0.18629506662E+04  0.50400001928E-02 0.  1.
       -1   -1    0    0    0  501  0.00000000000E+00  0.00000000000E+00 -0.17320443284E+04  0.17320443284E+04  0.50400001928E-02 0. -1.
    10030    2    1    2    0    0  0.00000000000E+00  0.00000000000E+00  0.13090633784E+03  0.35949949946E+04  0.35926108253E+04 0.  0.
        2    1    3    3  502    0 -0.93841924048E+03  0.80098935733E+03  0.13718840252E+04  0.18450692128E+04  0.25500000920E-02 0.  1.
       -2    1    3    3    0  502  0.93841924048E+03 -0.80098935733E+03 -0.12409776873E+04  0.17499257818E+04  0.25500000920E-02 0. -1.
</event>
<event>
 5   0  0.3242047E-07  0.3565027E+04  0.7818609E-02  0.8098550E-01
        1   -1    0    0  501    0  0.00000000000E+00  0.00000000000E+00  0.15565111133E+04  0.15565111133E+04  0.50400001928E-02 0. -1.
       -1   -1    0    0    0  501  0.00000000000E+00  0.00000000000E+00 -0.20413305321E+04  0.20413305321E+04  0.50400001928E-02 0.  1.
    10030    2    1    2    0    0  0.00000000000E+00  0.00000000000E+00 -0.48481941884E+03  0.35978416454E+04  0.35650265968E+04 0.  0.
        1    1    3    3  502    0 -0.13586863290E+04 -0.75971545011E+02  0.91951474249E+03  0.16423481902E+04  0.50400001928E-02 0. -1.
       -1    1    3    3    0  502  0.13586863290E+04  0.75971545011E+02 -0.14043341613E+04  0.19554934551E+04  0.50400001928E-02 0.  1.
</event>
<event>
 5   0  0.3159875E-07  0.3618204E+04  0.7818609E-02  0.8086335E-01
       -3   -1    0    0    0  501  0.00000000000E+00  0.00000000000E+00  0.11231117031E+04  0.11231117076E+04  0.10100000352E+00 0. -1.
        3   -1    0    0  501    0  0.00000000000E+00  0.00000000000E+00 -0.29140912021E+04  0.29140912038E+04  0.10100000352E+00 0.  1.
    10030    2    1    2    0    0  0.00000000000E+00  0.00000000000E+00 -0.17909794990E+04  0.40372029114E+04  0.36182039442E+04 0.  0.
        2    1    3    3  502    0 -0.15549859624E+04  0.23651970953E+03 -0.18928248230E+04  0.24610381401E+04  0.25500000920E-02 0.  1.
       -2    1    3    3    0  502  0.15549859624E+04 -0.23651970953E+03  0.10184532398E+03  0.15761647713E+04  0.25500000920E-02 0. -1.
</event>
<event>
 5   0  0.1006019E-06  0.3581795E+04  0.7818609E-02  0.8094674E-01
       -2   -1    0    0    0  501  0.00000000000E+00  0.00000000000E+00  0.25801725023E+04  0.25801725023E+04  0.25500000920E-02 0. -1.
        2   -1    0    0  501    0  0.00000000000E+00  0.00000000000E+00 -0.12430619826E+04  0.12430619826E+04  0.25500000920E-02 0.  1.
    10030    2    1    2    0    0  0.00000000000E+00  0.00000000000E+00  0.13371105197E+04  0.38232344850E+04  0.35817952740E+04 0.  0.
        1    1    3    3  502    0 -0.14498408230E+04 -0.99659888262E+03  0.10258842700E+04  0.20365869194E+04  0.50400001928E-02 0. -1.
       -1    1    3    3    0  502  0.14498408230E+04  0.99659888262E+03  0.31122624970E+03  0.17866475655E+04  0.50400001928E-02 0.  1.
</event>
<event>
 5   0  0.9878977E-07  0.3699516E+04  0.7818609E-02  0.8068069E-01
       -2   -1    0    0    0  501  0.00000000000E+00  0.00000000000E+00  0.14436054280E+04  0.14436054280E+04  0.25500000920E-02 0. -1.
        2   -1    0    0  501    0  0.00000000000E+00  0.00000000000E+00 -0.23701805692E+04  0.23701805692E+04  0.25500000920E-02 0.  1.
    10030    2    1    2    0    0  0.00000000000E+00  0.00000000000E+00 -0.92657514120E+03  0.38137859972E+04  0.36995164739E+04 0.  0.
        5    1    3    3  502    0  0.65643457945E+03  0.33615519694E+03 -0.22120562237E+04  0.23317636030E+04  0.46999998093E+01 0.  1.
       -5    1    3    3    0  502 -0.65643457945E+03 -0.33615519694E+03  0.12854810825E+04  0.14820223942E+04  0.46999998093E+01 0. -1.
</event>
<event>
 5   0  0.9538919E-07  0.3632754E+04  0.7818609E-02  0.8083030E-01
       -2   -1    0    0    0  501  0.00000000000E+00  0.00000000000E+00  0.13030842543E+04  0.13030842543E+04  0.25500000920E-02 0.  1.
        2   -1    0    0  501    0  0.00000000000E+00  0.00000000000E+00 -0.25318581928E+04  0.25318581928E+04  0.25500000920E-02 0. -1.
    10030    2    1    2    0    0  0.00000000000E+00  0.00000000000E+00 -0.12287739385E+04  0.38349424471E+04  0.36327535260E+04 0.  0.
        4    1    3    3  502    0  0.10324157335E+04 -0.12216509471E+03  0.95794573883E+03  0.14136718886E+04  0.12699999809E+01 0.  1.
       -4    1    3    3    0  502 -0.10324157335E+04  0.12216509471E+03 -0.21867196773E+04  0.24212705585E+04  0.12699999809E+01 0. -1.
</event>
<event>
 5   0  0.3159875E-07  0.3634683E+04  0.7818609E-02  0.8082593E-01
       -1   -1    0    0    0  501  0.00000000000E+00  0.00000000000E+00  0.15886338621E+04  0.15886338621E+04  0.50400001928E-02 0. -1.
        1   -1    0    0  501    0  0.00000000000E+00  0.00000000000E+00 -0.20789751839E+04  0.20789751839E+04  0.50400001928E-02 0.  1.
    10030    2    1    2    0    0  0.00000000000E+00  0.00000000000E+00 -0.49034132179E+03  0.36676090460E+04  0.36346831364E+04 0.  0.
        5    1    3    3  502    0  0.72424164215E+03  0.28575606410E+03  0.14118150728E+04  0.16122736661E+04  0.46999998093E+01 0. -1.
       -5    1    3    3    0  502 -0.72424164215E+03 -0.28575606410E+03 -0.19021563946E+04  0.20553353799E+04  0.46999998093E+01 0.  1.
</event>
<event>
 5   0  0.3365378E-07  0.3588243E+04  0.7818609E-02  0.8093190E-01
       -1   -1    0    0    0  501  0.00000000000E+00  0.00000000000E+00  0.14398497605E+04  0.14398497605E+04  0.50400001928E-02 0. -1.
        1   -1    0    0  501    0  0.00000000000E+00  0.00000000000E+00 -0.22355609027E+04  0.22355609027E+04  0.50400001928E-02 0.  1.
    10030    2    1    2    0    0  0.00000000000E+00  0.00000000000E+00 -0.79571114225E+03  0.36754106632E+04  0.35882429296E+04 0.  0.
        3    1    3    3  502    0  0.17399763203E+04 -0.40944182190E+03 -0.55558206225E+03  0.18718524618E+04  0.10100000352E+00 0.  1.
       -3    1    3    3    0  502 -0.17399763203E+04  0.40944182190E+03 -0.24012908000E+03  0.18035582014E+04  0.10100000352E+00 0. -1.
</event>
<event>
 5   0  0.3159875E-07  0.3480584E+04  0.7818609E-02  0.8118407E-01
        1   -1    0    0  501    0  0.00000000000E+00  0.00000000000E+00  0.22190521371E+04  0.22190521371E+04  0.50400001928E-02 0. -1.
       -1   -1    0    0    0  501  0.00000000000E+00  0.00000000000E+00 -0.13648246513E+04  0.13648246513E+04  0.50400001928E-02 0.  1.
    10030    2    1    2    0    0  0.00000000000E+00  0.00000000000E+00  0.85422748578E+03  0.35838767884E+04  0.34805844677E+04 0.  0.
        2    1    3    3  502    0  0.25399886202E+03 -0.15676958869E+04  0.11598727038E+04  0.19665936298E+04  0.25500000920E-02 0. -1.
       -2    1    3    3    0  502 -0.25399886202E+03  0.15676958869E+04 -0.30564521803E+03  0.16172831586E+04  0.25500000920E-02 0.  1.
</event>
<event>
 5   0  0.3159875E-07  0.3579147E+04  0.7818609E-02  0.8095285E-01
        1   -1    0    0  501    0  0.00000000000E+00  0.00000000000E+00  0.26587252109E+04  0.26587252109E+04  0.50400001928E-02 0. -1.
       -1   -1    0    0    0  501  0.00000000000E+00  0.00000000000E+00 -0.12045524632E+04  0.12045524632E+04  0.50400001928E-02 0.  1.
    10030    2    1    2    0    0  0.00000000000E+00  0.00000000000E+00  0.14541727476E+04  0.38632776741E+04  0.35791473855E+04 0.  0.
        2    1    3    3  502    0  0.32501666843E+03  0.58922914252E+03  0.25169614673E+04  0.26053640523E+04  0.25500000920E-02 0. -1.
       -2    1    3    3    0  502 -0.32501666843E+03 -0.58922914252E+03 -0.10627887197E+04  0.12579136218E+04  0.25500000920E-02 0.  1.
</event>
<event>
 5   0  0.3159875E-07  0.3607993E+04  0.7818609E-02  0.8088663E-01
        1   -1    0    0  501    0  0.00000000000E+00  0.00000000000E+00  0.17443219562E+04  0.17443219562E+04  0.50400001928E-02 0.  1.
       -1   -1    0    0    0  501  0.00000000000E+00  0.00000000000E+00 -0.18657123631E+04  0.18657123631E+04  0.50400001928E-02 0. -1.
    10030    2    1    2    0    0  0.00000000000E+00  0.00000000000E+00 -0.12139040698E+03  0.36100343193E+04  0.36079928154E+04 0.  0.
        5    1    3    3  502    0  0.10608631603E+04  0.10573032590E+04 -0.10667790066E+04  0.18388475644E+04  0.46999998093E+01 0. -1.
       -5    1    3    3    0  502 -0.10608631603E+04 -0.10573032590E+04  0.94538859959E+03  0.17711867549E+04  0.46999998093E+01 0.  1.
</event>
<event>
 5   0  0.1006019E-06  0.3590995E+04  0.7818609E-02  0.8092557E-01
       -2   -1    0    0    0  501  0.00000000000E+00  0.00000000000E+00  0.14091929122E+04  0.14091929122E+04  0.25500000920E-02 0. -1.
        2   -1    0    0  501    0  0.00000000000E+00  0.00000000000E+00 -0.22877007496E+04  0.22877007496E+04  0.25500000920E-02 0.  1.
    10030    2    1    2    0    0  0.00000000000E+00  0.00000000000E+00 -0.87850783737E+03  0.36968936618E+04  0.35909952278E+04 0.  0.
        1    1    3    3  502    0 -0.17757781216E+04  0.96196898516E+02 -0.18463479458E+03  0.17879406555E+04  0.50400001928E-02 0. -1.
       -1    1    3    3    0  502  0.17757781216E+04 -0.96196898516E+02 -0.69387304279E+03  0.19089530062E+04  0.50400001928E-02 0.  1.
</event>
<event>
 5   0  0.3278988E-07  0.3591340E+04  0.7818609E-02  0.8092478E-01
        1   -1    0    0  501    0  0.00000000000E+00  0.00000000000E+00  0.11013541167E+04  0.11013541167E+04  0.50400001928E-02 0.  1.
       -1   -1    0    0    0  501  0.00000000000E+00  0.00000000000E+00 -0.29276973744E+04  0.29276973744E+04  0.50400001928E-02 0. -1.
    10030    2    1    2    0    0  0.00000000000E+00  0.00000000000E+00 -0.18263432577E+04  0.40290514912E+04  0.35913404494E+04 0.  0.
        4    1    3    3  502    0  0.37404219286E+03  0.17496158260E+04 -0.74167868564E+03  0.19367890919E+04  0.12699999809E+01 0. -1.
       -4    1    3    3    0  502 -0.37404219286E+03 -0.17496158260E+04 -0.10846645720E+04  0.20922623993E+04  0.12699999809E+01 0.  1.
</event>
<event>
 5   0  0.3242047E-07  0.3598565E+04  0.7818609E-02  0.8090821E-01
        1   -1    0    0  501    0  0.00000000000E+00  0.00000000000E+00  0.22516372922E+04  0.22516372922E+04  0.50400001928E-02 0. -1.
       -1   -1    0    0    0  501  0.00000000000E+00  0.00000000000E+00 -0.14378058132E+04  0.14378058132E+04  0.50400001928E-02 0.  1.
    10030    2    1    2    0    0  0.00000000000E+00  0.00000000000E+00  0.81383147898E+03  0.36894431055E+04  0.35985648184E+04 0.  0.
        1    1    3    3  502    0  0.39206893562E+03 -0.12616273322E+04  0.16592355789E+04  0.21209630553E+04  0.50400001928E-02 0. -1.
       -1    1    3    3    0  502 -0.39206893562E+03  0.12616273322E+04 -0.84540409988E+03  0.15684800502E+04  0.50400001928E-02 0.  1.
</event>
<event>
 5   0  0.9538919E-07  0.3636414E+04  0.7818609E-02  0.8082201E-01
       -2   -1    0    0    0  501  0.00000000000E+00  0.00000000000E+00  0.26152202064E+04  0.26152202064E+04  0.25500000920E-02 0. -1.
        2   -1    0    0  501    0  0.00000000000E+00  0.00000000000E+00 -0.12640908700E+04  0.12640908700E+04  0.25500000920E-02 0.  1.
    10030    2    1    2    0    0  0.00000000000E+00  0.00000000000E+00  0.13511293364E+04  0.38793110764E+04  0.36364136101E+04 0.  0.
        4    1    3    3  502    0 -0.15836136741E+04  0.26357591033E+03 -0.23501285855E+03  0.16225095334E+04  0.12699999809E+01 0.  1.
       -4    1    3    3    0  502  0.15836136741E+04 -0.26357591033E+03  0.15861421949E+04  0.22568015430E+04  0.12699999809E+01 0. -1.
</event>
<event>
 5   0  0.3159875E-07  0.3528211E+04  0.7818609E-02  0.8107137E-01
        1   -1    0    0  501    0  0.00000000000E+00  0.00000000000E+00  0.26920325428E+04  0.26920325428E+04  0.50400001928E-02 0.  1.
       -1   -1    0    0    0  501  0.00000000000E+00  0.00000000000E+00 -0.11560293720E+04  0.11560293720E+04  0.50400001928E-02 0. -1.
    10030    2    1    2    0    0  0.00000000000E+00  0.00000000000E+00  0.15360031708E+04  0.38480619147E+04  0.35282112690E+04 0.  0.
        5    1    3    3  502    0  0.55790159279E+03  0.87344186918E+03  0.23249636105E+04  0.25455122798E+04  0.46999998093E+01 0.  1.
       -5    1    3    3    0  502 -0.55790159279E+03 -0.87344186918E+03 -0.78896043974E+03  0.13025496350E+04  0.46999998093E+01 0. -1.
</event>
<event>
 5   0  0.3159875E-07  0.3562612E+04  0.7818609E-02  0.8099110E-01
        1   -1    0    0  501    0  0.00000000000E+00  0.00000000000E+00  0.20765292329E+04  0.20765292329E+04  0.50400001928E-02 0.  1.
       -1   -1    0    0    0  501  0.00000000000E+00  0.00000000000E+00 -0.15280553730E+04  0.15280553730E+04  0.50400001928E-02 0. -1.
    10030    2    1    2    0    0  0.00000000000E+00  0.00000000000E+00  0.54847385990E+03  0.36045846059E+04  0.35626123289E+04 0.  0.
        5    1    3    3  502    0  0.13967943283E+04 -0.10047404242E+04  0.74063612458E+03  0.18732596389E+04  0.46999998093E+01 0.  1.
       -5    1    3    3    0  502 -0.13967943283E+04  0.10047404242E+04 -0.19216226469E+03  0.17313249670E+04  0.46999998093E+01 0. -1.
</event>
<event>
 5   0  0.3278988E-07  0.3599300E+04  0.7818609E-02  0.8090652E-01
       -1   -1    0    0    0  501  0.00000000000E+00  0.00000000000E+00  0.12890040905E+04  0.12890040905E+04  0.50400001928E-02 0.  1.
        1   -1    0    0  501    0  0.00000000000E+00  0.00000000000E+00 -0.25125910815E+04  0.25125910815E+04  0.50400001928E-02 0. -1.
    10030    2    1    2    0    0  0.00000000000E+00  0.00000000000E+00 -0.12235869910E+04  0.38015951720E+04  0.35993000329E+04 0.  0.
        4    1    3    3  502    0  0.42127116495E+03 -0.40851468314E+03  0.11851149962E+04  0.13224419866E+04  0.12699999809E+01 0.  1.
       -4    1    3    3    0  502 -0.42127116495E+03  0.40851468314E+03 -0.24087019872E+04  0.24791531854E+04  0.12699999809E+01 0. -1.
</event>
<event>
 5   0  0.1006019E-06  0.3651256E+04  0.7818609E-02  0.8078851E-01
        2   -1    0    0  501    0  0.00000000000E+00  0.00000000000E+00  0.26946012233E+04  0.26946012233E+04  0.25500000920E-02 0.  1.
       -2   -1    0    0    0  501  0.00000000000E+00  0.00000000000E+00 -0.12368870658E+04  0.12368870658E+04  0.25500000920E-02 0. -1.
    10030    2    1    2    0    0  0.00000000000E+00  0.00000000000E+00  0.14577141575E+04  0.39314882892E+04  0.36512558939E+04 0.  0.
        1    1    3    3  502    0  0.97173233486E+03 -0.13830547527E+04 -0.13876344791E+02  0.16903540258E+04  0.50400001928E-02 0. -1.
       -1    1    3    3    0  502 -0.97173233486E+03  0.13830547527E+04  0.14715905023E+04  0.22411342633E+04  0.50400001928E-02 0.  1.
</event>
<event>
 5   0  0.3278988E-07  0.3603875E+04  0.7818609E-02  0.8089605E-01
        1   -1    0    0  501    0  0.00000000000E+00  0.00000000000E+00  0.10216277270E+04  0.10216277271E+04  0.50400001928E-02 0. -1.
       -1   -1    0    0    0  501  0.00000000000E+00  0.00000000000E+00 -0.31782399265E+04  0.31782399265E+04  0.50400001928E-02 0.  1.
    10030    2    1    2    0    0  0.00000000000E+00  0.00000000000E+00 -0.21566121995E+04  0.41998676536E+04  0.36038745995E+04 0.  0.
        4    1    3    3  502    0 -0.85319898588E+03  0.33769638861E+03  0.72896159990E+03  0.11719104008E+04  0.12699999809E+01 0. -1.
       -4    1    3    3    0  502  0.85319898588E+03 -0.33769638861E+03 -0.28855737994E+04  0.30279572528E+04  0.12699999809E+01 0.  1.
</event>
<event>
 5   0  0.1006019E-06  0.3629281E+04  0.7818609E-02  0.8083817E-01
        2   -1    0    0  501    0  0.00000000000E+00  0.00000000000E+00  0.21294116113E+04  0.21294116113E+04  0.25500000920E-02 0. -1.
       -2   -1    0    0    0  501  0.00000000000E+00  0.00000000000E+00 -0.15463988390E+04  0.15463988390E+04  0.25500000920E-02 0.  1.
    10030    2    1    2    0    0  0.00000000000E+00  0.00000000000E+00  0.58301277229E+03  0.36758104504E+04  0.36292807241E+04 0.  0.
        1    1    3    3  502    0 -0.30497924552E+03  0.10029329612E+04  0.17917234532E+04  0.20758515837E+04  0.50400001928E-02 0. -1.
       -1    1    3    3    0  502  0.30497924552E+03 -0.10029329612E+04 -0.12087106809E+04  0.15999588667E+04  0.50400001928E-02 0.  1.
</event>
<event>
 5   0  0.9878336E-07  0.2681189E+04  0.7818609E-02  0.8341134E-01
       -2   -1    0    0    0  501  0.00000000000E+00  0.00000000000E+00  0.13482867724E+04  0.13482867724E+04  0.25500000920E-02 0. -1.
        2   -1    0    0  501    0  0.00000000000E+00  0.00000000000E+00 -0.13329465335E+04  0.13329465336E+04  0.25500000920E-02 0.  1.
    10030    2    1    2    0    0  0.00000000000E+00  0.00000000000E+00  0.15340238872E+02  0.26812333060E+04  0.26811894223E+04 0.  0.
        3    1    3    3  502    0  0.30460410283E+03  0.12739415235E+04  0.29312794799E+03  0.13422498534E+04  0.10100000352E+00 0. -1.
       -3    1    3    3    0  502 -0.30460410283E+03 -0.12739415235E+04 -0.27778770912E+03  0.13389834526E+04  0.10100000352E+00 0.  1.
</event>
<event>
 5   0  0.9878336E-07  0.3576464E+04  0.7818609E-02  0.8095904E-01
       -2   -1    0    0    0  501  0.00000000000E+00  0.00000000000E+00  0.13288068803E+04  0.13288068803E+04  0.25500000920E-02 0. -1.
        2   -1    0    0  501    0  0.00000000000E+00  0.00000000000E+00 -0.24064996857E+04  0.24064996857E+04  0.25500000920E-02 0.  1.
    10030    2    1    2    0    0  0.00000000000E+00  0.00000000000E+00 -0.10776928054E+04  0.37353065660E+04  0.35764638065E+04 0.  0.
        3    1    3    3  502    0 -0.14428941921E+04 -0.10296534674E+04 -0.78521157481E+03  0.19387333855E+04  0.10100000352E+00 0.  1.
       -3    1    3    3    0  502  0.14428941921E+04  0.10296534674E+04 -0.29248123056E+03  0.17965731805E+04  0.10100000352E+00 0. -1.
</event>
<event>
 5   0  0.3242047E-07  0.2993473E+04  0.7818609E-02  0.8245597E-01
       -1   -1    0    0    0  501  0.00000000000E+00  0.00000000000E+00  0.12252967245E+04  0.12252967246E+04  0.50400001928E-02 0. -1.
        1   -1    0    0  501    0  0.00000000000E+00  0.00000000000E+00 -0.18283082065E+04  0.18283082065E+04  0.50400001928E-02 0.  1.
    10030    2    1    2    0    0  0.00000000000E+00  0.00000000000E+00 -0.60301148199E+03  0.30536049311E+04  0.29934729375E+04 0.  0.
        1    1    3    3  502    0 -0.89572408914E+03  0.11583727451E+04  0.14673723654E+02  0.14643648379E+04  0.50400001928E-02 0.  1.
       -1    1    3    3    0  502  0.89572408914E+03 -0.11583727451E+04 -0.61768520565E+03  0.15892400932E+04  0.50400001928E-02 0. -1.
</event>
<event>
 5   0  0.3159875E-07  0.3504730E+04  0.7818609E-02  0.8112670E-01
       -1   -1    0    0    0  501  0.00000000000E+00  0.00000000000E+00  0.15450069955E+04  0.15450069955E+04  0.50400001928E-02 0. -1.
        1   -1    0    0  501    0  0.00000000000E+00  0.00000000000E+00 -0.19875530124E+04  0.19875530124E+04  0.50400001928E-02 0.  1.
    10030    2    1    2    0    0  0.00000000000E+00  0.00000000000E+00 -0.44254601687E+03  0.35325600079E+04  0.35047301226E+04 0.  0.
        5    1    3    3  502    0 -0.12444851006E+04 -0.10319278085E+04  0.46021940840E+03  0.16809051614E+04  0.46999998093E+01 0. -1.
       -5    1    3    3    0  502  0.12444851006E+04  0.10319278085E+04 -0.90276542527E+03  0.18516548466E+04  0.46999998093E+01 0.  1.
</event>
<event>
 5   0  0.9878336E-07  0.3585357E+04  0.7818609E-02  0.8093854E-01
       -2   -1    0    0    0  501  0.00000000000E+00  0.00000000000E+00  0.24288259656E+04  0.24288259656E+04  0.25500000920E-02 0. -1.
        2   -1    0    0  501    0  0.00000000000E+00  0.00000000000E+00 -0.13231479679E+04  0.13231479679E+04  0.25500000920E-02 0.  1.
    10030    2    1    2    0    0  0.00000000000E+00  0.00000000000E+00  0.11056779976E+04  0.37519739335E+04  0.35853569645E+04 0.  0.
        3    1    3    3  502    0  0.12321311993E+04  0.93341177625E+03  0.15029356071E+04  0.21559731644E+04  0.10100000352E+00 0. -1.
       -3    1    3    3    0  502 -0.12321311993E+04 -0.93341177625E+03 -0.39725760952E+03  0.15960007691E+04  0.10100000352E+00 0.  1.
</event>
<event>
 5   0  0.3159875E-07  0.3658405E+04  0.7818609E-02  0.8077243E-01
        1   -1    0    0  501    0  0.00000000000E+00  0.00000000000E+00  0.14851146428E+04  0.14851146428E+04  0.50400001928E-02 0.  1.
       -1   -1    0    0    0  501  0.00000000000E+00  0.00000000000E+00 -0.22530124130E+04  0.22530124130E+04  0.50400001928E-02 0. -1.
    10030    2    1    2    0    0  0.00000000000E+00  0.00000000000E+00 -0.76789777020E+03  0.37381270557E+04  0.36584049666E+04 0.  0.
        5    1    3    3  502    0  0.99378476913E+03  0.15087722457E+04 -0.91427669977E+02  0.18089729035E+04  0.46999998093E+01 0.  1.
       -5    1    3    3    0  502 -0.99378476913E+03 -0.15087722457E+04 -0.67647010023E+03  0.19291541523E+04  0.46999998093E+01 0. -1.
</event>
<event>
 5   0  0.1031659E-06  0.3586106E+04  0.7818609E-02  0.8093682E-01
        2   -1    0    0  501    0  0.00000000000E+00  0.00000000000E+00  0.15965985760E+04  0.15965985760E+04  0.25500000920E-02 0. -1.
       -2   -1    0    0    0  501  0.00000000000E+00  0.00000000000E+00 -0.20136798277E+04  0.20136798277E+04  0.25500000920E-02 0.  1.
    10030    2    1    2    0    0  0.00000000000E+00  0.00000000000E+00 -0.41708125175E+03  0.36102784037E+04  0.35861056011E+04 0.  0.
        2    1    3    3  502    0 -0.28574561514E+02  0.12015905652E+04 -0.15480740645E+04  0.19598902268E+04  0.25500000920E-02 0.  1.
       -2    1    3    3    0  502  0.28574561514E+02 -0.12015905652E+04  0.11309928128E+04  0.16503881769E+04  0.25500000920E-02 0. -1.
</event>
<event>
 5   0  0.3365378E-07  0.3635444E+04  0.7818609E-02  0.8082421E-01
        1   -1    0    0  501    0  0.00000000000E+00  0.00000000000E+00  0.94138279460E+03  0.94138279461E+03  0.50400001928E-02 0.  1.
       -1   -1    0    0    0  501  0.00000000000E+00  0.00000000000E+00 -0.35098500904E+04  0.35098500904E+04  0.50400001928E-02 0. -1.
    10030    2    1    2    0    0  0.00000000000E+00  0.00000000000E+00 -0.25684672958E+04  0.44512328850E+04  0.36354435695E+04 0.  0.
        3    1    3    3  502    0  0.15245417487E+04 -0.90891265726E+03 -0.80411516204E+03  0.19485766513E+04  0.10100000352E+00 0.  1.
       -3    1    3    3    0  502 -0.15245417487E+04  0.90891265726E+03 -0.17643521337E+04  0.25026562337E+04  0.10100000352E+00 0. -1.
</event>
<event>
 5   0  0.3242047E-07  0.3558656E+04  0.7818609E-02  0.8100028E-01
       -1   -1    0    0    0  501  0.00000000000E+00  0.00000000000E+00  0.10875771246E+04  0.10875771246E+04  0.50400001928E-02 0. -1.
        1   -1    0    0  501    0  0.00000000000E+00  0.00000000000E+00 -0.29110660908E+04  0.29110660908E+04  0.50400001928E-02 0.  1.
    10030    2    1    2    0    0  0.00000000000E+00  0.00000000000E+00 -0.18234889662E+04  0.39986432154E+04  0.35586564254E+04 0.  0.
        1    1    3    3  502    0  0.61905534210E+03 -0.67305451416E+02 -0.27846342006E+04  0.28534097448E+04  0.50400001928E-02 0.  1.
       -1    1    3    3    0  502 -0.61905534210E+03  0.67305451416E+02  0.96114523444E+03  0.11452334706E+04  0.50400001928E-02 0. -1.
</event>
<event>
 5   0  0.3278988E-07  0.2709814E+04  0.7818609E-02  0.8331828E-01
        1   -1    0    0  501    0  0.00000000000E+00  0.00000000000E+00  0.10688067814E+04  0.10688067814E+04  0.50400001928E-02 0.  1.
       -1   -1    0    0    0  501  0.00000000000E+00  0.00000000000E+00 -0.17175910876E+04  0.17175910876E+04  0.50400001928E-02 0. -1.
    10030    2    1    2    0    0  0.00000000000E+00  0.00000000000E+00 -0.64878430619E+03  0.27863978690E+04  0.27098140173E+04 0.  0.
        4    1    3    3  502    0 -0.42352416333E+03 -0.36638418299E+03 -0.15930192483E+04  0.16885858062E+04  0.12699999809E+01 0. -1.
       -4    1    3    3    0  502  0.42352416333E+03  0.36638418299E+03  0.94423494213E+03  0.10978120628E+04  0.12699999809E+01 0.  1.
</event>
<event>
 5   0  0.9538919E-07  0.3483809E+04  0.7818609E-02  0.8117638E-01
        2   -1    0    0  501    0  0.00000000000E+00  0.00000000000E+00  0.22428309313E+04  0.22428309313E+04  0.25500000920E-02 0.  1.
       -2   -1    0    0    0  501  0.00000000000E+00  0.00000000000E+00 -0.13528577667E+04  0.13528577667E+04  0.25500000920E-02 0. -1.
    10030    2    1    2    0    0  0.00000000000E+00  0.00000000000E+00  0.88997316460E+03  0.35956886980E+04  0.34838089757E+04 0.  0.
        4    1    3    3  502    0 -0.44081289862E+03  0.27221112673E+03  0.21614687395E+04  0.22226928789E+04  0.12699999809E+01 0.  1.
       -4    1    3    3    0  502  0.44081289862E+03 -0.27221112673E+03 -0.12714955749E+04  0.13729958190E+04  0.12699999809E+01 0. -1.
</event>
<event>
 5   0  0.3365378E-07  0.3576545E+04  0.7818609E-02  0.8095886E-01
       -1   -1    0    0    0  501  0.00000000000E+00  0.00000000000E+00  0.18328991109E+04  0.18328991109E+04  0.50400001928E-02 0. -1.
        1   -1    0    0  501    0  0.00000000000E+00  0.00000000000E+00 -0.17447324340E+04  0.17447324340E+04  0.50400001928E-02 0.  1.
    10030    2    1    2    0    0  0.00000000000E+00  0.00000000000E+00  0.88166676856E+02  0.35776315450E+04  0.35765449960E+04 0.  0.
        3    1    3    3  502    0  0.71600161742E+02  0.11428204637E+04 -0.13299253519E+04  0.17549548847E+04  0.10100000352E+00 0.  1.
       -3    1    3    3    0  502 -0.71600161742E+02 -0.11428204637E+04  0.14180920288E+04  0.18226766602E+04  0.10100000352E+00 0. -1.
</event>
<event>
 5   0  0.3159875E-07  0.3626374E+04  0.7818609E-02  0.8084477E-01
       -1   -1    0    0    0  501  0.00000000000E+00  0.00000000000E+00  0.15595922382E+04  0.15595922382E+04  0.50400001928E-02 0.  1.
        1   -1    0    0  501    0  0.00000000000E+00  0.00000000000E+00 -0.21080166957E+04  0.21080166957E+04  0.50400001928E-02 0. -1.
    10030    2    1    2    0    0  0.00000000000E+00  0.00000000000E+00 -0.54842445751E+03  0.36676089339E+04  0.36263736579E+04 0.  0.
        5    1    3    3  502    0  0.43069852161E+03 -0.14503777433E+04  0.73641385106E+03  0.16826836497E+04  0.46999998093E+01 0.  1.
       -5    1    3    3    0  502 -0.43069852161E+03  0.14503777433E+04 -0.12848383086E+04  0.19849252842E+04  0.46999998093E+01 0. -1.
</event>
<event>
 5   0  0.3278988E-07  0.3550317E+04  0.7818609E-02  0.8101968E-01
       -1   -1    0    0    0  501  0.00000000000E+00  0.00000000000E+00  0.13644358234E+04  0.13644358234E+04  0.50400001928E-02 0. -1.
        1   -1    0    0  501    0  0.00000000000E+00  0.00000000000E+00 -0.23095172264E+04  0.23095172264E+04  0.50400001928E-02 0.  1.
    10030    2    1    2    0    0  0.00000000000E+00  0.00000000000E+00 -0.94508140299E+03  0.36739530498E+04  0.35503171906E+04 0.  0.
        4    1    3    3  502    0 -0.35763748908E+03 -0.14287489550E+03 -0.22657649888E+04  0.22982624756E+04  0.12699999809E+01 0.  1.
       -4    1    3    3    0  502  0.35763748908E+03  0.14287489550E+03  0.13206835858E+04  0.13756905742E+04  0.12699999809E+01 0. -1.
</event>
<event>
 5   0  0.1031659E-06  0.3598981E+04  0.7818609E-02  0.8090725E-01
       -2   -1    0    0    0  501  0.00000000000E+00  0.00000000000E+00  0.16200512272E+04  0.16200512272E+04  0.25500000920E-02 0.  1.
        2   -1    0    0  501    0  0.00000000000E+00  0.00000000000E+00 -0.19988044204E+04  0.19988044204E+04  0.25500000920E-02 0. -1.
    10030    2    1    2    0    0  0.00000000000E+00  0.00000000000E+00 -0.37875319317E+03  0.36188556476E+04  0.35989807192E+04 0.  0.
        2    1    3    3  502    0 -0.99233757419E+03 -0.45137642320E+02 -0.16981274184E+04  0.19673352529E+04  0.25500000920E-02 0. -1.
       -2    1    3    3    0  502  0.99233757419E+03  0.45137642320E+02  0.13193742253E+04  0.16515203947E+04  0.25500000920E-02 0.  1.
</event>
<event>
 5   0  0.9538919E-07  0.3620680E+04  0.7818609E-02  0.8085771E-01
        2   -1    0    0  501    0  0.00000000000E+00  0.00000000000E+00  0.14445875658E+04  0.14445875658E+04  0.25500000920E-02 0.  1.
       -2   -1    0    0    0  501  0.00000000000E+00  0.00000000000E+00 -0.22686966439E+04  0.22686966439E+04  0.25500000920E-02 0. -1.
    10030    2    1    2    0    0  0.00000000000E+00  0.00000000000E+00 -0.82410907801E+03  0.37132842097E+04  0.36206800258E+04 0.  0.
        4    1    3    3  502    0  0.74871217136E+03  0.74783185864E+03  0.10943587765E+04  0.15223157192E+04  0.12699999809E+01 0.  1.
       -4    1    3    3    0  502 -0.74871217136E+03 -0.74783185864E+03 -0.19184678546E+04  0.21909684905E+04  0.12699999809E+01 0. -1.
</event>
<event>
 5   0  0.9538919E-07  0.3625092E+04  0.7818609E-02  0.8084768E-01
        2   -1    0    0  501    0  0.00000000000E+00  0.00000000000E+00  0.19480888618E+04  0.19480888618E+04  0.25500000920E-02 0. -1.
       -2   -1    0    0    0  501  0.00000000000E+00  0.00000000000E+00 -0.16864341538E+04  0.16864341538E+04  0.25500000920E-02 0.  1.
    10030    2    1    2    0    0  0.00000000000E+00  0.00000000000E+00  0.26165470801E+03  0.36345230157E+04  0.36250923251E+04 0.  0.
        4    1    3    3  502    0  0.17803368820E+04  0.12540422265E+02  0.47166070350E+03  0.18417986067E+04  0.12699999809E+01 0. -1.
       -4    1    3    3    0  502 -0.17803368820E+04 -0.12540422265E+02 -0.21000599549E+03  0.17927244090E+04  0.12699999809E+01 0.  1.
</event>
<event>
 5   0  0.3278988E-07  0.3597635E+04  0.7818609E-02  0.8091034E-01
       -1   -1    0    0    0  501  0.00000000000E+00  0.00000000000E+00  0.15116558870E+04  0.15116558871E+04  0.50400001928E-02 0. -1.
        1   -1    0    0  501    0  0.00000000000E+00  0.00000000000E+00 -0.21405296367E+04  0.21405296367E+04  0.50400001928E-02 0.  1.
    10030    2    1    2    0    0  0.00000000000E+00  0.00000000000E+00 -0.62887374961E+03  0.36521855237E+04  0.35976349046E+04 0.  0.
        4    1    3    3  502    0  0.12600960209E+03  0.86521525346E+03 -0.19102996932E+04  0.21008860953E+04  0.12699999809E+01 0.  1.
       -4    1    3    3    0  502 -0.12600960209E+03 -0.86521525346E+03  0.12814259436E+04  0.15512994284E+04  0.12699999809E+01 0. -1.
</event>
<event>
 5   0  0.1031659E-06  0.3453803E+04  0.7818609E-02  0.8124826E-01
       -2   -1    0    0    0  501  0.00000000000E+00  0.00000000000E+00  0.21751194498E+04  0.21751194498E+04  0.25500000920E-02 0.  1.
        2   -1    0    0  501    0  0.00000000000E+00  0.00000000000E+00 -0.13710458974E+04  0.13710458974E+04  0.25500000920E-02 0. -1.
    10030    2    1    2    0    0  0.00000000000E+00  0.00000000000E+00  0.80407355241E+03  0.35461653472E+04  0.34538028884E+04 0.  0.
        2    1    3    3  502    0  0.14794246907E+03 -0.86614779076E+03  0.19284298141E+04  0.21191839272E+04  0.25500000920E-02 0.  1.
       -2    1    3    3    0  502 -0.14794246907E+03  0.86614779076E+03 -0.11243562617E+04  0.14269814199E+04  0.25500000920E-02 0. -1.
</event>
<event>
 5   0  0.9538919E-07  0.3088959E+04  0.7818609E-02  0.8218775E-01
        2   -1    0    0  501    0  0.00000000000E+00  0.00000000000E+00  0.19811151610E+04  0.19811151610E+04  0.25500000920E-02 0.  1.
       -2   -1    0    0    0  501  0.00000000000E+00  0.00000000000E+00 -0.12040778222E+04  0.12040778222E+04  0.25500000920E-02 0. -1.
    10030    2    1    2    0    0  0.00000000000E+00  0.00000000000E+00  0.77703733880E+03  0.31851929833E+04  0.30889589371E+04 0.  0.
        4    1    3    3  502    0 -0.79745629610E+03 -0.11921852342E+04 -0.20219233947E+03  0.14484907772E+04  0.12699999809E+01 0. -1.
       -4    1    3    3    0  502  0.79745629610E+03  0.11921852342E+04  0.97922967827E+03  0.17367022060E+04  0.12699999809E+01 0.  1.
</event>
<event>
 5   0  0.9878977E-07  0.3476397E+04  0.7818609E-02  0.8119406E-01
        2   -1    0    0  501    0  0.00000000000E+00  0.00000000000E+00  0.24595677147E+04  0.24595677147E+04  0.25500000920E-02 0. -1.
       -2   -1    0    0    0  501  0.00000000000E+00  0.00000000000E+00 -0.12284004193E+04  0.12284004193E+04  0.25500000920E-02 0.  1.
    10030    2    1    2    0    0  0.00000000000E+00  0.00000000000E+00  0.12311672954E+04  0.36879681340E+04  0.34763969923E+04 0.  0.
        5    1    3    3  502    0 -0.15313995169E+04  0.47933131996E+03 -0.93185446150E+02  0.16073732025E+04  0.46999998093E+01 0.  1.
       -5    1    3    3    0  502  0.15313995169E+04 -0.47933131996E+03  0.13243527416E+04  0.20805949315E+04  0.46999998093E+01 0. -1.
</event>
<event>
 5   0  0.3159875E-07  0.3621144E+04  0.7818609E-02  0.8085666E-01
       -1   -1    0    0    0  501  0.00000000000E+00  0.00000000000E+00  0.22267623852E+04  0.22267623852E+04  0.50400001928E-02 0.  1.
        1   -1    0    0  501    0  0.00000000000E+00  0.00000000000E+00 -0.14721688847E+04  0.14721688847E+04  0.50400001928E-02 0. -1.
    10030    2    1    2    0    0  0.00000000000E+00  0.00000000000E+00  0.75459350057E+03  0.36989312699E+04  0.36211436299E+04 0.  0.
        2    1    3    3  502    0 -0.59388554652E+02  0.23298874483E+03 -0.14557886207E+04  0.14755105095E+04  0.25500000920E-02 0. -1.
       -2    1    3    3    0  502  0.59388554652E+02 -0.23298874483E+03  0.22103821213E+04  0.22234207604E+04  0.25500000920E-02 0.  1.
</event>
<event>
 5   0  0.9878977E-07  0.3622267E+04  0.7818609E-02  0.8085410E-01
       -2   -1    0    0    0  501  0.00000000000E+00  0.00000000000E+00  0.16343519666E+04  0.16343519666E+04  0.25500000920E-02 0.  1.
        2   -1    0    0  501    0  0.00000000000E+00  0.00000000000E+00 -0.20070373064E+04  0.20070373064E+04  0.25500000920E-02 0. -1.
    10030    2    1    2    0    0  0.00000000000E+00  0.00000000000E+00 -0.37268533979E+03  0.36413892730E+04  0.36222674494E+04 0.  0.
        5    1    3    3  502    0 -0.27609848149E+03  0.20002347273E+03 -0.19744803558E+04  0.20037051995E+04  0.46999998093E+01 0. -1.
       -5    1    3    3    0  502  0.27609848149E+03 -0.20002347273E+03  0.16017950160E+04  0.16376840735E+04  0.46999998093E+01 0.  1.
</event>
<event>
 5   0  0.3159875E-07  0.3695103E+04  0.7818609E-02  0.8069048E-01
        3   -1    0    0  501    0  0.00000000000E+00  0.00000000000E+00  0.24071070247E+04  0.24071070268E+04  0.10100000352E+00 0.  1.
       -3   -1    0    0    0  501  0.00000000000E+00  0.00000000000E+00 -0.14180703263E+04  0.14180703299E+04  0.10100000352E+00 0. -1.
    10030    2    1    2    0    0  0.00000000000E+00  0.00000000000E+00  0.98903669846E+03  0.38251773567E+04  0.36951032759E+04 0.  0.
        4    1    3    3  502    0 -0.58821333885E+03 -0.16442066863E+03 -0.13105411631E+04  0.14458730377E+04  0.12699999809E+01 0. -1.
       -4    1    3    3    0  502  0.58821333885E+03  0.16442066863E+03  0.22995778615E+04  0.23793043190E+04  0.12699999809E+01 0.  1.
</event>
<event>
 5   0  0.3159875E-07  0.3678703E+04  0.7818609E-02  0.8072698E-01
       -1   -1    0    0    0  501  0.00000000000E+00  0.00000000000E+00  0.12058099614E+04  0.12058099614E+04  0.50400001928E-02 0.  1.
        1   -1    0    0  501    0  0.00000000000E+00  0.00000000000E+00 -0.28057608221E+04  0.28057608222E+04  0.50400001928E-02 0. -1.
    10030    2    1    2    0    0  0.00000000000E+00  0.00000000000E+00 -0.15999508607E+04  0.40115707836E+04  0.36787032219E+04 0.  0.
        2    1    3    3  502    0  0.10601003232E+04 -0.28758592759E+03  0.80888583322E+03  0.13641168030E+04  0.25500000920E-02 0.  1.
       -2    1    3    3    0  502 -0.10601003232E+04  0.28758592759E+03 -0.24088366940E+04  0.26474539806E+04  0.25500000920E-02 0. -1.
</event>
<event>
 5   0  0.1006019E-06  0.3567597E+04  0.7818609E-02  0.8097955E-01
        2   -1    0    0  501    0  0.00000000000E+00  0.00000000000E+00  0.14110706489E+04  0.14110706489E+04  0.25500000920E-02 0.  1.
       -2   -1    0    0    0  501  0.00000000000E+00  0.00000000000E+00 -0.22549805730E+04  0.22549805730E+04  0.25500000920E-02 0. -1.
    10030    2    1    2    0    0  0.00000000000E+00  0.00000000000E+00 -0.84390992404E+03  0.36660512219E+04  0.35675968945E+04 0.  0.
        1    1    3    3  502    0  0.43327951802E+03 -0.26135618374E+03 -0.21796858915E+04  0.22376480468E+04  0.50400001928E-02 0. -1.
       -1    1    3    3    0  502 -0.43327951802E+03  0.26135618374E+03  0.13357759675E+04  0.14284031752E+04  0.50400001928E-02 0.  1.
</event>
<event>
 5   0  0.3278988E-07  0.3423951E+04  0.7818609E-02  0.8132053E-01
        1   -1    0    0  501    0  0.00000000000E+00  0.00000000000E+00  0.26999998464E+04  0.26999998464E+04  0.50400001928E-02 0. -1.
       -1   -1    0    0    0  501  0.00000000000E+00  0.00000000000E+00 -0.10855038503E+04  0.10855038503E+04  0.50400001928E-02 0.  1.
    10030    2    1    2    0    0  0.00000000000E+00  0.00000000000E+00  0.16144959961E+04  0.37855036967E+04  0.34239510680E+04 0.  0.
        4    1    3    3  502    0  0.10030382939E+04  0.24957804127E+03 -0.70158909995E+03  0.12492413280E+04  0.12699999809E+01 0.  1.
       -4    1    3    3    0  502 -0.10030382939E+04 -0.24957804127E+03  0.23160850961E+04  0.25362623687E+04  0.12699999809E+01 0. -1.
</event>
<event>
 5   0  0.9878336E-07  0.3560419E+04  0.7818609E-02  0.8099619E-01
        2   -1    0    0  501    0  0.00000000000E+00  0.00000000000E+00  0.16330835155E+04  0.16330835155E+04  0.25500000920E-02 0.  1.
       -2   -1    0    0    0  501  0.00000000000E+00  0.00000000000E+00 -0.19405905888E+04  0.19405905888E+04  0.25500000920E-02 0. -1.
    10030    2    1    2    0    0  0.00000000000E+00  0.00000000000E+00 -0.30750707332E+03  0.35736741043E+04  0.35604193579E+04 0.  0.
        3    1    3    3  502    0 -0.26004793721E+03  0.14514145219E+04  0.84741528150E+03  0.17006885998E+04  0.10100000352E+00 0.  1.
       -3    1    3    3    0  502  0.26004793721E+03 -0.14514145219E+04 -0.11549223548E+04  0.18729855045E+04  0.10100000352E+00 0. -1.
</event>
<event>
 5   0  0.3159875E-07  0.2997812E+04  0.7818609E-02  0.8244356E-01
        1   -1    0    0  501    0  0.00000000000E+00  0.00000000000E+00  0.14943104420E+04  0.14943104420E+04  0.50400001928E-02 0. -1.
       -1   -1    0    0    0  501  0.00000000000E+00  0.00000000000E+00 -0.15035154345E+04  0.15035154345E+04  0.50400001928E-02 0.  1.
    10030    2    1    2    0    0  0.00000000000E+00  0.00000000000E+00 -0.92049925174E+01  0.29978258765E+04  0.29978117443E+04 0.  0.
        5    1    3    3  502    0  0.12425160131E+04  0.63257891795E+03  0.54557697180E+03  0.14972235813E+04  0.46999998093E+01 0. -1.
       -5    1    3    3    0  502 -0.12425160131E+04 -0.63257891795E+03 -0.55478196431E+03  0.15006022952E+04  0.46999998093E+01 0.  1.
</event>
<event>
 5   0  0.3365378E-07  0.3650633E+04  0.7818609E-02  0.8078991E-01
        1   -1    0    0  501    0  0.00000000000E+00  0.00000000000E+00  0.22950642703E+04  0.22950642703E+04  0.50400001928E-02 0. -1.
       -1   -1    0    0    0  501  0.00000000000E+00  0.00000000000E+00 -0.14517151346E+04  0.14517151346E+04  0.50400001928E-02 0.  1.
    10030    2    1    2    0    0  0.00000000000E+00  0.00000000000E+00  0.84334913567E+03  0.37467794050E+04  0.36506325678E+04 0.  0.
        3    1    3    3  502    0  0.14829794988E+04  0.30066432798E+03  0.14694195629E+04  0.21092228649E+04  0.10100000352E+00 0. -1.
       -3    1    3    3    0  502 -0.14829794988E+04 -0.30066432798E+03 -0.62607042721E+03  0.16375565401E+04  0.10100000352E+00 0.  1.
</event>
<event>
 5   0  0.1031659E-06  0.3640852E+04  0.7818609E-02  0.8081198E-01
        2   -1    0    0  501    0  0.00000000000E+00  0.00000000000E+00  0.18993651771E+04  0.18993651771E+04  0.25500000920E-02 0. -1.
       -2   -1    0    0    0  501  0.00000000000E+00  0.00000000000E+00 -0.17447674236E+04  0.17447674236E+04  0.25500000920E-02 0.  1.
    10030    2    1    2    0    0  0.00000000000E+00  0.00000000000E+00  0.15459775353E+03  0.36441326007E+04  0.36408518160E+04 0.  0.
        2    1    3    3  502    0  0.16535976038E+04  0.21644790585E+03  0.80783036276E+03  0.18530581821E+04  0.25500000920E-02 0. -1.
       -2    1    3    3    0  502 -0.16535976038E+04 -0.21644790585E+03 -0.65323260922E+03  0.17910744186E+04  0.25500000920E-02 0.  1.
</event>
<event>
 5   0  0.9878977E-07  0.3657491E+04  0.7818609E-02  0.8077448E-01
       -2   -1    0    0    0  501  0.00000000000E+00  0.00000000000E+00  0.26284638438E+04  0.26284638438E+04  0.25500000920E-02 0.  1.
        2   -1    0    0  501    0  0.00000000000E+00  0.00000000000E+00 -0.12723439104E+04  0.12723439104E+04  0.25500000920E-02 0. -1.
    10030    2    1    2    0    0  0.00000000000E+00  0.00000000000E+00  0.13561199334E+04  0.39008077542E+04  0.36574909243E+04 0.  0.
        5    1    3    3  502    0 -0.93762761466E+03  0.71550669983E+03 -0.81248064497E+03  0.14322158600E+04  0.46999998093E+01 0. -1.
       -5    1    3    3    0  502  0.93762761466E+03 -0.71550669983E+03  0.21686005784E+04  0.24685918941E+04  0.46999998093E+01 0.  1.
</event>
<event>
 5   0  0.3278988E-07  0.3691078E+04  0.7818609E-02  0.8069942E-01
        1   -1    0    0  501    0  0.00000000000E+00  0.00000000000E+00  0.15218328045E+04  0.15218328045E+04  0.50400001928E-02 0.  1.
       -1   -1    0    0    0  501  0.00000000000E+00  0.00000000000E+00 -0.22381003140E+04  0.22381003140E+04  0.50400001928E-02 0. -1.
    10030    2    1    2    0    0  0.00000000000E+00  0.00000000000E+00 -0.71626750951E+03  0.37599331185E+04  0.36910781501E+04 0.  0.
        4    1    3    3  502    0 -0.32412161388E+03  0.12833699021E+03 -0.22042570253E+04  0.22316531652E+04  0.12699999809E+01 0. -1.
       -4    1    3    3    0  502  0.32412161388E+03 -0.12833699021E+03  0.14879895157E+04  0.15282799532E+04  0.12699999809E+01 0.  1.
</event>
<event>
 5   0  0.9538919E-07  0.3558989E+04  0.7818609E-02  0.8099951E-01
        2   -1    0    0  501    0  0.00000000000E+00  0.00000000000E+00  0.21167081439E+04  0.21167081439E+04  0.25500000920E-02 0. -1.
       -2   -1    0    0    0  501  0.00000000000E+00  0.00000000000E+00 -0.14960022645E+04  0.14960022645E+04  0.25500000920E-02 0.  1.
    10030    2    1    2    0    0  0.00000000000E+00  0.00000000000E+00  0.62070587942E+03  0.36127104083E+04  0.35589887195E+04 0.  0.
        4    1    3    3  502    0  0.97501654017E+03 -0.11039602208E+04  0.13240321398E+04  0.19805171403E+04  0.12699999809E+01 0. -1.
       -4    1    3    3    0  502 -0.97501654017E+03  0.11039602208E+04 -0.70332626041E+03  0.16321932680E+04  0.12699999809E+01 0.  1.
</event>
<event>
 5   0  0.3159875E-07  0.3724580E+04  0.7818609E-02  0.8062536E-01
        1   -1    0    0  501    0  0.00000000000E+00  0.00000000000E+00  0.27086585643E+04  0.27086585643E+04  0.50400001928E-02 0. -1.
       -1   -1    0    0    0  501  0.00000000000E+00  0.00000000000E+00 -0.12803843744E+04  0.12803843745E+04  0.50400001928E-02 0.  1.
    10030    2    1    2    0    0  0.00000000000E+00  0.00000000000E+00  0.14282741899E+04  0.39890429388E+04  0.37245800308E+04 0.  0.
        5    1    3    3  502    0  0.27301120221E+03 -0.18400407299E+04  0.61944545010E+03  0.19606171885E+04  0.46999998093E+01 0. -1.
       -5    1    3    3    0  502 -0.27301120221E+03  0.18400407299E+04  0.80882873976E+03  0.20284257503E+04  0.46999998093E+01 0.  1.
</event>
<event>
 5   0  0.1031659E-06  0.3516383E+04  0.7818609E-02  0.8109918E-01
       -2   -1    0    0    0  501  0.00000000000E+00  0.00000000000E+00  0.12335666709E+04  0.12335666709E+04  0.25500000920E-02 0.  1.
        2   -1    0    0  501    0  0.00000000000E+00  0.00000000000E+00 -0.25059344223E+04  0.25059344223E+04  0.25500000920E-02 0. -1.
    10030    2    1    2    0    0  0.00000000000E+00  0.00000000000E+00 -0.12723677514E+04  0.37395010932E+04  0.35163829045E+04 0.  0.
        2    1    3    3  502    0  0.12851508693E+04  0.82929386713E+03 -0.15583229454E+04  0.21835089826E+04  0.25500000920E-02 0. -1.
       -2    1    3    3    0  502 -0.12851508693E+04 -0.82929386713E+03  0.28595519399E+03  0.15559921105E+04  0.25500000920E-02 0.  1.
</event>
<event>
 5   0  0.9878336E-07  0.3642852E+04  0.7818609E-02  0.8080746E-01
        2   -1    0    0  501    0  0.00000000000E+00  0.00000000000E+00  0.29550840433E+04  0.29550840433E+04  0.25500000920E-02 0.  1.
       -2   -1    0    0    0  501  0.00000000000E+00  0.00000000000E+00 -0.11226728398E+04  0.11226728398E+04  0.25500000920E-02 0. -1.
    10030    2    1    2    0    0  0.00000000000E+00  0.00000000000E+00  0.18324112035E+04  0.40777568830E+04  0.36428519567E+04 0.  0.
        3    1    3    3  502    0  0.15479174887E+04 -0.95984359262E+03  0.93370207977E+03  0.20467407892E+04  0.10100000352E+00 0.  1.
       -3    1    3    3    0  502 -0.15479174887E+04  0.95984359262E+03  0.89870912374E+03  0.20310160938E+04  0.10100000352E+00 0. -1.
</event>
<event>
 5   0  0.3159875E-07  0.3586990E+04  0.7818609E-02  0.8093478E-01
        1   -1    0    0  501    0  0.00000000000E+00  0.00000000000E+00  0.22395533159E+04  0.22395533159E+04  0.50400001928E-02 0. -1.
       -1   -1    0    0    0  501  0.00000000000E+00  0.00000000000E+00 -0.14362792027E+04  0.14362792028E+04  0.50400001928E-02 0.  1.
    10030    2    1    2    0    0  0.00000000000E+00  0.00000000000E+00  0.80327411319E+03  0.36758325187E+04  0.35869897414E+04 0.  0.
        2    1    3    3  502    0 -0.39703291203E+03 -0.21597054838E+03  0.21802357436E+04  0.22265907367E+04  0.25500000920E-02 0. -1.
       -2    1    3    3    0  502  0.39703291203E+03  0.21597054838E+03 -0.13769616304E+04  0.14492417820E+04  0.25500000920E-02 0.  1.
</event>
<event>
 5   0  0.3159875E-07  0.3538336E+04  0.7818609E-02  0.8104764E-01
        1   -1    0    0  501    0  0.00000000000E+00  0.00000000000E+00  0.16201960512E+04  0.16201960512E+04  0.50400001928E-02 0.  1.
       -1   -1    0    0    0  501  0.00000000000E+00  0.00000000000E+00 -0.19318375523E+04  0.19318375523E+04  0.50400001928E-02 0. -1.
    10030    2    1    2    0    0  0.00000000000E+00  0.00000000000E+00 -0.31164150110E+03  0.35520336035E+04  0.35383360913E+04 0.  0.
        5    1    3    3  502    0  0.16075385676E+04  0.19250456966E+03  0.56016901624E+03  0.17131986670E+04  0.46999998093E+01 0.  1.
       -5    1    3    3    0  502 -0.16075385676E+04 -0.19250456966E+03 -0.87181051735E+03  0.18388349365E+04  0.46999998093E+01 0. -1.
</event>
<event>
 5   0  0.9878336E-07  0.3593519E+04  0.7818609E-02  0.8091978E-01
        2   -1    0    0  501    0  0.00000000000E+00  0.00000000000E+00  0.30745734489E+04  0.30745734489E+04  0.25500000920E-02 0. -1.
       -2   -1    0    0    0  501  0.00000000000E+00  0.00000000000E+00 -0.10500141134E+04  0.10500141134E+04  0.25500000920E-02 0.  1.
    10030    2    1    2    0    0  0.00000000000E+00  0.00000000000E+00  0.20245593355E+04  0.41245875622E+04  0.35935194525E+04 0.  0.
        3    1    3    3  502    0 -0.13160059771E+04  0.91913906373E+03  0.85726999244E+02  0.16074941614E+04  0.10100000352E+00 0.  1.
       -3    1    3    3    0  502  0.13160059771E+04 -0.91913906373E+03  0.19388323362E+04  0.25170934008E+04  0.10100000352E+00 0. -1.
</event>
<event>
 5   0  0.9878336E-07  0.3535973E+04  0.7818609E-02  0.8105317E-01
        2   -1    0    0  501    0  0.00000000000E+00  0.00000000000E+00  0.21552973946E+04  0.21552973946E+04  0.25500000920E-02 0.  1.
       -2   -1    0    0    0  501  0.00000000000E+00  0.00000000000E+00 -0.14502760284E+04  0.14502760284E+04  0.25500000920E-02 0. -1.
    10030    2    1    2    0    0  0.00000000000E+00  0.00000000000E+00  0.70502136617E+03  0.36055734231E+04  0.35359729329E+04 0.  0.
        3    1    3    3  502    0 -0.13926644104E+04  0.10880112804E+04  0.30159355349E+03  0.17928305520E+04  0.10100000352E+00 0. -1.
       -3    1    3    3    0  502  0.13926644104E+04 -0.10880112804E+04  0.40342781268E+03  0.18127428711E+04  0.10100000352E+00 0.  1.
</event>
<event>
 5   0  0.1031659E-06  0.3615998E+04  0.7818609E-02  0.8086837E-01
        2   -1    0    0  501    0  0.00000000000E+00  0.00000000000E+00  0.22423866603E+04  0.22423866603E+04  0.25500000920E-02 0.  1.
       -2   -1    0    0    0  501  0.00000000000E+00  0.00000000000E+00 -0.14577596031E+04  0.14577596031E+04  0.25500000920E-02 0. -1.
    10030    2    1    2    0    0  0.00000000000E+00  0.00000000000E+00  0.78462705727E+03  0.37001462634E+04  0.36159981681E+04 0.  0.
        2    1    3    3  502    0 -0.13351986207E+04  0.11075681201E+04 -0.12885017414E+03  0.17395588132E+04  0.25500000920E-02 0. -1.
       -2    1    3    3    0  502  0.13351986207E+04 -0.11075681201E+04  0.91347723141E+03  0.19605874501E+04  0.25500000920E-02 0.  1.
</event>
<event>
 5   0  0.3242047E-07  0.3321501E+04  0.7818609E-02  0.8157446E-01
       -1   -1    0    0    0  501  0.00000000000E+00  0.00000000000E+00  0.28157921070E+04  0.28157921070E+04  0.50400001928E-02 0. -1.
        1   -1    0    0  501    0  0.00000000000E+00  0.00000000000E+00 -0.97950872474E+03  0.97950872475E+03  0.50400001928E-02 0.  1.
    10030    2    1    2    0    0  0.00000000000E+00  0.00000000000E+00  0.18362833822E+04  0.37953008317E+04  0.33215014291E+04 0.  0.
        1    1    3    3  502    0 -0.61186748347E+03  0.12946044615E+04 -0.43115392014E+02  0.14325646464E+04  0.50400001928E-02 0.  1.
       -1    1    3    3    0  502  0.61186748347E+03 -0.12946044615E+04  0.18793987742E+04  0.23627361854E+04  0.50400001928E-02 0. -1.
</event>
<event>
 5   0  0.9538919E-07  0.3583625E+04  0.7818609E-02  0.8094253E-01
       -2   -1    0    0    0  501  0.00000000000E+00  0.00000000000E+00  0.20911980751E+04  0.20911980751E+04  0.25500000920E-02 0.  1.
        2   -1    0    0  501    0  0.00000000000E+00  0.00000000000E+00 -0.15352882727E+04  0.15352882727E+04  0.25500000920E-02 0. -1.
    10030    2    1    2    0    0  0.00000000000E+00  0.00000000000E+00  0.55590980238E+03  0.36264863478E+04  0.35836249137E+04 0.  0.
        4    1    3    3  502    0  0.22098359601E+02  0.25199262176E+03  0.20730372753E+04  0.20884141775E+04  0.12699999809E+01 0.  1.
       -4    1    3    3    0  502 -0.22098359601E+02 -0.25199262176E+03 -0.15171274730E+04  0.15380721703E+04  0.12699999809E+01 0. -1.
</event>
<event>
 5   0  0.9878336E-07  0.3010932E+04  0.7818609E-02  0.8240616E-01
       -2   -1    0    0    0  501  0.00000000000E+00  0.00000000000E+00  0.12966073528E+04  0.12966073528E+04  0.25500000920E-02 0.  1.
        2   -1    0    0  501    0  0.00000000000E+00  0.00000000000E+00 -0.17479681267E+04  0.17479681267E+04  0.25500000920E-02 0. -1.
    10030    2    1    2    0    0  0.00000000000E+00  0.00000000000E+00 -0.45136077388E+03  0.30445754794E+04  0.30109322978E+04 0.  0.
        3    1    3    3  502    0  0.11750735371E+04  0.26116175613E+03  0.68853751702E+03  0.13867541971E+04  0.10100000352E+00 0.  1.
       -3    1    3    3    0  502 -0.11750735371E+04 -0.26116175613E+03 -0.11398982909E+04  0.16578212824E+04  0.10100000352E+00 0. -1.
</event>
<event>
 5   0  0.3159875E-07  0.2936604E+04  0.7818609E-02  0.8262069E-01
        1   -1    0    0  501    0  0.00000000000E+00  0.00000000000E+00  0.19245932349E+04  0.19245932349E+04  0.50400001928E-02 0. -1.
       -1   -1    0    0    0  501  0.00000000000E+00  0.00000000000E+00 -0.11201906828E+04  0.11201906828E+04  0.50400001928E-02 0.  1.
    10030    2    1    2    0    0  0.00000000000E+00  0.00000000000E+00  0.80440255210E+03  0.30447839177E+04  0.29366044404E+04 0.  0.
        2    1    3    3  502    0  0.80473170021E+02  0.13366665716E+04  0.10266826630E+04  0.16873739198E+04  0.25500000920E-02 0. -1.
       -2    1    3    3    0  502 -0.80473170021E+02 -0.13366665716E+04 -0.22228011088E+03  0.13574099979E+04  0.25500000920E-02 0.  1.
</event>
<event>
 5   0  0.3242047E-07  0.3628911E+04  0.7818609E-02  0.8083901E-01
        1   -1    0    0  501    0  0.00000000000E+00  0.00000000000E+00  0.20458052107E+04  0.20458052107E+04  0.50400001928E-02 0.  1.
       -1   -1    0    0    0  501  0.00000000000E+00  0.00000000000E+00 -0.16092683459E+04  0.16092683459E+04  0.50400001928E-02 0. -1.
    10030    2    1    2    0    0  0.00000000000E+00  0.00000000000E+00  0.43653686480E+03  0.36550735566E+04  0.36289114442E+04 0.  0.
        1    1    3    3  502    0  0.15521288823E+03 -0.12596828248E+04  0.15242883812E+04  0.19835188249E+04  0.50400001928E-02 0.  1.
       -1    1    3    3    0  502 -0.15521288823E+03  0.12596828248E+04 -0.10877515164E+04  0.16715547317E+04  0.50400001928E-02 0. -1.
</event>
<event>
 5   0  0.1006019E-06  0.3784903E+04  0.7818609E-02  0.8049402E-01
        2   -1    0    0  501    0  0.00000000000E+00  0.00000000000E+00  0.18771422269E+04  0.18771422269E+04  0.25500000920E-02 0. -1.
       -2   -1    0    0    0  501  0.00000000000E+00  0.00000000000E+00 -0.19078856189E+04  0.19078856189E+04  0.25500000920E-02 0.  1.
    10030    2    1    2    0    0  0.00000000000E+00  0.00000000000E+00 -0.30743391935E+02  0.37850278458E+04  0.37849029891E+04 0.  0.
        1    1    3    3  502    0 -0.46523888728E+01  0.18923448573E+04 -0.34916022389E+02  0.18926726691E+04  0.50400001928E-02 0.  1.
       -1    1    3    3    0  502  0.46523888728E+01 -0.18923448573E+04  0.41726304543E+01  0.18923551767E+04  0.50400001928E-02 0. -1.
</event>
<event>
 5   0  0.3159875E-07  0.3602962E+04  0.7818609E-02  0.8089813E-01
        1   -1    0    0  501    0  0.00000000000E+00  0.00000000000E+00  0.20716266077E+04  0.20716266077E+04  0.50400001928E-02 0.  1.
       -1   -1    0    0    0  501  0.00000000000E+00  0.00000000000E+00 -0.15665633971E+04  0.15665633971E+04  0.50400001928E-02 0. -1.
    10030    2    1    2    0    0  0.00000000000E+00  0.00000000000E+00  0.50506321062E+03  0.36381900048E+04  0.36029623456E+04 0.  0.
        5    1    3    3  502    0 -0.41052507614E+03  0.87585208498E+03  0.17871489883E+04  0.20321346681E+04  0.46999998093E+01 0.  1.
       -5    1    3    3    0  502  0.41052507614E+03 -0.87585208498E+03 -0.12820857777E+04  0.16060553366E+04  0.46999998093E+01 0. -1.
</event>
<event>
 5   0  0.3242047E-07  0.2644681E+04  0.7818609E-02  0.8353181E-01
       -1   -1    0    0    0  501  0.00000000000E+00  0.00000000000E+00  0.21423320107E+04  0.21423320107E+04  0.50400001928E-02 0. -1.
        1   -1    0    0  501    0  0.00000000000E+00  0.00000000000E+00 -0.81620603032E+03  0.81620603033E+03  0.50400001928E-02 0.  1.
    10030    2    1    2    0    0  0.00000000000E+00  0.00000000000E+00  0.13261259804E+04  0.29585380410E+04  0.26446809305E+04 0.  0.
        1    1    3    3  502    0  0.90462895687E+03  0.86580972257E+03  0.18765344843E+03  0.12661729116E+04  0.50400001928E-02 0. -1.
       -1    1    3    3    0  502 -0.90462895687E+03 -0.86580972257E+03  0.11384725320E+04  0.16923651294E+04  0.50400001928E-02 0.  1.
</event>
<event>
 5   0  0.9878336E-07  0.3620869E+04  0.7818609E-02  0.8085728E-01
       -2   -1    0    0    0  501  0.00000000000E+00  0.00000000000E+00  0.16626682223E+04  0.16626682223E+04  0.25500000920E-02 0. -1.
        2   -1    0    0  501    0  0.00000000000E+00  0.00000000000E+00 -0.19713326893E+04  0.19713326893E+04  0.25500000920E-02 0.  1.
    10030    2    1    2    0    0  0.00000000000E+00  0.00000000000E+00 -0.30866446699E+03  0.36340009115E+04  0.36208685245E+04 0.  0.
        3    1    3    3  502    0  0.17256159443E+04 -0.21150329436E+03  0.35266145266E+03  0.17739374683E+04  0.10100000352E+00 0. -1.
       -3    1    3    3    0  502 -0.17256159443E+04  0.21150329436E+03 -0.66132591965E+03  0.18600634433E+04  0.10100000352E+00 0.  1.
</event>
<event>
 5   0  0.3242047E-07  0.3640586E+04  0.7818609E-02  0.8081258E-01
       -1   -1    0    0    0  501  0.00000000000E+00  0.00000000000E+00  0.16921505675E+04  0.16921505675E+04  0.50400001928E-02 0. -1.
        1   -1    0    0  501    0  0.00000000000E+00  0.00000000000E+00 -0.19581397116E+04  0.19581397116E+04  0.50400001928E-02 0.  1.
    10030    2    1    2    0    0  0.00000000000E+00  0.00000000000E+00 -0.26598914408E+03  0.36502902791E+04  0.36405863397E+04 0.  0.
        1    1    3    3  502    0 -0.11279470395E+04  0.89098745611E+03  0.98682794813E+03  0.17435459759E+04  0.50400001928E-02 0. -1.
       -1    1    3    3    0  502  0.11279470395E+04 -0.89098745611E+03 -0.12528170922E+04  0.19067443031E+04  0.50400001928E-02 0.  1.
</event>
<event>
 5   0  0.3242047E-07  0.3489205E+04  0.7818609E-02  0.8116353E-01
       -1   -1    0    0    0  501  0.00000000000E+00  0.00000000000E+00  0.15221112864E+04  0.15221112864E+04  0.50400001928E-02 0. -1.
        1   -1    0    0  501    0  0.00000000000E+00  0.00000000000E+00 -0.19996157151E+04  0.19996157151E+04  0.50400001928E-02 0.  1.
    10030    2    1    2    0    0  0.00000000000E+00  0.00000000000E+00 -0.47750442865E+03  0.35217270015E+04  0.34892048655E+04 0.  0.
        1    1    3    3  502    0 -0.11607090957E+04 -0.11698981080E+04 -0.81656563100E+03  0.18392081496E+04  0.50400001928E-02 0. -1.
       -1    1    3    3    0  502  0.11607090957E+04  0.11698981080E+04  0.33906120235E+03  0.16825188519E+04  0.50400001928E-02 0.  1.
</event>
<event>
 5   0  0.3159875E-07  0.3645055E+04  0.7818609E-02  0.8080249E-01
        1   -1    0    0  501    0  0.00000000000E+00  0.00000000000E+00  0.10283327241E+04  0.10283327241E+04  0.50400001928E-02 0. -1.
       -1   -1    0    0    0  501  0.00000000000E+00  0.00000000000E+00 -0.32300884331E+04  0.32300884331E+04  0.50400001928E-02 0.  1.
    10030    2    1    2    0    0  0.00000000000E+00  0.00000000000E+00 -0.22017557090E+04  0.42584211572E+04  0.36450545331E+04 0.  0.
        2    1    3    3  502    0 -0.86756454430E+03  0.85463410250E+03  0.48321589410E+03  0.13101775788E+04  0.25500000920E-02 0. -1.
       -2    1    3    3    0  502  0.86756454430E+03 -0.85463410250E+03 -0.26849716031E+04  0.29482435784E+04  0.25500000920E-02 0.  1.
</event>
<event>
 5   0  0.1006019E-06  0.3536132E+04  0.7818609E-02  0.8105280E-01
        2   -1    0    0  501    0  0.00000000000E+00  0.00000000000E+00  0.15115707926E+04  0.15115707926E+04  0.25500000920E-02 0.  1.
       -2   -1    0    0    0  501  0.00000000000E+00  0.00000000000E+00 -0.20680853459E+04  0.20680853459E+04  0.25500000920E-02 0. -1.
    10030    2    1    2    0    0  0.00000000000E+00  0.00000000000E+00 -0.55651455326E+03  0.35796561385E+04  0.35361320142E+04 0.  0.
        1    1    3    3  502    0 -0.10170453984E+04  0.10745386436E+03 -0.17382747412E+04  0.20168110351E+04  0.50400001928E-02 0. -1.
       -1    1    3    3    0  502  0.10170453984E+04 -0.10745386436E+03  0.11817601880E+04  0.15628451034E+04  0.50400001928E-02 0.  1.
</event>
<event>
 5   0  0.9878336E-07  0.3543496E+04  0.7818609E-02  0.8103559E-01
       -2   -1    0    0    0  501  0.00000000000E+00  0.00000000000E+00  0.13570564444E+04  0.13570564444E+04  0.25500000920E-02 0.  1.
        2   -1    0    0  501    0  0.00000000000E+00  0.00000000000E+00 -0.23131610796E+04  0.23131610796E+04  0.25500000920E-02 0. -1.
    10030    2    1    2    0    0  0.00000000000E+00  0.00000000000E+00 -0.95610463524E+03  0.36702175240E+04  0.35434955340E+04 0.  0.
        3    1    3    3  502    0  0.77936040207E+03  0.15170936755E+04  0.18805014145E+02  0.17056756712E+04  0.10100000352E+00 0.  1.
       -3    1    3    3    0  502 -0.77936040207E+03 -0.15170936755E+04 -0.97490964939E+03  0.19645418528E+04  0.10100000352E+00 0. -1.
</event>
<event>
 5   0  0.1031659E-06  0.3474571E+04  0.7818609E-02  0.8119843E-01
       -2   -1    0    0    0  501  0.00000000000E+00  0.00000000000E+00  0.15952673615E+04  0.15952673615E+04  0.25500000920E-02 0.  1.
        2   -1    0    0  501    0  0.00000000000E+00  0.00000000000E+00 -0.18919462901E+04  0.18919462901E+04  0.25500000920E-02 0. -1.
    10030    2    1    2    0    0  0.00000000000E+00  0.00000000000E+00 -0.29667892859E+03  0.34872136516E+04  0.34745705728E+04 0.  0.
        2    1    3    3  502    0  0.87234454550E+02 -0.17229861382E+04 -0.35370338537E+03  0.17610784103E+04  0.25500000920E-02 0. -1.
       -2    1    3    3    0  502 -0.87234454550E+02  0.17229861382E+04  0.57024456781E+02  0.17261352413E+04  0.25500000920E-02 0.  1.
</event>
<event>
 5   0  0.9538919E-07  0.3600637E+04  0.7818609E-02  0.8090346E-01
       -2   -1    0    0    0  501  0.00000000000E+00  0.00000000000E+00  0.11998396166E+04  0.11998396166E+04  0.25500000920E-02 0.  1.
        2   -1    0    0  501    0  0.00000000000E+00  0.00000000000E+00 -0.27013162186E+04  0.27013162186E+04  0.25500000920E-02 0. -1.
    10030    2    1    2    0    0  0.00000000000E+00  0.00000000000E+00 -0.15014766020E+04  0.39011558352E+04  0.36006367304E+04 0.  0.
        4    1    3    3  502    0 -0.19290583053E+03  0.10323352364E+04  0.83357026072E+03  0.13408093423E+04  0.12699999809E+01 0.  1.
       -4    1    3    3    0  502  0.19290583053E+03 -0.10323352364E+04 -0.23350468627E+04  0.25603464929E+04  0.12699999809E+01 0. -1.
</event>
<event>
 5   0  0.9878336E-07  0.3645445E+04  0.7818609E-02  0.8080161E-01
       -2   -1    0    0    0  501  0.00000000000E+00  0.00000000000E+00  0.12584338034E+04  0.12584338034E+04  0.25500000920E-02 0. -1.
        2   -1    0    0  501    0  0.00000000000E+00  0.00000000000E+00 -0.26400417526E+04  0.26400417526E+04  0.25500000920E-02 0.  1.
    10030    2    1    2    0    0  0.00000000000E+00  0.00000000000E+00 -0.13816079492E+04  0.38984755561E+04  0.36454452589E+04 0.  0.
        3    1    3    3  502    0  0.26158100750E+02  0.95589492350E+03  0.96864275473E+03  0.13611348748E+04  0.10100000352E+00 0. -1.
       -3    1    3    3    0  502 -0.26158100750E+02 -0.95589492350E+03 -0.23502507039E+04  0.25373406812E+04  0.10100000352E+00 0.  1.
</event>
<event>
 5   0  0.3242047E-07  0.3735908E+04  0.7818609E-02  0.8060050E-01
       -1   -1    0    0    0  501  0.00000000000E+00  0.00000000000E+00  0.14837642002E+04  0.14837642002E+04  0.50400001928E-02 0.  1.
        1   -1    0    0  501    0  0.00000000000E+00  0.00000000000E+00 -0.23516221481E+04  0.23516221481E+04  0.50400001928E-02 0. -1.
    10030    2    1    2    0    0  0.00000000000E+00  0.00000000000E+00 -0.86785794792E+03  0.38353863484E+04  0.37359083264E+04 0.  0.
        1    1    3    3  502    0  0.12928223100E+04  0.72508044529E+03  0.73305420735E+03  0.16536322591E+04  0.50400001928E-02 0.  1.
       -1    1    3    3    0  502 -0.12928223100E+04 -0.72508044529E+03 -0.16009121553E+04  0.21817540893E+04  0.50400001928E-02 0. -1.
</event>
<event>
 5   0  0.3159875E-07  0.3563375E+04  0.7818609E-02  0.8098933E-01
       -3   -1    0    0    0  501  0.00000000000E+00  0.00000000000E+00  0.21360549417E+04  0.21360549441E+04  0.10100000352E+00 0. -1.
        3   -1    0    0  501    0  0.00000000000E+00  0.00000000000E+00 -0.14861088389E+04  0.14861088424E+04  0.10100000352E+00 0.  1.
    10030    2    1    2    0    0  0.00000000000E+00  0.00000000000E+00  0.64994610274E+03  0.36221637864E+04  0.35633748833E+04 0.  0.
        5    1    3    3  502    0  0.65872451368E+03 -0.94688978165E+03 -0.10553212536E+04  0.15634075866E+04  0.46999998093E+01 0.  1.
       -5    1    3    3    0  502 -0.65872451368E+03  0.94688978165E+03  0.17052673564E+04  0.20587561998E+04  0.46999998093E+01 0. -1.
</event>
<event>
 5   0  0.9538919E-07  0.3848121E+04  0.7818609E-02  0.8035906E-01
        2   -1    0    0  501    0  0.00000000000E+00  0.00000000000E+00  0.22816002338E+04  0.22816002338E+04  0.25500000920E-02 0.  1.
       -2   -1    0    0    0  501  0.00000000000E+00  0.00000000000E+00 -0.16225495356E+04  0.16225495356E+04  0.25500000920E-02 0. -1.
    10030    2    1    2    0    0  0.00000000000E+00  0.00000000000E+00  0.65905069820E+03  0.39041497694E+04  0.38481213077E+04 0.  0.
        4    1    3    3  502    0 -0.10238922184E+04 -0.83278183995E+01 -0.13231748008E+04  0.16730863079E+04  0.12699999809E+01 0. -1.
       -4    1    3    3    0  502  0.10238922184E+04  0.83278183995E+01  0.19822254990E+04  0.22310634615E+04  0.12699999809E+01 0.  1.
</event>
<event>
 5   0  0.1031659E-06  0.3577276E+04  0.7818609E-02  0.8095717E-01
        2   -1    0    0  501    0  0.00000000000E+00  0.00000000000E+00  0.18867700542E+04  0.18867700542E+04  0.25500000920E-02 0.  1.
       -2   -1    0    0    0  501  0.00000000000E+00  0.00000000000E+00 -0.16956102569E+04  0.16956102569E+04  0.25500000920E-02 0. -1.
    10030    2    1    2    0    0  0.00000000000E+00  0.00000000000E+00  0.19115979730E+03  0.35823803110E+04  0.35772764255E+04 0.  0.
        2    1    3    3  502    0 -0.16518101704E+04 -0.62832636416E+03  0.37157390555E+03  0.18059175026E+04  0.25500000920E-02 0. -1.
       -2    1    3    3    0  502  0.16518101704E+04  0.62832636416E+03 -0.18041410825E+03  0.17764628084E+04  0.25500000920E-02 0.  1.
</event>
<event>
 5   0  0.3159875E-07  0.3685853E+04  0.7818609E-02  0.8071104E-01
       -1   -1    0    0    0  501  0.00000000000E+00  0.00000000000E+00  0.17048204832E+04  0.17048204832E+04  0.50400001928E-02 0. -1.
        1   -1    0    0  501    0  0.00000000000E+00  0.00000000000E+00 -0.19922203815E+04  0.19922203815E+04  0.50400001928E-02 0.  1.
    10030    2    1    2    0    0  0.00000000000E+00  0.00000000000E+00 -0.28739989834E+03  0.36970408647E+04  0.36858530157E+04 0.  0.
        2    1    3    3  502    0  0.14761005396E+04  0.10706239959E+04 -0.41147388863E+03  0.18693365947E+04  0.25500000920E-02 0.  1.
       -2    1    3    3    0  502 -0.14761005396E+04 -0.10706239959E+04  0.12407399029E+03  0.18277042700E+04  0.25500000920E-02 0. -1.
</event>
<event>
 5   0  0.3159875E-07  0.3615941E+04  0.7818609E-02  0.8086850E-01
        1   -1    0    0  501    0  0.00000000000E+00  0.00000000000E+00  0.18393882761E+04  0.18393882761E+04  0.50400001928E-02 0.  1.
       -1   -1    0    0    0  501  0.00000000000E+00  0.00000000000E+00 -0.17770892038E+04  0.17770892038E+04  0.50400001928E-02 0. -1.
    10030    2    1    2    0    0  0.00000000000E+00  0.00000000000E+00  0.62299072295E+02  0.36164774799E+04  0.36159408441E+04 0.  0.
        2    1    3    3  502    0  0.36624052969E+03  0.10221627256E+04  0.14769809993E+04  0.18331452849E+04  0.25500000920E-02 0.  1.
       -2    1    3    3    0  502 -0.36624052969E+03 -0.10221627256E+04 -0.14146819270E+04  0.17833321950E+04  0.25500000920E-02 0. -1.
</event>
<event>
 5   0  0.1006019E-06  0.3540660E+04  0.7818609E-02  0.8104221E-01
        2   -1    0    0  501    0  0.00000000000E+00  0.00000000000E+00  0.16563283224E+04  0.16563283224E+04  0.25500000920E-02 0. -1.
       -2   -1    0    0    0  501  0.00000000000E+00  0.00000000000E+00 -0.18921786453E+04  0.18921786453E+04  0.25500000920E-02 0.  1.
    10030    2    1    2    0    0  0.00000000000E+00  0.00000000000E+00 -0.23585032287E+03  0.35485069677E+04  0.35406604363E+04 0.  0.
        1    1    3    3  502    0  0.11752965712E+04 -0.11872085440E+04 -0.70512710528E+03  0.18132816637E+04  0.50400001928E-02 0. -1.
       -1    1    3    3    0  502 -0.11752965712E+04  0.11872085440E+04  0.46927678241E+03  0.17352253040E+04  0.50400001928E-02 0.  1.
</event>
<event>
 5   0  0.3242047E-07  0.3589166E+04  0.7818609E-02  0.8092978E-01
       -1   -1    0    0    0  501  0.00000000000E+00  0.00000000000E+00  0.13475029753E+04  0.13475029753E+04  0.50400001928E-02 0. -1.
        1   -1    0    0  501    0  0.00000000000E+00  0.00000000000E+00 -0.23899976682E+04  0.23899976682E+04  0.50400001928E-02 0.  1.
    10030    2    1    2    0    0  0.00000000000E+00  0.00000000000E+00 -0.10424946929E+04  0.37375006435E+04  0.35891664597E+04 0.  0.
        1    1    3    3  502    0 -0.10842855099E+04  0.59169677407E+03 -0.18768747730E+04  0.22468731724E+04  0.50400001928E-02 0.  1.
       -1    1    3    3    0  502  0.10842855099E+04 -0.59169677407E+03  0.83438008012E+03  0.14906274711E+04  0.50400001928E-02 0. -1.
</event>
<event>
 5   0  0.3159875E-07  0.3606076E+04  0.7818609E-02  0.8089101E-01
       -1   -1    0    0    0  501  0.00000000000E+00  0.00000000000E+00  0.19600281558E+04  0.19600281558E+04  0.50400001928E-02 0.  1.
        1   -1    0    0  501    0  0.00000000000E+00  0.00000000000E+00 -0.16586225297E+04  0.16586225297E+04  0.50400001928E-02 0. -1.
    10030    2    1    2    0    0  0.00000000000E+00  0.00000000000E+00  0.30140562605E+03  0.36186506855E+04  0.36060764595E+04 0.  0.
        5    1    3    3  502    0  0.15864665943E+04 -0.83420356316E+03 -0.45306032456E+02  0.17929993213E+04  0.46999998093E+01 0. -1.
       -5    1    3    3    0  502 -0.15864665943E+04  0.83420356316E+03  0.34671165850E+03  0.18256513642E+04  0.46999998093E+01 0.  1.
</event>
<event>
 5   0  0.3242047E-07  0.3602981E+04  0.7818609E-02  0.8089809E-01
       -1   -1    0    0    0  501  0.00000000000E+00  0.00000000000E+00  0.17756398375E+04  0.17756398375E+04  0.50400001928E-02 0. -1.
        1   -1    0    0  501    0  0.00000000000E+00  0.00000000000E+00 -0.18277176314E+04  0.18277176314E+04  0.50400001928E-02 0.  1.
    10030    2    1    2    0    0  0.00000000000E+00  0.00000000000E+00 -0.52077793890E+02  0.36033574689E+04  0.36029811201E+04 0.  0.
        1    1    3    3  502    0  0.70719746502E+03 -0.28600893131E+03 -0.16582139249E+04  0.18252678664E+04  0.50400001928E-02 0.  1.
       -1    1    3    3    0  502 -0.70719746502E+03  0.28600893131E+03  0.16061361310E+04  0.17780896025E+04  0.50400001928E-02 0. -1.
</event>
<event>
 5   0  0.3365378E-07  0.3579567E+04  0.7818609E-02  0.8095188E-01
       -1   -1    0    0    0  501  0.00000000000E+00  0.00000000000E+00  0.14234584178E+04  0.14234584178E+04  0.50400001928E-02 0.  1.
        1   -1    0    0  501    0  0.00000000000E+00  0.00000000000E+00 -0.22503823823E+04  0.22503823823E+04  0.50400001928E-02 0. -1.
    10030    2    1    2    0    0  0.00000000000E+00  0.00000000000E+00 -0.82692396446E+03  0.36738408001E+04  0.35795674294E+04 0.  0.
        3    1    3    3  502    0 -0.17542840889E+04  0.28009137007E+03 -0.19010253736E+03  0.17866456909E+04  0.10100000352E+00 0.  1.
       -3    1    3    3    0  502  0.17542840889E+04 -0.28009137007E+03 -0.63682142710E+03  0.18871951092E+04  0.10100000352E+00 0. -1.
</event>
<event>
 5   0  0.9878336E-07  0.3566762E+04  0.7818609E-02  0.8098148E-01
        2   -1    0    0  501    0  0.00000000000E+00  0.00000000000E+00  0.21527406998E+04  0.21527406998E+04  0.25500000920E-02 0.  1.
       -2   -1    0    0    0  501  0.00000000000E+00  0.00000000000E+00 -0.14773946033E+04  0.14773946033E+04  0.25500000920E-02 0. -1.
    10030    2    1    2    0    0  0.00000000000E+00  0.00000000000E+00  0.67534609644E+03  0.36301353031E+04  0.35667618324E+04 0.  0.
        3    1    3    3  502    0 -0.87093674816E+03 -0.15325450605E+04  0.61307713850E+03  0.18663035041E+04  0.10100000352E+00 0. -1.
       -3    1    3    3    0  502  0.87093674816E+03  0.15325450605E+04  0.62268957933E+02  0.17638317989E+04  0.10100000352E+00 0.  1.
</event>
<event>
 5   0  0.1006019E-06  0.3333869E+04  0.7818609E-02  0.8154330E-01
        2   -1    0    0  501    0  0.00000000000E+00  0.00000000000E+00  0.21366049772E+04  0.21366049772E+04  0.25500000920E-02 0. -1.
       -2   -1    0    0    0  501  0.00000000000E+00  0.00000000000E+00 -0.13005077691E+04  0.13005077691E+04  0.25500000920E-02 0.  1.
    10030    2    1    2    0    0  0.00000000000E+00  0.00000000000E+00  0.83609720807E+03  0.34371127462E+04  0.33338694469E+04 0.  0.
        1    1    3    3  502    0  0.85311053061E+03 -0.13285221605E+04 -0.13320861541E+03  0.15844599218E+04  0.50400001928E-02 0.  1.
       -1    1    3    3    0  502 -0.85311053061E+03  0.13285221605E+04  0.96930582348E+03  0.18526528245E+04  0.50400001928E-02 0. -1.
</event>
<event>
 5   0  0.9538919E-07  0.3613254E+04  0.7818609E-02  0.8087462E-01
       -2   -1    0    0    0  501  0.00000000000E+00  0.00000000000E+00  0.15373963418E+04  0.15373963418E+04  0.25500000920E-02 0. -1.
        2   -1    0    0  501    0  0.00000000000E+00  0.00000000000E+00 -0.21230055998E+04  0.21230055998E+04  0.25500000920E-02 0.  1.
    10030    2    1    2    0    0  0.00000000000E+00  0.00000000000E+00 -0.58560925798E+03  0.36604019416E+04  0.36132539588E+04 0.  0.
        4    1    3    3  502    0  0.15306868693E+04 -0.93306487885E+03 -0.51997854039E+03  0.18665453799E+04  0.12699999809E+01 0.  1.
       -4    1    3    3    0  502 -0.15306868693E+04  0.93306487885E+03 -0.65630717594E+02  0.17938565617E+04  0.12699999809E+01 0. -1.
</event>
<event>
 5   0  0.3159875E-07  0.3565342E+04  0.7818609E-02  0.8098477E-01
       -1   -1    0    0    0  501  0.00000000000E+00  0.00000000000E+00  0.12148391831E+04  0.12148391831E+04  0.50400001928E-02 0.  1.
        1   -1    0    0  501    0  0.00000000000E+00  0.00000000000E+00 -0.26159141976E+04  0.26159141976E+04  0.50400001928E-02 0. -1.
    10030    2    1    2    0    0  0.00000000000E+00  0.00000000000E+00 -0.14010750145E+04  0.38307533807E+04  0.35653415359E+04 0.  0.
        2    1    3    3  502    0  0.30164936253E+03  0.10951604349E+04 -0.21766921858E+04  0.24552713879E+04  0.25500000920E-02 0. -1.
       -2    1    3    3    0  502 -0.30164936253E+03 -0.10951604349E+04  0.77561717134E+03  0.13754819929E+04  0.25500000920E-02 0.  1.
</event>
<event>
 5   0  0.9878977E-07  0.3607780E+04  0.7818609E-02  0.8088712E-01
       -2   -1    0    0    0  501  0.00000000000E+00  0.00000000000E+00  0.29688483741E+04  0.29688483741E+04  0.25500000920E-02 0. -1.
        2   -1    0    0  501    0  0.00000000000E+00  0.00000000000E+00 -0.10960546040E+04  0.10960546040E+04  0.25500000920E-02 0.  1.
    10030    2    1    2    0    0  0.00000000000E+00  0.00000000000E+00  0.18727937701E+04  0.40649029781E+04  0.36077804418E+04 0.  0.
        5    1    3    3  502    0 -0.10825536516E+04  0.65431039439E+03  0.23854079800E+04  0.27000440407E+04  0.46999998093E+01 0. -1.
       -5    1    3    3    0  502  0.10825536516E+04 -0.65431039439E+03 -0.51261420991E+03  0.13648589374E+04  0.46999998093E+01 0.  1.
</event>
<event>
 5   0  0.9878977E-07  0.3325085E+04  0.7818609E-02  0.8156542E-01
        2   -1    0    0  501    0  0.00000000000E+00  0.00000000000E+00  0.17286263307E+04  0.17286263307E+04  0.25500000920E-02 0. -1.
       -2   -1    0    0    0  501  0.00000000000E+00  0.00000000000E+00 -0.15989848794E+04  0.15989848794E+04  0.25500000920E-02 0.  1.
    10030    2    1    2    0    0  0.00000000000E+00  0.00000000000E+00  0.12964145133E+03  0.33276112101E+04  0.33250848801E+04 0.  0.
        5    1    3    3  502    0  0.38458052985E+03  0.80615132734E+03  0.14681140251E+04  0.17184769499E+04  0.46999998093E+01 0. -1.
       -5    1    3    3    0  502 -0.38458052985E+03 -0.80615132734E+03 -0.13384725738E+04  0.16091342602E+04  0.46999998093E+01 0.  1.
</event>
<event>
 5   0  0.9878336E-07  0.3601992E+04  0.7818609E-02  0.8090036E-01
       -2   -1    0    0    0  501  0.00000000000E+00  0.00000000000E+00  0.11592124274E+04  0.11592124274E+04  0.25500000920E-02 0. -1.
        2   -1    0    0  501    0  0.00000000000E+00  0.00000000000E+00 -0.27980945972E+04  0.27980945972E+04  0.25500000920E-02 0.  1.
    10030    2    1    2    0    0  0.00000000000E+00  0.00000000000E+00 -0.16388821698E+04  0.39573070246E+04  0.36019916880E+04 0.  0.
        3    1    3    3  502    0 -0.17065873555E+04  0.89405872925E+02 -0.19490058972E+03  0.17200058321E+04  0.10100000352E+00 0.  1.
       -3    1    3    3    0  502  0.17065873555E+04 -0.89405872925E+02 -0.14439815801E+04  0.22373011925E+04  0.10100000352E+00 0. -1.
</event>
<event>
 5   0  0.9878977E-07  0.3604897E+04  0.7818609E-02  0.8089371E-01
        2   -1    0    0  501    0  0.00000000000E+00  0.00000000000E+00  0.31085373690E+04  0.31085373690E+04  0.25500000920E-02 0.  1.
       -2   -1    0    0    0  501  0.00000000000E+00  0.00000000000E+00 -0.10451285351E+04  0.10451285351E+04  0.25500000920E-02 0. -1.
    10030    2    1    2    0    0  0.00000000000E+00  0.00000000000E+00  0.20634088339E+04  0.41536659041E+04  0.36048972838E+04 0.  0.
        5    1    3    3  502    0  0.54867910240E+03  0.12504044787E+04  0.23873438451E+04  0.27502714125E+04  0.46999998093E+01 0.  1.
       -5    1    3    3    0  502 -0.54867910240E+03 -0.12504044787E+04 -0.32393501116E+03  0.14033944916E+04  0.46999998093E+01 0. -1.
</event>
<event>
 5   0  0.1031659E-06  0.3584125E+04  0.7818609E-02  0.8094138E-01
        2   -1    0    0  501    0  0.00000000000E+00  0.00000000000E+00  0.22731906938E+04  0.22731906938E+04  0.25500000920E-02 0.  1.
       -2   -1    0    0    0  501  0.00000000000E+00  0.00000000000E+00 -0.14127664101E+04  0.14127664101E+04  0.25500000920E-02 0. -1.
    10030    2    1    2    0    0  0.00000000000E+00  0.00000000000E+00  0.86042428372E+03  0.36859571039E+04  0.35841246943E+04 0.  0.
        2    1    3    3  502    0  0.13427286972E+03  0.39891977482E+03 -0.13612100359E+04  0.14248013728E+04  0.25500000920E-02 0. -1.
       -2    1    3    3    0  502 -0.13427286972E+03 -0.39891977482E+03  0.22216343196E+04  0.22611557311E+04  0.25500000920E-02 0.  1.
</event>
<event>
 5   0  0.9878977E-07  0.3474089E+04  0.7818609E-02  0.8119958E-01
       -2   -1    0    0    0  501  0.00000000000E+00  0.00000000000E+00  0.23680259717E+04  0.23680259717E+04  0.25500000920E-02 0. -1.
        2   -1    0    0  501    0  0.00000000000E+00  0.00000000000E+00 -0.12741933795E+04  0.12741933795E+04  0.25500000920E-02 0.  1.
    10030    2    1    2    0    0  0.00000000000E+00  0.00000000000E+00  0.10938325922E+04  0.36422193511E+04  0.34740886664E+04 0.  0.
        5    1    3    3  502    0  0.25725074708E+03 -0.51460900637E+03 -0.11713975889E+04  0.13050650473E+04  0.46999998093E+01 0.  1.
       -5    1    3    3    0  502 -0.25725074708E+03  0.51460900637E+03  0.22652301812E+04  0.23371543039E+04  0.46999998093E+01 0. -1.
</event>
<event>
 5   0  0.1031659E-06  0.3567549E+04  0.7818609E-02  0.8097966E-01
        2   -1    0    0  501    0  0.00000000000E+00  0.00000000000E+00  0.11982498969E+04  0.11982498969E+04  0.25500000920E-02 0.  1.
       -2   -1    0    0    0  501  0.00000000000E+00  0.00000000000E+00 -0.26554150284E+04  0.26554150284E+04  0.25500000920E-02 0. -1.
    10030    2    1    2    0    0  0.00000000000E+00  0.00000000000E+00 -0.14571651316E+04  0.38536649253E+04  0.35675486172E+04 0.  0.
        2    1    3    3  502    0  0.15234699389E+03 -0.13755527833E+04 -0.19442251717E+04  0.23864967179E+04  0.25500000920E-02 0. -1.
       -2    1    3    3    0  502 -0.15234699389E+03  0.13755527833E+04  0.48706004013E+03  0.14671682074E+04  0.25500000920E-02 0.  1.
</event>
<event>
 5   0  0.9538919E-07  0.3514585E+04  0.7818609E-02  0.8110342E-01
        2   -1    0    0  501    0  0.00000000000E+00  0.00000000000E+00  0.18968358427E+04  0.18968358428E+04  0.25500000920E-02 0.  1.
       -2   -1    0    0    0  501  0.00000000000E+00  0.00000000000E+00 -0.16280151565E+04  0.16280151565E+04  0.25500000920E-02 0. -1.
    10030    2    1    2    0    0  0.00000000000E+00  0.00000000000E+00  0.26882068621E+03  0.35248509993E+04  0.35145853249E+04 0.  0.
        4    1    3    3  502    0 -0.12853635871E+04 -0.11968852670E+04  0.76085556439E+02  0.17579773941E+04  0.12699999809E+01 0. -1.
       -4    1    3    3    0  502  0.12853635871E+04  0.11968852670E+04  0.19273512978E+03  0.17668736052E+04  0.12699999809E+01 0.  1.
</event>
<event>
 5   0  0.1006019E-06  0.3532852E+04  0.7818609E-02  0.8106048E-01
        2   -1    0    0  501    0  0.00000000000E+00  0.00000000000E+00  0.18015140333E+04  0.18015140333E+04  0.25500000920E-02 0.  1.
       -2   -1    0    0    0  501  0.00000000000E+00  0.00000000000E+00 -0.17320215074E+04  0.17320215074E+04  0.25500000920E-02 0. -1.
    10030    2    1    2    0    0  0.00000000000E+00  0.00000000000E+00  0.69492525915E+02  0.35335355407E+04  0.35328521348E+04 0.  0.
        1    1    3    3  502    0  0.10627157941E+04 -0.98085269137E+03 -0.97975965955E+03  0.17468159181E+04  0.50400001928E-02 0. -1.
       -1    1    3    3    0  502 -0.10627157941E+04  0.98085269137E+03  0.10492521855E+04  0.17867196226E+04  0.50400001928E-02 0.  1.
</event>
<event>
 5   0  0.3242047E-07  0.3617687E+04  0.7818609E-02  0.8086452E-01
       -1   -1    0    0    0  501  0.00000000000E+00  0.00000000000E+00  0.13335406366E+04  0.13335406366E+04  0.50400001928E-02 0.  1.
        1   -1    0    0  501    0  0.00000000000E+00  0.00000000000E+00 -0.24535545916E+04  0.24535545916E+04  0.50400001928E-02 0. -1.
    10030    2    1    2    0    0  0.00000000000E+00  0.00000000000E+00 -0.11200139550E+04  0.37870952283E+04  0.36176869694E+04 0.  0.
        1    1    3    3  502    0 -0.50292845500E+02 -0.17094786151E+04 -0.11767193776E+04  0.20759371377E+04  0.50400001928E-02 0.  1.
       -1    1    3    3    0  502  0.50292845500E+02  0.17094786151E+04  0.56705422611E+02  0.17111580906E+04  0.50400001928E-02 0. -1.
</event>
<event>
 5   0  0.3159875E-07  0.3604708E+04  0.7818609E-02  0.8089414E-01
        1   -1    0    0  501    0  0.00000000000E+00  0.00000000000E+00  0.17815039745E+04  0.17815039745E+04  0.50400001928E-02 0.  1.
       -1   -1    0    0    0  501  0.00000000000E+00  0.00000000000E+00 -0.18234483426E+04  0.18234483426E+04  0.50400001928E-02 0. -1.
    10030    2    1    2    0    0  0.00000000000E+00  0.00000000000E+00 -0.41944368070E+02  0.36049523172E+04  0.36047082932E+04 0.  0.
        5    1    3    3  502    0 -0.13156452280E+04 -0.47895978172E+03 -0.11560087253E+04  0.18156825442E+04  0.46999998093E+01 0. -1.
       -5    1    3    3    0  502  0.13156452280E+04  0.47895978172E+03  0.11140643572E+04  0.17892697730E+04  0.46999998093E+01 0.  1.
</event>
<event>
 5   0  0.3159875E-07  0.3584857E+04  0.7818609E-02  0.8093969E-01
        1   -1    0    0  501    0  0.00000000000E+00  0.00000000000E+00  0.26055949956E+04  0.26055949956E+04  0.50400001928E-02 0.  1.
       -1   -1    0    0    0  501  0.00000000000E+00  0.00000000000E+00 -0.12330387398E+04  0.12330387398E+04  0.50400001928E-02 0. -1.
    10030    2    1    2    0    0  0.00000000000E+00  0.00000000000E+00  0.13725562558E+04  0.38386337354E+04  0.35848568004E+04 0.  0.
        2    1    3    3  502    0 -0.87217590402E+03  0.96110813153E+03 -0.63751622903E+03  0.14459759992E+04  0.25500000920E-02 0. -1.
       -2    1    3    3    0  502  0.87217590402E+03 -0.96110813153E+03  0.20100724849E+04  0.23926577362E+04  0.25500000920E-02 0.  1.
</event>
<event>
 5   0  0.3159875E-07  0.3631086E+04  0.7818609E-02  0.8083408E-01
       -1   -1    0    0    0  501  0.00000000000E+00  0.00000000000E+00  0.11913756614E+04  0.11913756614E+04  0.50400001928E-02 0. -1.
        1   -1    0    0  501    0  0.00000000000E+00  0.00000000000E+00 -0.27667148107E+04  0.27667148107E+04  0.50400001928E-02 0.  1.
    10030    2    1    2    0    0  0.00000000000E+00  0.00000000000E+00 -0.15753391493E+04  0.39580904721E+04  0.36310861667E+04 0.  0.
        5    1    3    3  502    0 -0.16228412439E+04  0.39532271085E+03 -0.12056874501E+02  0.16703476305E+04  0.46999998093E+01 0. -1.
       -5    1    3    3    0  502  0.16228412439E+04 -0.39532271085E+03 -0.15632822748E+04  0.22877428416E+04  0.46999998093E+01 0.  1.
</event>
<event>
 5   0  0.1006019E-06  0.3744774E+04  0.7818609E-02  0.8058111E-01
        2   -1    0    0  501    0  0.00000000000E+00  0.00000000000E+00  0.17709239753E+04  0.17709239753E+04  0.25500000920E-02 0.  1.
       -2   -1    0    0    0  501  0.00000000000E+00  0.00000000000E+00 -0.19796632645E+04  0.19796632645E+04  0.25500000920E-02 0. -1.
    10030    2    1    2    0    0  0.00000000000E+00  0.00000000000E+00 -0.20873928919E+03  0.37505872398E+04  0.37447740322E+04 0.  0.
        1    1    3    3  502    0 -0.72192887429E+03  0.14579554053E+03  0.16197542216E+04  0.17793373423E+04  0.50400001928E-02 0.  1.
       -1    1    3    3    0  502  0.72192887429E+03 -0.14579554053E+03 -0.18284935108E+04  0.19712498975E+04  0.50400001928E-02 0. -1.
</event>
<event>
 5   0  0.9538919E-07  0.3707555E+04  0.7818609E-02  0.8066290E-01
        2   -1    0    0  501    0  0.00000000000E+00  0.00000000000E+00  0.18577042926E+04  0.18577042926E+04  0.25500000920E-02 0. -1.
       -2   -1    0    0    0  501  0.00000000000E+00  0.00000000000E+00 -0.18498587320E+04  0.18498587320E+04  0.25500000920E-02 0.  1.
    10030    2    1    2    0    0  0.00000000000E+00  0.00000000000E+00  0.78455605885E+01  0.37075630246E+04  0.37075547236E+04 0.  0.
        4    1    3    3  502    0  0.96859694104E+03 -0.21807156607E+03 -0.15615690358E+04  0.18504687808E+04  0.12699999809E+01 0.  1.
       -4    1    3    3    0  502 -0.96859694104E+03  0.21807156607E+03  0.15694145964E+04  0.18570942438E+04  0.12699999809E+01 0. -1.
</event>
<event>
 5   0  0.3278988E-07  0.3912976E+04  0.7818609E-02  0.8022336E-01
       -1   -1    0    0    0  501  0.00000000000E+00  0.00000000000E+00  0.15616917199E+04  0.15616917199E+04  0.50400001928E-02 0.  1.
        1   -1    0    0  501    0  0.00000000000E+00  0.00000000000E+00 -0.24510888442E+04  0.24510888442E+04  0.50400001928E-02 0. -1.
    10030    2    1    2    0    0  0.00000000000E+00  0.00000000000E+00 -0.88939712428E+03  0.40127805641E+04  0.39129759277E+04 0.  0.
        4    1    3    3  502    0  0.53465263175E+03 -0.51069562988E+03  0.14129059961E+04  0.15946687524E+04  0.12699999809E+01 0.  1.
       -4    1    3    3    0  502 -0.53465263175E+03  0.51069562988E+03 -0.23023031204E+04  0.24181118118E+04  0.12699999809E+01 0. -1.
</event>
<event>
 5   0  0.3159875E-07  0.3597703E+04  0.7818609E-02  0.8091018E-01
       -1   -1    0    0    0  501  0.00000000000E+00  0.00000000000E+00  0.31852353811E+04  0.31852353812E+04  0.50400001928E-02 0.  1.
        1   -1    0    0  501    0  0.00000000000E+00  0.00000000000E+00 -0.10158954089E+04  0.10158954089E+04  0.50400001928E-02 0. -1.
    10030    2    1    2    0    0  0.00000000000E+00  0.00000000000E+00  0.21693399722E+04  0.42011307901E+04  0.35977026003E+04 0.  0.
        2    1    3    3  502    0  0.84763247442E+03  0.95103867468E+03 -0.39834689277E+03  0.13347792400E+04  0.25500000920E-02 0. -1.
       -2    1    3    3    0  502 -0.84763247442E+03 -0.95103867468E+03  0.25676868650E+04  0.28663515501E+04  0.25500000920E-02 0.  1.
</event>
<event>
 5   0  0.3159875E-07  0.3663173E+04  0.7818609E-02  0.8076172E-01
       -1   -1    0    0    0  501  0.00000000000E+00  0.00000000000E+00  0.13469496474E+04  0.13469496474E+04  0.50400001928E-02 0. -1.
        1   -1    0    0  501    0  0.00000000000E+00  0.00000000000E+00 -0.24905974941E+04  0.24905974941E+04  0.50400001928E-02 0.  1.
    10030    2    1    2    0    0  0.00000000000E+00  0.00000000000E+00 -0.11436478468E+04  0.38375471415E+04  0.36631731690E+04 0.  0.
        2    1    3    3  502    0  0.14846759728E+04 -0.94389479152E+03 -0.11054938533E+04  0.20778153867E+04  0.25500000920E-02 0.  1.
       -2    1    3    3    0  502 -0.14846759728E+04  0.94389479152E+03 -0.38153993422E+02  0.17597317548E+04  0.25500000920E-02 0. -1.
</event>
<event>
 5   0  0.1031659E-06  0.3713542E+04  0.7818609E-02  0.8064967E-01
        2   -1    0    0  501    0  0.00000000000E+00  0.00000000000E+00  0.12844537071E+04  0.12844537071E+04  0.25500000920E-02 0. -1.
       -2   -1    0    0    0  501  0.00000000000E+00  0.00000000000E+00 -0.26840976846E+04  0.26840976846E+04  0.25500000920E-02 0.  1.
    10030    2    1    2    0    0  0.00000000000E+00  0.00000000000E+00 -0.13996439775E+04  0.39685513918E+04  0.37135423635E+04 0.  0.
        2    1    3    3  502    0  0.45056246932E+03 -0.16188286439E+04 -0.15439945355E+04  0.22820017184E+04  0.25500000920E-02 0.  1.
       -2    1    3    3    0  502 -0.45056246932E+03  0.16188286439E+04  0.14435055801E+03  0.16865496733E+04  0.25500000920E-02 0. -1.
</event>
<event>
 5   0  0.3242047E-07  0.3594470E+04  0.7818609E-02  0.8091760E-01
       -1   -1    0    0    0  501  0.00000000000E+00  0.00000000000E+00  0.17248150347E+04  0.17248150347E+04  0.50400001928E-02 0. -1.
        1   -1    0    0  501    0  0.00000000000E+00  0.00000000000E+00 -0.18726957646E+04  0.18726957646E+04  0.50400001928E-02 0.  1.
    10030    2    1    2    0    0  0.00000000000E+00  0.00000000000E+00 -0.14788072985E+03  0.35975107993E+04  0.35944700918E+04 0.  0.
        1    1    3    3  502    0 -0.72399709181E+03 -0.11873309718E+04  0.10654985342E+04  0.17519171647E+04  0.50400001928E-02 0. -1.
       -1    1    3    3    0  502  0.72399709181E+03  0.11873309718E+04 -0.12133792640E+04  0.18455936346E+04  0.50400001928E-02 0.  1.
</event>
<event>
 5   0  0.3278988E-07  0.3591479E+04  0.7818609E-02  0.8092446E-01
        1   -1    0    0  501    0  0.00000000000E+00  0.00000000000E+00  0.10784853938E+04  0.10784853938E+04  0.50400001928E-02 0. -1.
       -1   -1    0    0    0  501  0.00000000000E+00  0.00000000000E+00 -0.29900086003E+04  0.29900086003E+04  0.50400001928E-02 0.  1.
    10030    2    1    2    0    0  0.00000000000E+00  0.00000000000E+00 -0.19115232065E+04  0.40684939941E+04  0.35914791396E+04 0.  0.
        4    1    3    3  502    0  0.12042236176E+04  0.74414247258E+03 -0.22073986297E+04  0.26223105964E+04  0.12699999809E+01 0.  1.
       -4    1    3    3    0  502 -0.12042236176E+04 -0.74414247258E+03  0.29587542313E+03  0.14461833977E+04  0.12699999809E+01 0. -1.
</event>
<event>
 5   0  0.3365378E-07  0.3586144E+04  0.7818609E-02  0.8093673E-01
        1   -1    0    0  501    0  0.00000000000E+00  0.00000000000E+00  0.16903259158E+04  0.16903259158E+04  0.50400001928E-02 0.  1.
       -1   -1    0    0    0  501  0.00000000000E+00  0.00000000000E+00 -0.19020632495E+04  0.19020632495E+04  0.50400001928E-02 0. -1.
    10030    2    1    2    0    0  0.00000000000E+00  0.00000000000E+00 -0.21173733375E+03  0.35923891653E+04  0.35861437807E+04 0.  0.
        3    1    3    3  502    0 -0.14439025611E+04  0.29449454616E+03  0.91744114950E+03  0.17358801562E+04  0.10100000352E+00 0.  1.
       -3    1    3    3    0  502  0.14439025611E+04 -0.29449454616E+03 -0.11291784832E+04  0.18565090091E+04  0.10100000352E+00 0. -1.
</event>
<event>
 5   0  0.3278988E-07  0.3620022E+04  0.7818609E-02  0.8085921E-01
        1   -1    0    0  501    0  0.00000000000E+00  0.00000000000E+00  0.15219266635E+04  0.15219266635E+04  0.50400001928E-02 0.  1.
       -1   -1    0    0    0  501  0.00000000000E+00  0.00000000000E+00 -0.21526265533E+04  0.21526265533E+04  0.50400001928E-02 0. -1.
    10030    2    1    2    0    0  0.00000000000E+00  0.00000000000E+00 -0.63069988980E+03  0.36745532168E+04  0.36200219601E+04 0.  0.
        4    1    3    3  502    0 -0.67777762276E+02 -0.11608203730E+04  0.10926428311E+04  0.15956088909E+04  0.12699999809E+01 0.  1.
       -4    1    3    3    0  502  0.67777762276E+02  0.11608203730E+04 -0.17233427209E+04  0.20789443259E+04  0.12699999809E+01 0. -1.
</event>
<event>
 5   0  0.9538919E-07  0.3568658E+04  0.7818609E-02  0.8097709E-01
        2   -1    0    0  501    0  0.00000000000E+00  0.00000000000E+00  0.13475663282E+04  0.13475663282E+04  0.25500000920E-02 0. -1.
       -2   -1    0    0    0  501  0.00000000000E+00  0.00000000000E+00 -0.23626514775E+04  0.23626514775E+04  0.25500000920E-02 0.  1.
    10030    2    1    2    0    0  0.00000000000E+00  0.00000000000E+00 -0.10150851493E+04  0.37102178057E+04  0.35686577736E+04 0.  0.
        4    1    3    3  502    0 -0.47464515166E+03  0.11751471056E+03  0.12765494880E+04  0.13669959529E+04  0.12699999809E+01 0. -1.
       -4    1    3    3    0  502  0.47464515166E+03 -0.11751471056E+03 -0.22916346373E+04  0.23432218527E+04  0.12699999809E+01 0.  1.
</event>
<event>
 5   0  0.1031659E-06  0.3463679E+04  0.7818609E-02  0.8122452E-01
        2   -1    0    0  501    0  0.00000000000E+00  0.00000000000E+00  0.24372228998E+04  0.24372228998E+04  0.25500000920E-02 0.  1.
       -2   -1    0    0    0  501  0.00000000000E+00  0.00000000000E+00 -0.12306085384E+04  0.12306085384E+04  0.25500000920E-02 0. -1.
    10030    2    1    2    0    0  0.00000000000E+00  0.00000000000E+00  0.12066143614E+04  0.36678314382E+04  0.34636785709E+04 0.  0.
        2    1    3    3  502    0 -0.10704130233E+04  0.13195179000E+04  0.95825907543E+03  0.19506850039E+04  0.25500000920E-02 0.  1.
       -2    1    3    3    0  502  0.10704130233E+04 -0.13195179000E+04  0.24835528598E+03  0.17171464343E+04  0.25500000920E-02 0. -1.
</event>
<event>
 5   0  0.9878977E-07  0.3455083E+04  0.7818609E-02  0.8124518E-01
       -2   -1    0    0    0  501  0.00000000000E+00  0.00000000000E+00  0.13911466494E+04  0.13911466494E+04  0.25500000920E-02 0.  1.
        2   -1    0    0  501    0  0.00000000000E+00  0.00000000000E+00 -0.21452799306E+04  0.21452799306E+04  0.25500000920E-02 0. -1.
    10030    2    1    2    0    0  0.00000000000E+00  0.00000000000E+00 -0.75413328116E+03  0.35364265800E+04  0.34550826256E+04 0.  0.
        5    1    3    3  502    0 -0.65998696241E+03  0.15961307787E+04 -0.34219633491E+03  0.17607772928E+04  0.46999998093E+01 0.  1.
       -5    1    3    3    0  502  0.65998696241E+03 -0.15961307787E+04 -0.41193694625E+03  0.17756492872E+04  0.46999998093E+01 0. -1.
</event>
<event>
 5   0  0.9878336E-07  0.3629384E+04  0.7818609E-02  0.8083794E-01
        2   -1    0    0  501    0  0.00000000000E+00  0.00000000000E+00  0.22079265261E+04  0.22079265261E+04  0.25500000920E-02 0. -1.
       -2   -1    0    0    0  501  0.00000000000E+00  0.00000000000E+00 -0.14914932194E+04  0.14914932194E+04  0.25500000920E-02 0.  1.
    10030    2    1    2    0    0  0.00000000000E+00  0.00000000000E+00  0.71643330675E+03  0.36994197455E+04  0.36293842137E+04 0.  0.
        3    1    3    3  502    0  0.10937245757E+04  0.11860417614E+04 -0.48858463729E+03  0.16857174927E+04  0.10100000352E+00 0.  1.
       -3    1    3    3    0  502 -0.10937245757E+04 -0.11860417614E+04  0.12050179440E+04  0.20137022528E+04  0.10100000352E+00 0. -1.
</event>
<event>
 5   0  0.1006019E-06  0.3572454E+04  0.7818609E-02  0.8096831E-01
        2   -1    0    0  501    0  0.00000000000E+00  0.00000000000E+00  0.19281443632E+04  0.19281443632E+04  0.25500000920E-02 0.  1.
       -2   -1    0    0    0  501  0.00000000000E+00  0.00000000000E+00 -0.16547552621E+04  0.16547552621E+04  0.25500000920E-02 0. -1.
    10030    2    1    2    0    0  0.00000000000E+00  0.00000000000E+00  0.27338910105E+03  0.35828996253E+04  0.35724540759E+04 0.  0.
        1    1    3    3  502    0 -0.89874284525E+03 -0.10705721156E+04 -0.97864688275E+03  0.17063449469E+04  0.50400001928E-02 0. -1.
       -1    1    3    3    0  502  0.89874284525E+03  0.10705721156E+04  0.12520359838E+04  0.18765546785E+04  0.50400001928E-02 0.  1.
</event>
<event>
 5   0  0.3365378E-07  0.3723437E+04  0.7818609E-02  0.8062788E-01
       -1   -1    0    0    0  501  0.00000000000E+00  0.00000000000E+00  0.12758665066E+04  0.12758665066E+04  0.50400001928E-02 0.  1.
        1   -1    0    0  501    0  0.00000000000E+00  0.00000000000E+00 -0.27165819721E+04  0.27165819721E+04  0.50400001928E-02 0. -1.
    10030    2    1    2    0    0  0.00000000000E+00  0.00000000000E+00 -0.14407154655E+04  0.39924484787E+04  0.37234370953E+04 0.  0.
        3    1    3    3  502    0 -0.14161309954E+04  0.95323164163E+03 -0.15169438412E+04  0.22836804037E+04  0.10100000352E+00 0. -1.
       -3    1    3    3    0  502  0.14161309954E+04 -0.95323164163E+03  0.76228375634E+02  0.17087680750E+04  0.10100000352E+00 0.  1.
</event>
<event>
 5   0  0.3365378E-07  0.2867218E+04  0.7818609E-02  0.8282699E-01
       -1   -1    0    0    0  501  0.00000000000E+00  0.00000000000E+00  0.10208287924E+04  0.10208287924E+04  0.50400001928E-02 0. -1.
        1   -1    0    0  501    0  0.00000000000E+00  0.00000000000E+00 -0.20132994884E+04  0.20132994884E+04  0.50400001928E-02 0.  1.
    10030    2    1    2    0    0  0.00000000000E+00  0.00000000000E+00 -0.99247069601E+03  0.30341282809E+04  0.28672175262E+04 0.  0.
        3    1    3    3  502    0  0.12902413457E+04 -0.14741915060E+03 -0.11388584753E+04  0.17272677190E+04  0.10100000352E+00 0.  1.
       -3    1    3    3    0  502 -0.12902413457E+04  0.14741915060E+03  0.14638777932E+03  0.13068605619E+04  0.10100000352E+00 0. -1.
</event>
<event>
 5   0  0.9878977E-07  0.3639624E+04  0.7818609E-02  0.8081475E-01
       -2   -1    0    0    0  501  0.00000000000E+00  0.00000000000E+00  0.13489370715E+04  0.13489370715E+04  0.25500000920E-02 0. -1.
        2   -1    0    0  501    0  0.00000000000E+00  0.00000000000E+00 -0.24550553279E+04  0.24550553279E+04  0.25500000920E-02 0.  1.
    10030    2    1    2    0    0  0.00000000000E+00  0.00000000000E+00 -0.11061182564E+04  0.38039923994E+04  0.36396236863E+04 0.  0.
        5    1    3    3  502    0 -0.12066820696E+04 -0.72591877584E+03 -0.17577871282E+04  0.22523049004E+04  0.46999998093E+01 0.  1.
       -5    1    3    3    0  502  0.12066820696E+04  0.72591877584E+03  0.65166887182E+03  0.15516874991E+04  0.46999998093E+01 0. -1.
</event>
<event>
 5   0  0.3278988E-07  0.3558053E+04  0.7818609E-02  0.8100168E-01
        1   -1    0    0  501    0  0.00000000000E+00  0.00000000000E+00  0.19180508846E+04  0.19180508846E+04  0.50400001928E-02 0. -1.
       -1   -1    0    0    0  501  0.00000000000E+00  0.00000000000E+00 -0.16500784957E+04  0.16500784957E+04  0.50400001928E-02 0.  1.
    10030    2    1    2    0    0  0.00000000000E+00  0.00000000000E+00  0.26797238884E+03  0.35681293803E+04  0.35580525675E+04 0.  0.
        4    1    3    3  502    0  0.74439271580E+03  0.15741643340E+04 -0.23148941688E+03  0.17566168702E+04  0.12699999809E+01 0.  1.
       -4    1    3    3    0  502 -0.74439271580E+03 -0.15741643340E+04  0.49946180571E+03  0.18115125100E+04  0.12699999809E+01 0. -1.
</event>
<event>
 5   0  0.1006019E-06  0.3456713E+04  0.7818609E-02  0.8124126E-01
        2   -1    0    0  501    0  0.00000000000E+00  0.00000000000E+00  0.23802121039E+04  0.23802121039E+04  0.25500000920E-02 0. -1.
       -2   -1    0    0    0  501  0.00000000000E+00  0.00000000000E+00 -0.12550213199E+04  0.12550213199E+04  0.25500000920E-02 0.  1.
    10030    2    1    2    0    0  0.00000000000E+00  0.00000000000E+00  0.11251907840E+04  0.36352334238E+04  0.34567134311E+04 0.  0.
        1    1    3    3  502    0 -0.13345122326E+03 -0.46563549176E+03  0.23073718463E+04  0.23576663202E+04  0.50400001928E-02 0. -1.
       -1    1    3    3    0  502  0.13345122326E+03  0.46563549176E+03 -0.11821810623E+04  0.12775671036E+04  0.50400001928E-02 0.  1.
</event>
<event>
 5   0  0.9878336E-07  0.3521169E+04  0.7818609E-02  0.8108791E-01
        2   -1    0    0  501    0  0.00000000000E+00  0.00000000000E+00  0.20798151497E+04  0.20798151497E+04  0.25500000920E-02 0.  1.
       -2   -1    0    0    0  501  0.00000000000E+00  0.00000000000E+00 -0.14903523343E+04  0.14903523343E+04  0.25500000920E-02 0. -1.
    10030    2    1    2    0    0  0.00000000000E+00  0.00000000000E+00  0.58946281540E+03  0.35701674841E+04  0.35211687624E+04 0.  0.
        3    1    3    3  502    0  0.15498428773E+04 -0.75974664300E+03 -0.57127132375E+02  0.17269891214E+04  0.10100000352E+00 0. -1.
       -3    1    3    3    0  502 -0.15498428773E+04  0.75974664300E+03  0.64658994778E+03  0.18431783627E+04  0.10100000352E+00 0.  1.
</event>
<event>
 5   0  0.3365378E-07  0.3631858E+04  0.7818609E-02  0.8083233E-01
        1   -1    0    0  501    0  0.00000000000E+00  0.00000000000E+00  0.24535044336E+04  0.24535044337E+04  0.50400001928E-02 0.  1.
       -1   -1    0    0    0  501  0.00000000000E+00  0.00000000000E+00 -0.13440361770E+04  0.13440361770E+04  0.50400001928E-02 0. -1.
    10030    2    1    2    0    0  0.00000000000E+00  0.00000000000E+00  0.11094682567E+04  0.37975406106E+04  0.36318583228E+04 0.  0.
        3    1    3    3  502    0 -0.95625329572E+03  0.20415722822E+03 -0.10452675552E+04  0.14313227489E+04  0.10100000352E+00 0. -1.
       -3    1    3    3    0  502  0.95625329572E+03 -0.20415722822E+03  0.21547358119E+04  0.23662178617E+04  0.10100000352E+00 0.  1.
</event>
<event>
 5   0  0.9878336E-07  0.3614438E+04  0.7818609E-02  0.8087193E-01
        2   -1    0    0  501    0  0.00000000000E+00  0.00000000000E+00  0.19985508835E+04  0.19985508835E+04  0.25500000920E-02 0.  1.
       -2   -1    0    0    0  501  0.00000000000E+00  0.00000000000E+00 -0.16342040312E+04  0.16342040312E+04  0.25500000920E-02 0. -1.
    10030    2    1    2    0    0  0.00000000000E+00  0.00000000000E+00  0.36434685226E+03  0.36327549147E+04  0.36144376660E+04 0.  0.
        3    1    3    3  502    0 -0.11254181308E+04 -0.97463693952E+03  0.12118440584E+04  0.19196481879E+04  0.10100000352E+00 0.  1.
       -3    1    3    3    0  502  0.11254181308E+04  0.97463693952E+03 -0.84749720613E+03  0.17131067269E+04  0.10100000352E+00 0. -1.
</event>
<event>
 5   0  0.1006019E-06  0.3605840E+04  0.7818609E-02  0.8089155E-01
       -2   -1    0    0    0  501  0.00000000000E+00  0.00000000000E+00  0.19374168408E+04  0.19374168408E+04  0.25500000920E-02 0.  1.
        2   -1    0    0  501    0  0.00000000000E+00  0.00000000000E+00 -0.16777598534E+04  0.16777598534E+04  0.25500000920E-02 0. -1.
    10030    2    1    2    0    0  0.00000000000E+00  0.00000000000E+00  0.25965698742E+03  0.36151766943E+04  0.36058398161E+04 0.  0.
        1    1    3    3  502    0  0.99425766676E+03 -0.13854413290E+04 -0.45694263372E+03  0.17654440106E+04  0.50400001928E-02 0. -1.
       -1    1    3    3    0  502 -0.99425766676E+03  0.13854413290E+04  0.71659962114E+03  0.18497326837E+04  0.50400001928E-02 0.  1.
</event>
<event>
 5   0  0.3159875E-07  0.3603854E+04  0.7818609E-02  0.8089609E-01
        1   -1    0    0  501    0  0.00000000000E+00  0.00000000000E+00  0.20727214529E+04  0.20727214529E+04  0.50400001928E-02 0.  1.
       -1   -1    0    0    0  501  0.00000000000E+00  0.00000000000E+00 -0.15665111060E+04  0.15665111060E+04  0.50400001928E-02 0. -1.
    10030    2    1    2    0    0  0.00000000000E+00  0.00000000000E+00  0.50621034689E+03  0.36392325588E+04  0.36038541455E+04 0.  0.
        2    1    3    3  502    0 -0.79305993703E+03 -0.15274385433E+04  0.79213231264E+03  0.18945939322E+04  0.25500000920E-02 0.  1.
       -2    1    3    3    0  502  0.79305993703E+03  0.15274385433E+04 -0.28592196575E+03  0.17446386267E+04  0.25500000920E-02 0. -1.
</event>
<event>
 5   0  0.9538919E-07  0.3342879E+04  0.7818609E-02  0.8152070E-01
       -2   -1    0    0    0  501  0.00000000000E+00  0.00000000000E+00  0.18826116892E+04  0.18826116892E+04  0.25500000920E-02 0. -1.
        2   -1    0    0  501    0  0.00000000000E+00  0.00000000000E+00 -0.14839540479E+04  0.14839540479E+04  0.25500000920E-02 0.  1.
    10030    2    1    2    0    0  0.00000000000E+00  0.00000000000E+00  0.39865764129E+03  0.33665657371E+04  0.33428785421E+04 0.  0.
        4    1    3    3  502    0 -0.90819378627E+03 -0.10668349972E+04  0.11172447796E+04  0.17919794572E+04  0.12699999809E+01 0. -1.
       -4    1    3    3    0  502  0.90819378627E+03  0.10668349972E+04 -0.71858713834E+03  0.15745862799E+04  0.12699999809E+01 0.  1.
</event>
<event>
 5   0  0.1031659E-06  0.3574358E+04  0.7818609E-02  0.8096391E-01
        2   -1    0    0  501    0  0.00000000000E+00  0.00000000000E+00  0.20729255927E+04  0.20729255927E+04  0.25500000920E-02 0. -1.
       -2   -1    0    0    0  501  0.00000000000E+00  0.00000000000E+00 -0.15408221457E+04  0.15408221457E+04  0.25500000920E-02 0.  1.
    10030    2    1    2    0    0  0.00000000000E+00  0.00000000000E+00  0.53210344702E+03  0.36137477384E+04  0.35743584933E+04 0.  0.
        2    1    3    3  502    0 -0.59087595267E+02 -0.81601489765E+03 -0.13403689413E+04  0.15703377203E+04  0.25500000920E-02 0.  1.
       -2    1    3    3    0  502  0.59087595267E+02  0.81601489765E+03  0.18724723883E+04  0.20434100181E+04  0.25500000920E-02 0. -1.
</event>
<event>
 5   0  0.3365378E-07  0.3601659E+04  0.7818609E-02  0.8090112E-01
       -1   -1    0    0    0  501  0.00000000000E+00  0.00000000000E+00  0.19187697803E+04  0.19187697803E+04  0.50400001928E-02 0.  1.
        1   -1    0    0  501    0  0.00000000000E+00  0.00000000000E+00 -0.16901389759E+04  0.16901389759E+04  0.50400001928E-02 0. -1.
    10030    2    1    2    0    0  0.00000000000E+00  0.00000000000E+00  0.22863080441E+03  0.36089087562E+04  0.36016593906E+04 0.  0.
        3    1    3    3  502    0  0.48372969179E+03  0.82278880292E+03  0.16444816925E+04  0.19013931409E+04  0.10100000352E+00 0.  1.
       -3    1    3    3    0  502 -0.48372969179E+03 -0.82278880292E+03 -0.14158508881E+04  0.17075156153E+04  0.10100000352E+00 0. -1.
</event>
<event>
 5   0  0.3278988E-07  0.3369624E+04  0.7818609E-02  0.8145402E-01
        1   -1    0    0  501    0  0.00000000000E+00  0.00000000000E+00  0.19123557350E+04  0.19123557350E+04  0.50400001928E-02 0.  1.
       -1   -1    0    0    0  501  0.00000000000E+00  0.00000000000E+00 -0.14843431684E+04  0.14843431684E+04  0.50400001928E-02 0. -1.
    10030    2    1    2    0    0  0.00000000000E+00  0.00000000000E+00  0.42801256663E+03  0.33966989034E+04  0.33696244127E+04 0.  0.
        4    1    3    3  502    0  0.10891202538E+04  0.32359235004E+03  0.14680663307E+04  0.18563715416E+04  0.12699999809E+01 0.  1.
       -4    1    3    3    0  502 -0.10891202538E+04 -0.32359235004E+03 -0.10400537641E+04  0.15403273617E+04  0.12699999809E+01 0. -1.
</event>
<event>
 5   0  0.3159875E-07  0.3600256E+04  0.7818609E-02  0.8090433E-01
       -1   -1    0    0    0  501  0.00000000000E+00  0.00000000000E+00  0.20327648551E+04  0.20327648551E+04  0.50400001928E-02 0.  1.
        1   -1    0    0  501    0  0.00000000000E+00  0.00000000000E+00 -0.15941148739E+04  0.15941148739E+04  0.50400001928E-02 0. -1.
    10030    2    1    2    0    0  0.00000000000E+00  0.00000000000E+00  0.43864998124E+03  0.36268797290E+04  0.36002559301E+04 0.  0.
        5    1    3    3  502    0  0.73220226156E+03  0.63650941344E+03  0.17468408216E+04  0.19981840084E+04  0.46999998093E+01 0.  1.
       -5    1    3    3    0  502 -0.73220226156E+03 -0.63650941344E+03 -0.13081908404E+04  0.16286957206E+04  0.46999998093E+01 0. -1.
</event>
<event>
 5   0  0.3278988E-07  0.3486989E+04  0.7818609E-02  0.8116880E-01
       -1   -1    0    0    0  501  0.00000000000E+00  0.00000000000E+00  0.12613609329E+04  0.12613609329E+04  0.50400001928E-02 0. -1.
        1   -1    0    0  501    0  0.00000000000E+00  0.00000000000E+00 -0.24099154319E+04  0.24099154320E+04  0.50400001928E-02 0.  1.
    10030    2    1    2    0    0  0.00000000000E+00  0.00000000000E+00 -0.11485544990E+04  0.36712763649E+04  0.34869890608E+04 0.  0.
        4    1    3    3  502    0 -0.32407762816E+03  0.18897688432E+02 -0.23778151460E+04  0.23998728952E+04  0.12699999809E+01 0.  1.
       -4    1    3    3    0  502  0.32407762816E+03 -0.18897688432E+02  0.12292606470E+04  0.12714034697E+04  0.12699999809E+01 0. -1.
</event>
<event>
 5   0  0.3242047E-07  0.3810801E+04  0.7818609E-02  0.8043841E-01
        1   -1    0    0  501    0  0.00000000000E+00  0.00000000000E+00  0.27120772168E+04  0.27120772168E+04  0.50400001928E-02 0. -1.
       -1   -1    0    0    0  501  0.00000000000E+00  0.00000000000E+00 -0.13386606975E+04  0.13386606975E+04  0.50400001928E-02 0.  1.
    10030    2    1    2    0    0  0.00000000000E+00  0.00000000000E+00  0.13734165193E+04  0.40507379143E+04  0.38108010595E+04 0.  0.
        1    1    3    3  502    0 -0.18823091606E+04  0.26136622091E+03  0.83380896052E+03  0.20752439520E+04  0.50400001928E-02 0. -1.
       -1    1    3    3    0  502  0.18823091606E+04 -0.26136622091E+03  0.53960755882E+03  0.19754939623E+04  0.50400001928E-02 0.  1.
</event>
<event>
 5   0  0.9878977E-07  0.3595363E+04  0.7818609E-02  0.8091555E-01
       -2   -1    0    0    0  501  0.00000000000E+00  0.00000000000E+00  0.11421616063E+04  0.11421616063E+04  0.25500000920E-02 0.  1.
        2   -1    0    0  501    0  0.00000000000E+00  0.00000000000E+00 -0.28294227974E+04  0.28294227974E+04  0.25500000920E-02 0. -1.
    10030    2    1    2    0    0  0.00000000000E+00  0.00000000000E+00 -0.16872611911E+04  0.39715844037E+04  0.35953626171E+04 0.  0.
        5    1    3    3  502    0  0.95366595025E+03 -0.15103693087E+04 -0.10671445200E+04  0.20807483533E+04  0.46999998093E+01 0. -1.
       -5    1    3    3    0  502 -0.95366595025E+03  0.15103693087E+04 -0.62011667112E+03  0.18908360503E+04  0.46999998093E+01 0.  1.
</event>
<event>
 5   0  0.3278988E-07  0.3568541E+04  0.7818609E-02  0.8097736E-01
        1   -1    0    0  501    0  0.00000000000E+00  0.00000000000E+00  0.19497876988E+04  0.19497876988E+04  0.50400001928E-02 0. -1.
       -1   -1    0    0    0  501  0.00000000000E+00  0.00000000000E+00 -0.16328043485E+04  0.16328043485E+04  0.50400001928E-02 0.  1.
    10030    2    1    2    0    0  0.00000000000E+00  0.00000000000E+00  0.31698335029E+03  0.35825920473E+04  0.35685413453E+04 0.  0.
        4    1    3    3  502    0  0.28875837652E+03 -0.17325156870E+04 -0.15679615674E+03  0.17633997430E+04  0.12699999809E+01 0.  1.
       -4    1    3    3    0  502 -0.28875837652E+03  0.17325156870E+04  0.47377950702E+03  0.18191923043E+04  0.12699999809E+01 0. -1.
</event>
<event>
 5   0  0.3159875E-07  0.3619884E+04  0.7818609E-02  0.8085952E-01
        1   -1    0    0  501    0  0.00000000000E+00  0.00000000000E+00  0.17057894618E+04  0.17057894618E+04  0.50400001928E-02 0.  1.
       -1   -1    0    0    0  501  0.00000000000E+00  0.00000000000E+00 -0.19204540711E+04  0.19204540712E+04  0.50400001928E-02 0. -1.
    10030    2    1    2    0    0  0.00000000000E+00  0.00000000000E+00 -0.21466460940E+03  0.36262435329E+04  0.36198841508E+04 0.  0.
        2    1    3    3  502    0 -0.15977154570E+04 -0.57052599969E+03  0.52440678943E+03  0.17757243814E+04  0.25500000920E-02 0.  1.
       -2    1    3    3    0  502  0.15977154570E+04  0.57052599969E+03 -0.73907139883E+03  0.18505191516E+04  0.25500000920E-02 0. -1.
</event>
<event>
 5   0  0.9878336E-07  0.3477923E+04  0.7818609E-02  0.8119042E-01
        2   -1    0    0  501    0  0.00000000000E+00  0.00000000000E+00  0.23274874173E+04  0.23274874173E+04  0.25500000920E-02 0.  1.
       -2   -1    0    0    0  501  0.00000000000E+00  0.00000000000E+00 -0.12992497879E+04  0.12992497879E+04  0.25500000920E-02 0. -1.
    10030    2    1    2    0    0  0.00000000000E+00  0.00000000000E+00  0.10282376294E+04  0.36267372052E+04  0.34779232501E+04 0.  0.
        3    1    3    3  502    0  0.67838386347E+03  0.10399449105E+04 -0.75547200381E+03  0.14534194308E+04  0.10100000352E+00 0. -1.
       -3    1    3    3    0  502 -0.67838386347E+03 -0.10399449105E+04  0.17837096332E+04  0.21733177745E+04  0.10100000352E+00 0.  1.
</event>
<event>
 5   0  0.9878336E-07  0.3503903E+04  0.7818609E-02  0.8112866E-01
       -2   -1    0    0    0  501  0.00000000000E+00  0.00000000000E+00  0.17685031784E+04  0.17685031784E+04  0.25500000920E-02 0.  1.
        2   -1    0    0  501    0  0.00000000000E+00  0.00000000000E+00 -0.17355547323E+04  0.17355547323E+04  0.25500000920E-02 0. -1.
    10030    2    1    2    0    0  0.00000000000E+00  0.00000000000E+00  0.32948446146E+02  0.35040579107E+04  0.35039030011E+04 0.  0.
        3    1    3    3  502    0 -0.65252362300E+03 -0.50026536059E+03 -0.15306176171E+04  0.17374817437E+04  0.10100000352E+00 0. -1.
       -3    1    3    3    0  502  0.65252362300E+03  0.50026536059E+03  0.15635660633E+04  0.17665761670E+04  0.10100000352E+00 0.  1.
</event>
<event>
 5   0  0.3159875E-07  0.3576156E+04  0.7818609E-02  0.8095975E-01
       -1   -1    0    0    0  501  0.00000000000E+00  0.00000000000E+00  0.14378243765E+04  0.14378243765E+04  0.50400001928E-02 0.  1.
        1   -1    0    0  501    0  0.00000000000E+00  0.00000000000E+00 -0.22236538812E+04  0.22236538812E+04  0.50400001928E-02 0. -1.
    10030    2    1    2    0    0  0.00000000000E+00  0.00000000000E+00 -0.78582950473E+03  0.36614782577E+04  0.35761564592E+04 0.  0.
        5    1    3    3  502    0 -0.17517846118E+02  0.94763683838E+03 -0.19452947027E+04  0.21639122031E+04  0.46999998093E+01 0. -1.
       -5    1    3    3    0  502  0.17517846118E+02 -0.94763683838E+03  0.11594651980E+04  0.14975660545E+04  0.46999998093E+01 0.  1.
</event>
<event>
 5   0  0.9878977E-07  0.3702880E+04  0.7818609E-02  0.8067324E-01
       -2   -1    0    0    0  501  0.00000000000E+00  0.00000000000E+00  0.10253632476E+04  0.10253632476E+04  0.25500000920E-02 0. -1.
        2   -1    0    0  501    0  0.00000000000E+00  0.00000000000E+00 -0.33430400517E+04  0.33430400517E+04  0.25500000920E-02 0.  1.
    10030    2    1    2    0    0  0.00000000000E+00  0.00000000000E+00 -0.23176768042E+04  0.43684032993E+04  0.37028801786E+04 0.  0.
        5    1    3    3  502    0 -0.26022687250E+03  0.17868546797E+04 -0.67638654606E+03  0.19282345607E+04  0.46999998093E+01 0. -1.
       -5    1    3    3    0  502  0.26022687250E+03 -0.17868546797E+04 -0.16412902581E+04  0.24401687386E+04  0.46999998093E+01 0.  1.
</event>
<event>
 5   0  0.9878336E-07  0.3593586E+04  0.7818609E-02  0.8091963E-01
       -2   -1    0    0    0  501  0.00000000000E+00  0.00000000000E+00  0.13554394359E+04  0.13554394359E+04  0.25500000920E-02 0.  1.
        2   -1    0    0  501    0  0.00000000000E+00  0.00000000000E+00 -0.23818581370E+04  0.23818581370E+04  0.25500000920E-02 0. -1.
    10030    2    1    2    0    0  0.00000000000E+00  0.00000000000E+00 -0.10264187011E+04  0.37372975728E+04  0.35935856464E+04 0.  0.
        3    1    3    3  502    0 -0.62639241658E+03  0.16373282752E+03  0.12299129248E+04  0.13899142819E+04  0.10100000352E+00 0.  1.
       -3    1    3    3    0  502  0.62639241658E+03 -0.16373282752E+03 -0.22563316259E+04  0.23473832909E+04  0.10100000352E+00 0. -1.
</event>
<event>
 5   0  0.3365378E-07  0.2706301E+04  0.7818609E-02  0.8332963E-01
        1   -1    0    0  501    0  0.00000000000E+00  0.00000000000E+00  0.10712366411E+04  0.10712366411E+04  0.50400001928E-02 0.  1.
       -1   -1    0    0    0  501  0.00000000000E+00  0.00000000000E+00 -0.17092548066E+04  0.17092548066E+04  0.50400001928E-02 0. -1.
    10030    2    1    2    0    0  0.00000000000E+00  0.00000000000E+00 -0.63801816551E+03  0.27804914478E+04  0.27063010756E+04 0.  0.
        3    1    3    3  502    0  0.85424197683E+03  0.20777302609E+03  0.73783854744E+03  0.11477389588E+04  0.10100000352E+00 0.  1.
       -3    1    3    3    0  502 -0.85424197683E+03 -0.20777302609E+03 -0.13758567129E+04  0.16327524889E+04  0.10100000352E+00 0. -1.
</event>
<event>
 5   0  0.3365378E-07  0.3000388E+04  0.7818609E-02  0.8243620E-01
        1   -1    0    0  501    0  0.00000000000E+00  0.00000000000E+00  0.15006578536E+04  0.15006578536E+04  0.50400001928E-02 0. -1.
       -1   -1    0    0    0  501  0.00000000000E+00  0.00000000000E+00 -0.14997299145E+04  0.14997299145E+04  0.50400001928E-02 0.  1.
    10030    2    1    2    0    0  0.00000000000E+00  0.00000000000E+00  0.92793907658E+00  0.30003877681E+04  0.30003876246E+04 0.  0.
        3    1    3    3  502    0  0.66837484750E+03  0.65875157015E+03 -0.11699645961E+04  0.14998319020E+04  0.10100000352E+00 0.  1.
       -3    1    3    3    0  502 -0.66837484750E+03 -0.65875157015E+03  0.11708925352E+04  0.15005558661E+04  0.10100000352E+00 0. -1.
</event>
<event>
 5   0  0.3278988E-07  0.3611326E+04  0.7818609E-02  0.8087902E-01
        1   -1    0    0  501    0  0.00000000000E+00  0.00000000000E+00  0.11504735924E+04  0.11504735924E+04  0.50400001928E-02 0. -1.
       -1   -1    0    0    0  501  0.00000000000E+00  0.00000000000E+00 -0.28339803635E+04  0.28339803635E+04  0.50400001928E-02 0.  1.
    10030    2    1    2    0    0  0.00000000000E+00  0.00000000000E+00 -0.16835067711E+04  0.39844539559E+04  0.36113263877E+04 0.  0.
        4    1    3    3  502    0  0.17441591323E+04 -0.46706250020E+03 -0.82697139590E+03  0.19859813092E+04  0.12699999809E+01 0.  1.
       -4    1    3    3    0  502 -0.17441591323E+04  0.46706250020E+03 -0.85653537521E+03  0.19984726467E+04  0.12699999809E+01 0. -1.
</event>
<event>
 5   0  0.1006019E-06  0.3462304E+04  0.7818609E-02  0.8122782E-01
        2   -1    0    0  501    0  0.00000000000E+00  0.00000000000E+00  0.18177053302E+04  0.18177053302E+04  0.25500000920E-02 0.  1.
       -2   -1    0    0    0  501  0.00000000000E+00  0.00000000000E+00 -0.16487196182E+04  0.16487196182E+04  0.25500000920E-02 0. -1.
    10030    2    1    2    0    0  0.00000000000E+00  0.00000000000E+00  0.16898571204E+03  0.34664249484E+04  0.34623035326E+04 0.  0.
        1    1    3    3  502    0  0.12459722306E+04  0.89305741376E+03  0.88974379888E+03  0.17724678759E+04  0.50400001928E-02 0.  1.
       -1    1    3    3    0  502 -0.12459722306E+04 -0.89305741376E+03 -0.72075808684E+03  0.16939570725E+04  0.50400001928E-02 0. -1.
</event>
<event>
 5   0  0.9878977E-07  0.3578106E+04  0.7818609E-02  0.8095525E-01
       -2   -1    0    0    0  501  0.00000000000E+00  0.00000000000E+00  0.21485243884E+04  0.21485243884E+04  0.25500000920E-02 0.  1.
        2   -1    0    0  501    0  0.00000000000E+00  0.00000000000E+00 -0.14897254748E+04  0.14897254748E+04  0.25500000920E-02 0. -1.
    10030    2    1    2    0    0  0.00000000000E+00  0.00000000000E+00  0.65879891364E+03  0.36382498632E+04  0.35781064907E+04 0.  0.
        5    1    3    3  502    0 -0.14612815078E+04  0.91776616110E+03 -0.15082182082E+03  0.17321684916E+04  0.46999998093E+01 0. -1.
       -5    1    3    3    0  502  0.14612815078E+04 -0.91776616110E+03  0.80962073446E+03  0.19060813716E+04  0.46999998093E+01 0.  1.
</event>
<event>
 5   0  0.1031659E-06  0.3004197E+04  0.7818609E-02  0.8242534E-01
       -2   -1    0    0    0  501  0.00000000000E+00  0.00000000000E+00  0.16290227646E+04  0.16290227646E+04  0.25500000920E-02 0. -1.
        2   -1    0    0  501    0  0.00000000000E+00  0.00000000000E+00 -0.13850631674E+04  0.13850631674E+04  0.25500000920E-02 0.  1.
    10030    2    1    2    0    0  0.00000000000E+00  0.00000000000E+00  0.24395959717E+03  0.30140859319E+04  0.30041966847E+04 0.  0.
        2    1    3    3  502    0 -0.53558530943E+01 -0.50065859754E+03 -0.12988782644E+04  0.13920389586E+04  0.25500000920E-02 0.  1.
       -2    1    3    3    0  502  0.53558530943E+01  0.50065859754E+03  0.15428378616E+04  0.16220469733E+04  0.25500000920E-02 0. -1.
</event>
<event>
 5   0  0.9878336E-07  0.3126336E+04  0.7818609E-02  0.8208547E-01
       -2   -1    0    0    0  501  0.00000000000E+00  0.00000000000E+00  0.12572527343E+04  0.12572527343E+04  0.25500000920E-02 0. -1.
        2   -1    0    0  501    0  0.00000000000E+00  0.00000000000E+00 -0.19435186497E+04  0.19435186497E+04  0.25500000920E-02 0.  1.
    10030    2    1    2    0    0  0.00000000000E+00  0.00000000000E+00 -0.68626591539E+03  0.32007713839E+04  0.31263359617E+04 0.  0.
        3    1    3    3  502    0  0.46993453169E+03  0.12203251335E+04 -0.12199477881E+04  0.17883804157E+04  0.10100000352E+00 0.  1.
       -3    1    3    3    0  502 -0.46993453169E+03 -0.12203251335E+04  0.53368187268E+03  0.14123909682E+04  0.10100000352E+00 0. -1.
</event>
<event>
 5   0  0.3278988E-07  0.3488778E+04  0.7818609E-02  0.8116455E-01
       -1   -1    0    0    0  501  0.00000000000E+00  0.00000000000E+00  0.18576878696E+04  0.18576878696E+04  0.50400001928E-02 0.  1.
        1   -1    0    0  501    0  0.00000000000E+00  0.00000000000E+00 -0.16380002460E+04  0.16380002460E+04  0.50400001928E-02 0. -1.
    10030    2    1    2    0    0  0.00000000000E+00  0.00000000000E+00  0.21968762359E+03  0.34956881157E+04  0.34887781170E+04 0.  0.
        4    1    3    3  502    0  0.23049700307E+03 -0.12827539708E+04  0.12715819006E+04  0.18208538549E+04  0.12699999809E+01 0.  1.
       -4    1    3    3    0  502 -0.23049700307E+03  0.12827539708E+04 -0.10518942770E+04  0.16748342608E+04  0.12699999809E+01 0. -1.
</event>
<event>
 5   0  0.3242047E-07  0.3657432E+04  0.7818609E-02  0.8077461E-01
        1   -1    0    0  501    0  0.00000000000E+00  0.00000000000E+00  0.17555457172E+04  0.17555457173E+04  0.50400001928E-02 0.  1.
       -1   -1    0    0    0  501  0.00000000000E+00  0.00000000000E+00 -0.19049358799E+04  0.19049358799E+04  0.50400001928E-02 0. -1.
    10030    2    1    2    0    0  0.00000000000E+00  0.00000000000E+00 -0.14939016262E+03  0.36604815971E+04  0.36574318999E+04 0.  0.
        1    1    3    3  502    0 -0.15920751822E+04 -0.88506257757E+03  0.87189207280E+02  0.18236340394E+04  0.50400001928E-02 0.  1.
       -1    1    3    3    0  502  0.15920751822E+04  0.88506257757E+03 -0.23657936990E+03  0.18368475577E+04  0.50400001928E-02 0. -1.
</event>
<event>
 5   0  0.9878336E-07  0.3473724E+04  0.7818609E-02  0.8120045E-01
       -2   -1    0    0    0  501  0.00000000000E+00  0.00000000000E+00  0.10985851519E+04  0.10985851519E+04  0.25500000920E-02 0. -1.
        2   -1    0    0  501    0  0.00000000000E+00  0.00000000000E+00 -0.27459775332E+04  0.27459775332E+04  0.25500000920E-02 0.  1.
    10030    2    1    2    0    0  0.00000000000E+00  0.00000000000E+00 -0.16473923813E+04  0.38445626851E+04  0.34737243099E+04 0.  0.
        3    1    3    3  502    0 -0.50790297735E+03 -0.98750677833E+03  0.65437332278E+03  0.12889296053E+04  0.10100000352E+00 0. -1.
       -3    1    3    3    0  502  0.50790297735E+03  0.98750677833E+03 -0.23017657041E+04  0.25556330798E+04  0.10100000352E+00 0.  1.
</event>
<event>
 5   0  0.9878977E-07  0.3611662E+04  0.7818609E-02  0.8087826E-01
        2   -1    0    0  501    0  0.00000000000E+00  0.00000000000E+00  0.25426206115E+04  0.25426206115E+04  0.25500000920E-02 0. -1.
       -2   -1    0    0    0  501  0.00000000000E+00  0.00000000000E+00 -0.12825450350E+04  0.12825450350E+04  0.25500000920E-02 0.  1.
    10030    2    1    2    0    0  0.00000000000E+00  0.00000000000E+00  0.12600755765E+04  0.38251656465E+04  0.36116619118E+04 0.  0.
        5    1    3    3  502    0 -0.14097813051E+04  0.10574729863E+04  0.10473760488E+04  0.20500612485E+04  0.46999998093E+01 0.  1.
       -5    1    3    3    0  502  0.14097813051E+04 -0.10574729863E+04  0.21269952778E+03  0.17751043981E+04  0.46999998093E+01 0. -1.
</event>
<event>
 5   0  0.3365378E-07  0.3621279E+04  0.7818609E-02  0.8085635E-01
       -1   -1    0    0    0  501  0.00000000000E+00  0.00000000000E+00  0.16399864555E+04  0.16399864555E+04  0.50400001928E-02 0. -1.
        1   -1    0    0  501    0  0.00000000000E+00  0.00000000000E+00 -0.19990497602E+04  0.19990497602E+04  0.50400001928E-02 0.  1.
    10030    2    1    2    0    0  0.00000000000E+00  0.00000000000E+00 -0.35906330470E+03  0.36390362156E+04  0.36212785204E+04 0.  0.
        3    1    3    3  502    0  0.17047189357E+04 -0.55283700044E+03 -0.43909873052E+03  0.18451295630E+04  0.10100000352E+00 0. -1.
       -3    1    3    3    0  502 -0.17047189357E+04  0.55283700044E+03  0.80035425827E+02  0.17939066527E+04  0.10100000352E+00 0.  1.
</event>
<event>
 5   0  0.3278988E-07  0.3641420E+04  0.7818609E-02  0.8081069E-01
       -1   -1    0    0    0  501  0.00000000000E+00  0.00000000000E+00  0.18387961073E+04  0.18387961074E+04  0.50400001928E-02 0. -1.
        1   -1    0    0  501    0  0.00000000000E+00  0.00000000000E+00 -0.18028016850E+04  0.18028016850E+04  0.50400001928E-02 0.  1.
    10030    2    1    2    0    0  0.00000000000E+00  0.00000000000E+00  0.35994422363E+02  0.36415977923E+04  0.36414198993E+04 0.  0.
        4    1    3    3  502    0  0.11964432470E+03  0.68372194837E+03  0.17012884710E+04  0.18374369490E+04  0.12699999809E+01 0. -1.
       -4    1    3    3    0  502 -0.11964432470E+03 -0.68372194837E+03 -0.16652940487E+04  0.18041608433E+04  0.12699999809E+01 0.  1.
</event>
<event>
 5   0  0.3159875E-07  0.3580163E+04  0.7818609E-02  0.8095051E-01
        1   -1    0    0  501    0  0.00000000000E+00  0.00000000000E+00  0.25339964505E+04  0.25339964505E+04  0.50400001928E-02 0.  1.
       -1   -1    0    0    0  501  0.00000000000E+00  0.00000000000E+00 -0.12645607010E+04  0.12645607010E+04  0.50400001928E-02 0. -1.
    10030    2    1    2    0    0  0.00000000000E+00  0.00000000000E+00  0.12694357495E+04  0.37985571516E+04  0.35801633080E+04 0.  0.
        2    1    3    3  502    0  0.74022922859E+02 -0.13522351552E+04 -0.60732110984E+03  0.14842028967E+04  0.25500000920E-02 0. -1.
       -2    1    3    3    0  502 -0.74022922859E+02  0.13522351552E+04  0.18767568593E+04  0.23143542549E+04  0.25500000920E-02 0.  1.
</event>
<event>
 5   0  0.9538919E-07  0.3580007E+04  0.7818609E-02  0.8095087E-01
        2   -1    0    0  501    0  0.00000000000E+00  0.00000000000E+00  0.20605972447E+04  0.20605972447E+04  0.25500000920E-02 0.  1.
       -2   -1    0    0    0  501  0.00000000000E+00  0.00000000000E+00 -0.15549433522E+04  0.15549433522E+04  0.25500000920E-02 0. -1.
    10030    2    1    2    0    0  0.00000000000E+00  0.00000000000E+00  0.50565389251E+03  0.36155405969E+04  0.35800066968E+04 0.  0.
        4    1    3    3  502    0  0.41709080026E+03 -0.60744413159E+03 -0.13946702101E+04  0.15773584617E+04  0.12699999809E+01 0. -1.
       -4    1    3    3    0  502 -0.41709080026E+03  0.60744413159E+03  0.19003241026E+04  0.20381821353E+04  0.12699999809E+01 0.  1.
</event>
<event>
 5   0  0.3159875E-07  0.3576941E+04  0.7818609E-02  0.8095794E-01
        1   -1    0    0  501    0  0.00000000000E+00  0.00000000000E+00  0.11539073050E+04  0.11539073050E+04  0.50400001928E-02 0. -1.
       -1   -1    0    0    0  501  0.00000000000E+00  0.00000000000E+00 -0.27719956581E+04  0.27719956581E+04  0.50400001928E-02 0.  1.
    10030    2    1    2    0    0  0.00000000000E+00  0.00000000000E+00 -0.16180883531E+04  0.39259029631E+04  0.35769406142E+04 0.  0.
        5    1    3    3  502    0 -0.15502347951E+04 -0.29110221250E+03  0.11618919811E+03  0.15816100777E+04  0.46999998093E+01 0. -1.
       -5    1    3    3    0  502  0.15502347951E+04  0.29110221250E+03 -0.17342775513E+04  0.23442928855E+04  0.46999998093E+01 0.  1.
</event>
<event>
 5   0  0.9878977E-07  0.3575694E+04  0.7818609E-02  0.8096082E-01
       -2   -1    0    0    0  501  0.00000000000E+00  0.00000000000E+00  0.27435373306E+04  0.27435373306E+04  0.25500000920E-02 0.  1.
        2   -1    0    0  501    0  0.00000000000E+00  0.00000000000E+00 -0.11650643747E+04  0.11650643747E+04  0.25500000920E-02 0. -1.
    10030    2    1    2    0    0  0.00000000000E+00  0.00000000000E+00  0.15784729559E+04  0.39086017053E+04  0.35756943967E+04 0.  0.
        5    1    3    3  502    0  0.30003257610E+02 -0.16673039926E+04  0.84568500185E+02  0.16697235461E+04  0.46999998093E+01 0. -1.
       -5    1    3    3    0  502 -0.30003257610E+02  0.16673039926E+04  0.14939044557E+04  0.22388781593E+04  0.46999998093E+01 0.  1.
</event>
<event>
 5   0  0.3159875E-07  0.3568214E+04  0.7818609E-02  0.8097812E-01
        1   -1    0    0  501    0  0.00000000000E+00  0.00000000000E+00  0.15177123665E+04  0.15177123665E+04  0.50400001928E-02 0. -1.
       -1   -1    0    0    0  501  0.00000000000E+00  0.00000000000E+00 -0.20972599961E+04  0.20972599961E+04  0.50400001928E-02 0.  1.
    10030    2    1    2    0    0  0.00000000000E+00  0.00000000000E+00 -0.57954762960E+03  0.36149723626E+04  0.35682138007E+04 0.  0.
        2    1    3    3  502    0 -0.18800895457E+03 -0.15553840140E+04  0.57491558969E+03  0.16688603097E+04  0.25500000920E-02 0. -1.
       -2    1    3    3    0  502  0.18800895457E+03  0.15553840140E+04 -0.11544632193E+04  0.19461120529E+04  0.25500000920E-02 0.  1.
</event>
<event>
 5   0  0.1006019E-06  0.3572730E+04  0.7818609E-02  0.8096767E-01
       -2   -1    0    0    0  501  0.00000000000E+00  0.00000000000E+00  0.20735006066E+04  0.20735006066E+04  0.25500000920E-02 0.  1.
        2   -1    0    0  501    0  0.00000000000E+00  0.00000000000E+00 -0.15389916312E+04  0.15389916312E+04  0.25500000920E-02 0. -1.
    10030    2    1    2    0    0  0.00000000000E+00  0.00000000000E+00  0.53450897537E+03  0.36124922378E+04  0.35727300938E+04 0.  0.
        1    1    3    3  502    0 -0.48223962411E+02 -0.17560899420E+03 -0.15295812522E+04  0.15403840029E+04  0.50400001928E-02 0. -1.
       -1    1    3    3    0  502  0.48223962411E+02  0.17560899420E+03  0.20640902276E+04  0.20721082348E+04  0.50400001928E-02 0.  1.
</event>
<event>
 5   0  0.3159875E-07  0.3881466E+04  0.7818609E-02  0.8028895E-01
        1   -1    0    0  501    0  0.00000000000E+00  0.00000000000E+00  0.17648361665E+04  0.17648361665E+04  0.50400001928E-02 0.  1.
       -1   -1    0    0    0  501  0.00000000000E+00  0.00000000000E+00 -0.21341607404E+04  0.21341607404E+04  0.50400001928E-02 0. -1.
    10030    2    1    2    0    0  0.00000000000E+00  0.00000000000E+00 -0.36932457392E+03  0.38989969069E+04  0.38814657334E+04 0.  0.
        5    1    3    3  502    0  0.13598564045E+04 -0.49158661835E+03  0.11156165513E+04  0.18263321778E+04  0.46999998093E+01 0.  1.
       -5    1    3    3    0  502 -0.13598564045E+04  0.49158661835E+03 -0.14849411252E+04  0.20726647292E+04  0.46999998093E+01 0. -1.
</event>
<event>
 5   0  0.3159875E-07  0.3583705E+04  0.7818609E-02  0.8094235E-01
       -1   -1    0    0    0  501  0.00000000000E+00  0.00000000000E+00  0.10271187901E+04  0.10271187901E+04  0.50400001928E-02 0. -1.
        1   -1    0    0  501    0  0.00000000000E+00  0.00000000000E+00 -0.31259626801E+04  0.31259626801E+04  0.50400001928E-02 0.  1.
    10030    2    1    2    0    0  0.00000000000E+00  0.00000000000E+00 -0.20988438900E+04  0.41530814702E+04  0.35837047902E+04 0.  0.
        2    1    3    3  502    0  0.38589298616E+03 -0.17450232081E+04 -0.11992521477E+04  0.21522604646E+04  0.25500000920E-02 0. -1.
       -2    1    3    3    0  502 -0.38589298616E+03  0.17450232081E+04 -0.89959174232E+03  0.20008210056E+04  0.25500000920E-02 0.  1.
</event>
<event>
 5   0  0.1031659E-06  0.3545296E+04  0.7818609E-02  0.8103139E-01
        2   -1    0    0  501    0  0.00000000000E+00  0.00000000000E+00  0.18719823943E+04  0.18719823943E+04  0.25500000920E-02 0.  1.
       -2   -1    0    0    0  501  0.00000000000E+00  0.00000000000E+00 -0.16785846427E+04  0.16785846427E+04  0.25500000920E-02 0. -1.
    10030    2    1    2    0    0  0.00000000000E+00  0.00000000000E+00  0.19339775160E+03  0.35505670371E+04  0.35452959812E+04 0.  0.
        2    1    3    3  502    0  0.12833109391E+04  0.62799081782E+03 -0.95415688985E+03  0.17180438889E+04  0.25500000920E-02 0. -1.
       -2    1    3    3    0  502 -0.12833109391E+04 -0.62799081782E+03  0.11475546414E+04  0.18325231482E+04  0.25500000920E-02 0.  1.
</event>
<event>
 5   0  0.1031659E-06  0.3586815E+04  0.7818609E-02  0.8093519E-01
       -2   -1    0    0    0  501  0.00000000000E+00  0.00000000000E+00  0.16075292849E+04  0.16075292849E+04  0.25500000920E-02 0. -1.
        2   -1    0    0  501    0  0.00000000000E+00  0.00000000000E+00 -0.20007788636E+04  0.20007788636E+04  0.25500000920E-02 0.  1.
    10030    2    1    2    0    0  0.00000000000E+00  0.00000000000E+00 -0.39324957872E+03  0.36083081486E+04  0.35868150864E+04 0.  0.
        2    1    3    3  502    0 -0.14674980205E+04  0.93408646235E+03  0.24215698718E+03  0.17563336716E+04  0.25500000920E-02 0. -1.
       -2    1    3    3    0  502  0.14674980205E+04 -0.93408646235E+03 -0.63540656590E+03  0.18519744770E+04  0.25500000920E-02 0.  1.
</event>
<event>
 5   0  0.9538919E-07  0.3581140E+04  0.7818609E-02  0.8094825E-01
        2   -1    0    0  501    0  0.00000000000E+00  0.00000000000E+00  0.17138492973E+04  0.17138492973E+04  0.25500000920E-02 0.  1.
       -2   -1    0    0    0  501  0.00000000000E+00  0.00000000000E+00 -0.18707255167E+04  0.18707255167E+04  0.25500000920E-02 0. -1.
    10030    2    1    2    0    0  0.00000000000E+00  0.00000000000E+00 -0.15687621941E+03  0.35845748140E+04  0.35811403839E+04 0.  0.
        4    1    3    3  502    0  0.38296856329E+03  0.85538021507E+03  0.14487379702E+04  0.17254516951E+04  0.12699999809E+01 0.  1.
       -4    1    3    3    0  502 -0.38296856329E+03 -0.85538021507E+03 -0.16056141896E+04  0.18591231190E+04  0.12699999809E+01 0. -1.
</event>
<event>
 5   0  0.1031659E-06  0.2997785E+04  0.7818609E-02  0.8244364E-01
       -2   -1    0    0    0  501  0.00000000000E+00  0.00000000000E+00  0.87638753665E+03  0.87638753665E+03  0.25500000920E-02 0.  1.
        2   -1    0    0  501    0  0.00000000000E+00  0.00000000000E+00 -0.25635681913E+04  0.25635681913E+04  0.25500000920E-02 0. -1.
    10030    2    1    2    0    0  0.00000000000E+00  0.00000000000E+00 -0.16871806547E+04  0.34399557280E+04  0.29977853240E+04 0.  0.
        2    1    3    3  502    0  0.13115853119E+04 -0.62002000230E+02 -0.14067630639E+02  0.13131253469E+04  0.25500000920E-02 0.  1.
       -2    1    3    3    0  502 -0.13115853119E+04  0.62002000230E+02 -0.16731130240E+04  0.21268303810E+04  0.25500000920E-02 0. -1.
</event>
<event>
 5   0  0.1031659E-06  0.3604567E+04  0.7818609E-02  0.8089446E-01
        2   -1    0    0  501    0  0.00000000000E+00  0.00000000000E+00  0.12857236468E+04  0.12857236468E+04  0.25500000920E-02 0.  1.
       -2   -1    0    0    0  501  0.00000000000E+00  0.00000000000E+00 -0.25263799276E+04  0.25263799276E+04  0.25500000920E-02 0. -1.
    10030    2    1    2    0    0  0.00000000000E+00  0.00000000000E+00 -0.12406562808E+04  0.38121035743E+04  0.36045673325E+04 0.  0.
        2    1    3    3  502    0 -0.87027980946E+02  0.14364325094E+04 -0.17678414691E+04  0.22795121591E+04  0.25500000920E-02 0. -1.
       -2    1    3    3    0  502  0.87027980946E+02 -0.14364325094E+04  0.52718518831E+03  0.15325914153E+04  0.25500000920E-02 0.  1.
</event>
<event>
 5   0  0.9878336E-07  0.3627963E+04  0.7818609E-02  0.8084116E-01
        2   -1    0    0  501    0  0.00000000000E+00  0.00000000000E+00  0.19447865011E+04  0.19447865011E+04  0.25500000920E-02 0. -1.
       -2   -1    0    0    0  501  0.00000000000E+00  0.00000000000E+00 -0.16919746006E+04  0.16919746006E+04  0.25500000920E-02 0.  1.
    10030    2    1    2    0    0  0.00000000000E+00  0.00000000000E+00  0.25281190047E+03  0.36367611017E+04  0.36279632652E+04 0.  0.
        3    1    3    3  502    0 -0.13101617381E+03  0.14225578096E+04  0.12470137198E+04  0.18962803556E+04  0.10100000352E+00 0. -1.
       -3    1    3    3    0  502  0.13101617381E+03 -0.14225578096E+04 -0.99420181934E+03  0.17404807460E+04  0.10100000352E+00 0.  1.
</event>
<event>
 5   0  0.3278988E-07  0.3593893E+04  0.7818609E-02  0.8091892E-01
        1   -1    0    0  501    0  0.00000000000E+00  0.00000000000E+00  0.21653005909E+04  0.21653005909E+04  0.50400001928E-02 0.  1.
       -1   -1    0    0    0  501  0.00000000000E+00  0.00000000000E+00 -0.14912560559E+04  0.14912560559E+04  0.50400001928E-02 0. -1.
    10030    2    1    2    0    0  0.00000000000E+00  0.00000000000E+00  0.67404453500E+03  0.36565566469E+04  0.35938934982E+04 0.  0.
        4    1    3    3  502    0  0.16702511180E+04 -0.11891245734E+03 -0.32637178441E+03  0.17059891923E+04  0.12699999809E+01 0. -1.
       -4    1    3    3    0  502 -0.16702511180E+04  0.11891245734E+03  0.10004163194E+04  0.19505674546E+04  0.12699999809E+01 0.  1.
</event>
<event>
 5   0  0.3242047E-07  0.3524082E+04  0.7818609E-02  0.8108107E-01
       -1   -1    0    0    0  501  0.00000000000E+00  0.00000000000E+00  0.13201936396E+04  0.13201936396E+04  0.50400001928E-02 0. -1.
        1   -1    0    0  501    0  0.00000000000E+00  0.00000000000E+00 -0.23517670071E+04  0.23517670071E+04  0.50400001928E-02 0.  1.
    10030    2    1    2    0    0  0.00000000000E+00  0.00000000000E+00 -0.10315733675E+04  0.36719606468E+04  0.35240816362E+04 0.  0.
        1    1    3    3  502    0  0.16183833573E+04  0.32629941082E+03  0.12580488227E+03  0.16557363513E+04  0.50400001928E-02 0. -1.
       -1    1    3    3    0  502 -0.16183833573E+04 -0.32629941082E+03 -0.11573782498E+04  0.20162242955E+04  0.50400001928E-02 0.  1.
</event>
<event>
 5   0  0.3365378E-07  0.3572352E+04  0.7818609E-02  0.8096854E-01
        1   -1    0    0  501    0  0.00000000000E+00  0.00000000000E+00  0.12525409037E+04  0.12525409037E+04  0.50400001928E-02 0.  1.
       -1   -1    0    0    0  501  0.00000000000E+00  0.00000000000E+00 -0.25471624784E+04  0.25471624784E+04  0.50400001928E-02 0. -1.
    10030    2    1    2    0    0  0.00000000000E+00  0.00000000000E+00 -0.12946215747E+04  0.37997033821E+04  0.35723522741E+04 0.  0.
        3    1    3    3  502    0  0.32140125076E+03  0.14368437169E+04  0.42828650970E+03  0.15333779623E+04  0.10100000352E+00 0.  1.
       -3    1    3    3    0  502 -0.32140125076E+03 -0.14368437169E+04 -0.17229080844E+04  0.22663254198E+04  0.10100000352E+00 0. -1.
</event>
<event>
 5   0  0.3159875E-07  0.3572645E+04  0.7818609E-02  0.8096787E-01
       -1   -1    0    0    0  501  0.00000000000E+00  0.00000000000E+00  0.13921997341E+04  0.13921997341E+04  0.50400001928E-02 0.  1.
        1   -1    0    0  501    0  0.00000000000E+00  0.00000000000E+00 -0.22920186252E+04  0.22920186252E+04  0.50400001928E-02 0. -1.
    10030    2    1    2    0    0  0.00000000000E+00  0.00000000000E+00 -0.89981889108E+03  0.36842183594E+04  0.35726448022E+04 0.  0.
        2    1    3    3  502    0  0.50805029112E+01  0.58297500205E+02  0.13912110262E+04  0.13924412122E+04  0.25500000920E-02 0.  1.
       -2    1    3    3    0  502 -0.50805029112E+01 -0.58297500205E+02 -0.22910299173E+04  0.22917771471E+04  0.25500000920E-02 0. -1.
</event>
<event>
 5   0  0.3365378E-07  0.3600473E+04  0.7818609E-02  0.8090383E-01
       -1   -1    0    0    0  501  0.00000000000E+00  0.00000000000E+00  0.14963013252E+04  0.14963013252E+04  0.50400001928E-02 0.  1.
        1   -1    0    0  501    0  0.00000000000E+00  0.00000000000E+00 -0.21659079945E+04  0.21659079945E+04  0.50400001928E-02 0. -1.
    10030    2    1    2    0    0  0.00000000000E+00  0.00000000000E+00 -0.66960666928E+03  0.36622093198E+04  0.36004727482E+04 0.  0.
        3    1    3    3  502    0  0.14241064676E+03  0.15577722867E+04  0.57149426833E+03  0.16653951479E+04  0.10100000352E+00 0.  1.
       -3    1    3    3    0  502 -0.14241064676E+03 -0.15577722867E+04 -0.12411009376E+04  0.19968141719E+04  0.10100000352E+00 0. -1.
</event>
<event>
 5   0  0.9538919E-07  0.3574784E+04  0.7818609E-02  0.8096292E-01
       -2   -1    0    0    0  501  0.00000000000E+00  0.00000000000E+00  0.11737588619E+04  0.11737588619E+04  0.25500000920E-02 0.  1.
        2   -1    0    0  501    0  0.00000000000E+00  0.00000000000E+00 -0.27218279528E+04  0.27218279528E+04  0.25500000920E-02 0. -1.
    10030    2    1    2    0    0  0.00000000000E+00  0.00000000000E+00 -0.15480690909E+04  0.38955868146E+04  0.35747837305E+04 0.  0.
        4    1    3    3  502    0  0.92736870376E+02 -0.16523158732E+04 -0.38140730738E+02  0.16553562155E+04  0.12699999809E+01 0.  1.
       -4    1    3    3    0  502 -0.92736870376E+02  0.16523158732E+04 -0.15099283601E+04  0.22402305992E+04  0.12699999809E+01 0. -1.
</event>
<event>
 5   0  0.9538919E-07  0.3556643E+04  0.7818609E-02  0.8100496E-01
       -2   -1    0    0    0  501  0.00000000000E+00  0.00000000000E+00  0.14528556645E+04  0.14528556645E+04  0.25500000920E-02 0. -1.
        2   -1    0    0  501    0  0.00000000000E+00  0.00000000000E+00 -0.21766973037E+04  0.21766973037E+04  0.25500000920E-02 0.  1.
    10030    2    1    2    0    0  0.00000000000E+00  0.00000000000E+00 -0.72384163919E+03  0.36295529683E+04  0.35566428034E+04 0.  0.
        4    1    3    3  502    0 -0.15929687306E+04  0.44276705627E+03  0.30635718205E+03  0.16815018224E+04  0.12699999809E+01 0. -1.
       -4    1    3    3    0  502  0.15929687306E+04 -0.44276705627E+03 -0.10301988212E+04  0.19480511459E+04  0.12699999809E+01 0.  1.
</event>
<event>
 5   0  0.1031659E-06  0.3624471E+04  0.7818609E-02  0.8084909E-01
       -2   -1    0    0    0  501  0.00000000000E+00  0.00000000000E+00  0.14179463938E+04  0.14179463938E+04  0.25500000920E-02 0.  1.
        2   -1    0    0  501    0  0.00000000000E+00  0.00000000000E+00 -0.23161651444E+04  0.23161651444E+04  0.25500000920E-02 0. -1.
    10030    2    1    2    0    0  0.00000000000E+00  0.00000000000E+00 -0.89821875059E+03  0.37341115382E+04  0.36244712795E+04 0.  0.
        2    1    3    3  502    0  0.16938038076E+04  0.57534319353E+03 -0.74807167436E+03  0.19389694064E+04  0.25500000920E-02 0.  1.
       -2    1    3    3    0  502 -0.16938038076E+04 -0.57534319353E+03 -0.15014707623E+03  0.17951421318E+04  0.25500000920E-02 0. -1.
</event>
<event>
 5   0  0.3159875E-07  0.3817908E+04  0.7818609E-02  0.8042323E-01
       -3   -1    0    0    0  501  0.00000000000E+00  0.00000000000E+00  0.19610270453E+04  0.19610270479E+04  0.10100000352E+00 0. -1.
        3   -1    0    0  501    0  0.00000000000E+00  0.00000000000E+00 -0.18582636005E+04  0.18582636032E+04  0.10100000352E+00 0.  1.
    10030    2    1    2    0    0  0.00000000000E+00  0.00000000000E+00  0.10276344487E+03  0.38192906512E+04  0.38179079026E+04 0.  0.
        5    1    3    3  502    0  0.57272836615E+03  0.48461018083E+03  0.18073573972E+04  0.19568923476E+04  0.46999998093E+01 0. -1.
       -5    1    3    3    0  502 -0.57272836615E+03 -0.48461018083E+03 -0.17045939524E+04  0.18623983036E+04  0.46999998093E+01 0.  1.
</event>
<event>
 5   0  0.3278988E-07  0.3592304E+04  0.7818609E-02  0.8092257E-01
       -1   -1    0    0    0  501  0.00000000000E+00  0.00000000000E+00  0.15263143425E+04  0.15263143425E+04  0.50400001928E-02 0. -1.
        1   -1    0    0  501    0  0.00000000000E+00  0.00000000000E+00 -0.21136943319E+04  0.21136943319E+04  0.50400001928E-02 0.  1.
    10030    2    1    2    0    0  0.00000000000E+00  0.00000000000E+00 -0.58737998943E+03  0.36400086744E+04  0.35923039818E+04 0.  0.
        4    1    3    3  502    0 -0.45790581127E+03  0.14872856641E+04  0.61513997794E+03  0.16733484945E+04  0.12699999809E+01 0. -1.
       -4    1    3    3    0  502  0.45790581127E+03 -0.14872856641E+04 -0.12025199674E+04  0.19666601800E+04  0.12699999809E+01 0.  1.
</event>
<event>
 5   0  0.3365378E-07  0.3572709E+04  0.7818609E-02  0.8096772E-01
       -1   -1    0    0    0  501  0.00000000000E+00  0.00000000000E+00  0.15381800936E+04  0.15381800936E+04  0.50400001928E-02 0. -1.
        1   -1    0    0  501    0  0.00000000000E+00  0.00000000000E+00 -0.20745705671E+04  0.20745705671E+04  0.50400001928E-02 0.  1.
    10030    2    1    2    0    0  0.00000000000E+00  0.00000000000E+00 -0.53639047345E+03  0.36127506607E+04  0.35727094196E+04 0.  0.
        3    1    3    3  502    0 -0.78721341399E+03 -0.50904253470E+03 -0.18058405686E+04  0.20346718238E+04  0.10100000352E+00 0.  1.
       -3    1    3    3    0  502  0.78721341399E+03  0.50904253470E+03  0.12694500951E+04  0.15780788369E+04  0.10100000352E+00 0. -1.
</event>
<event>
 5   0  0.3278988E-07  0.3592137E+04  0.7818609E-02  0.8092295E-01
        1   -1    0    0  501    0  0.00000000000E+00  0.00000000000E+00  0.16002885171E+04  0.16002885171E+04  0.50400001928E-02 0. -1.
       -1   -1    0    0    0  501  0.00000000000E+00  0.00000000000E+00 -0.20158000924E+04  0.20158000924E+04  0.50400001928E-02 0.  1.
    10030    2    1    2    0    0  0.00000000000E+00  0.00000000000E+00 -0.41551157535E+03  0.36160886095E+04  0.35921368240E+04 0.  0.
        4    1    3    3  502    0  0.11021342164E+04 -0.11478511619E+04 -0.10461342477E+04  0.19043793209E+04  0.12699999809E+01 0.  1.
       -4    1    3    3    0  502 -0.11021342164E+04  0.11478511619E+04  0.63062267237E+03  0.17117092886E+04  0.12699999809E+01 0. -1.
</event>
<event>
 5   0  0.3278988E-07  0.3560081E+04  0.7818609E-02  0.8099697E-01
        1   -1    0    0  501    0  0.00000000000E+00  0.00000000000E+00  0.23923716372E+04  0.23923716372E+04  0.50400001928E-02 0. -1.
       -1   -1    0    0    0  501  0.00000000000E+00  0.00000000000E+00 -0.13244366946E+04  0.13244366946E+04  0.50400001928E-02 0.  1.
    10030    2    1    2    0    0  0.00000000000E+00  0.00000000000E+00  0.10679349426E+04  0.37168083318E+04  0.35600813380E+04 0.  0.
        4    1    3    3  502    0 -0.55310954281E+03 -0.78467985255E+03 -0.10309851817E+04  0.14087528865E+04  0.12699999809E+01 0.  1.
       -4    1    3    3    0  502  0.55310954281E+03  0.78467985255E+03  0.20989201243E+04  0.23080554453E+04  0.12699999809E+01 0. -1.
</event>
<event>
 5   0  0.1006019E-06  0.3462499E+04  0.7818609E-02  0.8122735E-01
        2   -1    0    0  501    0  0.00000000000E+00  0.00000000000E+00  0.23328086745E+04  0.23328086745E+04  0.25500000920E-02 0. -1.
       -2   -1    0    0    0  501  0.00000000000E+00  0.00000000000E+00 -0.12848138629E+04  0.12848138629E+04  0.25500000920E-02 0.  1.
    10030    2    1    2    0    0  0.00000000000E+00  0.00000000000E+00  0.10479948115E+04  0.36176225374E+04  0.34624990539E+04 0.  0.
        1    1    3    3  502    0 -0.10596576038E+04 -0.70097754979E+03 -0.70469088477E+03  0.14528706088E+04  0.50400001928E-02 0.  1.
       -1    1    3    3    0  502  0.10596576038E+04  0.70097754979E+03  0.17526856963E+04  0.21647519287E+04  0.50400001928E-02 0. -1.
</event>
<event>
 5   0  0.1031659E-06  0.3617574E+04  0.7818609E-02  0.8086478E-01
       -2   -1    0    0    0  501  0.00000000000E+00  0.00000000000E+00  0.16606154537E+04  0.16606154537E+04  0.25500000920E-02 0. -1.
        2   -1    0    0  501    0  0.00000000000E+00  0.00000000000E+00 -0.19701790806E+04  0.19701790806E+04  0.25500000920E-02 0.  1.
    10030    2    1    2    0    0  0.00000000000E+00  0.00000000000E+00 -0.30956362690E+03  0.36307945343E+04  0.36175736774E+04 0.  0.
        2    1    3    3  502    0 -0.38042847623E+03  0.13919563925E+04  0.93981911966E+03  0.17220709631E+04  0.25500000920E-02 0.  1.
       -2    1    3    3    0  502  0.38042847623E+03 -0.13919563925E+04 -0.12493827466E+04  0.19087235713E+04  0.25500000920E-02 0. -1.
</event>
<event>
 5   0  0.9878336E-07  0.3447649E+04  0.7818609E-02  0.8126310E-01
       -2   -1    0    0    0  501  0.00000000000E+00  0.00000000000E+00  0.13651755760E+04  0.13651755760E+04  0.25500000920E-02 0.  1.
        2   -1    0    0  501    0  0.00000000000E+00  0.00000000000E+00 -0.21766950231E+04  0.21766950231E+04  0.25500000920E-02 0. -1.
    10030    2    1    2    0    0  0.00000000000E+00  0.00000000000E+00 -0.81151944711E+03  0.35418705990E+04  0.34476489855E+04 0.  0.
        3    1    3    3  502    0 -0.42726661852E+02 -0.16763371169E+04 -0.81622779818E+03  0.18649824465E+04  0.10100000352E+00 0.  1.
       -3    1    3    3    0  502  0.42726661852E+02  0.16763371169E+04  0.47083510679E+01  0.16768881525E+04  0.10100000352E+00 0. -1.
</event>
<event>
 5   0  0.9878977E-07  0.3480417E+04  0.7818609E-02  0.8118447E-01
       -2   -1    0    0    0  501  0.00000000000E+00  0.00000000000E+00  0.14504798587E+04  0.14504798587E+04  0.25500000920E-02 0.  1.
        2   -1    0    0  501    0  0.00000000000E+00  0.00000000000E+00 -0.20878097376E+04  0.20878097376E+04  0.25500000920E-02 0. -1.
    10030    2    1    2    0    0  0.00000000000E+00  0.00000000000E+00 -0.63732987891E+03  0.35382895963E+04  0.34804172010E+04 0.  0.
        5    1    3    3  502    0 -0.12485525999E+04  0.24778304924E+02 -0.15507603390E+04  0.19910744030E+04  0.46999998093E+01 0. -1.
       -5    1    3    3    0  502  0.12485525999E+04 -0.24778304924E+02  0.91343046008E+03  0.15472151934E+04  0.46999998093E+01 0.  1.
</event>
<event>
 5   0  0.3159875E-07  0.3548133E+04  0.7818609E-02  0.8102477E-01
        1   -1    0    0  501    0  0.00000000000E+00  0.00000000000E+00  0.21334818321E+04  0.21334818321E+04  0.50400001928E-02 0. -1.
       -1   -1    0    0    0  501  0.00000000000E+00  0.00000000000E+00 -0.14751995589E+04  0.14751995589E+04  0.50400001928E-02 0.  1.
    10030    2    1    2    0    0  0.00000000000E+00  0.00000000000E+00  0.65828227315E+03  0.36086813910E+04  0.35481327245E+04 0.  0.
        5    1    3    3  502    0 -0.20775209147E+03  0.14683585243E+04 -0.66115409806E+03  0.16236947123E+04  0.46999998093E+01 0.  1.
       -5    1    3    3    0  502  0.20775209147E+03 -0.14683585243E+04  0.13194363712E+04  0.19849866788E+04  0.46999998093E+01 0. -1.
</event>
<event>
 5   0  0.3159875E-07  0.3446821E+04  0.7818609E-02  0.8126510E-01
       -1   -1    0    0    0  501  0.00000000000E+00  0.00000000000E+00  0.16300514264E+04  0.16300514264E+04  0.50400001928E-02 0. -1.
        1   -1    0    0  501    0  0.00000000000E+00  0.00000000000E+00 -0.18221167491E+04  0.18221167491E+04  0.50400001928E-02 0.  1.
    10030    2    1    2    0    0  0.00000000000E+00  0.00000000000E+00 -0.19206532267E+03  0.34521681755E+04  0.34468211477E+04 0.  0.
        2    1    3    3  502    0  0.91253014229E+03  0.71890110891E+03 -0.13710408706E+04  0.17970206270E+04  0.25500000920E-02 0.  1.
       -2    1    3    3    0  502 -0.91253014229E+03 -0.71890110891E+03  0.11789755479E+04  0.16551475486E+04  0.25500000920E-02 0. -1.
</event>
<event>
 5   0  0.3159875E-07  0.3624613E+04  0.7818609E-02  0.8084877E-01
        1   -1    0    0  501    0  0.00000000000E+00  0.00000000000E+00  0.28784979354E+04  0.28784979354E+04  0.50400001928E-02 0. -1.
       -1   -1    0    0    0  501  0.00000000000E+00  0.00000000000E+00 -0.11410307877E+04  0.11410307877E+04  0.50400001928E-02 0.  1.
    10030    2    1    2    0    0  0.00000000000E+00  0.00000000000E+00  0.17374671477E+04  0.40195287231E+04  0.36246129541E+04 0.  0.
        5    1    3    3  502    0  0.17445757715E+04 -0.47351058477E+03  0.72552910170E+03  0.19478633073E+04  0.46999998093E+01 0.  1.
       -5    1    3    3    0  502 -0.17445757715E+04  0.47351058477E+03  0.10119380460E+04  0.20716654159E+04  0.46999998093E+01 0. -1.
</event>
<event>
 5   0  0.1031659E-06  0.3649369E+04  0.7818609E-02  0.8079276E-01
       -2   -1    0    0    0  501  0.00000000000E+00  0.00000000000E+00  0.15923509420E+04  0.15923509420E+04  0.25500000920E-02 0. -1.
        2   -1    0    0  501    0  0.00000000000E+00  0.00000000000E+00 -0.20909170256E+04  0.20909170256E+04  0.25500000920E-02 0.  1.
    10030    2    1    2    0    0  0.00000000000E+00  0.00000000000E+00 -0.49856608357E+03  0.36832679676E+04  0.36493690937E+04 0.  0.
        2    1    3    3  502    0 -0.87272358889E+03 -0.72347859346E+03  0.11938258257E+04  0.16462951862E+04  0.25500000920E-02 0. -1.
       -2    1    3    3    0  502  0.87272358889E+03  0.72347859346E+03 -0.16923919093E+04  0.20369727815E+04  0.25500000920E-02 0.  1.
</event>
<event>
 5   0  0.1006019E-06  0.3451192E+04  0.7818609E-02  0.8125455E-01
        2   -1    0    0  501    0  0.00000000000E+00  0.00000000000E+00  0.22986467295E+04  0.22986467295E+04  0.25500000920E-02 0. -1.
       -2   -1    0    0    0  501  0.00000000000E+00  0.00000000000E+00 -0.12954063824E+04  0.12954063824E+04  0.25500000920E-02 0.  1.
    10030    2    1    2    0    0  0.00000000000E+00  0.00000000000E+00  0.10032403471E+04  0.35940531119E+04  0.34511920516E+04 0.  0.
        1    1    3    3  502    0 -0.12118223921E+04 -0.12037369007E+04  0.24613736051E+03  0.17257113421E+04  0.50400001928E-02 0.  1.
       -1    1    3    3    0  502  0.12118223921E+04  0.12037369007E+04  0.75710298663E+03  0.18683417697E+04  0.50400001928E-02 0. -1.
</event>
<event>
 5   0  0.1006019E-06  0.3561909E+04  0.7818609E-02  0.8099273E-01
        2   -1    0    0  501    0  0.00000000000E+00  0.00000000000E+00  0.24991508082E+04  0.24991508082E+04  0.25500000920E-02 0.  1.
       -2   -1    0    0    0  501  0.00000000000E+00  0.00000000000E+00 -0.12691503685E+04  0.12691503685E+04  0.25500000920E-02 0. -1.
    10030    2    1    2    0    0  0.00000000000E+00  0.00000000000E+00  0.12300004397E+04  0.37683011768E+04  0.35619085723E+04 0.  0.
        1    1    3    3  502    0  0.29257962580E+03  0.42283134808E+03 -0.11889140838E+04  0.12953400654E+04  0.50400001928E-02 0. -1.
       -1    1    3    3    0  502 -0.29257962580E+03 -0.42283134808E+03  0.24189145235E+04  0.24729611114E+04  0.50400001928E-02 0.  1.
</event>
<event>
 5   0  0.9878336E-07  0.3567712E+04  0.7818609E-02  0.8097928E-01
       -2   -1    0    0    0  501  0.00000000000E+00  0.00000000000E+00  0.11977787823E+04  0.11977787823E+04  0.25500000920E-02 0.  1.
        2   -1    0    0  501    0  0.00000000000E+00  0.00000000000E+00 -0.26567023245E+04  0.26567023245E+04  0.25500000920E-02 0. -1.
    10030    2    1    2    0    0  0.00000000000E+00  0.00000000000E+00 -0.14589235422E+04  0.38544811069E+04  0.35677116898E+04 0.  0.
        3    1    3    3  502    0 -0.77047554160E+03  0.12997921731E+04 -0.17538579515E+04  0.23149751570E+04  0.10100000352E+00 0. -1.
       -3    1    3    3    0  502  0.77047554160E+03 -0.12997921731E+04  0.29493440931E+03  0.15395059498E+04  0.10100000352E+00 0.  1.
</event>
<event>
 5   0  0.3278988E-07  0.3593989E+04  0.7818609E-02  0.8091870E-01
        1   -1    0    0  501    0  0.00000000000E+00  0.00000000000E+00  0.14714804221E+04  0.14714804221E+04  0.50400001928E-02 0.  1.
       -1   -1    0    0    0  501  0.00000000000E+00  0.00000000000E+00 -0.21945174792E+04  0.21945174792E+04  0.50400001928E-02 0. -1.
    10030    2    1    2    0    0  0.00000000000E+00  0.00000000000E+00 -0.72303705716E+03  0.36659979013E+04  0.35939891523E+04 0.  0.
        4    1    3    3  502    0 -0.12116088282E+04  0.69955552533E+03  0.78882420131E+03  0.16061192730E+04  0.12699999809E+01 0.  1.
       -4    1    3    3    0  502  0.12116088282E+04 -0.69955552533E+03 -0.15118612585E+04  0.20598786283E+04  0.12699999809E+01 0. -1.
</event>
<event>
 5   0  0.9878336E-07  0.3630787E+04  0.7818609E-02  0.8083476E-01
       -2   -1    0    0    0  501  0.00000000000E+00  0.00000000000E+00  0.13602458869E+04  0.13602458869E+04  0.25500000920E-02 0. -1.
        2   -1    0    0  501    0  0.00000000000E+00  0.00000000000E+00 -0.24228363896E+04  0.24228363896E+04  0.25500000920E-02 0.  1.
    10030    2    1    2    0    0  0.00000000000E+00  0.00000000000E+00 -0.10625905027E+04  0.37830822765E+04  0.36307868203E+04 0.  0.
        3    1    3    3  502    0 -0.14215954562E+04 -0.13361036576E+03  0.63683116553E+03  0.15634382989E+04  0.10100000352E+00 0. -1.
       -3    1    3    3    0  502  0.14215954562E+04  0.13361036576E+03 -0.16994216682E+04  0.22196439776E+04  0.10100000352E+00 0.  1.
</event>
<event>
 5   0  0.3159875E-07  0.3703389E+04  0.7818609E-02  0.8067211E-01
        1   -1    0    0  501    0  0.00000000000E+00  0.00000000000E+00  0.10905672253E+04  0.10905672254E+04  0.50400001928E-02 0. -1.
       -1   -1    0    0    0  501  0.00000000000E+00  0.00000000000E+00 -0.31440270890E+04  0.31440270890E+04  0.50400001928E-02 0.  1.
    10030    2    1    2    0    0  0.00000000000E+00  0.00000000000E+00 -0.20534598637E+04  0.42345943144E+04  0.37033892039E+04 0.  0.
        2    1    3    3  502    0 -0.13155629738E+04 -0.23986626474E+03 -0.24912815823E+04  0.28274945950E+04  0.25500000920E-02 0.  1.
       -2    1    3    3    0  502  0.13155629738E+04  0.23986626474E+03  0.43782171859E+03  0.14070997193E+04  0.25500000920E-02 0. -1.
</event>
<event>
 5   0  0.9878977E-07  0.3581270E+04  0.7818609E-02  0.8094796E-01
       -2   -1    0    0    0  501  0.00000000000E+00  0.00000000000E+00  0.13231823453E+04  0.13231823453E+04  0.25500000920E-02 0.  1.
        2   -1    0    0  501    0  0.00000000000E+00  0.00000000000E+00 -0.24232285200E+04  0.24232285200E+04  0.25500000920E-02 0. -1.
    10030    2    1    2    0    0  0.00000000000E+00  0.00000000000E+00 -0.11000461747E+04  0.37464108652E+04  0.35812697168E+04 0.  0.
        5    1    3    3  502    0  0.12619811321E+04  0.18128557013E+03 -0.18653364651E+04  0.22594165295E+04  0.46999998093E+01 0. -1.
       -5    1    3    3    0  502 -0.12619811321E+04 -0.18128557013E+03  0.76529029043E+03  0.14869943357E+04  0.46999998093E+01 0.  1.
</event>
<event>
 5   0  0.9878336E-07  0.3589829E+04  0.7818609E-02  0.8092825E-01
       -2   -1    0    0    0  501  0.00000000000E+00  0.00000000000E+00  0.17498767830E+04  0.17498767830E+04  0.25500000920E-02 0.  1.
        2   -1    0    0  501    0  0.00000000000E+00  0.00000000000E+00 -0.18411113839E+04  0.18411113839E+04  0.25500000920E-02 0. -1.
    10030    2    1    2    0    0  0.00000000000E+00  0.00000000000E+00 -0.91234600857E+02  0.35909881669E+04  0.35898290018E+04 0.  0.
        3    1    3    3  502    0 -0.99109794204E+02  0.13654274710E+04  0.11155775543E+04  0.17659921346E+04  0.10100000352E+00 0.  1.
       -3    1    3    3    0  502  0.99109794204E+02 -0.13654274710E+04 -0.12068121551E+04  0.18249960322E+04  0.10100000352E+00 0. -1.
</event>
<event>
 5   0  0.3159875E-07  0.3544059E+04  0.7818609E-02  0.8103427E-01
        1   -1    0    0  501    0  0.00000000000E+00  0.00000000000E+00  0.11217464051E+04  0.11217464051E+04  0.50400001928E-02 0.  1.
       -1   -1    0    0    0  501  0.00000000000E+00  0.00000000000E+00 -0.27992862717E+04  0.27992862717E+04  0.50400001928E-02 0. -1.
    10030    2    1    2    0    0  0.00000000000E+00  0.00000000000E+00 -0.16775398666E+04  0.39210326768E+04  0.35440594307E+04 0.  0.
        2    1    3    3  502    0  0.82356789251E+03  0.45767686841E+03 -0.24991904507E+04  0.26708959355E+04  0.25500000920E-02 0. -1.
       -2    1    3    3    0  502 -0.82356789251E+03 -0.45767686841E+03  0.82165058409E+03  0.12501367412E+04  0.25500000920E-02 0.  1.
</event>
<event>
 5   0  0.3159875E-07  0.3546204E+04  0.7818609E-02  0.8102927E-01
       -1   -1    0    0    0  501  0.00000000000E+00  0.00000000000E+00  0.14834670412E+04  0.14834670412E+04  0.50400001928E-02 0.  1.
        1   -1    0    0  501    0  0.00000000000E+00  0.00000000000E+00 -0.21192856257E+04  0.21192856257E+04  0.50400001928E-02 0. -1.
    10030    2    1    2    0    0  0.00000000000E+00  0.00000000000E+00 -0.63581858452E+03  0.36027526669E+04  0.35462038162E+04 0.  0.
        2    1    3    3  502    0 -0.85857778995E+03  0.52259582045E+03 -0.18018963835E+04  0.20632723499E+04  0.25500000920E-02 0. -1.
       -2    1    3    3    0  502  0.85857778995E+03 -0.52259582045E+03  0.11660777990E+04  0.15394803170E+04  0.25500000920E-02 0.  1.
</event>
<event>
 5   0  0.3159875E-07  0.3694862E+04  0.7818609E-02  0.8069102E-01
        3   -1    0    0  501    0  0.00000000000E+00  0.00000000000E+00  0.17454238710E+04  0.17454238739E+04  0.10100000352E+00 0. -1.
       -3   -1    0    0    0  501  0.00000000000E+00  0.00000000000E+00 -0.19553991852E+04  0.19553991878E+04  0.10100000352E+00 0.  1.
    10030    2    1    2    0    0  0.00000000000E+00  0.00000000000E+00 -0.20997531421E+03  0.37008230617E+04  0.36948615267E+04 0.  0.
        4    1    3    3  502    0 -0.11293089306E+03  0.35306119387E+03 -0.19177678053E+04  0.19532640787E+04  0.12699999809E+01 0.  1.
       -4    1    3    3    0  502  0.11293089306E+03 -0.35306119387E+03  0.17077924911E+04  0.17475589829E+04  0.12699999809E+01 0. -1.
</event>
<event>
 5   0  0.1031659E-06  0.3565508E+04  0.7818609E-02  0.8098438E-01
       -2   -1    0    0    0  501  0.00000000000E+00  0.00000000000E+00  0.13761099332E+04  0.13761099333E+04  0.25500000920E-02 0.  1.
        2   -1    0    0  501    0  0.00000000000E+00  0.00000000000E+00 -0.23095624723E+04  0.23095624723E+04  0.25500000920E-02 0. -1.
    10030    2    1    2    0    0  0.00000000000E+00  0.00000000000E+00 -0.93345253904E+03  0.36856724055E+04  0.35655080197E+04 0.  0.
        2    1    3    3  502    0  0.59060378109E+03  0.38731742365E+03 -0.21587747930E+04  0.22713732014E+04  0.25500000920E-02 0. -1.
       -2    1    3    3    0  502 -0.59060378109E+03 -0.38731742365E+03  0.12253222540E+04  0.14142992042E+04  0.25500000920E-02 0.  1.
</event>
<event>
 5   0  0.1031659E-06  0.3606950E+04  0.7818609E-02  0.8088902E-01
        2   -1    0    0  501    0  0.00000000000E+00  0.00000000000E+00  0.14785552657E+04  0.14785552657E+04  0.25500000920E-02 0.  1.
       -2   -1    0    0    0  501  0.00000000000E+00  0.00000000000E+00 -0.21997972458E+04  0.21997972458E+04  0.25500000920E-02 0. -1.
    10030    2    1    2    0    0  0.00000000000E+00  0.00000000000E+00 -0.72124198013E+03  0.36783525115E+04  0.36069498478E+04 0.  0.
        2    1    3    3  502    0  0.13640591952E+04  0.52218558026E+03 -0.14394794740E+04  0.20507160760E+04  0.25500000920E-02 0. -1.
       -2    1    3    3    0  502 -0.13640591952E+04 -0.52218558026E+03  0.71823749389E+03  0.16276364354E+04  0.25500000920E-02 0.  1.
</event>
<event>
 5   0  0.3365378E-07  0.3076126E+04  0.7818609E-02  0.8222321E-01
        1   -1    0    0  501    0  0.00000000000E+00  0.00000000000E+00  0.15095510687E+04  0.15095510687E+04  0.50400001928E-02 0.  1.
       -1   -1    0    0    0  501  0.00000000000E+00  0.00000000000E+00 -0.15671135997E+04  0.15671135997E+04  0.50400001928E-02 0. -1.
    10030    2    1    2    0    0  0.00000000000E+00  0.00000000000E+00 -0.57562531041E+02  0.30766646684E+04  0.30761261413E+04 0.  0.
        3    1    3    3  502    0  0.18838410525E+03  0.13992755747E+04  0.58138888855E+03  0.15269164205E+04  0.10100000352E+00 0.  1.
       -3    1    3    3    0  502 -0.18838410525E+03 -0.13992755747E+04 -0.63895141959E+03  0.15497482479E+04  0.10100000352E+00 0. -1.
</event>
<event>
 5   0  0.9538919E-07  0.3559946E+04  0.7818609E-02  0.8099729E-01
       -2   -1    0    0    0  501  0.00000000000E+00  0.00000000000E+00  0.17293845299E+04  0.17293845299E+04  0.25500000920E-02 0. -1.
        2   -1    0    0  501    0  0.00000000000E+00  0.00000000000E+00 -0.18320408007E+04  0.18320408007E+04  0.25500000920E-02 0.  1.
    10030    2    1    2    0    0  0.00000000000E+00  0.00000000000E+00 -0.10265627077E+03  0.35614253306E+04  0.35599455158E+04 0.  0.
        4    1    3    3  502    0  0.10311597994E+04  0.12878801573E+04 -0.71971930418E+03  0.17999787002E+04  0.12699999809E+01 0.  1.
       -4    1    3    3    0  502 -0.10311597994E+04 -0.12878801573E+04  0.61706303341E+03  0.17614466304E+04  0.12699999809E+01 0. -1.
</event>
<event>
 5   0  0.3242047E-07  0.3738775E+04  0.7818609E-02  0.8059423E-01
       -1   -1    0    0    0  501  0.00000000000E+00  0.00000000000E+00  0.22528108003E+04  0.22528108003E+04  0.50400001928E-02 0.  1.
        1   -1    0    0  501    0  0.00000000000E+00  0.00000000000E+00 -0.15512223553E+04  0.15512223553E+04  0.50400001928E-02 0. -1.
    10030    2    1    2    0    0  0.00000000000E+00  0.00000000000E+00  0.70158844501E+03  0.38040331555E+04  0.37387754549E+04 0.  0.
        1    1    3    3  502    0 -0.84874684051E+03 -0.48669605875E+03 -0.12699201661E+04  0.16031037026E+04  0.50400001928E-02 0. -1.
       -1    1    3    3    0  502  0.84874684051E+03  0.48669605875E+03  0.19715086112E+04  0.22009294529E+04  0.50400001928E-02 0.  1.
</event>
<event>
 5   0  0.1031659E-06  0.3624395E+04  0.7818609E-02  0.8084926E-01
       -2   -1    0    0    0  501  0.00000000000E+00  0.00000000000E+00  0.17747743316E+04  0.17747743316E+04  0.25500000920E-02 0.  1.
        2   -1    0    0  501    0  0.00000000000E+00  0.00000000000E+00 -0.18504101940E+04  0.18504101940E+04  0.25500000920E-02 0. -1.
    10030    2    1    2    0    0  0.00000000000E+00  0.00000000000E+00 -0.75635862409E+02  0.36251845256E+04  0.36243954063E+04 0.  0.
        2    1    3    3  502    0  0.55579549265E+02 -0.17714660447E+04  0.34025839019E+03  0.18047040772E+04  0.25500000920E-02 0.  1.
       -2    1    3    3    0  502 -0.55579549265E+02  0.17714660447E+04 -0.41589425260E+03  0.18204804485E+04  0.25500000920E-02 0. -1.
</event>
<event>
 5   0  0.3159875E-07  0.3605611E+04  0.7818609E-02  0.8089208E-01
        1   -1    0    0  501    0  0.00000000000E+00  0.00000000000E+00  0.25224538798E+04  0.25224538798E+04  0.50400001928E-02 0.  1.
       -1   -1    0    0    0  501  0.00000000000E+00  0.00000000000E+00 -0.12884709211E+04  0.12884709212E+04  0.50400001928E-02 0. -1.
    10030    2    1    2    0    0  0.00000000000E+00  0.00000000000E+00  0.12339829587E+04  0.38109248010E+04  0.36056114456E+04 0.  0.
        5    1    3    3  502    0  0.25492469118E+03  0.17700258007E+04  0.85826270859E+03  0.19835863732E+04  0.46999998093E+01 0.  1.
       -5    1    3    3    0  502 -0.25492469118E+03 -0.17700258007E+04  0.37572025010E+03  0.18273384277E+04  0.46999998093E+01 0. -1.
</event>
<event>
 5   0  0.1006019E-06  0.3478928E+04  0.7818609E-02  0.8118802E-01
        2   -1    0    0  501    0  0.00000000000E+00  0.00000000000E+00  0.22519983488E+04  0.22519983488E+04  0.25500000920E-02 0. -1.
       -2   -1    0    0    0  501  0.00000000000E+00  0.00000000000E+00 -0.13435779629E+04  0.13435779629E+04  0.25500000920E-02 0.  1.
    10030    2    1    2    0    0  0.00000000000E+00  0.00000000000E+00  0.90842038584E+03  0.35955763117E+04  0.34789281993E+04 0.  0.
        1    1    3    3  502    0 -0.31621927497E+03  0.11727067516E+04 -0.83273150953E+03  0.14726430396E+04  0.50400001928E-02 0.  1.
       -1    1    3    3    0  502  0.31621927497E+03 -0.11727067516E+04  0.17411518954E+04  0.21229332721E+04  0.50400001928E-02 0. -1.
</event>
<event>
 5   0  0.9878977E-07  0.3559276E+04  0.7818609E-02  0.8099884E-01
       -2   -1    0    0    0  501  0.00000000000E+00  0.00000000000E+00  0.10830382006E+04  0.10830382006E+04  0.25500000920E-02 0. -1.
        2   -1    0    0  501    0  0.00000000000E+00  0.00000000000E+00 -0.29242839221E+04  0.29242839221E+04  0.25500000920E-02 0.  1.
    10030    2    1    2    0    0  0.00000000000E+00  0.00000000000E+00 -0.18412457216E+04  0.40073221227E+04  0.35592758797E+04 0.  0.
        5    1    3    3  502    0 -0.78089219888E+03  0.15879743856E+04 -0.70809108904E+03  0.19060090126E+04  0.46999998093E+01 0.  1.
       -5    1    3    3    0  502  0.78089219888E+03 -0.15879743856E+04 -0.11331546325E+04  0.21013131101E+04  0.46999998093E+01 0. -1.
</event>
<event>
 5   0  0.3242047E-07  0.3681701E+04  0.7818609E-02  0.8072029E-01
       -1   -1    0    0    0  501  0.00000000000E+00  0.00000000000E+00  0.11587447552E+04  0.11587447552E+04  0.50400001928E-02 0. -1.
        1   -1    0    0  501    0  0.00000000000E+00  0.00000000000E+00 -0.29244839597E+04  0.29244839597E+04  0.50400001928E-02 0.  1.
    10030    2    1    2    0    0  0.00000000000E+00  0.00000000000E+00 -0.17657392045E+04  0.40832287149E+04  0.36817009384E+04 0.  0.
        1    1    3    3  502    0 -0.12043125634E+04  0.11190146571E+04 -0.18015625789E+04  0.24388911987E+04  0.50400001928E-02 0.  1.
       -1    1    3    3    0  502  0.12043125634E+04 -0.11190146571E+04  0.35823374427E+02  0.16443375162E+04  0.50400001928E-02 0. -1.
</event>
<event>
 5   0  0.3278988E-07  0.3626196E+04  0.7818609E-02  0.8084517E-01
       -1   -1    0    0    0  501  0.00000000000E+00  0.00000000000E+00  0.14612870064E+04  0.14612870064E+04  0.50400001928E-02 0.  1.
        1   -1    0    0  501    0  0.00000000000E+00  0.00000000000E+00 -0.22496091735E+04  0.22496091735E+04  0.50400001928E-02 0. -1.
    10030    2    1    2    0    0  0.00000000000E+00  0.00000000000E+00 -0.78832216715E+03  0.37108961800E+04  0.36261961639E+04 0.  0.
        4    1    3    3  502    0 -0.16172729538E+04 -0.56520332839E+03  0.21324848999E+03  0.17264133749E+04  0.12699999809E+01 0. -1.
       -4    1    3    3    0  502  0.16172729538E+04  0.56520332839E+03 -0.10015706571E+04  0.19844828051E+04  0.12699999809E+01 0.  1.
</event>
<event>
 5   0  0.3278988E-07  0.3520536E+04  0.7818609E-02  0.8108940E-01
       -1   -1    0    0    0  501  0.00000000000E+00  0.00000000000E+00  0.11020040694E+04  0.11020040694E+04  0.50400001928E-02 0.  1.
        1   -1    0    0  501    0  0.00000000000E+00  0.00000000000E+00 -0.28117352200E+04  0.28117352200E+04  0.50400001928E-02 0. -1.
    10030    2    1    2    0    0  0.00000000000E+00  0.00000000000E+00 -0.17097311506E+04  0.39137392894E+04  0.35205361265E+04 0.  0.
        4    1    3    3  502    0  0.87062029647E+01  0.65509791698E+03 -0.26711457170E+04  0.27503181876E+04  0.12699999809E+01 0. -1.
       -4    1    3    3    0  502 -0.87062029647E+01 -0.65509791698E+03  0.96141456633E+03  0.11634211018E+04  0.12699999809E+01 0.  1.
</event>
<event>
 5   0  0.1031659E-06  0.3601665E+04  0.7818609E-02  0.8090110E-01
        2   -1    0    0  501    0  0.00000000000E+00  0.00000000000E+00  0.16029985692E+04  0.16029985692E+04  0.25500000920E-02 0.  1.
       -2   -1    0    0    0  501  0.00000000000E+00  0.00000000000E+00 -0.20230825783E+04  0.20230825783E+04  0.25500000920E-02 0. -1.
    10030    2    1    2    0    0  0.00000000000E+00  0.00000000000E+00 -0.42008400904E+03  0.36260811475E+04  0.36016654361E+04 0.  0.
        2    1    3    3  502    0 -0.13037174784E+04  0.11113721191E+04  0.34885295784E+03  0.17482922058E+04  0.25500000920E-02 0. -1.
       -2    1    3    3    0  502  0.13037174784E+04 -0.11113721191E+04 -0.76893696688E+03  0.18777889417E+04  0.25500000920E-02 0.  1.
</event>
<event>
 5   0  0.1031659E-06  0.3448057E+04  0.7818609E-02  0.8126211E-01
        2   -1    0    0  501    0  0.00000000000E+00  0.00000000000E+00  0.26120038007E+04  0.26120038007E+04  0.25500000920E-02 0. -1.
       -2   -1    0    0    0  501  0.00000000000E+00  0.00000000000E+00 -0.11379288488E+04  0.11379288488E+04  0.25500000920E-02 0.  1.
    10030    2    1    2    0    0  0.00000000000E+00  0.00000000000E+00  0.14740749519E+04  0.37499326495E+04  0.34480571213E+04 0.  0.
        2    1    3    3  502    0  0.15937590797E+04  0.64132073357E+03  0.89431604374E+03  0.19367915411E+04  0.25500000920E-02 0. -1.
       -2    1    3    3    0  502 -0.15937590797E+04 -0.64132073357E+03  0.57975890813E+03  0.18131411084E+04  0.25500000920E-02 0.  1.
</event>
<event>
 5   0  0.9538919E-07  0.3625301E+04  0.7818609E-02  0.8084721E-01
        2   -1    0    0  501    0  0.00000000000E+00  0.00000000000E+00  0.23011848927E+04  0.23011848927E+04  0.25500000920E-02 0.  1.
       -2   -1    0    0    0  501  0.00000000000E+00  0.00000000000E+00 -0.14278300807E+04  0.14278300807E+04  0.25500000920E-02 0. -1.
    10030    2    1    2    0    0  0.00000000000E+00  0.00000000000E+00  0.87335481198E+03  0.37290149734E+04  0.36253005454E+04 0.  0.
        4    1    3    3  502    0 -0.85017941307E+03 -0.14656330645E+04  0.10991636388E+04  0.20196652277E+04  0.12699999809E+01 0.  1.
       -4    1    3    3    0  502  0.85017941307E+03  0.14656330645E+04 -0.22580882683E+03  0.17093497457E+04  0.12699999809E+01 0. -1.
</event>
<event>
 5   0  0.9878977E-07  0.3598827E+04  0.7818609E-02  0.8090760E-01
        2   -1    0    0  501    0  0.00000000000E+00  0.00000000000E+00  0.24705776019E+04  0.24705776019E+04  0.25500000920E-02 0.  1.
       -2   -1    0    0    0  501  0.00000000000E+00  0.00000000000E+00 -0.13105800915E+04  0.13105800915E+04  0.25500000920E-02 0. -1.
    10030    2    1    2    0    0  0.00000000000E+00  0.00000000000E+00  0.11599975104E+04  0.37811576934E+04  0.35988274866E+04 0.  0.
        5    1    3    3  502    0  0.16311284135E+03  0.26927495559E+03  0.24414099723E+04  0.24616294488E+04  0.46999998093E+01 0.  1.
       -5    1    3    3    0  502 -0.16311284135E+03 -0.26927495559E+03 -0.12814124619E+04  0.13195282446E+04  0.46999998093E+01 0. -1.
</event>
<event>
 5   0  0.1031659E-06  0.3602872E+04  0.7818609E-02  0.8089834E-01
       -2   -1    0    0    0  501  0.00000000000E+00  0.00000000000E+00  0.14616730967E+04  0.14616730967E+04  0.25500000920E-02 0.  1.
        2   -1    0    0  501    0  0.00000000000E+00  0.00000000000E+00 -0.22201757291E+04  0.22201757291E+04  0.25500000920E-02 0. -1.
    10030    2    1    2    0    0  0.00000000000E+00  0.00000000000E+00 -0.75850263242E+03  0.36818488258E+04  0.36028717064E+04 0.  0.
        2    1    3    3  502    0  0.85364541736E+03  0.21261866048E+03 -0.19857332367E+04  0.21718779157E+04  0.25500000920E-02 0. -1.
       -2    1    3    3    0  502 -0.85364541736E+03 -0.21261866048E+03  0.12272306043E+04  0.15099709101E+04  0.25500000920E-02 0.  1.
</event>
<event>
 5   0  0.1006019E-06  0.3639084E+04  0.7818609E-02  0.8081597E-01
       -2   -1    0    0    0  501  0.00000000000E+00  0.00000000000E+00  0.17828181754E+04  0.17828181754E+04  0.25500000920E-02 0. -1.
        2   -1    0    0  501    0  0.00000000000E+00  0.00000000000E+00 -0.18570219588E+04  0.18570219588E+04  0.25500000920E-02 0.  1.
    10030    2    1    2    0    0  0.00000000000E+00  0.00000000000E+00 -0.74203783378E+02  0.36398401342E+04  0.36390836760E+04 0.  0.
        1    1    3    3  502    0  0.28173944825E+03 -0.48986069283E+03 -0.17670254908E+04  0.18551872413E+04  0.50400001928E-02 0.  1.
       -1    1    3    3    0  502 -0.28173944825E+03  0.48986069283E+03  0.16928217074E+04  0.17846528929E+04  0.50400001928E-02 0. -1.
</event>
<event>
 5   0  0.9538919E-07  0.3607503E+04  0.7818609E-02  0.8088775E-01
       -2   -1    0    0    0  501  0.00000000000E+00  0.00000000000E+00  0.18495369649E+04  0.18495369649E+04  0.25500000920E-02 0.  1.
        2   -1    0    0  501    0  0.00000000000E+00  0.00000000000E+00 -0.17590992679E+04  0.17590992679E+04  0.25500000920E-02 0. -1.
    10030    2    1    2    0    0  0.00000000000E+00  0.00000000000E+00  0.90437697020E+02  0.36086362328E+04  0.36075028044E+04 0.  0.
        4    1    3    3  502    0  0.36937359182E+03 -0.16334036522E+04  0.71555861037E+03  0.18211178103E+04  0.12699999809E+01 0. -1.
       -4    1    3    3    0  502 -0.36937359182E+03  0.16334036522E+04 -0.62512091335E+03  0.17875184224E+04  0.12699999809E+01 0.  1.
</event>
<event>
 5   0  0.9538919E-07  0.3564013E+04  0.7818609E-02  0.8098785E-01
        2   -1    0    0  501    0  0.00000000000E+00  0.00000000000E+00  0.19175607817E+04  0.19175607817E+04  0.25500000920E-02 0.  1.
       -2   -1    0    0    0  501  0.00000000000E+00  0.00000000000E+00 -0.16560345126E+04  0.16560345126E+04  0.25500000920E-02 0. -1.
    10030    2    1    2    0    0  0.00000000000E+00  0.00000000000E+00  0.26152626912E+03  0.35735952944E+04  0.35640128140E+04 0.  0.
        4    1    3    3  502    0 -0.13973048556E+03  0.47288238910E+03  0.18477933112E+04  0.19124549920E+04  0.12699999809E+01 0.  1.
       -4    1    3    3    0  502  0.13973048556E+03 -0.47288238910E+03 -0.15862670421E+04  0.16611403024E+04  0.12699999809E+01 0. -1.
</event>
<event>
 5   0  0.9878977E-07  0.3390119E+04  0.7818609E-02  0.8140336E-01
        2   -1    0    0  501    0  0.00000000000E+00  0.00000000000E+00  0.10752109090E+04  0.10752109090E+04  0.25500000920E-02 0.  1.
       -2   -1    0    0    0  501  0.00000000000E+00  0.00000000000E+00 -0.26722449548E+04  0.26722449548E+04  0.25500000920E-02 0. -1.
    10030    2    1    2    0    0  0.00000000000E+00  0.00000000000E+00 -0.15970340457E+04  0.37474558638E+04  0.33901191289E+04 0.  0.
        5    1    3    3  502    0 -0.14554676054E+03  0.16750351489E+04 -0.56071807673E+03  0.17723863746E+04  0.46999998093E+01 0.  1.
       -5    1    3    3    0  502  0.14554676054E+03 -0.16750351489E+04 -0.10363159690E+04  0.19750694892E+04  0.46999998093E+01 0. -1.
</event>
<event>
 5   0  0.3278988E-07  0.3384426E+04  0.7818609E-02  0.8141739E-01
       -1   -1    0    0    0  501  0.00000000000E+00  0.00000000000E+00  0.17034432773E+04  0.17034432773E+04  0.50400001928E-02 0. -1.
        1   -1    0    0  501    0  0.00000000000E+00  0.00000000000E+00 -0.16810571850E+04  0.16810571850E+04  0.50400001928E-02 0.  1.
    10030    2    1    2    0    0  0.00000000000E+00  0.00000000000E+00  0.22386092290E+02  0.33845004622E+04  0.33844264273E+04 0.  0.
        4    1    3    3  502    0 -0.10670846426E+03  0.15514657129E+04  0.67840430861E+03  0.16966633648E+04  0.12699999809E+01 0. -1.
       -4    1    3    3    0  502  0.10670846426E+03 -0.15514657129E+04 -0.65601821632E+03  0.16878370975E+04  0.12699999809E+01 0.  1.
</event>
<event>
 5   0  0.9878977E-07  0.3244552E+04  0.7818609E-02  0.8177149E-01
        2   -1    0    0  501    0  0.00000000000E+00  0.00000000000E+00  0.14444250719E+04  0.14444250719E+04  0.25500000920E-02 0. -1.
       -2   -1    0    0    0  501  0.00000000000E+00  0.00000000000E+00 -0.18220250157E+04  0.18220250157E+04  0.25500000920E-02 0.  1.
    10030    2    1    2    0    0  0.00000000000E+00  0.00000000000E+00 -0.37759994381E+03  0.32664500876E+04  0.32445515033E+04 0.  0.
        5    1    3    3  502    0  0.31992575689E+03 -0.37757974505E+03  0.13665666925E+04  0.14534254604E+04  0.46999998093E+01 0. -1.
       -5    1    3    3    0  502 -0.31992575689E+03  0.37757974505E+03 -0.17441666363E+04  0.18130246272E+04  0.46999998093E+01 0.  1.
</event>
<event>
 5   0  0.9878336E-07  0.3589334E+04  0.7818609E-02  0.8092939E-01
       -2   -1    0    0    0  501  0.00000000000E+00  0.00000000000E+00  0.22725503478E+04  0.22725503478E+04  0.25500000920E-02 0.  1.
        2   -1    0    0  501    0  0.00000000000E+00  0.00000000000E+00 -0.14172752209E+04  0.14172752209E+04  0.25500000920E-02 0. -1.
    10030    2    1    2    0    0  0.00000000000E+00  0.00000000000E+00  0.85527512687E+03  0.36898255686E+04  0.35893338079E+04 0.  0.
        3    1    3    3  502    0  0.10530503569E+04  0.14445911491E+04  0.59040770025E+03  0.18826417357E+04  0.10100000352E+00 0. -1.
       -3    1    3    3    0  502 -0.10530503569E+04 -0.14445911491E+04  0.26486742662E+03  0.18071838330E+04  0.10100000352E+00 0.  1.
</event>
<event>
 5   0  0.3159875E-07  0.3604591E+04  0.7818609E-02  0.8089441E-01
       -1   -1    0    0    0  501  0.00000000000E+00  0.00000000000E+00  0.15189969767E+04  0.15189969767E+04  0.50400001928E-02 0. -1.
        1   -1    0    0  501    0  0.00000000000E+00  0.00000000000E+00 -0.21384297405E+04  0.21384297405E+04  0.50400001928E-02 0.  1.
    10030    2    1    2    0    0  0.00000000000E+00  0.00000000000E+00 -0.61943276376E+03  0.36574267172E+04  0.36045905791E+04 0.  0.
        2    1    3    3  502    0 -0.13035020237E+04 -0.37254999291E+03 -0.15147086583E+04  0.20327944664E+04  0.25500000920E-02 0.  1.
       -2    1    3    3    0  502  0.13035020237E+04  0.37254999291E+03  0.89527589457E+03  0.16246322508E+04  0.25500000920E-02 0. -1.
</event>
<event>
 5   0  0.3242047E-07  0.3590985E+04  0.7818609E-02  0.8092560E-01
        1   -1    0    0  501    0  0.00000000000E+00  0.00000000000E+00  0.20874415981E+04  0.20874415981E+04  0.50400001928E-02 0. -1.
       -1   -1    0    0    0  501  0.00000000000E+00  0.00000000000E+00 -0.15443755166E+04  0.15443755166E+04  0.50400001928E-02 0.  1.
    10030    2    1    2    0    0  0.00000000000E+00  0.00000000000E+00  0.54306608149E+03  0.36318171147E+04  0.35909852110E+04 0.  0.
        1    1    3    3  502    0 -0.11045025217E+04 -0.13757659801E+04  0.60869411586E+03  0.18663242964E+04  0.50400001928E-02 0. -1.
       -1    1    3    3    0  502  0.11045025217E+04  0.13757659801E+04 -0.65628034371E+02  0.17654928183E+04  0.50400001928E-02 0.  1.
</event>
<event>
 5   0  0.3159875E-07  0.3557369E+04  0.7818609E-02  0.8100327E-01
        1   -1    0    0  501    0  0.00000000000E+00  0.00000000000E+00  0.17806911935E+04  0.17806911935E+04  0.50400001928E-02 0. -1.
       -1   -1    0    0    0  501  0.00000000000E+00  0.00000000000E+00 -0.17766801553E+04  0.17766801554E+04  0.50400001928E-02 0.  1.
    10030    2    1    2    0    0  0.00000000000E+00  0.00000000000E+00  0.40110381312E+01  0.35573713488E+04  0.35573690876E+04 0.  0.
        5    1    3    3  502    0  0.12654897815E+04 -0.41596102018E+03 -0.11766421912E+04  0.17773567154E+04  0.46999998093E+01 0.  1.
       -5    1    3    3    0  502 -0.12654897815E+04  0.41596102018E+03  0.11806532294E+04  0.17800146335E+04  0.46999998093E+01 0. -1.
</event>
<event>
 5   0  0.3159875E-07  0.3571915E+04  0.7818609E-02  0.8096955E-01
       -1   -1    0    0    0  501  0.00000000000E+00  0.00000000000E+00  0.19132291858E+04  0.19132291858E+04  0.50400001928E-02 0.  1.
        1   -1    0    0  501    0  0.00000000000E+00  0.00000000000E+00 -0.16671519714E+04  0.16671519714E+04  0.50400001928E-02 0. -1.
    10030    2    1    2    0    0  0.00000000000E+00  0.00000000000E+00  0.24607721438E+03  0.35803811572E+04  0.35719147856E+04 0.  0.
        5    1    3    3  502    0  0.96735165501E+02  0.68797660618E+03 -0.15261429451E+04  0.16768434280E+04  0.46999998093E+01 0. -1.
       -5    1    3    3    0  502 -0.96735165501E+02 -0.68797660618E+03  0.17722201595E+04  0.19035377293E+04  0.46999998093E+01 0.  1.
</event>
<event>
 5   0  0.1006019E-06  0.3600069E+04  0.7818609E-02  0.8090476E-01
        2   -1    0    0  501    0  0.00000000000E+00  0.00000000000E+00  0.17940462029E+04  0.17940462029E+04  0.25500000920E-02 0. -1.
       -2   -1    0    0    0  501  0.00000000000E+00  0.00000000000E+00 -0.18060427433E+04  0.18060427433E+04  0.25500000920E-02 0.  1.
    10030    2    1    2    0    0  0.00000000000E+00  0.00000000000E+00 -0.11996540404E+02  0.36000889463E+04  0.36000689583E+04 0.  0.
        1    1    3    3  502    0 -0.13140960742E+04 -0.11124499806E+04  0.51910527790E+03  0.17982946758E+04  0.50400001928E-02 0. -1.
       -1    1    3    3    0  502  0.13140960742E+04  0.11124499806E+04 -0.53110181830E+03  0.18017942704E+04  0.50400001928E-02 0.  1.
</event>
<event>
 5   0  0.1006019E-06  0.2632248E+04  0.7818609E-02  0.8357329E-01
       -2   -1    0    0    0  501  0.00000000000E+00  0.00000000000E+00  0.10954116163E+04  0.10954116163E+04  0.25500000920E-02 0.  1.
        2   -1    0    0  501    0  0.00000000000E+00  0.00000000000E+00 -0.15813077681E+04  0.15813077681E+04  0.25500000920E-02 0. -1.
    10030    2    1    2    0    0  0.00000000000E+00  0.00000000000E+00 -0.48589615180E+03  0.26767193844E+04  0.26322483911E+04 0.  0.
        1    1    3    3  502    0  0.10065863664E+04 -0.75694135238E+03 -0.63151173538E+03  0.14088943878E+04  0.50400001928E-02 0. -1.
       -1    1    3    3    0  502 -0.10065863664E+04  0.75694135238E+03  0.14561558358E+03  0.12678249966E+04  0.50400001928E-02 0.  1.
</event>
<event>
 5   0  0.3278988E-07  0.3692371E+04  0.7818609E-02  0.8069655E-01
       -1   -1    0    0    0  501  0.00000000000E+00  0.00000000000E+00  0.18929425169E+04  0.18929425169E+04  0.50400001928E-02 0. -1.
        1   -1    0    0  501    0  0.00000000000E+00  0.00000000000E+00 -0.18005836749E+04  0.18005836749E+04  0.50400001928E-02 0.  1.
    10030    2    1    2    0    0  0.00000000000E+00  0.00000000000E+00  0.92358842063E+02  0.36935261918E+04  0.36923712671E+04 0.  0.
        4    1    3    3  502    0  0.98301434084E+03 -0.15362589885E+04  0.33260952743E+03  0.18539254528E+04  0.12699999809E+01 0.  1.
       -4    1    3    3    0  502 -0.98301434084E+03  0.15362589885E+04 -0.24025068536E+03  0.18396007390E+04  0.12699999809E+01 0. -1.
</event>
<event>
 5   0  0.1031659E-06  0.3603626E+04  0.7818609E-02  0.8089662E-01
       -2   -1    0    0    0  501  0.00000000000E+00  0.00000000000E+00  0.14069277887E+04  0.14069277887E+04  0.25500000920E-02 0.  1.
        2   -1    0    0  501    0  0.00000000000E+00  0.00000000000E+00 -0.23075309890E+04  0.23075309890E+04  0.25500000920E-02 0. -1.
    10030    2    1    2    0    0  0.00000000000E+00  0.00000000000E+00 -0.90060320034E+03  0.37144587777E+04  0.36036256586E+04 0.  0.
        2    1    3    3  502    0  0.10803981359E+04  0.13077999472E+04  0.17577440096E+03  0.17054317559E+04  0.25500000920E-02 0.  1.
       -2    1    3    3    0  502 -0.10803981359E+04 -0.13077999472E+04 -0.10763776013E+04  0.20090270219E+04  0.25500000920E-02 0. -1.
</event>
<event>
 5   0  0.9878977E-07  0.3626366E+04  0.7818609E-02  0.8084479E-01
       -2   -1    0    0    0  501  0.00000000000E+00  0.00000000000E+00  0.13968888399E+04  0.13968888399E+04  0.25500000920E-02 0.  1.
        2   -1    0    0  501    0  0.00000000000E+00  0.00000000000E+00 -0.23535390760E+04  0.23535390760E+04  0.25500000920E-02 0. -1.
    10030    2    1    2    0    0  0.00000000000E+00  0.00000000000E+00 -0.95665023617E+03  0.37504279159E+04  0.36263659327E+04 0.  0.
        5    1    3    3  502    0  0.10704444390E+04 -0.12618827943E+04 -0.12449057292E+04  0.20707515177E+04  0.46999998093E+01 0.  1.
       -5    1    3    3    0  502 -0.10704444390E+04  0.12618827943E+04  0.28825549299E+03  0.16796763982E+04  0.46999998093E+01 0. -1.
</event>
<event>
 5   0  0.9878977E-07  0.3691591E+04  0.7818609E-02  0.8069828E-01
       -2   -1    0    0    0  501  0.00000000000E+00  0.00000000000E+00  0.19137085102E+04  0.19137085102E+04  0.25500000920E-02 0.  1.
        2   -1    0    0  501    0  0.00000000000E+00  0.00000000000E+00 -0.17802922124E+04  0.17802922124E+04  0.25500000920E-02 0. -1.
    10030    2    1    2    0    0  0.00000000000E+00  0.00000000000E+00  0.13341629778E+03  0.36940007225E+04  0.36915906368E+04 0.  0.
        5    1    3    3  502    0 -0.10937246546E+04  0.40067070350E+03 -0.13660672859E+04  0.17952527823E+04  0.46999998093E+01 0. -1.
       -5    1    3    3    0  502  0.10937246546E+04 -0.40067070350E+03  0.14994835837E+04  0.18987479402E+04  0.46999998093E+01 0.  1.
</event>
<event>
 5   0  0.3242047E-07  0.3580699E+04  0.7818609E-02  0.8094927E-01
       -1   -1    0    0    0  501  0.00000000000E+00  0.00000000000E+00  0.11766939108E+04  0.11766939108E+04  0.50400001928E-02 0. -1.
        1   -1    0    0  501    0  0.00000000000E+00  0.00000000000E+00 -0.27240312724E+04  0.27240312724E+04  0.50400001928E-02 0.  1.
    10030    2    1    2    0    0  0.00000000000E+00  0.00000000000E+00 -0.15473373616E+04  0.39007251831E+04  0.35806988206E+04 0.  0.
        1    1    3    3  502    0 -0.33615438948E+03  0.17582165794E+04 -0.80855757242E+03  0.19642022965E+04  0.50400001928E-02 0. -1.
       -1    1    3    3    0  502  0.33615438948E+03 -0.17582165794E+04 -0.73877978918E+03  0.19365228867E+04  0.50400001928E-02 0.  1.
</event>
<event>
 5   0  0.3278988E-07  0.3576918E+04  0.7818609E-02  0.8095800E-01
        1   -1    0    0  501    0  0.00000000000E+00  0.00000000000E+00  0.87685490091E+03  0.87685490093E+03  0.50400001928E-02 0. -1.
       -1   -1    0    0    0  501  0.00000000000E+00  0.00000000000E+00 -0.36477927708E+04  0.36477927708E+04  0.50400001928E-02 0.  1.
    10030    2    1    2    0    0  0.00000000000E+00  0.00000000000E+00 -0.27709378699E+04  0.45246476717E+04  0.35769176500E+04 0.  0.
        4    1    3    3  502    0  0.22035568492E+03  0.66468721796E+03  0.69622849362E+03  0.98747225471E+03  0.12699999809E+01 0. -1.
       -4    1    3    3    0  502 -0.22035568492E+03 -0.66468721796E+03 -0.34671663635E+04  0.35371754170E+04  0.12699999809E+01 0.  1.
</event>
<event>
 5   0  0.9878336E-07  0.3642231E+04  0.7818609E-02  0.8080886E-01
        2   -1    0    0  501    0  0.00000000000E+00  0.00000000000E+00  0.19944285642E+04  0.19944285642E+04  0.25500000920E-02 0.  1.
       -2   -1    0    0    0  501  0.00000000000E+00  0.00000000000E+00 -0.16628630532E+04  0.16628630532E+04  0.25500000920E-02 0. -1.
    10030    2    1    2    0    0  0.00000000000E+00  0.00000000000E+00  0.33156551107E+03  0.36572916174E+04  0.36422309491E+04 0.  0.
        3    1    3    3  502    0  0.96370231811E+03 -0.18305249024E+03  0.17064777256E+04  0.19683232992E+04  0.10100000352E+00 0.  1.
       -3    1    3    3    0  502 -0.96370231811E+03  0.18305249024E+03 -0.13749122145E+04  0.16889683182E+04  0.10100000352E+00 0. -1.
</event>
<event>
 5   0  0.1006019E-06  0.3580803E+04  0.7818609E-02  0.8094903E-01
       -2   -1    0    0    0  501  0.00000000000E+00  0.00000000000E+00  0.12782126141E+04  0.12782126142E+04  0.25500000920E-02 0. -1.
        2   -1    0    0  501    0  0.00000000000E+00  0.00000000000E+00 -0.25078285123E+04  0.25078285123E+04  0.25500000920E-02 0.  1.
    10030    2    1    2    0    0  0.00000000000E+00  0.00000000000E+00 -0.12296158981E+04  0.37860411264E+04  0.35808032834E+04 0.  0.
        1    1    3    3  502    0 -0.15040490007E+04  0.84812342425E+03 -0.11152897493E+04  0.20555651204E+04  0.50400001928E-02 0.  1.
       -1    1    3    3    0  502  0.15040490007E+04 -0.84812342425E+03 -0.11432614882E+03  0.17304760060E+04  0.50400001928E-02 0. -1.
</event>
<event>
 5   0  0.9878977E-07  0.3578522E+04  0.7818609E-02  0.8095429E-01
       -2   -1    0    0    0  501  0.00000000000E+00  0.00000000000E+00  0.11001754549E+04  0.11001754549E+04  0.25500000920E-02 0. -1.
        2   -1    0    0  501    0  0.00000000000E+00  0.00000000000E+00 -0.29099497102E+04  0.29099497102E+04  0.25500000920E-02 0.  1.
    10030    2    1    2    0    0  0.00000000000E+00  0.00000000000E+00 -0.18097742553E+04  0.40101251652E+04  0.35785221789E+04 0.  0.
        5    1    3    3  502    0 -0.76013006632E+03  0.76643805380E+02  0.90820229912E+03  0.11868131684E+04  0.46999998093E+01 0. -1.
       -5    1    3    3    0  502  0.76013006632E+03 -0.76643805380E+02 -0.27179765544E+04  0.28233119967E+04  0.46999998093E+01 0.  1.
</event>
<event>
 5   0  0.3159875E-07  0.2964836E+04  0.7818609E-02  0.8253844E-01
       -1   -1    0    0    0  501  0.00000000000E+00  0.00000000000E+00  0.83540154445E+03  0.83540154446E+03  0.50400001928E-02 0. -1.
        1   -1    0    0  501    0  0.00000000000E+00  0.00000000000E+00 -0.26305475389E+04  0.26305475389E+04  0.50400001928E-02 0.  1.
    10030    2    1    2    0    0  0.00000000000E+00  0.00000000000E+00 -0.17951459945E+04  0.34659490834E+04  0.29648362361E+04 0.  0.
        2    1    3    3  502    0  0.11467690929E+04  0.67388921913E+03 -0.13246167622E+03  0.13366944781E+04  0.25500000920E-02 0. -1.
       -2    1    3    3    0  502 -0.11467690929E+04 -0.67388921913E+03 -0.16626843183E+04  0.21292546053E+04  0.25500000920E-02 0.  1.
</event>
<event>
 5   0  0.9878336E-07  0.3625581E+04  0.7818609E-02  0.8084657E-01
       -2   -1    0    0    0  501  0.00000000000E+00  0.00000000000E+00  0.17988210258E+04  0.17988210258E+04  0.25500000920E-02 0.  1.
        2   -1    0    0  501    0  0.00000000000E+00  0.00000000000E+00 -0.18268688713E+04  0.18268688713E+04  0.25500000920E-02 0. -1.
    10030    2    1    2    0    0  0.00000000000E+00  0.00000000000E+00 -0.28047845540E+02  0.36256898971E+04  0.36255814083E+04 0.  0.
        3    1    3    3  502    0 -0.86617435717E+03 -0.13970256797E+04  0.75037540168E+03  0.18069316590E+04  0.10100000352E+00 0. -1.
       -3    1    3    3    0  502  0.86617435717E+03  0.13970256797E+04 -0.77842324722E+03  0.18187582381E+04  0.10100000352E+00 0.  1.
</event>
<event>
 5   0  0.9538919E-07  0.3636208E+04  0.7818609E-02  0.8082248E-01
        2   -1    0    0  501    0  0.00000000000E+00  0.00000000000E+00  0.18904540380E+04  0.18904540380E+04  0.25500000920E-02 0. -1.
       -2   -1    0    0    0  501  0.00000000000E+00  0.00000000000E+00 -0.17485229382E+04  0.17485229382E+04  0.25500000920E-02 0.  1.
    10030    2    1    2    0    0  0.00000000000E+00  0.00000000000E+00  0.14193109975E+03  0.36389769762E+04  0.36362080518E+04 0.  0.
        4    1    3    3  502    0  0.36940732852E+03 -0.99476768731E+03  0.15483946204E+04  0.18771126869E+04  0.12699999809E+01 0.  1.
       -4    1    3    3    0  502 -0.36940732852E+03  0.99476768731E+03 -0.14064635206E+04  0.17618642893E+04  0.12699999809E+01 0. -1.
</event>
<event>
 5   0  0.3159875E-07  0.3889809E+04  0.7818609E-02  0.8027152E-01
       -3   -1    0    0    0  501  0.00000000000E+00  0.00000000000E+00  0.20137868219E+04  0.20137868244E+04  0.10100000352E+00 0.  1.
        3   -1    0    0  501    0  0.00000000000E+00  0.00000000000E+00 -0.18783779030E+04  0.18783779057E+04  0.10100000352E+00 0. -1.
    10030    2    1    2    0    0  0.00000000000E+00  0.00000000000E+00  0.13540891886E+03  0.38921647301E+04  0.38898085700E+04 0.  0.
        3    1    3    3  502    0 -0.26451975319E+03 -0.15320109180E+04  0.12370116927E+04  0.19867627163E+04  0.10100000352E+00 0.  1.
       -3    1    3    3    0  502  0.26451975319E+03  0.15320109180E+04 -0.11016027739E+04  0.19054020138E+04  0.10100000352E+00 0. -1.
</event>
<event>
 5   0  0.9878336E-07  0.3602046E+04  0.7818609E-02  0.8090023E-01
       -2   -1    0    0    0  501  0.00000000000E+00  0.00000000000E+00  0.21132851812E+04  0.21132851812E+04  0.25500000920E-02 0.  1.
        2   -1    0    0  501    0  0.00000000000E+00  0.00000000000E+00 -0.15349012543E+04  0.15349012543E+04  0.25500000920E-02 0. -1.
    10030    2    1    2    0    0  0.00000000000E+00  0.00000000000E+00  0.57838392691E+03  0.36481864354E+04  0.36020461270E+04 0.  0.
        3    1    3    3  502    0  0.22027858396E+03  0.62593107294E+03 -0.14065825229E+04  0.15552449217E+04  0.10100000352E+00 0. -1.
       -3    1    3    3    0  502 -0.22027858396E+03 -0.62593107294E+03  0.19849664498E+04  0.20929415137E+04  0.10100000352E+00 0.  1.
</event>
<event>
 5   0  0.9538919E-07  0.3598520E+04  0.7818609E-02  0.8090831E-01
        2   -1    0    0  501    0  0.00000000000E+00  0.00000000000E+00  0.27458820179E+04  0.27458820179E+04  0.25500000920E-02 0. -1.
       -2   -1    0    0    0  501  0.00000000000E+00  0.00000000000E+00 -0.11789784244E+04  0.11789784244E+04  0.25500000920E-02 0.  1.
    10030    2    1    2    0    0  0.00000000000E+00  0.00000000000E+00  0.15669035935E+04  0.39248604423E+04  0.35985195039E+04 0.  0.
        4    1    3    3  502    0  0.90600200310E+02 -0.56216895941E+03 -0.10781099091E+04  0.12192476878E+04  0.12699999809E+01 0.  1.
       -4    1    3    3    0  502 -0.90600200310E+02  0.56216895941E+03  0.26450135026E+04  0.27056127545E+04  0.12699999809E+01 0. -1.
</event>
<event>
 5   0  0.1006019E-06  0.3512776E+04  0.7818609E-02  0.8110769E-01
       -2   -1    0    0    0  501  0.00000000000E+00  0.00000000000E+00  0.92346626424E+03  0.92346626424E+03  0.25500000920E-02 0. -1.
        2   -1    0    0  501    0  0.00000000000E+00  0.00000000000E+00 -0.33405639488E+04  0.33405639488E+04  0.25500000920E-02 0.  1.
    10030    2    1    2    0    0  0.00000000000E+00  0.00000000000E+00 -0.24170976845E+04  0.42640302130E+04  0.35127756035E+04 0.  0.
        1    1    3    3  502    0 -0.13318004956E+02 -0.15551448897E+04 -0.21774682175E+03  0.15703715088E+04  0.50400001928E-02 0. -1.
       -1    1    3    3    0  502  0.13318004956E+02  0.15551448897E+04 -0.21993508628E+04  0.26936587042E+04  0.50400001928E-02 0.  1.
</event>
<event>
 5   0  0.3278988E-07  0.3565013E+04  0.7818609E-02  0.8098553E-01
        1   -1    0    0  501    0  0.00000000000E+00  0.00000000000E+00  0.19405790736E+04  0.19405790736E+04  0.50400001928E-02 0.  1.
       -1   -1    0    0    0  501  0.00000000000E+00  0.00000000000E+00 -0.16373101290E+04  0.16373101290E+04  0.50400001928E-02 0. -1.
    10030    2    1    2    0    0  0.00000000000E+00  0.00000000000E+00  0.30326894459E+03  0.35778892027E+04  0.35650131969E+04 0.  0.
        4    1    3    3  502    0 -0.16831217868E+03  0.13137948674E+04  0.13488142658E+04  0.18904199215E+04  0.12699999809E+01 0.  1.
       -4    1    3    3    0  502  0.16831217868E+03 -0.13137948674E+04 -0.10455453212E+04  0.16874692811E+04  0.12699999809E+01 0. -1.
</event>
<event>
 5   0  0.9878336E-07  0.3728818E+04  0.7818609E-02  0.8061605E-01
       -2   -1    0    0    0  501  0.00000000000E+00  0.00000000000E+00  0.27532945331E+04  0.27532945331E+04  0.25500000920E-02 0. -1.
        2   -1    0    0  501    0  0.00000000000E+00  0.00000000000E+00 -0.12624948397E+04  0.12624948397E+04  0.25500000920E-02 0.  1.
    10030    2    1    2    0    0  0.00000000000E+00  0.00000000000E+00  0.14907996933E+04  0.40157893728E+04  0.37288175822E+04 0.  0.
        3    1    3    3  502    0  0.91075651344E+03 -0.98596018063E+03 -0.64818260008E+03  0.14905487573E+04  0.10100000352E+00 0.  1.
       -3    1    3    3    0  502 -0.91075651344E+03  0.98596018063E+03  0.21389822934E+04  0.25252406155E+04  0.10100000352E+00 0. -1.
</event>
<event>
 5   0  0.9878977E-07  0.2667002E+04  0.7818609E-02  0.8345792E-01
       -2   -1    0    0    0  501  0.00000000000E+00  0.00000000000E+00  0.12863152309E+04  0.12863152309E+04  0.25500000920E-02 0. -1.
        2   -1    0    0  501    0  0.00000000000E+00  0.00000000000E+00 -0.13824172390E+04  0.13824172390E+04  0.25500000920E-02 0.  1.
    10030    2    1    2    0    0  0.00000000000E+00  0.00000000000E+00 -0.96102008064E+02  0.26687324699E+04  0.26670015748E+04 0.  0.
        5    1    3    3  502    0 -0.88068516275E+02 -0.18113974541E+03 -0.13671002014E+04  0.13818656670E+04  0.46999998093E+01 0.  1.
       -5    1    3    3    0  502  0.88068516275E+02  0.18113974541E+03  0.12709981933E+04  0.12868668029E+04  0.46999998093E+01 0. -1.
</event>
<event>
 5   0  0.3365378E-07  0.3369486E+04  0.7818609E-02  0.8145436E-01
        1   -1    0    0  501    0  0.00000000000E+00  0.00000000000E+00  0.21186559324E+04  0.21186559324E+04  0.50400001928E-02 0. -1.
       -1   -1    0    0    0  501  0.00000000000E+00  0.00000000000E+00 -0.13396977571E+04  0.13396977571E+04  0.50400001928E-02 0.  1.
    10030    2    1    2    0    0  0.00000000000E+00  0.00000000000E+00  0.77895817535E+03  0.34583536895E+04  0.33694857772E+04 0.  0.
        3    1    3    3  502    0 -0.12402188842E+04  0.11075971749E+04  0.66763260441E+03  0.17918280295E+04  0.10100000352E+00 0. -1.
       -3    1    3    3    0  502  0.12402188842E+04 -0.11075971749E+04  0.11132557094E+03  0.16665256600E+04  0.10100000352E+00 0.  1.
</event>
<event>
 5   0  0.3278988E-07  0.3618430E+04  0.7818609E-02  0.8086283E-01
       -1   -1    0    0    0  501  0.00000000000E+00  0.00000000000E+00  0.12765731891E+04  0.12765731891E+04  0.50400001928E-02 0.  1.
        1   -1    0    0  501    0  0.00000000000E+00  0.00000000000E+00 -0.25640986713E+04  0.25640986713E+04  0.50400001928E-02 0. -1.
    10030    2    1    2    0    0  0.00000000000E+00  0.00000000000E+00 -0.12875254822E+04  0.38406718604E+04  0.36184303879E+04 0.  0.
        4    1    3    3  502    0 -0.11439800052E+03  0.74752064260E+03 -0.23882995706E+04  0.25051647581E+04  0.12699999809E+01 0. -1.
       -4    1    3    3    0  502  0.11439800052E+03 -0.74752064260E+03  0.11007740884E+04  0.13355071023E+04  0.12699999809E+01 0.  1.
</event>
<event>
 5   0  0.9538919E-07  0.3581551E+04  0.7818609E-02  0.8094731E-01
       -2   -1    0    0    0  501  0.00000000000E+00  0.00000000000E+00  0.13212911337E+04  0.13212911337E+04  0.25500000920E-02 0.  1.
        2   -1    0    0  501    0  0.00000000000E+00  0.00000000000E+00 -0.24270787906E+04  0.24270787906E+04  0.25500000920E-02 0. -1.
    10030    2    1    2    0    0  0.00000000000E+00  0.00000000000E+00 -0.11057876569E+04  0.37483699243E+04  0.35815514442E+04 0.  0.
        4    1    3    3  502    0  0.41184945949E+03  0.14671160101E+04 -0.15373590151E+04  0.21646070587E+04  0.12699999809E+01 0. -1.
       -4    1    3    3    0  502 -0.41184945949E+03 -0.14671160101E+04  0.43157135824E+03  0.15837628656E+04  0.12699999809E+01 0.  1.
</event>
<event>
 5   0  0.3365378E-07  0.2667004E+04  0.7818609E-02  0.8345791E-01
       -1   -1    0    0    0  501  0.00000000000E+00  0.00000000000E+00  0.89018739862E+03  0.89018739863E+03  0.50400001928E-02 0.  1.
        1   -1    0    0  501    0  0.00000000000E+00  0.00000000000E+00 -0.19975881997E+04  0.19975881997E+04  0.50400001928E-02 0. -1.
    10030    2    1    2    0    0  0.00000000000E+00  0.00000000000E+00 -0.11074008010E+04  0.28877755983E+04  0.26670041942E+04 0.  0.
        3    1    3    3  502    0 -0.12888945971E+04 -0.12887356050E+01 -0.18336964755E+03  0.13018737961E+04  0.10100000352E+00 0. -1.
       -3    1    3    3    0  502  0.12888945971E+04  0.12887356050E+01 -0.92403115349E+03  0.15859018022E+04  0.10100000352E+00 0.  1.
</event>
<event>
 5   0  0.9878977E-07  0.3630198E+04  0.7818609E-02  0.8083609E-01
        2   -1    0    0  501    0  0.00000000000E+00  0.00000000000E+00  0.21057861549E+04  0.21057861549E+04  0.25500000920E-02 0.  1.
       -2   -1    0    0    0  501  0.00000000000E+00  0.00000000000E+00 -0.15645389234E+04  0.15645389234E+04  0.25500000920E-02 0. -1.
    10030    2    1    2    0    0  0.00000000000E+00  0.00000000000E+00  0.54124723149E+03  0.36703250784E+04  0.36301980132E+04 0.  0.
        5    1    3    3  502    0  0.12263782187E+02  0.14183449377E+04 -0.87446311126E+03  0.16663014690E+04  0.46999998093E+01 0. -1.
       -5    1    3    3    0  502 -0.12263782187E+02 -0.14183449377E+04  0.14157103428E+04  0.20040236094E+04  0.46999998093E+01 0.  1.
</event>
<event>
 5   0  0.1031659E-06  0.3563098E+04  0.7818609E-02  0.8098997E-01
        2   -1    0    0  501    0  0.00000000000E+00  0.00000000000E+00  0.18915987270E+04  0.18915987270E+04  0.25500000920E-02 0.  1.
       -2   -1    0    0    0  501  0.00000000000E+00  0.00000000000E+00 -0.16779014150E+04  0.16779014150E+04  0.25500000920E-02 0. -1.
    10030    2    1    2    0    0  0.00000000000E+00  0.00000000000E+00  0.21369731202E+03  0.35695001420E+04  0.35630976303E+04 0.  0.
        2    1    3    3  502    0  0.13175498994E+04  0.99990235264E+03 -0.55628771570E+03  0.17450497056E+04  0.25500000920E-02 0. -1.
       -2    1    3    3    0  502 -0.13175498994E+04 -0.99990235264E+03  0.76998502771E+03  0.18244504365E+04  0.25500000920E-02 0.  1.
</event>
<event>
 5   0  0.9878977E-07  0.3630652E+04  0.7818609E-02  0.8083506E-01
       -2   -1    0    0    0  501  0.00000000000E+00  0.00000000000E+00  0.12427995288E+04  0.12427995288E+04  0.25500000920E-02 0. -1.
        2   -1    0    0  501    0  0.00000000000E+00  0.00000000000E+00 -0.26516006320E+04  0.26516006320E+04  0.25500000920E-02 0.  1.
    10030    2    1    2    0    0  0.00000000000E+00  0.00000000000E+00 -0.14088011032E+04  0.38944001608E+04  0.36306517409E+04 0.  0.
        5    1    3    3  502    0  0.17630120942E+04  0.30922790130E+03 -0.37984367358E+03  0.18297914760E+04  0.46999998093E+01 0. -1.
       -5    1    3    3    0  502 -0.17630120942E+04 -0.30922790130E+03 -0.10289574296E+04  0.20646086848E+04  0.46999998093E+01 0.  1.
</event>
<event>
 5   0  0.3159875E-07  0.3605168E+04  0.7818609E-02  0.8089309E-01
        1   -1    0    0  501    0  0.00000000000E+00  0.00000000000E+00  0.25998177025E+04  0.25998177025E+04  0.50400001928E-02 0.  1.
       -1   -1    0    0    0  501  0.00000000000E+00  0.00000000000E+00 -0.12498221487E+04  0.12498221488E+04  0.50400001928E-02 0. -1.
    10030    2    1    2    0    0  0.00000000000E+00  0.00000000000E+00  0.13499955538E+04  0.38496398513E+04  0.36051683719E+04 0.  0.
        5    1    3    3  502    0  0.17657716123E+04  0.31923532874E+03  0.85817357792E+03  0.19890561988E+04  0.46999998093E+01 0. -1.
       -5    1    3    3    0  502 -0.17657716123E+04 -0.31923532874E+03  0.49182197587E+03  0.18605836525E+04  0.46999998093E+01 0.  1.
</event>
<event>
 5   0  0.3278988E-07  0.2875511E+04  0.7818609E-02  0.8280201E-01
       -1   -1    0    0    0  501  0.00000000000E+00  0.00000000000E+00  0.13163367246E+04  0.13163367246E+04  0.50400001928E-02 0.  1.
        1   -1    0    0  501    0  0.00000000000E+00  0.00000000000E+00 -0.15703736514E+04  0.15703736514E+04  0.50400001928E-02 0. -1.
    10030    2    1    2    0    0  0.00000000000E+00  0.00000000000E+00 -0.25403692682E+03  0.28867103761E+04  0.28755107433E+04 0.  0.
        4    1    3    3  502    0  0.55453698866E+03 -0.12490063651E+04  0.32149982250E+03  0.14038845823E+04  0.12699999809E+01 0.  1.
       -4    1    3    3    0  502 -0.55453698866E+03  0.12490063651E+04 -0.57553674932E+03  0.14828257937E+04  0.12699999809E+01 0. -1.
</event>
<event>
 5   0  0.9878336E-07  0.3574576E+04  0.7818609E-02  0.8096340E-01
       -2   -1    0    0    0  501  0.00000000000E+00  0.00000000000E+00  0.20294652448E+04  0.20294652448E+04  0.25500000920E-02 0.  1.
        2   -1    0    0  501    0  0.00000000000E+00  0.00000000000E+00 -0.15740103035E+04  0.15740103035E+04  0.25500000920E-02 0. -1.
    10030    2    1    2    0    0  0.00000000000E+00  0.00000000000E+00  0.45545494134E+03  0.36034755483E+04  0.35745764538E+04 0.  0.
        3    1    3    3  502    0 -0.12622409870E+04  0.65037345370E+03 -0.86647919939E+03  0.16634374505E+04  0.10100000352E+00 0. -1.
       -3    1    3    3    0  502  0.12622409870E+04 -0.65037345370E+03  0.13219341407E+04  0.19400380978E+04  0.10100000352E+00 0.  1.
</event>
<event>
 5   0  0.3159875E-07  0.3637847E+04  0.7818609E-02  0.8081877E-01
       -1   -1    0    0    0  501  0.00000000000E+00  0.00000000000E+00  0.23869923860E+04  0.23869923861E+04  0.50400001928E-02 0.  1.
        1   -1    0    0  501    0  0.00000000000E+00  0.00000000000E+00 -0.13860465136E+04  0.13860465136E+04  0.50400001928E-02 0. -1.
    10030    2    1    2    0    0  0.00000000000E+00  0.00000000000E+00  0.10009458724E+04  0.37730388997E+04  0.36378468768E+04 0.  0.
        2    1    3    3  502    0  0.17703660677E+04 -0.10326433389E+03  0.80937198412E+02  0.17752212162E+04  0.25500000920E-02 0. -1.
       -2    1    3    3    0  502 -0.17703660677E+04  0.10326433389E+03  0.92000867402E+03  0.19978176835E+04  0.25500000920E-02 0.  1.
</event>
<event>
 5   0  0.9538919E-07  0.2851883E+04  0.7818609E-02  0.8287339E-01
       -2   -1    0    0    0  501  0.00000000000E+00  0.00000000000E+00  0.10396717192E+04  0.10396717192E+04  0.25500000920E-02 0. -1.
        2   -1    0    0  501    0  0.00000000000E+00  0.00000000000E+00 -0.19557225687E+04  0.19557225687E+04  0.25500000920E-02 0.  1.
    10030    2    1    2    0    0  0.00000000000E+00  0.00000000000E+00 -0.91605084948E+03  0.29953942880E+04  0.28518831991E+04 0.  0.
        4    1    3    3  502    0 -0.23306133165E+03  0.63212235465E+03 -0.17780132364E+04  0.19013755382E+04  0.12699999809E+01 0.  1.
       -4    1    3    3    0  502  0.23306133165E+03 -0.63212235465E+03  0.86196238690E+03  0.10940187498E+04  0.12699999809E+01 0. -1.
</event>
<event>
 5   0  0.3278988E-07  0.3599143E+04  0.7818609E-02  0.8090688E-01
        1   -1    0    0  501    0  0.00000000000E+00  0.00000000000E+00  0.16504507369E+04  0.16504507369E+04  0.50400001928E-02 0.  1.
       -1   -1    0    0    0  501  0.00000000000E+00  0.00000000000E+00 -0.19621658700E+04  0.19621658700E+04  0.50400001928E-02 0. -1.
    10030    2    1    2    0    0  0.00000000000E+00  0.00000000000E+00 -0.31171513314E+03  0.36126166069E+04  0.35991432903E+04 0.  0.
        4    1    3    3  502    0  0.13953592357E+04 -0.66573868645E+03 -0.10802944654E+04  0.18860734716E+04  0.12699999809E+01 0. -1.
       -4    1    3    3    0  502 -0.13953592357E+04  0.66573868645E+03  0.76857933226E+03  0.17265431353E+04  0.12699999809E+01 0.  1.
</event>
<event>
 5   0  0.3242047E-07  0.3625299E+04  0.7818609E-02  0.8084721E-01
       -1   -1    0    0    0  501  0.00000000000E+00  0.00000000000E+00  0.15794782442E+04  0.15794782442E+04  0.50400001928E-02 0.  1.
        1   -1    0    0  501    0  0.00000000000E+00  0.00000000000E+00 -0.20802432930E+04  0.20802432930E+04  0.50400001928E-02 0. -1.
    10030    2    1    2    0    0  0.00000000000E+00  0.00000000000E+00 -0.50076504882E+03  0.36597215372E+04  0.36252994491E+04 0.  0.
        1    1    3    3  502    0 -0.77507190738E+03 -0.99771711349E+03  0.10617757604E+04  0.16503162320E+04  0.50400001928E-02 0.  1.
       -1    1    3    3    0  502  0.77507190738E+03  0.99771711349E+03 -0.15625408092E+04  0.20094053052E+04  0.50400001928E-02 0. -1.
</event>
<event>
 5   0  0.3159875E-07  0.3641966E+04  0.7818609E-02  0.8080946E-01
       -1   -1    0    0    0  501  0.00000000000E+00  0.00000000000E+00  0.16987543607E+04  0.16987543607E+04  0.50400001928E-02 0. -1.
        1   -1    0    0  501    0  0.00000000000E+00  0.00000000000E+00 -0.19520061326E+04  0.19520061327E+04  0.50400001928E-02 0.  1.
    10030    2    1    2    0    0  0.00000000000E+00  0.00000000000E+00 -0.25325177199E+03  0.36507604933E+04  0.36419659141E+04 0.  0.
        5    1    3    3  502    0 -0.14313797633E+04  0.37182329325E+03  0.93841624164E+03  0.17514987070E+04  0.46999998093E+01 0. -1.
       -5    1    3    3    0  502  0.14313797633E+04 -0.37182329325E+03 -0.11916680136E+04  0.18992617863E+04  0.46999998093E+01 0.  1.
</event>
<event>
 5   0  0.3365378E-07  0.3699883E+04  0.7818609E-02  0.8067988E-01
        1   -1    0    0  501    0  0.00000000000E+00  0.00000000000E+00  0.16256739568E+04  0.16256739569E+04  0.50400001928E-02 0.  1.
       -1   -1    0    0    0  501  0.00000000000E+00  0.00000000000E+00 -0.21051475366E+04  0.21051475366E+04  0.50400001928E-02 0. -1.
    10030    2    1    2    0    0  0.00000000000E+00  0.00000000000E+00 -0.47947357976E+03  0.37308214935E+04  0.36998829850E+04 0.  0.
        3    1    3    3  502    0 -0.63948414881E+02  0.86965355034E+03 -0.18849117455E+04  0.20768435174E+04  0.10100000352E+00 0. -1.
       -3    1    3    3    0  502  0.63948414881E+02 -0.86965355034E+03  0.14054381657E+04  0.16539779760E+04  0.10100000352E+00 0.  1.
</event>
<event>
 5   0  0.1031659E-06  0.3601399E+04  0.7818609E-02  0.8090171E-01
       -2   -1    0    0    0  501  0.00000000000E+00  0.00000000000E+00  0.16901262314E+04  0.16901262314E+04  0.25500000920E-02 0. -1.
        2   -1    0    0  501    0  0.00000000000E+00  0.00000000000E+00 -0.19185064454E+04  0.19185064454E+04  0.25500000920E-02 0.  1.
    10030    2    1    2    0    0  0.00000000000E+00  0.00000000000E+00 -0.22838021401E+03  0.36086326769E+04  0.36013986553E+04 0.  0.
        2    1    3    3  502    0 -0.92829954053E+03  0.14931984463E+04  0.27535348215E+03  0.17796632201E+04  0.25500000920E-02 0. -1.
       -2    1    3    3    0  502  0.92829954053E+03 -0.14931984463E+04 -0.50373369616E+03  0.18289694567E+04  0.25500000920E-02 0.  1.
</event>
<event>
 5   0  0.3278988E-07  0.3626912E+04  0.7818609E-02  0.8084355E-01
        1   -1    0    0  501    0  0.00000000000E+00  0.00000000000E+00  0.15735971968E+04  0.15735971968E+04  0.50400001928E-02 0.  1.
       -1   -1    0    0    0  501  0.00000000000E+00  0.00000000000E+00 -0.20898755924E+04  0.20898755924E+04  0.50400001928E-02 0. -1.
    10030    2    1    2    0    0  0.00000000000E+00  0.00000000000E+00 -0.51627839565E+03  0.36634727892E+04  0.36269118401E+04 0.  0.
        4    1    3    3  502    0 -0.87569116724E+03 -0.50756192690E+02  0.13450623292E+04  0.16058036909E+04  0.12699999809E+01 0.  1.
       -4    1    3    3    0  502  0.87569116724E+03  0.50756192690E+02 -0.18613407248E+04  0.20576690983E+04  0.12699999809E+01 0. -1.
</event>
<event>
 5   0  0.9878977E-07  0.3640327E+04  0.7818609E-02  0.8081316E-01
       -2   -1    0    0    0  501  0.00000000000E+00  0.00000000000E+00  0.27163470465E+04  0.27163470465E+04  0.25500000920E-02 0.  1.
        2   -1    0    0  501    0  0.00000000000E+00  0.00000000000E+00 -0.12196511332E+04  0.12196511332E+04  0.25500000920E-02 0. -1.
    10030    2    1    2    0    0  0.00000000000E+00  0.00000000000E+00  0.14966959133E+04  0.39359981797E+04  0.36403273223E+04 0.  0.
        5    1    3    3  502    0 -0.99233990059E+03  0.12291664702E+04  0.17258727434E+04  0.23397109877E+04  0.46999998093E+01 0.  1.
       -5    1    3    3    0  502  0.99233990059E+03 -0.12291664702E+04 -0.22917683005E+03  0.15962871920E+04  0.46999998093E+01 0. -1.
</event>
<event>
 5   0  0.9538919E-07  0.3526105E+04  0.7818609E-02  0.8107631E-01
       -2   -1    0    0    0  501  0.00000000000E+00  0.00000000000E+00  0.16518182079E+04  0.16518182080E+04  0.25500000920E-02 0.  1.
        2   -1    0    0  501    0  0.00000000000E+00  0.00000000000E+00 -0.18817777589E+04  0.18817777589E+04  0.25500000920E-02 0. -1.
    10030    2    1    2    0    0  0.00000000000E+00  0.00000000000E+00 -0.22995955095E+03  0.35335959669E+04  0.35261053674E+04 0.  0.
        4    1    3    3  502    0  0.22257418564E+03  0.61757728632E+02 -0.18665485834E+04  0.18807866738E+04  0.12699999809E+01 0. -1.
       -4    1    3    3    0  502 -0.22257418564E+03 -0.61757728632E+02  0.16365890325E+04  0.16528092931E+04  0.12699999809E+01 0.  1.
</event>
<event>
 5   0  0.3242047E-07  0.3616947E+04  0.7818609E-02  0.8086621E-01
        1   -1    0    0  501    0  0.00000000000E+00  0.00000000000E+00  0.30330452792E+04  0.30330452792E+04  0.50400001928E-02 0.  1.
       -1   -1    0    0    0  501  0.00000000000E+00  0.00000000000E+00 -0.10783145960E+04  0.10783145960E+04  0.50400001928E-02 0. -1.
    10030    2    1    2    0    0  0.00000000000E+00  0.00000000000E+00  0.19547306832E+04  0.41113598752E+04  0.36169473288E+04 0.  0.
        1    1    3    3  502    0  0.62057848305E+03  0.47208218101E+02 -0.95274886472E+03  0.11380143535E+04  0.50400001928E-02 0. -1.
       -1    1    3    3    0  502 -0.62057848305E+03 -0.47208218101E+02  0.29074795480E+04  0.29733455217E+04  0.50400001928E-02 0.  1.
</event>
<event>
 5   0  0.9878977E-07  0.3950324E+04  0.7818609E-02  0.8014643E-01
        2   -1    0    0  501    0  0.00000000000E+00  0.00000000000E+00  0.25249394084E+04  0.25249394084E+04  0.25500000920E-02 0.  1.
       -2   -1    0    0    0  501  0.00000000000E+00  0.00000000000E+00 -0.15450925131E+04  0.15450925131E+04  0.25500000920E-02 0. -1.
    10030    2    1    2    0    0  0.00000000000E+00  0.00000000000E+00  0.97984689537E+03  0.40700319215E+04  0.39503240252E+04 0.  0.
        5    1    3    3  502    0  0.17193206249E+04  0.29419771054E+03  0.14446245232E+04  0.22648571273E+04  0.46999998093E+01 0. -1.
       -5    1    3    3    0  502 -0.17193206249E+04 -0.29419771054E+03 -0.46477762785E+03  0.18051747942E+04  0.46999998093E+01 0.  1.
</event>
<event>
 5   0  0.1006019E-06  0.3552714E+04  0.7818609E-02  0.8101410E-01
       -2   -1    0    0    0  501  0.00000000000E+00  0.00000000000E+00  0.14205412893E+04  0.14205412893E+04  0.25500000920E-02 0.  1.
        2   -1    0    0  501    0  0.00000000000E+00  0.00000000000E+00 -0.22212973113E+04  0.22212973113E+04  0.25500000920E-02 0. -1.
    10030    2    1    2    0    0  0.00000000000E+00  0.00000000000E+00 -0.80075602193E+03  0.36418386006E+04  0.35527141999E+04 0.  0.
        1    1    3    3  502    0 -0.12179267706E+04 -0.12713704605E+04 -0.64234198029E+03  0.18741215772E+04  0.50400001928E-02 0.  1.
       -1    1    3    3    0  502  0.12179267706E+04  0.12713704605E+04 -0.15841404164E+03  0.17677170234E+04  0.50400001928E-02 0. -1.
</event>
<event>
 5   0  0.9878336E-07  0.3614279E+04  0.7818609E-02  0.8087229E-01
       -2   -1    0    0    0  501  0.00000000000E+00  0.00000000000E+00  0.16943294944E+04  0.16943294944E+04  0.25500000920E-02 0. -1.
        2   -1    0    0  501    0  0.00000000000E+00  0.00000000000E+00 -0.19274607760E+04  0.19274607760E+04  0.25500000920E-02 0.  1.
    10030    2    1    2    0    0  0.00000000000E+00  0.00000000000E+00 -0.23313128165E+03  0.36217902704E+04  0.36142792599E+04 0.  0.
        3    1    3    3  502    0  0.13722250771E+04  0.15572879993E+03 -0.12845351225E+04  0.18860762478E+04  0.10100000352E+00 0.  1.
       -3    1    3    3    0  502 -0.13722250771E+04 -0.15572879993E+03  0.10514038409E+04  0.17357140226E+04  0.10100000352E+00 0. -1.
</event>
<event>
 5   0  0.3242047E-07  0.3728987E+04  0.7818609E-02  0.8061568E-01
       -1   -1    0    0    0  501  0.00000000000E+00  0.00000000000E+00  0.25169515094E+04  0.25169515094E+04  0.50400001928E-02 0. -1.
        1   -1    0    0  501    0  0.00000000000E+00  0.00000000000E+00 -0.13811692431E+04  0.13811692431E+04  0.50400001928E-02 0.  1.
    10030    2    1    2    0    0  0.00000000000E+00  0.00000000000E+00  0.11357822664E+04  0.38981207525E+04  0.37289869998E+04 0.  0.
        1    1    3    3  502    0 -0.14658430783E+04 -0.35464439676E+03  0.17139124673E+04  0.22829727383E+04  0.50400001928E-02 0. -1.
       -1    1    3    3    0  502  0.14658430783E+04  0.35464439676E+03 -0.57813020090E+03  0.16151480142E+04  0.50400001928E-02 0.  1.
</event>
<event>
 5   0  0.3159875E-07  0.3537086E+04  0.7818609E-02  0.8105057E-01
       -1   -1    0    0    0  501  0.00000000000E+00  0.00000000000E+00  0.19477337247E+04  0.19477337247E+04  0.50400001928E-02 0. -1.
        1   -1    0    0  501    0  0.00000000000E+00  0.00000000000E+00 -0.16058377510E+04  0.16058377510E+04  0.50400001928E-02 0.  1.
    10030    2    1    2    0    0  0.00000000000E+00  0.00000000000E+00  0.34189597374E+03  0.35535714757E+04  0.35370860007E+04 0.  0.
        2    1    3    3  502    0  0.12051395441E+04  0.78356026021E+03 -0.86410437503E+03  0.16772013514E+04  0.25500000920E-02 0.  1.
       -2    1    3    3    0  502 -0.12051395441E+04 -0.78356026021E+03  0.12060003488E+04  0.18763701243E+04  0.25500000920E-02 0. -1.
</event>
<event>
 5   0  0.1006019E-06  0.3392992E+04  0.7818609E-02  0.8139628E-01
       -2   -1    0    0    0  501  0.00000000000E+00  0.00000000000E+00  0.18442738832E+04  0.18442738832E+04  0.25500000920E-02 0. -1.
        2   -1    0    0  501    0  0.00000000000E+00  0.00000000000E+00 -0.15605590683E+04  0.15605590683E+04  0.25500000920E-02 0.  1.
    10030    2    1    2    0    0  0.00000000000E+00  0.00000000000E+00  0.28371481491E+03  0.34048329515E+04  0.33929917966E+04 0.  0.
        1    1    3    3  502    0 -0.57770232619E+03 -0.58789355354E+03  0.16298469925E+04  0.18264063148E+04  0.50400001928E-02 0. -1.
       -1    1    3    3    0  502  0.57770232619E+03  0.58789355354E+03 -0.13461321775E+04  0.15784266367E+04  0.50400001928E-02 0.  1.
</event>
<event>
 5   0  0.9878336E-07  0.3633926E+04  0.7818609E-02  0.8082764E-01
        2   -1    0    0  501    0  0.00000000000E+00  0.00000000000E+00  0.18007396241E+04  0.18007396241E+04  0.25500000920E-02 0. -1.
       -2   -1    0    0    0  501  0.00000000000E+00  0.00000000000E+00 -0.18333323255E+04  0.18333323255E+04  0.25500000920E-02 0.  1.
    10030    2    1    2    0    0  0.00000000000E+00  0.00000000000E+00 -0.32592701455E+02  0.36340719496E+04  0.36339257905E+04 0.  0.
        3    1    3    3  502    0  0.65542851517E+03  0.86526847620E+03 -0.14734335663E+04  0.18301045213E+04  0.10100000352E+00 0.  1.
       -3    1    3    3    0  502 -0.65542851517E+03 -0.86526847620E+03  0.14408408648E+04  0.18039674283E+04  0.10100000352E+00 0. -1.
</event>
<event>
 5   0  0.3159875E-07  0.3160167E+04  0.7818609E-02  0.8199417E-01
       -1   -1    0    0    0  501  0.00000000000E+00  0.00000000000E+00  0.16386196343E+04  0.16386196343E+04  0.50400001928E-02 0. -1.
        1   -1    0    0  501    0  0.00000000000E+00  0.00000000000E+00 -0.15236381873E+04  0.15236381873E+04  0.50400001928E-02 0.  1.
    10030    2    1    2    0    0  0.00000000000E+00  0.00000000000E+00  0.11498144700E+03  0.31622578216E+04  0.31601667356E+04 0.  0.
        5    1    3    3  502    0  0.11761344100E+04  0.29986113356E+03  0.10698085443E+04  0.16179373478E+04  0.46999998093E+01 0. -1.
       -5    1    3    3    0  502 -0.11761344100E+04 -0.29986113356E+03 -0.95482709733E+03  0.15443204738E+04  0.46999998093E+01 0.  1.
</event>
<event>
 5   0  0.9878336E-07  0.3528387E+04  0.7818609E-02  0.8107095E-01
        2   -1    0    0  501    0  0.00000000000E+00  0.00000000000E+00  0.17882492566E+04  0.17882492566E+04  0.25500000920E-02 0.  1.
       -2   -1    0    0    0  501  0.00000000000E+00  0.00000000000E+00 -0.17404608783E+04  0.17404608783E+04  0.25500000920E-02 0. -1.
    10030    2    1    2    0    0  0.00000000000E+00  0.00000000000E+00  0.47788378330E+02  0.35287101348E+04  0.35283865274E+04 0.  0.
        3    1    3    3  502    0 -0.13516285992E+03  0.75498239154E+02 -0.17336539365E+04  0.17405530628E+04  0.10100000352E+00 0. -1.
       -3    1    3    3    0  502  0.13516285992E+03 -0.75498239154E+02  0.17814423148E+04  0.17881570720E+04  0.10100000352E+00 0.  1.
</event>
<event>
 5   0  0.3278988E-07  0.3472711E+04  0.7818609E-02  0.8120288E-01
       -1   -1    0    0    0  501  0.00000000000E+00  0.00000000000E+00  0.14652332459E+04  0.14652332459E+04  0.50400001928E-02 0.  1.
        1   -1    0    0  501    0  0.00000000000E+00  0.00000000000E+00 -0.20576452921E+04  0.20576452921E+04  0.50400001928E-02 0. -1.
    10030    2    1    2    0    0  0.00000000000E+00  0.00000000000E+00 -0.59241204620E+03  0.35228785381E+04  0.34727109240E+04 0.  0.
        4    1    3    3  502    0 -0.14524617853E+04  0.92316138816E+03 -0.62538530352E+02  0.17221454257E+04  0.12699999809E+01 0.  1.
       -4    1    3    3    0  502  0.14524617853E+04 -0.92316138816E+03 -0.52987351585E+03  0.18007331124E+04  0.12699999809E+01 0. -1.
</event>
<event>
 5   0  0.3278988E-07  0.3710099E+04  0.7818609E-02  0.8065727E-01
       -1   -1    0    0    0  501  0.00000000000E+00  0.00000000000E+00  0.23359834894E+04  0.23359834894E+04  0.50400001928E-02 0. -1.
        1   -1    0    0  501    0  0.00000000000E+00  0.00000000000E+00 -0.14731305969E+04  0.14731305969E+04  0.50400001928E-02 0.  1.
    10030    2    1    2    0    0  0.00000000000E+00  0.00000000000E+00  0.86285289252E+03  0.38091140862E+04  0.37100990563E+04 0.  0.
        4    1    3    3  502    0  0.12725457115E+04 -0.10685076916E+04  0.12781333887E+04  0.20963558493E+04  0.12699999809E+01 0. -1.
       -4    1    3    3    0  502 -0.12725457115E+04  0.10685076916E+04 -0.41528049614E+03  0.17127582369E+04  0.12699999809E+01 0.  1.
</event>
<event>
 5   0  0.9878336E-07  0.3551616E+04  0.7818609E-02  0.8101665E-01
        2   -1    0    0  501    0  0.00000000000E+00  0.00000000000E+00  0.26777108387E+04  0.26777108387E+04  0.25500000920E-02 0.  1.
       -2   -1    0    0    0  501  0.00000000000E+00  0.00000000000E+00 -0.11776827626E+04  0.11776827626E+04  0.25500000920E-02 0. -1.
    10030    2    1    2    0    0  0.00000000000E+00  0.00000000000E+00  0.15000280761E+04  0.38553936013E+04  0.35516159128E+04 0.  0.
        3    1    3    3  502    0  0.14849525814E+04 -0.86524212145E+03  0.26483359389E+03  0.17389263758E+04  0.10100000352E+00 0. -1.
       -3    1    3    3    0  502 -0.14849525814E+04  0.86524212145E+03  0.12351944822E+04  0.21164672255E+04  0.10100000352E+00 0.  1.
</event>
<event>
 5   0  0.3159875E-07  0.3422760E+04  0.7818609E-02  0.8132343E-01
       -1   -1    0    0    0  501  0.00000000000E+00  0.00000000000E+00  0.26793224791E+04  0.26793224791E+04  0.50400001928E-02 0. -1.
        1   -1    0    0  501    0  0.00000000000E+00  0.00000000000E+00 -0.10931201586E+04  0.10931201587E+04  0.50400001928E-02 0.  1.
    10030    2    1    2    0    0  0.00000000000E+00  0.00000000000E+00  0.15862023205E+04  0.37724426378E+04  0.34227599469E+04 0.  0.
        5    1    3    3  502    0  0.51635726095E+03  0.54428529453E+03  0.24884027429E+04  0.25990462874E+04  0.46999998093E+01 0. -1.
       -5    1    3    3    0  502 -0.51635726095E+03 -0.54428529453E+03 -0.90220042249E+03  0.11733963504E+04  0.46999998093E+01 0.  1.
</event>
<event>
 5   0  0.3242047E-07  0.3877700E+04  0.7818609E-02  0.8029683E-01
       -1   -1    0    0    0  501  0.00000000000E+00  0.00000000000E+00  0.15782794751E+04  0.15782794751E+04  0.50400001928E-02 0. -1.
        1   -1    0    0  501    0  0.00000000000E+00  0.00000000000E+00 -0.23817961240E+04  0.23817961240E+04  0.50400001928E-02 0.  1.
    10030    2    1    2    0    0  0.00000000000E+00  0.00000000000E+00 -0.80351664886E+03  0.39600755991E+04  0.38777003166E+04 0.  0.
        1    1    3    3  502    0 -0.26710484944E+03 -0.12875845934E+04  0.10532610859E+04  0.16848080012E+04  0.50400001928E-02 0. -1.
       -1    1    3    3    0  502  0.26710484944E+03  0.12875845934E+04 -0.18567777347E+04  0.22752675979E+04  0.50400001928E-02 0.  1.
</event>
<event>
 5   0  0.3278988E-07  0.3677409E+04  0.7818609E-02  0.8072987E-01
       -1   -1    0    0    0  501  0.00000000000E+00  0.00000000000E+00  0.23938474413E+04  0.23938474413E+04  0.50400001928E-02 0. -1.
        1   -1    0    0  501    0  0.00000000000E+00  0.00000000000E+00 -0.14123010774E+04  0.14123010774E+04  0.50400001928E-02 0.  1.
    10030    2    1    2    0    0  0.00000000000E+00  0.00000000000E+00  0.98154636395E+03  0.38061485187E+04  0.36774085008E+04 0.  0.
        4    1    3    3  502    0  0.21160077790E+02 -0.18380994361E+04  0.53437175478E+03  0.19143176516E+04  0.12699999809E+01 0.  1.
       -4    1    3    3    0  502 -0.21160077790E+02  0.18380994361E+04  0.44717460917E+03  0.18918308672E+04  0.12699999809E+01 0. -1.
</event>
<event>
 5   0  0.1031659E-06  0.3577809E+04  0.7818609E-02  0.8095594E-01
       -2   -1    0    0    0  501  0.00000000000E+00  0.00000000000E+00  0.12786695230E+04  0.12786695230E+04  0.25500000920E-02 0.  1.
        2   -1    0    0  501    0  0.00000000000E+00  0.00000000000E+00 -0.25027419149E+04  0.25027419149E+04  0.25500000920E-02 0. -1.
    10030    2    1    2    0    0  0.00000000000E+00  0.00000000000E+00 -0.12240723919E+04  0.37814114379E+04  0.35778092797E+04 0.  0.
        2    1    3    3  502    0  0.81828315402E+03  0.12858473684E+03 -0.22878448664E+04  0.24331780633E+04  0.25500000920E-02 0. -1.
       -2    1    3    3    0  502 -0.81828315402E+03 -0.12858473684E+03  0.10637724746E+04  0.13482333746E+04  0.25500000920E-02 0.  1.
</event>
<event>
 5   0  0.1031659E-06  0.3267688E+04  0.7818609E-02  0.8171166E-01
       -2   -1    0    0    0  501  0.00000000000E+00  0.00000000000E+00  0.14877215335E+04  0.14877215335E+04  0.25500000920E-02 0.  1.
        2   -1    0    0  501    0  0.00000000000E+00  0.00000000000E+00 -0.17943188220E+04  0.17943188220E+04  0.25500000920E-02 0. -1.
    10030    2    1    2    0    0  0.00000000000E+00  0.00000000000E+00 -0.30659728852E+03  0.32820403555E+04  0.32676883263E+04 0.  0.
        2    1    3    3  502    0 -0.44606639088E+03 -0.87805090947E+03 -0.14626724093E+04  0.17633375177E+04  0.25500000920E-02 0. -1.
       -2    1    3    3    0  502  0.44606639088E+03  0.87805090947E+03  0.11560751207E+04  0.15187028378E+04  0.25500000920E-02 0.  1.
</event>
<event>
 5   0  0.1031659E-06  0.3533817E+04  0.7818609E-02  0.8105822E-01
        2   -1    0    0  501    0  0.00000000000E+00  0.00000000000E+00  0.27094815583E+04  0.27094815583E+04  0.25500000920E-02 0. -1.
       -2   -1    0    0    0  501  0.00000000000E+00  0.00000000000E+00 -0.11522370102E+04  0.11522370102E+04  0.25500000920E-02 0.  1.
    10030    2    1    2    0    0  0.00000000000E+00  0.00000000000E+00  0.15572445480E+04  0.38617185685E+04  0.35338165940E+04 0.  0.
        2    1    3    3  502    0 -0.12940156364E+04 -0.11999673849E+04  0.87368077356E+03  0.19691917851E+04  0.25500000920E-02 0.  1.
       -2    1    3    3    0  502  0.12940156364E+04  0.11999673849E+04  0.68356377446E+03  0.18925267834E+04  0.25500000920E-02 0. -1.
</event>
<event>
 5   0  0.3159875E-07  0.3525369E+04  0.7818609E-02  0.8107804E-01
        1   -1    0    0  501    0  0.00000000000E+00  0.00000000000E+00  0.17032423409E+04  0.17032423410E+04  0.50400001928E-02 0.  1.
       -1   -1    0    0    0  501  0.00000000000E+00  0.00000000000E+00 -0.18242015668E+04  0.18242015668E+04  0.50400001928E-02 0. -1.
    10030    2    1    2    0    0  0.00000000000E+00  0.00000000000E+00 -0.12095922587E+03  0.35274439078E+04  0.35253693974E+04 0.  0.
        2    1    3    3  502    0 -0.56971767725E+03 -0.93836576410E+03 -0.14404027548E+04  0.18110407602E+04  0.25500000920E-02 0. -1.
       -2    1    3    3    0  502  0.56971767725E+03  0.93836576410E+03  0.13194435289E+04  0.17164031476E+04  0.25500000920E-02 0.  1.
</event>
<event>
 5   0  0.3278988E-07  0.3644641E+04  0.7818609E-02  0.8080342E-01
        1   -1    0    0  501    0  0.00000000000E+00  0.00000000000E+00  0.18850620216E+04  0.18850620216E+04  0.50400001928E-02 0. -1.
       -1   -1    0    0    0  501  0.00000000000E+00  0.00000000000E+00 -0.17616669188E+04  0.17616669188E+04  0.50400001928E-02 0.  1.
    10030    2    1    2    0    0  0.00000000000E+00  0.00000000000E+00  0.12339510278E+03  0.36467289403E+04  0.36446406699E+04 0.  0.
        4    1    3    3  502    0  0.49153101988E+03 -0.95441829156E+03  0.15350672482E+04  0.18732191778E+04  0.12699999809E+01 0. -1.
       -4    1    3    3    0  502 -0.49153101988E+03  0.95441829156E+03 -0.14116721454E+04  0.17735097625E+04  0.12699999809E+01 0.  1.
</event>
<event>
 5   0  0.3365378E-07  0.3291550E+04  0.7818609E-02  0.8165049E-01
        1   -1    0    0  501    0  0.00000000000E+00  0.00000000000E+00  0.27116023519E+04  0.27116023519E+04  0.50400001928E-02 0.  1.
       -1   -1    0    0    0  501  0.00000000000E+00  0.00000000000E+00 -0.99888361072E+03  0.99888361073E+03  0.50400001928E-02 0. -1.
    10030    2    1    2    0    0  0.00000000000E+00  0.00000000000E+00  0.17127187412E+04  0.37104859626E+04  0.32915498770E+04 0.  0.
        3    1    3    3  502    0  0.10149647178E+04  0.12414369979E+04  0.12739934461E+04  0.20480181906E+04  0.10100000352E+00 0.  1.
       -3    1    3    3    0  502 -0.10149647178E+04 -0.12414369979E+04  0.43872529509E+03  0.16624677720E+04  0.10100000352E+00 0. -1.
</event>
<event>
 5   0  0.9878977E-07  0.2986236E+04  0.7818609E-02  0.8247672E-01
        2   -1    0    0  501    0  0.00000000000E+00  0.00000000000E+00  0.13975166701E+04  0.13975166701E+04  0.25500000920E-02 0.  1.
       -2   -1    0    0    0  501  0.00000000000E+00  0.00000000000E+00 -0.15952589290E+04  0.15952589290E+04  0.25500000920E-02 0. -1.
    10030    2    1    2    0    0  0.00000000000E+00  0.00000000000E+00 -0.19774225894E+03  0.29927755991E+04  0.29862357217E+04 0.  0.
        5    1    3    3  502    0 -0.13229030819E+04  0.50181717467E+03  0.37912813580E+03  0.14648048588E+04  0.46999998093E+01 0.  1.
       -5    1    3    3    0  502  0.13229030819E+04 -0.50181717467E+03 -0.57687039474E+03  0.15279707403E+04  0.46999998093E+01 0. -1.
</event>
<event>
 5   0  0.3278988E-07  0.3589095E+04  0.7818609E-02  0.8092994E-01
        1   -1    0    0  501    0  0.00000000000E+00  0.00000000000E+00  0.14222683385E+04  0.14222683385E+04  0.50400001928E-02 0.  1.
       -1   -1    0    0    0  501  0.00000000000E+00  0.00000000000E+00 -0.22642709277E+04  0.22642709277E+04  0.50400001928E-02 0. -1.
    10030    2    1    2    0    0  0.00000000000E+00  0.00000000000E+00 -0.84200258915E+03  0.36865392662E+04  0.35890950672E+04 0.  0.
        4    1    3    3  502    0  0.10692350010E+04  0.60310393319E+03  0.92350692078E+03  0.15361850433E+04  0.12699999809E+01 0.  1.
       -4    1    3    3    0  502 -0.10692350010E+04 -0.60310393319E+03 -0.17655095099E+04  0.21503542229E+04  0.12699999809E+01 0. -1.
</event>
<event>
 5   0  0.9878977E-07  0.3627822E+04  0.7818609E-02  0.8084148E-01
       -2   -1    0    0    0  501  0.00000000000E+00  0.00000000000E+00  0.10830282848E+04  0.10830282848E+04  0.25500000920E-02 0.  1.
        2   -1    0    0  501    0  0.00000000000E+00  0.00000000000E+00 -0.30380306427E+04  0.30380306427E+04  0.25500000920E-02 0. -1.
    10030    2    1    2    0    0  0.00000000000E+00  0.00000000000E+00 -0.19550023579E+04  0.41210589275E+04  0.36278220001E+04 0.  0.
        5    1    3    3  502    0 -0.10956516884E+04  0.74752110300E+03 -0.23830694788E+04  0.27273215162E+04  0.46999998093E+01 0. -1.
       -5    1    3    3    0  502  0.10956516884E+04 -0.74752110300E+03  0.42806712096E+03  0.13937374113E+04  0.46999998093E+01 0.  1.
</event>
<event>
 5   0  0.3278988E-07  0.3652208E+04  0.7818609E-02  0.8078636E-01
       -1   -1    0    0    0  501  0.00000000000E+00  0.00000000000E+00  0.15068905741E+04  0.15068905741E+04  0.50400001928E-02 0. -1.
        1   -1    0    0  501    0  0.00000000000E+00  0.00000000000E+00 -0.22129380310E+04  0.22129380310E+04  0.50400001928E-02 0.  1.
    10030    2    1    2    0    0  0.00000000000E+00  0.00000000000E+00 -0.70604745687E+03  0.37198286051E+04  0.36522078035E+04 0.  0.
        4    1    3    3  502    0 -0.59075481183E+02 -0.11895085394E+04  0.10568871099E+04  0.15923041335E+04  0.12699999809E+01 0. -1.
       -4    1    3    3    0  502  0.59075481183E+02  0.11895085394E+04 -0.17629345667E+04  0.21275244716E+04  0.12699999809E+01 0.  1.
</event>
<event>
 5   0  0.3159875E-07  0.3654920E+04  0.7818609E-02  0.8078026E-01
        3   -1    0    0  501    0  0.00000000000E+00  0.00000000000E+00  0.18390434566E+04  0.18390434594E+04  0.10100000352E+00 0. -1.
       -3   -1    0    0    0  501  0.00000000000E+00  0.00000000000E+00 -0.18159497832E+04  0.18159497860E+04  0.10100000352E+00 0.  1.
    10030    2    1    2    0    0  0.00000000000E+00  0.00000000000E+00  0.23093673413E+02  0.36549932454E+04  0.36549202873E+04 0.  0.
        4    1    3    3  502    0  0.16295419570E+04  0.63179481743E+03 -0.52235265043E+03  0.18241232374E+04  0.12699999809E+01 0.  1.
       -4    1    3    3    0  502 -0.16295419570E+04 -0.63179481743E+03  0.54544632385E+03  0.18308700080E+04  0.12699999809E+01 0. -1.
</event>
<event>
 5   0  0.3365378E-07  0.3622744E+04  0.7818609E-02  0.8085302E-01
       -1   -1    0    0    0  501  0.00000000000E+00  0.00000000000E+00  0.21163128196E+04  0.21163128196E+04  0.50400001928E-02 0.  1.
        1   -1    0    0  501    0  0.00000000000E+00  0.00000000000E+00 -0.15503699069E+04  0.15503699070E+04  0.50400001928E-02 0. -1.
    10030    2    1    2    0    0  0.00000000000E+00  0.00000000000E+00  0.56594291262E+03  0.36666827265E+04  0.36227435511E+04 0.  0.
        3    1    3    3  502    0  0.26965734556E+03 -0.23422277545E+03  0.20803172039E+04  0.21107569902E+04  0.10100000352E+00 0.  1.
       -3    1    3    3    0  502 -0.26965734556E+03  0.23422277545E+03 -0.15143742913E+04  0.15559257363E+04  0.10100000352E+00 0. -1.
</event>
<event>
 5   0  0.3365378E-07  0.3395542E+04  0.7818609E-02  0.8139001E-01
        1   -1    0    0  501    0  0.00000000000E+00  0.00000000000E+00  0.25835489720E+04  0.25835489720E+04  0.50400001928E-02 0.  1.
       -1   -1    0    0    0  501  0.00000000000E+00  0.00000000000E+00 -0.11156848504E+04  0.11156848504E+04  0.50400001928E-02 0. -1.
    10030    2    1    2    0    0  0.00000000000E+00  0.00000000000E+00  0.14678641216E+04  0.36992338223E+04  0.33955420470E+04 0.  0.
        3    1    3    3  502    0  0.10170459614E+04  0.95279382546E+03  0.17903097789E+04  0.22687899145E+04  0.10100000352E+00 0.  1.
       -3    1    3    3    0  502 -0.10170459614E+04 -0.95279382546E+03 -0.32244565733E+03  0.14304439079E+04  0.10100000352E+00 0. -1.
</event>
<event>
 5   0  0.9538919E-07  0.3516098E+04  0.7818609E-02  0.8109985E-01
        2   -1    0    0  501    0  0.00000000000E+00  0.00000000000E+00  0.15168485579E+04  0.15168485579E+04  0.25500000920E-02 0. -1.
       -2   -1    0    0    0  501  0.00000000000E+00  0.00000000000E+00 -0.20376040269E+04  0.20376040269E+04  0.25500000920E-02 0.  1.
    10030    2    1    2    0    0  0.00000000000E+00  0.00000000000E+00 -0.52075546893E+03  0.35544525848E+04  0.35160982522E+04 0.  0.
        4    1    3    3  502    0  0.10650602807E+04  0.13251182401E+04  0.19221498738E+03  0.17109178723E+04  0.12699999809E+01 0. -1.
       -4    1    3    3    0  502 -0.10650602807E+04 -0.13251182401E+04 -0.71297045631E+03  0.18435347125E+04  0.12699999809E+01 0.  1.
</event>
<event>
 5   0  0.1031659E-06  0.3639382E+04  0.7818609E-02  0.8081530E-01
        2   -1    0    0  501    0  0.00000000000E+00  0.00000000000E+00  0.27514481667E+04  0.27514481668E+04  0.25500000920E-02 0. -1.
       -2   -1    0    0    0  501  0.00000000000E+00  0.00000000000E+00 -0.12034664439E+04  0.12034664439E+04  0.25500000920E-02 0.  1.
    10030    2    1    2    0    0  0.00000000000E+00  0.00000000000E+00  0.15479817228E+04  0.39549146107E+04  0.36393821129E+04 0.  0.
        2    1    3    3  502    0 -0.11380203455E+03 -0.22373244758E+03 -0.11845625091E+04  0.12108655785E+04  0.25500000920E-02 0.  1.
       -2    1    3    3    0  502  0.11380203455E+03  0.22373244758E+03  0.27325442320E+04  0.27440490322E+04  0.25500000920E-02 0. -1.
</event>
<event>
 5   0  0.3365378E-07  0.3643945E+04  0.7818609E-02  0.8080499E-01
       -1   -1    0    0    0  501  0.00000000000E+00  0.00000000000E+00  0.17158721014E+04  0.17158721014E+04  0.50400001928E-02 0. -1.
        1   -1    0    0  501    0  0.00000000000E+00  0.00000000000E+00 -0.19346337330E+04  0.19346337330E+04  0.50400001928E-02 0.  1.
    10030    2    1    2    0    0  0.00000000000E+00  0.00000000000E+00 -0.21876163160E+03  0.36505058345E+04  0.36439451417E+04 0.  0.
        3    1    3    3  502    0  0.31397974311E+03  0.63946868253E+03 -0.17893259416E+04  0.19259259618E+04  0.10100000352E+00 0.  1.
       -3    1    3    3    0  502 -0.31397974311E+03 -0.63946868253E+03  0.15705643100E+04  0.17245798726E+04  0.10100000352E+00 0. -1.
</event>
<event>
 5   0  0.9878336E-07  0.3604155E+04  0.7818609E-02  0.8089541E-01
       -2   -1    0    0    0  501  0.00000000000E+00  0.00000000000E+00  0.14279246306E+04  0.14279246306E+04  0.25500000920E-02 0.  1.
        2   -1    0    0  501    0  0.00000000000E+00  0.00000000000E+00 -0.22742677334E+04  0.22742677334E+04  0.25500000920E-02 0. -1.
    10030    2    1    2    0    0  0.00000000000E+00  0.00000000000E+00 -0.84634310277E+03  0.37021923640E+04  0.36041547764E+04 0.  0.
        3    1    3    3  502    0  0.84862345625E+03 -0.15028756939E+04  0.10927729413E+03  0.17293752222E+04  0.10100000352E+00 0.  1.
       -3    1    3    3    0  502 -0.84862345625E+03  0.15028756939E+04 -0.95562039690E+03  0.19728171418E+04  0.10100000352E+00 0. -1.
</event>
<event>
 5   0  0.3242047E-07  0.3606634E+04  0.7818609E-02  0.8088974E-01
        1   -1    0    0  501    0  0.00000000000E+00  0.00000000000E+00  0.23337986325E+04  0.23337986325E+04  0.50400001928E-02 0.  1.
       -1   -1    0    0    0  501  0.00000000000E+00  0.00000000000E+00 -0.13934158667E+04  0.13934158667E+04  0.50400001928E-02 0. -1.
    10030    2    1    2    0    0  0.00000000000E+00  0.00000000000E+00  0.94038276575E+03  0.37272144992E+04  0.36066339122E+04 0.  0.
        1    1    3    3  502    0  0.11975960032E+04 -0.16299428863E+03  0.18532740806E+04  0.22125614439E+04  0.50400001928E-02 0.  1.
       -1    1    3    3    0  502 -0.11975960032E+04  0.16299428863E+03 -0.91289131485E+03  0.15146530553E+04  0.50400001928E-02 0. -1.
</event>
<event>
 5   0  0.3278988E-07  0.3596562E+04  0.7818609E-02  0.8091280E-01
        1   -1    0    0  501    0  0.00000000000E+00  0.00000000000E+00  0.11049056132E+04  0.11049056133E+04  0.50400001928E-02 0. -1.
       -1   -1    0    0    0  501  0.00000000000E+00  0.00000000000E+00 -0.29267787864E+04  0.29267787864E+04  0.50400001928E-02 0.  1.
    10030    2    1    2    0    0  0.00000000000E+00  0.00000000000E+00 -0.18218731731E+04  0.40316843996E+04  0.35965618637E+04 0.  0.
        4    1    3    3  502    0  0.77047572177E+03  0.27530927320E+03  0.88417139819E+03  0.12046529409E+04  0.12699999809E+01 0. -1.
       -4    1    3    3    0  502 -0.77047572177E+03 -0.27530927320E+03 -0.27060445713E+04  0.28270314587E+04  0.12699999809E+01 0.  1.
</event>
<event>
 5   0  0.3159875E-07  0.3611702E+04  0.7818609E-02  0.8087816E-01
        1   -1    0    0  501    0  0.00000000000E+00  0.00000000000E+00  0.24021479450E+04  0.24021479450E+04  0.50400001928E-02 0. -1.
       -1   -1    0    0    0  501  0.00000000000E+00  0.00000000000E+00 -0.13575757182E+04  0.13575757182E+04  0.50400001928E-02 0.  1.
    10030    2    1    2    0    0  0.00000000000E+00  0.00000000000E+00  0.10445722268E+04  0.37597236632E+04  0.36117019376E+04 0.  0.
        5    1    3    3  502    0  0.34694886563E+03  0.13147765438E+04 -0.71471853154E+03  0.15361821327E+04  0.46999998093E+01 0.  1.
       -5    1    3    3    0  502 -0.34694886563E+03 -0.13147765438E+04  0.17592907584E+04  0.22235415305E+04  0.46999998093E+01 0. -1.
</event>
<event>
 5   0  0.9878336E-07  0.3390479E+04  0.7818609E-02  0.8140247E-01
       -2   -1    0    0    0  501  0.00000000000E+00  0.00000000000E+00  0.14289347663E+04  0.14289347663E+04  0.25500000920E-02 0. -1.
        2   -1    0    0  501    0  0.00000000000E+00  0.00000000000E+00 -0.20111744644E+04  0.20111744644E+04  0.25500000920E-02 0.  1.
    10030    2    1    2    0    0  0.00000000000E+00  0.00000000000E+00 -0.58223969801E+03  0.34401092307E+04  0.33904790890E+04 0.  0.
        3    1    3    3  502    0  0.48547230158E+03  0.15199321775E+04 -0.87218061248E+03  0.18183993541E+04  0.10100000352E+00 0.  1.
       -3    1    3    3    0  502 -0.48547230158E+03 -0.15199321775E+04  0.28994091446E+03  0.16217098766E+04  0.10100000352E+00 0. -1.
</event>
<event>
 5   0  0.3242047E-07  0.3731878E+04  0.7818609E-02  0.8060934E-01
        1   -1    0    0  501    0  0.00000000000E+00  0.00000000000E+00  0.11671064597E+04  0.11671064597E+04  0.50400001928E-02 0.  1.
       -1   -1    0    0    0  501  0.00000000000E+00  0.00000000000E+00 -0.29832132290E+04  0.29832132290E+04  0.50400001928E-02 0. -1.
    10030    2    1    2    0    0  0.00000000000E+00  0.00000000000E+00 -0.18161067693E+04  0.41503196887E+04  0.37318775061E+04 0.  0.
        1    1    3    3  502    0  0.17703936373E+04  0.51278734845E+03 -0.58480328647E+03  0.19337112969E+04  0.50400001928E-02 0. -1.
       -1    1    3    3    0  502 -0.17703936373E+04 -0.51278734845E+03 -0.12313034829E+04  0.22166083918E+04  0.50400001928E-02 0.  1.
</event>
<event>
 5   0  0.1006019E-06  0.3630867E+04  0.7818609E-02  0.8083458E-01
        2   -1    0    0  501    0  0.00000000000E+00  0.00000000000E+00  0.21471924710E+04  0.21471924710E+04  0.25500000920E-02 0. -1.
       -2   -1    0    0    0  501  0.00000000000E+00  0.00000000000E+00 -0.15349341872E+04  0.15349341872E+04  0.25500000920E-02 0.  1.
    10030    2    1    2    0    0  0.00000000000E+00  0.00000000000E+00  0.61225828384E+03  0.36821266582E+04  0.36308671858E+04 0.  0.
        1    1    3    3  502    0 -0.43626636766E+03  0.16973381502E+04  0.78664758877E+03  0.19209631878E+04  0.50400001928E-02 0. -1.
       -1    1    3    3    0  502  0.43626636766E+03 -0.16973381502E+04 -0.17438930493E+03  0.17611634704E+04  0.50400001928E-02 0.  1.
</event>
<event>
 5   0  0.3278988E-07  0.3693788E+04  0.7818609E-02  0.8069340E-01
       -1   -1    0    0    0  501  0.00000000000E+00  0.00000000000E+00  0.19085218340E+04  0.19085218340E+04  0.50400001928E-02 0. -1.
        1   -1    0    0  501    0  0.00000000000E+00  0.00000000000E+00 -0.17872564048E+04  0.17872564048E+04  0.50400001928E-02 0.  1.
    10030    2    1    2    0    0  0.00000000000E+00  0.00000000000E+00  0.12126542919E+03  0.36957782387E+04  0.36937882297E+04 0.  0.
        4    1    3    3  502    0  0.41362490815E+03  0.17370912314E+04  0.53252729392E+03  0.18633728673E+04  0.12699999809E+01 0. -1.
       -4    1    3    3    0  502 -0.41362490815E+03 -0.17370912314E+04 -0.41126186473E+03  0.18324053714E+04  0.12699999809E+01 0.  1.
</event>
<event>
 5   0  0.3159875E-07  0.3129212E+04  0.7818609E-02  0.8207766E-01
        1   -1    0    0  501    0  0.00000000000E+00  0.00000000000E+00  0.15752537195E+04  0.15752537195E+04  0.50400001928E-02 0. -1.
       -1   -1    0    0    0  501  0.00000000000E+00  0.00000000000E+00 -0.15540304944E+04  0.15540304944E+04  0.50400001928E-02 0.  1.
    10030    2    1    2    0    0  0.00000000000E+00  0.00000000000E+00  0.21223225063E+02  0.31292842140E+04  0.31292122438E+04 0.  0.
        5    1    3    3  502    0 -0.73423905471E+03 -0.17022146707E+03  0.13817331838E+04  0.15739412373E+04  0.46999998093E+01 0. -1.
       -5    1    3    3    0  502  0.73423905471E+03  0.17022146707E+03 -0.13605099587E+04  0.15553429767E+04  0.46999998093E+01 0.  1.
</event>
<event>
 5   0  0.3159875E-07  0.3337448E+04  0.7818609E-02  0.8153432E-01
       -1   -1    0    0    0  501  0.00000000000E+00  0.00000000000E+00  0.10322548909E+04  0.10322548909E+04  0.50400001928E-02 0.  1.
        1   -1    0    0  501    0  0.00000000000E+00  0.00000000000E+00 -0.26976285731E+04  0.26976285731E+04  0.50400001928E-02 0. -1.
    10030    2    1    2    0    0  0.00000000000E+00  0.00000000000E+00 -0.16653736823E+04  0.37298834640E+04  0.33374482998E+04 0.  0.
        2    1    3    3  502    0 -0.93137426924E+02 -0.58971586367E+03  0.90881133837E+03  0.10873717988E+04  0.25500000920E-02 0.  1.
       -2    1    3    3    0  502  0.93137426924E+02  0.58971586367E+03 -0.25741850206E+04  0.26425116652E+04  0.25500000920E-02 0. -1.
</event>
<event>
 5   0  0.3278988E-07  0.3594980E+04  0.7818609E-02  0.8091643E-01
        1   -1    0    0  501    0  0.00000000000E+00  0.00000000000E+00  0.21413095415E+04  0.21413095415E+04  0.50400001928E-02 0.  1.
       -1   -1    0    0    0  501  0.00000000000E+00  0.00000000000E+00 -0.15088758307E+04  0.15088758307E+04  0.50400001928E-02 0. -1.
    10030    2    1    2    0    0  0.00000000000E+00  0.00000000000E+00  0.63243371079E+03  0.36501853722E+04  0.35949799517E+04 0.  0.
        4    1    3    3  502    0  0.14539799130E+04  0.57017349808E+03  0.12197203049E+04  0.19816343357E+04  0.12699999809E+01 0.  1.
       -4    1    3    3    0  502 -0.14539799130E+04 -0.57017349808E+03 -0.58728659410E+03  0.16685510366E+04  0.12699999809E+01 0. -1.
</event>
<event>
 5   0  0.3159875E-07  0.3602524E+04  0.7818609E-02  0.8089914E-01
        1   -1    0    0  501    0  0.00000000000E+00  0.00000000000E+00  0.21963258771E+04  0.21963258771E+04  0.50400001928E-02 0.  1.
       -1   -1    0    0    0  501  0.00000000000E+00  0.00000000000E+00 -0.14772602580E+04  0.14772602580E+04  0.50400001928E-02 0. -1.
    10030    2    1    2    0    0  0.00000000000E+00  0.00000000000E+00  0.71906561910E+03  0.36735861350E+04  0.36025240772E+04 0.  0.
        5    1    3    3  502    0 -0.43874655564E+03  0.15330841909E+03  0.21341252115E+04  0.21841507549E+04  0.46999998093E+01 0.  1.
       -5    1    3    3    0  502  0.43874655564E+03 -0.15330841909E+03 -0.14150595925E+04  0.14894353801E+04  0.46999998093E+01 0. -1.
</event>
<event>
 5   0  0.1031659E-06  0.3526169E+04  0.7818609E-02  0.8107616E-01
        2   -1    0    0  501    0  0.00000000000E+00  0.00000000000E+00  0.17527673137E+04  0.17527673137E+04  0.25500000920E-02 0.  1.
       -2   -1    0    0    0  501  0.00000000000E+00  0.00000000000E+00 -0.17734621858E+04  0.17734621858E+04  0.25500000920E-02 0. -1.
    10030    2    1    2    0    0  0.00000000000E+00  0.00000000000E+00 -0.20694872136E+02  0.35262294995E+04  0.35261687715E+04 0.  0.
        2    1    3    3  502    0  0.12821718771E+04  0.52840178806E+03  0.10783831119E+04  0.17567251658E+04  0.25500000920E-02 0.  1.
       -2    1    3    3    0  502 -0.12821718771E+04 -0.52840178806E+03 -0.10990779840E+04  0.17695043337E+04  0.25500000920E-02 0. -1.
</event>
<event>
 5   0  0.3242047E-07  0.3466674E+04  0.7818609E-02  0.8121734E-01
        1   -1    0    0  501    0  0.00000000000E+00  0.00000000000E+00  0.26430006024E+04  0.26430006024E+04  0.50400001928E-02 0.  1.
       -1   -1    0    0    0  501  0.00000000000E+00  0.00000000000E+00 -0.11367596503E+04  0.11367596504E+04  0.50400001928E-02 0. -1.
    10030    2    1    2    0    0  0.00000000000E+00  0.00000000000E+00  0.15062409521E+04  0.37797602528E+04  0.34666735876E+04 0.  0.
        1    1    3    3  502    0  0.28741578789E+02 -0.13256092503E+04 -0.46412554440E+03  0.14048054967E+04  0.50400001928E-02 0. -1.
       -1    1    3    3    0  502 -0.28741578789E+02  0.13256092503E+04  0.19703664965E+04  0.23749547560E+04  0.50400001928E-02 0.  1.
</event>
<event>
 5   0  0.3242047E-07  0.3585969E+04  0.7818609E-02  0.8093713E-01
        1   -1    0    0  501    0  0.00000000000E+00  0.00000000000E+00  0.14327018478E+04  0.14327018478E+04  0.50400001928E-02 0. -1.
       -1   -1    0    0    0  501  0.00000000000E+00  0.00000000000E+00 -0.22438679368E+04  0.22438679368E+04  0.50400001928E-02 0.  1.
    10030    2    1    2    0    0  0.00000000000E+00  0.00000000000E+00 -0.81116608902E+03  0.36765697846E+04  0.35859691796E+04 0.  0.
        1    1    3    3  502    0 -0.78651987994E+03 -0.62708142473E+03  0.11161500751E+04  0.15025430526E+04  0.50400001928E-02 0. -1.
       -1    1    3    3    0  502  0.78651987994E+03  0.62708142473E+03 -0.19273161641E+04  0.21740267320E+04  0.50400001928E-02 0.  1.
</event>
<event>
 5   0  0.3242047E-07  0.3599386E+04  0.7818609E-02  0.8090632E-01
       -1   -1    0    0    0  501  0.00000000000E+00  0.00000000000E+00  0.23758323611E+04  0.23758323611E+04  0.50400001928E-02 0.  1.
        1   -1    0    0  501    0  0.00000000000E+00  0.00000000000E+00 -0.13632676709E+04  0.13632676709E+04  0.50400001928E-02 0. -1.
    10030    2    1    2    0    0  0.00000000000E+00  0.00000000000E+00  0.10125646902E+04  0.37391000320E+04  0.35993863084E+04 0.  0.
        1    1    3    3  502    0  0.14398782623E+04  0.59491386964E+03 -0.42964619419E+03  0.16160964621E+04  0.50400001928E-02 0. -1.
       -1    1    3    3    0  502 -0.14398782623E+04 -0.59491386964E+03  0.14422108844E+04  0.21230035699E+04  0.50400001928E-02 0.  1.
</event>
<event>
 5   0  0.9538919E-07  0.2958080E+04  0.7818609E-02  0.8255804E-01
       -2   -1    0    0    0  501  0.00000000000E+00  0.00000000000E+00  0.10524431569E+04  0.10524431569E+04  0.25500000920E-02 0. -1.
        2   -1    0    0  501    0  0.00000000000E+00  0.00000000000E+00 -0.20785529464E+04  0.20785529464E+04  0.25500000920E-02 0.  1.
    10030    2    1    2    0    0  0.00000000000E+00  0.00000000000E+00 -0.10261097895E+04  0.31309961032E+04  0.29580796640E+04 0.  0.
        4    1    3    3  502    0 -0.41777724059E+03  0.81038081623E+03 -0.17457364961E+04  0.19694802403E+04  0.12699999809E+01 0.  1.
       -4    1    3    3    0  502  0.41777724059E+03 -0.81038081623E+03  0.71962670665E+03  0.11615158630E+04  0.12699999809E+01 0. -1.
</event>
<event>
 5   0  0.3365378E-07  0.3578277E+04  0.7818609E-02  0.8095486E-01
       -1   -1    0    0    0  501  0.00000000000E+00  0.00000000000E+00  0.14567343862E+04  0.14567343862E+04  0.50400001928E-02 0. -1.
        1   -1    0    0  501    0  0.00000000000E+00  0.00000000000E+00 -0.21973921751E+04  0.21973921751E+04  0.50400001928E-02 0.  1.
    10030    2    1    2    0    0  0.00000000000E+00  0.00000000000E+00 -0.74065778889E+03  0.36541265613E+04  0.35782770946E+04 0.  0.
        3    1    3    3  502    0 -0.60477510724E+03  0.90515082878E+02  0.13467014121E+04  0.14790370563E+04  0.10100000352E+00 0. -1.
       -3    1    3    3    0  502  0.60477510724E+03 -0.90515082878E+02 -0.20873592010E+04  0.21750895050E+04  0.10100000352E+00 0.  1.
</event>
<event>
 5   0  0.9538919E-07  0.3542406E+04  0.7818609E-02  0.8103813E-01
       -2   -1    0    0    0  501  0.00000000000E+00  0.00000000000E+00  0.16140367419E+04  0.16140367419E+04  0.25500000920E-02 0. -1.
        2   -1    0    0  501    0  0.00000000000E+00  0.00000000000E+00 -0.19436728379E+04  0.19436728379E+04  0.25500000920E-02 0.  1.
    10030    2    1    2    0    0  0.00000000000E+00  0.00000000000E+00 -0.32963609603E+03  0.35577095798E+04  0.35424056090E+04 0.  0.
        4    1    3    3  502    0 -0.28869024930E+03 -0.85990241262E+03 -0.16927002522E+04  0.19204192188E+04  0.12699999809E+01 0.  1.
       -4    1    3    3    0  502  0.28869024930E+03  0.85990241262E+03  0.13630641562E+04  0.16372903610E+04  0.12699999809E+01 0. -1.
</event>
<event>
 5   0  0.9878336E-07  0.3057507E+04  0.7818609E-02  0.8227498E-01
       -2   -1    0    0    0  501  0.00000000000E+00  0.00000000000E+00  0.17706381916E+04  0.17706381916E+04  0.25500000920E-02 0. -1.
        2   -1    0    0  501    0  0.00000000000E+00  0.00000000000E+00 -0.13199120531E+04  0.13199120531E+04  0.25500000920E-02 0.  1.
    10030    2    1    2    0    0  0.00000000000E+00  0.00000000000E+00  0.45072613841E+03  0.30905502447E+04  0.30575066252E+04 0.  0.
        3    1    3    3  502    0 -0.83454576510E+03  0.12067857084E+04  0.65929067906E+03  0.16085591658E+04  0.10100000352E+00 0. -1.
       -3    1    3    3    0  502  0.83454576510E+03 -0.12067857084E+04 -0.20856454065E+03  0.14819910789E+04  0.10100000352E+00 0.  1.
</event>
<event>
 5   0  0.1006019E-06  0.3709309E+04  0.7818609E-02  0.8065902E-01
        2   -1    0    0  501    0  0.00000000000E+00  0.00000000000E+00  0.22802948502E+04  0.22802948502E+04  0.25500000920E-02 0. -1.
       -2   -1    0    0    0  501  0.00000000000E+00  0.00000000000E+00 -0.15084638709E+04  0.15084638709E+04  0.25500000920E-02 0.  1.
    10030    2    1    2    0    0  0.00000000000E+00  0.00000000000E+00  0.77183097924E+03  0.37887587211E+04  0.37093085052E+04 0.  0.
        1    1    3    3  502    0 -0.29763942249E+03  0.17638482424E+04 -0.11446788582E+03  0.17924432334E+04  0.50400001928E-02 0. -1.
       -1    1    3    3    0  502  0.29763942249E+03 -0.17638482424E+04  0.88629886506E+03  0.19963154877E+04  0.50400001928E-02 0.  1.
</event>
<event>
 5   0  0.9538919E-07  0.3564243E+04  0.7818609E-02  0.8098732E-01
        2   -1    0    0  501    0  0.00000000000E+00  0.00000000000E+00  0.20002037357E+04  0.20002037357E+04  0.25500000920E-02 0.  1.
       -2   -1    0    0    0  501  0.00000000000E+00  0.00000000000E+00 -0.15878168574E+04  0.15878168574E+04  0.25500000920E-02 0. -1.
    10030    2    1    2    0    0  0.00000000000E+00  0.00000000000E+00  0.41238687826E+03  0.35880205931E+04  0.35642430948E+04 0.  0.
        4    1    3    3  502    0  0.14012528211E+04  0.96651854728E+03  0.73724277502E+03  0.18550461162E+04  0.12699999809E+01 0.  1.
       -4    1    3    3    0  502 -0.14012528211E+04 -0.96651854728E+03 -0.32485589676E+03  0.17329744769E+04  0.12699999809E+01 0. -1.
</event>
<event>
 5   0  0.3365378E-07  0.3600251E+04  0.7818609E-02  0.8090434E-01
       -1   -1    0    0    0  501  0.00000000000E+00  0.00000000000E+00  0.20655385054E+04  0.20655385054E+04  0.50400001928E-02 0.  1.
        1   -1    0    0  501    0  0.00000000000E+00  0.00000000000E+00 -0.15688168504E+04  0.15688168504E+04  0.50400001928E-02 0. -1.
    10030    2    1    2    0    0  0.00000000000E+00  0.00000000000E+00  0.49672165502E+03  0.36343553558E+04  0.36002508870E+04 0.  0.
        3    1    3    3  502    0 -0.16456081357E+04  0.63829407847E+03  0.60527211845E+03  0.18659581492E+04  0.10100000352E+00 0. -1.
       -3    1    3    3    0  502  0.16456081357E+04 -0.63829407847E+03 -0.10855046343E+03  0.17683972066E+04  0.10100000352E+00 0.  1.
</event>
<event>
 5   0  0.9878336E-07  0.3601954E+04  0.7818609E-02  0.8090044E-01
        2   -1    0    0  501    0  0.00000000000E+00  0.00000000000E+00  0.20129539862E+04  0.20129539862E+04  0.25500000920E-02 0.  1.
       -2   -1    0    0    0  501  0.00000000000E+00  0.00000000000E+00 -0.16113223202E+04  0.16113223202E+04  0.25500000920E-02 0. -1.
    10030    2    1    2    0    0  0.00000000000E+00  0.00000000000E+00  0.40163166596E+03  0.36242763064E+04  0.36019537406E+04 0.  0.
        3    1    3    3  502    0  0.10897805168E+04 -0.24937927793E+03  0.16215529786E+04  0.19695800749E+04  0.10100000352E+00 0.  1.
       -3    1    3    3    0  502 -0.10897805168E+04  0.24937927793E+03 -0.12199213126E+04  0.16546962314E+04  0.10100000352E+00 0. -1.
</event>
<event>
 5   0  0.3365378E-07  0.3608886E+04  0.7818609E-02  0.8088459E-01
        1   -1    0    0  501    0  0.00000000000E+00  0.00000000000E+00  0.15801323144E+04  0.15801323144E+04  0.50400001928E-02 0.  1.
       -1   -1    0    0    0  501  0.00000000000E+00  0.00000000000E+00 -0.20605961857E+04  0.20605961857E+04  0.50400001928E-02 0. -1.
    10030    2    1    2    0    0  0.00000000000E+00  0.00000000000E+00 -0.48046387131E+03  0.36407285001E+04  0.36088860442E+04 0.  0.
        3    1    3    3  502    0  0.56337729053E+03  0.17027428551E+04 -0.40272541669E+02  0.17939757774E+04  0.10100000352E+00 0. -1.
       -3    1    3    3    0  502 -0.56337729053E+03 -0.17027428551E+04 -0.44019132965E+03  0.18467527227E+04  0.10100000352E+00 0.  1.
</event>
<event>
 5   0  0.9538919E-07  0.3606548E+04  0.7818609E-02  0.8088994E-01
       -2   -1    0    0    0  501  0.00000000000E+00  0.00000000000E+00  0.13000120221E+04  0.13000120221E+04  0.25500000920E-02 0.  1.
        2   -1    0    0  501    0  0.00000000000E+00  0.00000000000E+00 -0.25013586093E+04  0.25013586093E+04  0.25500000920E-02 0. -1.
    10030    2    1    2    0    0  0.00000000000E+00  0.00000000000E+00 -0.12013465872E+04  0.38013706314E+04  0.36065475256E+04 0.  0.
        4    1    3    3  502    0 -0.39336917375E+03  0.52640675491E+03  0.11693107759E+04  0.13413175172E+04  0.12699999809E+01 0.  1.
       -4    1    3    3    0  502  0.39336917375E+03 -0.52640675491E+03 -0.23706573631E+04  0.24600531141E+04  0.12699999809E+01 0. -1.
</event>
<event>
 5   0  0.1031659E-06  0.3568466E+04  0.7818609E-02  0.8097753E-01
       -2   -1    0    0    0  501  0.00000000000E+00  0.00000000000E+00  0.17554232528E+04  0.17554232528E+04  0.25500000920E-02 0. -1.
        2   -1    0    0  501    0  0.00000000000E+00  0.00000000000E+00 -0.18135151823E+04  0.18135151823E+04  0.25500000920E-02 0.  1.
    10030    2    1    2    0    0  0.00000000000E+00  0.00000000000E+00 -0.58091929543E+02  0.35689384351E+04  0.35684656200E+04 0.  0.
        2    1    3    3  502    0  0.92218161271E+03 -0.13515303746E+04 -0.74078162629E+03  0.17960542024E+04  0.25500000920E-02 0.  1.
       -2    1    3    3    0  502 -0.92218161271E+03  0.13515303746E+04  0.68268969675E+03  0.17728842326E+04  0.25500000920E-02 0. -1.
</event>
<event>
 5   0  0.1006019E-06  0.3635837E+04  0.7818609E-02  0.8082332E-01
        2   -1    0    0  501    0  0.00000000000E+00  0.00000000000E+00  0.17488353298E+04  0.17488353299E+04  0.25500000920E-02 0. -1.
       -2   -1    0    0    0  501  0.00000000000E+00  0.00000000000E+00 -0.18897308977E+04  0.18897308977E+04  0.25500000920E-02 0.  1.
    10030    2    1    2    0    0  0.00000000000E+00  0.00000000000E+00 -0.14089556787E+03  0.36385662276E+04  0.36358372669E+04 0.  0.
        1    1    3    3  502    0  0.77805780326E+01 -0.21102270371E+03  0.17365201091E+04  0.17493122100E+04  0.50400001928E-02 0. -1.
       -1    1    3    3    0  502 -0.77805780326E+01  0.21102270371E+03 -0.18774156769E+04  0.18892540176E+04  0.50400001928E-02 0.  1.
</event>
<event>
 5   0  0.9878336E-07  0.3308375E+04  0.7818609E-02  0.8160768E-01
        2   -1    0    0  501    0  0.00000000000E+00  0.00000000000E+00  0.15958565438E+04  0.15958565438E+04  0.25500000920E-02 0.  1.
       -2   -1    0    0    0  501  0.00000000000E+00  0.00000000000E+00 -0.17146503764E+04  0.17146503764E+04  0.25500000920E-02 0. -1.
    10030    2    1    2    0    0  0.00000000000E+00  0.00000000000E+00 -0.11879383265E+03  0.33105069202E+04  0.33083748418E+04 0.  0.
        3    1    3    3  502    0  0.49509173351E+02 -0.83515280468E+03  0.13685492349E+04  0.16040132119E+04  0.10100000352E+00 0.  1.
       -3    1    3    3    0  502 -0.49509173351E+02  0.83515280468E+03 -0.14873430676E+04  0.17064937082E+04  0.10100000352E+00 0. -1.
</event>
<event>
 5   0  0.1031659E-06  0.3670632E+04  0.7818609E-02  0.8074501E-01
       -2   -1    0    0    0  501  0.00000000000E+00  0.00000000000E+00  0.15965924487E+04  0.15965924487E+04  0.25500000920E-02 0.  1.
        2   -1    0    0  501    0  0.00000000000E+00  0.00000000000E+00 -0.21097341277E+04  0.21097341277E+04  0.25500000920E-02 0. -1.
    10030    2    1    2    0    0  0.00000000000E+00  0.00000000000E+00 -0.51314167897E+03  0.37063265764E+04  0.36706324126E+04 0.  0.
        2    1    3    3  502    0  0.14904807203E+04  0.67366573320E+03  0.58400703314E+03  0.17367851083E+04  0.25500000920E-02 0.  1.
       -2    1    3    3    0  502 -0.14904807203E+04 -0.67366573320E+03 -0.10971487121E+04  0.19695414680E+04  0.25500000920E-02 0. -1.
</event>
<event>
 5   0  0.3159875E-07  0.3591395E+04  0.7818609E-02  0.8092466E-01
        1   -1    0    0  501    0  0.00000000000E+00  0.00000000000E+00  0.13782285347E+04  0.13782285347E+04  0.50400001928E-02 0. -1.
       -1   -1    0    0    0  501  0.00000000000E+00  0.00000000000E+00 -0.23396194037E+04  0.23396194037E+04  0.50400001928E-02 0.  1.
    10030    2    1    2    0    0  0.00000000000E+00  0.00000000000E+00 -0.96139086899E+03  0.37178479384E+04  0.35913953959E+04 0.  0.
        2    1    3    3  502    0  0.10536586377E+03 -0.11754366227E+04  0.92039027223E+03  0.14966200161E+04  0.25500000920E-02 0. -1.
       -2    1    3    3    0  502 -0.10536586377E+03  0.11754366227E+04 -0.18817811412E+04  0.22212279223E+04  0.25500000920E-02 0.  1.
</event>
<event>
 5   0  0.3159875E-07  0.3556258E+04  0.7818609E-02  0.8100586E-01
        1   -1    0    0  501    0  0.00000000000E+00  0.00000000000E+00  0.14738955688E+04  0.14738955688E+04  0.50400001928E-02 0.  1.
       -1   -1    0    0    0  501  0.00000000000E+00  0.00000000000E+00 -0.21451602837E+04  0.21451602837E+04  0.50400001928E-02 0. -1.
    10030    2    1    2    0    0  0.00000000000E+00  0.00000000000E+00 -0.67126471496E+03  0.36190558525E+04  0.35562577165E+04 0.  0.
        2    1    3    3  502    0 -0.11303908944E+03 -0.16222580149E+04 -0.10675285883E+04  0.19452804912E+04  0.25500000920E-02 0. -1.
       -2    1    3    3    0  502  0.11303908944E+03  0.16222580149E+04  0.39626387337E+03  0.16737753613E+04  0.25500000920E-02 0.  1.
</event>
<event>
 5   0  0.3278988E-07  0.3622270E+04  0.7818609E-02  0.8085409E-01
       -1   -1    0    0    0  501  0.00000000000E+00  0.00000000000E+00  0.30077004638E+04  0.30077004638E+04  0.50400001928E-02 0. -1.
        1   -1    0    0  501    0  0.00000000000E+00  0.00000000000E+00 -0.10906038555E+04  0.10906038555E+04  0.50400001928E-02 0.  1.
    10030    2    1    2    0    0  0.00000000000E+00  0.00000000000E+00  0.19170966083E+04  0.40983043194E+04  0.36222698531E+04 0.  0.
        4    1    3    3  502    0 -0.35376468793E+03 -0.39625807507E+03  0.29175823469E+04  0.29655451911E+04  0.12699999809E+01 0. -1.
       -4    1    3    3    0  502  0.35376468793E+03  0.39625807507E+03 -0.10004857387E+04  0.11327591283E+04  0.12699999809E+01 0.  1.
</event>
<event>
 5   0  0.3159875E-07  0.3235572E+04  0.7818609E-02  0.8179485E-01
       -1   -1    0    0    0  501  0.00000000000E+00  0.00000000000E+00  0.12960543352E+04  0.12960543352E+04  0.50400001928E-02 0. -1.
        1   -1    0    0  501    0  0.00000000000E+00  0.00000000000E+00 -0.20193846214E+04  0.20193846214E+04  0.50400001928E-02 0.  1.
    10030    2    1    2    0    0  0.00000000000E+00  0.00000000000E+00 -0.72333028617E+03  0.33154389566E+04  0.32355724026E+04 0.  0.
        5    1    3    3  502    0 -0.15699876236E+04 -0.37482563861E+03 -0.47323202562E+03  0.16820600577E+04  0.46999998093E+01 0.  1.
       -5    1    3    3    0  502  0.15699876236E+04  0.37482563861E+03 -0.25009826055E+03  0.16333788989E+04  0.46999998093E+01 0. -1.
</event>
<event>
 5   0  0.3159875E-07  0.3609904E+04  0.7818609E-02  0.8088227E-01
       -1   -1    0    0    0  501  0.00000000000E+00  0.00000000000E+00  0.14896191914E+04  0.14896191914E+04  0.50400001928E-02 0.  1.
        1   -1    0    0  501    0  0.00000000000E+00  0.00000000000E+00 -0.21870367661E+04  0.21870367661E+04  0.50400001928E-02 0. -1.
    10030    2    1    2    0    0  0.00000000000E+00  0.00000000000E+00 -0.69741757472E+03  0.36766559576E+04  0.36099041202E+04 0.  0.
        5    1    3    3  502    0 -0.11906792539E+04 -0.85056779488E+01  0.10328552088E+04  0.15762618451E+04  0.46999998093E+01 0.  1.
       -5    1    3    3    0  502  0.11906792539E+04  0.85056779488E+01 -0.17302727835E+04  0.21003941124E+04  0.46999998093E+01 0. -1.
</event>
<event>
 5   0  0.9878336E-07  0.3626574E+04  0.7818609E-02  0.8084432E-01
        2   -1    0    0  501    0  0.00000000000E+00  0.00000000000E+00  0.23321094711E+04  0.23321094711E+04  0.25500000920E-02 0.  1.
       -2   -1    0    0    0  501  0.00000000000E+00  0.00000000000E+00 -0.14098864003E+04  0.14098864003E+04  0.25500000920E-02 0. -1.
    10030    2    1    2    0    0  0.00000000000E+00  0.00000000000E+00  0.92222307084E+03  0.37419958714E+04  0.36265738251E+04 0.  0.
        3    1    3    3  502    0 -0.11490927827E+04  0.13705106049E+04  0.76944629132E+03  0.19469877110E+04  0.10100000352E+00 0. -1.
       -3    1    3    3    0  502  0.11490927827E+04 -0.13705106049E+04  0.15277677953E+03  0.17950081604E+04  0.10100000352E+00 0.  1.
</event>
<event>
 5   0  0.9878336E-07  0.3627118E+04  0.7818609E-02  0.8084308E-01
        2   -1    0    0  501    0  0.00000000000E+00  0.00000000000E+00  0.19287524295E+04  0.19287524295E+04  0.25500000920E-02 0. -1.
       -2   -1    0    0    0  501  0.00000000000E+00  0.00000000000E+00 -0.17052454647E+04  0.17052454647E+04  0.25500000920E-02 0.  1.
    10030    2    1    2    0    0  0.00000000000E+00  0.00000000000E+00  0.22350696475E+03  0.36339978942E+04  0.36271180477E+04 0.  0.
        3    1    3    3  502    0  0.96156158079E+03 -0.92936226715E+03  0.13391001127E+04  0.18924862006E+04  0.10100000352E+00 0. -1.
       -3    1    3    3    0  502 -0.96156158079E+03  0.92936226715E+03 -0.11155931480E+04  0.17415116937E+04  0.10100000352E+00 0.  1.
</event>
<event>
 5   0  0.3159875E-07  0.3633473E+04  0.7818609E-02  0.8082867E-01
        3   -1    0    0  501    0  0.00000000000E+00  0.00000000000E+00  0.23608339375E+04  0.23608339397E+04  0.10100000352E+00 0.  1.
       -3   -1    0    0    0  501  0.00000000000E+00  0.00000000000E+00 -0.13980360794E+04  0.13980360831E+04  0.10100000352E+00 0. -1.
    10030    2    1    2    0    0  0.00000000000E+00  0.00000000000E+00  0.96279785809E+03  0.37588700227E+04  0.36334727372E+04 0.  0.
        4    1    3    3  502    0 -0.37232883736E+03 -0.66121819535E+03 -0.12262321233E+04  0.14420419891E+04  0.12699999809E+01 0. -1.
       -4    1    3    3    0  502  0.37232883736E+03  0.66121819535E+03  0.21890299814E+04  0.23168280336E+04  0.12699999809E+01 0.  1.
</event>
<event>
 5   0  0.1006019E-06  0.3650857E+04  0.7818609E-02  0.8078941E-01
       -2   -1    0    0    0  501  0.00000000000E+00  0.00000000000E+00  0.20504311842E+04  0.20504311842E+04  0.25500000920E-02 0. -1.
        2   -1    0    0  501    0  0.00000000000E+00  0.00000000000E+00 -0.16251159730E+04  0.16251159730E+04  0.25500000920E-02 0.  1.
    10030    2    1    2    0    0  0.00000000000E+00  0.00000000000E+00  0.42531521124E+03  0.36755471572E+04  0.36508565948E+04 0.  0.
        1    1    3    3  502    0  0.36516069640E+03  0.13267464140E+04 -0.99486635373E+03  0.16980451828E+04  0.50400001928E-02 0.  1.
       -1    1    3    3    0  502 -0.36516069640E+03 -0.13267464140E+04  0.14201815650E+04  0.19775019744E+04  0.50400001928E-02 0. -1.
</event>
<event>
 5   0  0.3159875E-07  0.3500521E+04  0.7818609E-02  0.8113666E-01
       -1   -1    0    0    0  501  0.00000000000E+00  0.00000000000E+00  0.21928540023E+04  0.21928540023E+04  0.50400001928E-02 0.  1.
        1   -1    0    0  501    0  0.00000000000E+00  0.00000000000E+00 -0.13969979382E+04  0.13969979382E+04  0.50400001928E-02 0. -1.
    10030    2    1    2    0    0  0.00000000000E+00  0.00000000000E+00  0.79585606405E+03  0.35898519405E+04  0.35005214011E+04 0.  0.
        2    1    3    3  502    0  0.10463842756E+03 -0.55014571787E+03 -0.13026422728E+04  0.14179162183E+04  0.25500000920E-02 0. -1.
       -2    1    3    3    0  502 -0.10463842756E+03  0.55014571787E+03  0.20984983368E+04  0.21719357221E+04  0.25500000920E-02 0.  1.
</event>
<event>
 5   0  0.9878336E-07  0.3617612E+04  0.7818609E-02  0.8086469E-01
       -2   -1    0    0    0  501  0.00000000000E+00  0.00000000000E+00  0.17942184786E+04  0.17942184786E+04  0.25500000920E-02 0. -1.
        2   -1    0    0  501    0  0.00000000000E+00  0.00000000000E+00 -0.18235117804E+04  0.18235117804E+04  0.25500000920E-02 0.  1.
    10030    2    1    2    0    0  0.00000000000E+00  0.00000000000E+00 -0.29293301834E+02  0.36177302590E+04  0.36176116609E+04 0.  0.
        3    1    3    3  502    0 -0.15632827681E+04 -0.78936595114E+03 -0.46723955210E+03  0.18125298417E+04  0.10100000352E+00 0.  1.
       -3    1    3    3    0  502  0.15632827681E+04  0.78936595114E+03  0.43794625027E+03  0.18052004172E+04  0.10100000352E+00 0. -1.
</event>
<event>
 5   0  0.9538919E-07  0.3447648E+04  0.7818609E-02  0.8126310E-01
       -2   -1    0    0    0  501  0.00000000000E+00  0.00000000000E+00  0.12023372583E+04  0.12023372583E+04  0.25500000920E-02 0. -1.
        2   -1    0    0  501    0  0.00000000000E+00  0.00000000000E+00 -0.24714933401E+04  0.24714933401E+04  0.25500000920E-02 0.  1.
    10030    2    1    2    0    0  0.00000000000E+00  0.00000000000E+00 -0.12691560818E+04  0.36738305985E+04  0.34476476192E+04 0.  0.
        4    1    3    3  502    0 -0.10310913749E+04 -0.12216886644E+04 -0.13217853015E+04  0.20743169025E+04  0.12699999809E+01 0.  1.
       -4    1    3    3    0  502  0.10310913749E+04  0.12216886644E+04  0.52629219666E+02  0.15995136960E+04  0.12699999809E+01 0. -1.
</event>
<event>
 5   0  0.9878977E-07  0.3694285E+04  0.7818609E-02  0.8069229E-01
        2   -1    0    0  501    0  0.00000000000E+00  0.00000000000E+00  0.20538800376E+04  0.20538800376E+04  0.25500000920E-02 0. -1.
       -2   -1    0    0    0  501  0.00000000000E+00  0.00000000000E+00 -0.16612146960E+04  0.16612146960E+04  0.25500000920E-02 0.  1.
    10030    2    1    2    0    0  0.00000000000E+00  0.00000000000E+00  0.39266534157E+03  0.37150947336E+04  0.36942851554E+04 0.  0.
        5    1    3    3  502    0 -0.95860480155E+02 -0.11562499923E+04  0.16417215228E+04  0.20103171205E+04  0.46999998093E+01 0. -1.
       -5    1    3    3    0  502  0.95860480155E+02  0.11562499923E+04 -0.12490561812E+04  0.17047776131E+04  0.46999998093E+01 0.  1.
</event>
<event>
 5   0  0.3242047E-07  0.3236321E+04  0.7818609E-02  0.8179290E-01
       -1   -1    0    0    0  501  0.00000000000E+00  0.00000000000E+00  0.15569746581E+04  0.15569746581E+04  0.50400001928E-02 0.  1.
        1   -1    0    0  501    0  0.00000000000E+00  0.00000000000E+00 -0.16817511643E+04  0.16817511643E+04  0.50400001928E-02 0. -1.
    10030    2    1    2    0    0  0.00000000000E+00  0.00000000000E+00 -0.12477650619E+03  0.32387258224E+04  0.32363213338E+04 0.  0.
        1    1    3    3  502    0 -0.12580754045E+04 -0.69684647938E+03 -0.80462333467E+03  0.16479585705E+04  0.50400001928E-02 0. -1.
       -1    1    3    3    0  502  0.12580754045E+04  0.69684647938E+03  0.67984682848E+03  0.15907672519E+04  0.50400001928E-02 0.  1.
</event>
<event>
 5   0  0.3365378E-07  0.3603596E+04  0.7818609E-02  0.8089668E-01
        1   -1    0    0  501    0  0.00000000000E+00  0.00000000000E+00  0.25894160049E+04  0.25894160049E+04  0.50400001928E-02 0. -1.
       -1   -1    0    0    0  501  0.00000000000E+00  0.00000000000E+00 -0.12537483838E+04  0.12537483838E+04  0.50400001928E-02 0.  1.
    10030    2    1    2    0    0  0.00000000000E+00  0.00000000000E+00  0.13356676212E+04  0.38431643887E+04  0.36035960545E+04 0.  0.
        3    1    3    3  502    0 -0.53854771556E+03 -0.10648490183E+04 -0.77193008786E+03  0.14212013033E+04  0.10100000352E+00 0.  1.
       -3    1    3    3    0  502  0.53854771556E+03  0.10648490183E+04  0.21075977091E+04  0.24219630854E+04  0.10100000352E+00 0. -1.
</event>
<event>
 5   0  0.3278988E-07  0.3597838E+04  0.7818609E-02  0.8090987E-01
        1   -1    0    0  501    0  0.00000000000E+00  0.00000000000E+00  0.16708264646E+04  0.16708264646E+04  0.50400001928E-02 0.  1.
       -1   -1    0    0    0  501  0.00000000000E+00  0.00000000000E+00 -0.19368311771E+04  0.19368311771E+04  0.50400001928E-02 0. -1.
    10030    2    1    2    0    0  0.00000000000E+00  0.00000000000E+00 -0.26600471253E+03  0.36076576418E+04  0.35978375662E+04 0.  0.
        4    1    3    3  502    0 -0.90322742028E+03  0.75776059447E+03  0.12294137308E+04  0.17033733078E+04  0.12699999809E+01 0.  1.
       -4    1    3    3    0  502  0.90322742028E+03 -0.75776059447E+03 -0.14954184433E+04  0.19042843340E+04  0.12699999809E+01 0. -1.
</event>
<event>
 5   0  0.3159875E-07  0.3596845E+04  0.7818609E-02  0.8091215E-01
       -1   -1    0    0    0  501  0.00000000000E+00  0.00000000000E+00  0.17728341033E+04  0.17728341033E+04  0.50400001928E-02 0.  1.
        1   -1    0    0  501    0  0.00000000000E+00  0.00000000000E+00 -0.18243803178E+04  0.18243803178E+04  0.50400001928E-02 0. -1.
    10030    2    1    2    0    0  0.00000000000E+00  0.00000000000E+00 -0.51546214521E+02  0.35972144211E+04  0.35968450869E+04 0.  0.
        5    1    3    3  502    0  0.75314519605E+03  0.14912924027E+04 -0.69151468208E+03  0.18081469416E+04  0.46999998093E+01 0.  1.
       -5    1    3    3    0  502 -0.75314519605E+03 -0.14912924027E+04  0.63996846756E+03  0.17890674795E+04  0.46999998093E+01 0. -1.
</event>
<event>
 5   0  0.9878336E-07  0.3598299E+04  0.7818609E-02  0.8090881E-01
       -2   -1    0    0    0  501  0.00000000000E+00  0.00000000000E+00  0.90260380586E+03  0.90260380586E+03  0.25500000920E-02 0. -1.
        2   -1    0    0  501    0  0.00000000000E+00  0.00000000000E+00 -0.35862242807E+04  0.35862242807E+04  0.25500000920E-02 0.  1.
    10030    2    1    2    0    0  0.00000000000E+00  0.00000000000E+00 -0.26836204749E+04  0.44888280866E+04  0.35982994230E+04 0.  0.
        3    1    3    3  502    0  0.14055184282E+04 -0.52605658745E+03 -0.25797300505E+04  0.29844973997E+04  0.10100000352E+00 0.  1.
       -3    1    3    3    0  502 -0.14055184282E+04  0.52605658745E+03 -0.10389042442E+03  0.15043306869E+04  0.10100000352E+00 0. -1.
</event>
<event>
 5   0  0.3159875E-07  0.3594670E+04  0.7818609E-02  0.8091714E-01
        1   -1    0    0  501    0  0.00000000000E+00  0.00000000000E+00  0.21376276878E+04  0.21376276878E+04  0.50400001928E-02 0.  1.
       -1   -1    0    0    0  501  0.00000000000E+00  0.00000000000E+00 -0.15112138098E+04  0.15112138098E+04  0.50400001928E-02 0. -1.
    10030    2    1    2    0    0  0.00000000000E+00  0.00000000000E+00  0.62641387797E+03  0.36488414976E+04  0.35946696550E+04 0.  0.
        2    1    3    3  502    0 -0.84010632692E+03  0.94918920799E+03  0.16066442645E+04  0.20464712521E+04  0.25500000920E-02 0.  1.
       -2    1    3    3    0  502  0.84010632692E+03 -0.94918920799E+03 -0.98023038651E+03  0.16023702455E+04  0.25500000920E-02 0. -1.
</event>
<event>
 5   0  0.3278988E-07  0.3603685E+04  0.7818609E-02  0.8089648E-01
       -1   -1    0    0    0  501  0.00000000000E+00  0.00000000000E+00  0.15444616825E+04  0.15444616825E+04  0.50400001928E-02 0.  1.
        1   -1    0    0  501    0  0.00000000000E+00  0.00000000000E+00 -0.21021148833E+04  0.21021148833E+04  0.50400001928E-02 0. -1.
    10030    2    1    2    0    0  0.00000000000E+00  0.00000000000E+00 -0.55765320083E+03  0.36465765658E+04  0.36036847196E+04 0.  0.
        4    1    3    3  502    0 -0.11653588173E+04 -0.17875647506E+03  0.10999692579E+04  0.16124357450E+04  0.12699999809E+01 0.  1.
       -4    1    3    3    0  502  0.11653588173E+04  0.17875647506E+03 -0.16576224588E+04  0.20341408208E+04  0.12699999809E+01 0. -1.
</event>
<event>
 5   0  0.3365378E-07  0.3579779E+04  0.7818609E-02  0.8095139E-01
       -1   -1    0    0    0  501  0.00000000000E+00  0.00000000000E+00  0.14124407162E+04  0.14124407162E+04  0.50400001928E-02 0.  1.
        1   -1    0    0  501    0  0.00000000000E+00  0.00000000000E+00 -0.22682048699E+04  0.22682048699E+04  0.50400001928E-02 0. -1.
    10030    2    1    2    0    0  0.00000000000E+00  0.00000000000E+00 -0.85576415378E+03  0.36806455861E+04  0.35797792730E+04 0.  0.
        3    1    3    3  502    0  0.87615076561E+03 -0.14200849174E+04 -0.10937593077E+04  0.19951417919E+04  0.10100000352E+00 0. -1.
       -3    1    3    3    0  502 -0.87615076561E+03  0.14200849174E+04  0.23799515391E+03  0.16855037941E+04  0.10100000352E+00 0.  1.
</event>
<event>
 5   0  0.3278988E-07  0.3336736E+04  0.7818609E-02  0.8153610E-01
       -1   -1    0    0    0  501  0.00000000000E+00  0.00000000000E+00  0.16105066247E+04  0.16105066247E+04  0.50400001928E-02 0. -1.
        1   -1    0    0  501    0  0.00000000000E+00  0.00000000000E+00 -0.17283079313E+04  0.17283079313E+04  0.50400001928E-02 0.  1.
    10030    2    1    2    0    0  0.00000000000E+00  0.00000000000E+00 -0.11780130665E+03  0.33388145560E+04  0.33367357539E+04 0.  0.
        4    1    3    3  502    0 -0.10783212275E+04  0.87678046647E+03  0.86467443637E+03  0.16368213555E+04  0.12699999809E+01 0. -1.
       -4    1    3    3    0  502  0.10783212275E+04 -0.87678046647E+03 -0.98247574302E+03  0.17019932005E+04  0.12699999809E+01 0.  1.
</event>
<event>
 5   0  0.1031659E-06  0.3646491E+04  0.7818609E-02  0.8079925E-01
        2   -1    0    0  501    0  0.00000000000E+00  0.00000000000E+00  0.25147150133E+04  0.25147150133E+04  0.25500000920E-02 0.  1.
       -2   -1    0    0    0  501  0.00000000000E+00  0.00000000000E+00 -0.13219086664E+04  0.13219086664E+04  0.25500000920E-02 0. -1.
    10030    2    1    2    0    0  0.00000000000E+00  0.00000000000E+00  0.11928063468E+04  0.38366236797E+04  0.36464906799E+04 0.  0.
        2    1    3    3  502    0  0.17922207679E+04 -0.22050572611E+03  0.86162944587E+03  0.20007706910E+04  0.25500000920E-02 0.  1.
       -2    1    3    3    0  502 -0.17922207679E+04  0.22050572611E+03  0.33117690097E+03  0.18358529886E+04  0.25500000920E-02 0. -1.
</event>
<event>
 5   0  0.9878977E-07  0.3597414E+04  0.7818609E-02  0.8091084E-01
       -2   -1    0    0    0  501  0.00000000000E+00  0.00000000000E+00  0.18819513367E+04  0.18819513367E+04  0.25500000920E-02 0.  1.
        2   -1    0    0  501    0  0.00000000000E+00  0.00000000000E+00 -0.17191452216E+04  0.17191452216E+04  0.25500000920E-02 0. -1.
    10030    2    1    2    0    0  0.00000000000E+00  0.00000000000E+00  0.16280611509E+03  0.36010965582E+04  0.35974144313E+04 0.  0.
        5    1    3    3  502    0  0.15134818787E+04 -0.77653441836E+03  0.66654602537E+03  0.18270026804E+04  0.46999998093E+01 0.  1.
       -5    1    3    3    0  502 -0.15134818787E+04  0.77653441836E+03 -0.50373991028E+03  0.17740938778E+04  0.46999998093E+01 0. -1.
</event>
<event>
 5   0  0.9878336E-07  0.3446406E+04  0.7818609E-02  0.8126610E-01
        2   -1    0    0  501    0  0.00000000000E+00  0.00000000000E+00  0.21765007964E+04  0.21765007964E+04  0.25500000920E-02 0. -1.
       -2   -1    0    0    0  501  0.00000000000E+00  0.00000000000E+00 -0.13643132273E+04  0.13643132273E+04  0.25500000920E-02 0.  1.
    10030    2    1    2    0    0  0.00000000000E+00  0.00000000000E+00  0.81218756910E+03  0.35408140237E+04  0.34464061431E+04 0.  0.
        3    1    3    3  502    0 -0.79092166046E+03  0.31581509506E+03  0.19451727942E+04  0.21234390636E+04  0.10100000352E+00 0. -1.
       -3    1    3    3    0  502  0.79092166046E+03 -0.31581509506E+03 -0.11329852251E+04  0.14173749602E+04  0.10100000352E+00 0.  1.
</event>
<event>
 5   0  0.9878977E-07  0.3580820E+04  0.7818609E-02  0.8094899E-01
       -2   -1    0    0    0  501  0.00000000000E+00  0.00000000000E+00  0.18835951333E+04  0.18835951333E+04  0.25500000920E-02 0. -1.
        2   -1    0    0  501    0  0.00000000000E+00  0.00000000000E+00 -0.17018344728E+04  0.17018344728E+04  0.25500000920E-02 0.  1.
    10030    2    1    2    0    0  0.00000000000E+00  0.00000000000E+00  0.18176066050E+03  0.35854296062E+04  0.35808195323E+04 0.  0.
        5    1    3    3  502    0 -0.12638232070E+04 -0.26549328143E+03  0.13325612348E+04  0.18556608838E+04  0.46999998093E+01 0. -1.
       -5    1    3    3    0  502  0.12638232070E+04  0.26549328143E+03 -0.11508005743E+04  0.17297687224E+04  0.46999998093E+01 0.  1.
</event>
<event>
 5   0  0.3278988E-07  0.3623573E+04  0.7818609E-02  0.8085113E-01
        1   -1    0    0  501    0  0.00000000000E+00  0.00000000000E+00  0.21532938938E+04  0.21532938938E+04  0.50400001928E-02 0.  1.
       -1   -1    0    0    0  501  0.00000000000E+00  0.00000000000E+00 -0.15244410577E+04  0.15244410577E+04  0.50400001928E-02 0. -1.
    10030    2    1    2    0    0  0.00000000000E+00  0.00000000000E+00  0.62885283609E+03  0.36777349515E+04  0.36235726133E+04 0.  0.
        4    1    3    3  502    0 -0.52933840436E+03  0.21351601640E+03  0.20596575351E+04  0.21372830908E+04  0.12699999809E+01 0.  1.
       -4    1    3    3    0  502  0.52933840436E+03 -0.21351601640E+03 -0.14308046990E+04  0.15404518607E+04  0.12699999809E+01 0. -1.
</event>
<event>
 5   0  0.3159875E-07  0.3408258E+04  0.7818609E-02  0.8135883E-01
        1   -1    0    0  501    0  0.00000000000E+00  0.00000000000E+00  0.23681827940E+04  0.23681827940E+04  0.50400001928E-02 0. -1.
       -1   -1    0    0    0  501  0.00000000000E+00  0.00000000000E+00 -0.12262799592E+04  0.12262799592E+04  0.50400001928E-02 0.  1.
    10030    2    1    2    0    0  0.00000000000E+00  0.00000000000E+00  0.11419028348E+04  0.35944627532E+04  0.34082576781E+04 0.  0.
        5    1    3    3  502    0  0.10751974384E+04  0.10145514099E+04  0.14650100404E+04  0.20812593792E+04  0.46999998093E+01 0. -1.
       -5    1    3    3    0  502 -0.10751974384E+04 -0.10145514099E+04 -0.32310720562E+03  0.15132033740E+04  0.46999998093E+01 0.  1.
</event>
<event>
 5   0  0.3365378E-07  0.3645939E+04  0.7818609E-02  0.8080049E-01
       -1   -1    0    0    0  501  0.00000000000E+00  0.00000000000E+00  0.15127897366E+04  0.15127897366E+04  0.50400001928E-02 0.  1.
        1   -1    0    0  501    0  0.00000000000E+00  0.00000000000E+00 -0.21967478533E+04  0.21967478533E+04  0.50400001928E-02 0. -1.
    10030    2    1    2    0    0  0.00000000000E+00  0.00000000000E+00 -0.68395811676E+03  0.37095375899E+04  0.36459388949E+04 0.  0.
        3    1    3    3  502    0  0.14057185988E+04  0.31985965310E+03  0.79321759907E+03  0.16454632012E+04  0.10100000352E+00 0.  1.
       -3    1    3    3    0  502 -0.14057185988E+04 -0.31985965310E+03 -0.14771757158E+04  0.20640743888E+04  0.10100000352E+00 0. -1.
</event>
<event>
 5   0  0.3159875E-07  0.3632785E+04  0.7818609E-02  0.8083023E-01
        1   -1    0    0  501    0  0.00000000000E+00  0.00000000000E+00  0.23542068086E+04  0.23542068086E+04  0.50400001928E-02 0.  1.
       -1   -1    0    0    0  501  0.00000000000E+00  0.00000000000E+00 -0.14014409232E+04  0.14014409232E+04  0.50400001928E-02 0. -1.
    10030    2    1    2    0    0  0.00000000000E+00  0.00000000000E+00  0.95276588538E+03  0.37556477318E+04  0.36327850271E+04 0.  0.
        5    1    3    3  502    0 -0.88975119101E+03 -0.12515763221E+04 -0.52656108674E+03  0.16233881668E+04  0.46999998093E+01 0.  1.
       -5    1    3    3    0  502  0.88975119101E+03  0.12515763221E+04  0.14793269721E+04  0.21322595650E+04  0.46999998093E+01 0. -1.
</event>
<event>
 5   0  0.1031659E-06  0.3605005E+04  0.7818609E-02  0.8089346E-01
        2   -1    0    0  501    0  0.00000000000E+00  0.00000000000E+00  0.24289568946E+04  0.24289568946E+04  0.25500000920E-02 0. -1.
       -2   -1    0    0    0  501  0.00000000000E+00  0.00000000000E+00 -0.13376177348E+04  0.13376177348E+04  0.25500000920E-02 0.  1.
    10030    2    1    2    0    0  0.00000000000E+00  0.00000000000E+00  0.10913391598E+04  0.37665746293E+04  0.36050053088E+04 0.  0.
        2    1    3    3  502    0  0.31384461009E+03 -0.16852492187E+04  0.11278240204E+04  0.20519625702E+04  0.25500000920E-02 0. -1.
       -2    1    3    3    0  502 -0.31384461009E+03  0.16852492187E+04 -0.36484860615E+02  0.17146120592E+04  0.25500000920E-02 0.  1.
</event>
<event>
 5   0  0.9878336E-07  0.3657110E+04  0.7818609E-02  0.8077534E-01
       -2   -1    0    0    0  501  0.00000000000E+00  0.00000000000E+00  0.15580536961E+04  0.15580536961E+04  0.25500000920E-02 0.  1.
        2   -1    0    0  501    0  0.00000000000E+00  0.00000000000E+00 -0.21460195435E+04  0.21460195435E+04  0.25500000920E-02 0. -1.
    10030    2    1    2    0    0  0.00000000000E+00  0.00000000000E+00 -0.58796584746E+03  0.37040732396E+04  0.36571101606E+04 0.  0.
        3    1    3    3  502    0 -0.19218350046E+02  0.10662021452E+04 -0.17984728620E+04  0.20908517415E+04  0.10100000352E+00 0. -1.
       -3    1    3    3    0  502  0.19218350046E+02 -0.10662021452E+04  0.12105070145E+04  0.16132214981E+04  0.10100000352E+00 0.  1.
</event>
<event>
 5   0  0.9878336E-07  0.3420155E+04  0.7818609E-02  0.8132977E-01
       -2   -1    0    0    0  501  0.00000000000E+00  0.00000000000E+00  0.13981337983E+04  0.13981337983E+04  0.25500000920E-02 0.  1.
        2   -1    0    0  501    0  0.00000000000E+00  0.00000000000E+00 -0.20916202379E+04  0.20916202379E+04  0.25500000920E-02 0. -1.
    10030    2    1    2    0    0  0.00000000000E+00  0.00000000000E+00 -0.69348643958E+03  0.34897540361E+04  0.34201549367E+04 0.  0.
        3    1    3    3  502    0  0.13597309693E+04 -0.32984122123E+03 -0.13499609775E+04  0.19442371746E+04  0.10100000352E+00 0. -1.
       -3    1    3    3    0  502 -0.13597309693E+04  0.32984122123E+03  0.65647453788E+03  0.15455168615E+04  0.10100000352E+00 0.  1.
</event>
<event>
 5   0  0.3159875E-07  0.3547979E+04  0.7818609E-02  0.8102513E-01
       -1   -1    0    0    0  501  0.00000000000E+00  0.00000000000E+00  0.17531495091E+04  0.17531495091E+04  0.50400001928E-02 0. -1.
        1   -1    0    0  501    0  0.00000000000E+00  0.00000000000E+00 -0.17950776371E+04  0.17950776371E+04  0.50400001928E-02 0.  1.
    10030    2    1    2    0    0  0.00000000000E+00  0.00000000000E+00 -0.41928128024E+02  0.35482271462E+04  0.35479794127E+04 0.  0.
        2    1    3    3  502    0 -0.15907630221E+04  0.57222787410E+03 -0.55865181259E+03  0.17804672364E+04  0.25500000920E-02 0.  1.
       -2    1    3    3    0  502  0.15907630221E+04 -0.57222787410E+03  0.51672368457E+03  0.17677599098E+04  0.25500000920E-02 0. -1.
</event>
<event>
 5   0  0.9538919E-07  0.3620374E+04  0.7818609E-02  0.8085841E-01
        2   -1    0    0  501    0  0.00000000000E+00  0.00000000000E+00  0.24165280153E+04  0.24165280153E+04  0.25500000920E-02 0.  1.
       -2   -1    0    0    0  501  0.00000000000E+00  0.00000000000E+00 -0.13559858844E+04  0.13559858844E+04  0.25500000920E-02 0. -1.
    10030    2    1    2    0    0  0.00000000000E+00  0.00000000000E+00  0.10605421309E+04  0.37725138997E+04  0.36203744988E+04 0.  0.
        4    1    3    3  502    0  0.26203392765E+03  0.69175150687E+03  0.22518478826E+04  0.23702325679E+04  0.12699999809E+01 0.  1.
       -4    1    3    3    0  502 -0.26203392765E+03 -0.69175150687E+03 -0.11913057517E+04  0.14022813318E+04  0.12699999809E+01 0. -1.
</event>
<event>
 5   0  0.9878336E-07  0.3624279E+04  0.7818609E-02  0.8084953E-01
        2   -1    0    0  501    0  0.00000000000E+00  0.00000000000E+00  0.25908993265E+04  0.25908993265E+04  0.25500000920E-02 0. -1.
       -2   -1    0    0    0  501  0.00000000000E+00  0.00000000000E+00 -0.12674556171E+04  0.12674556171E+04  0.25500000920E-02 0.  1.
    10030    2    1    2    0    0  0.00000000000E+00  0.00000000000E+00  0.13234437094E+04  0.38583549436E+04  0.36242791861E+04 0.  0.
        3    1    3    3  502    0  0.67872312901E+02  0.18815658601E+03  0.25791110150E+04  0.25868558502E+04  0.10100000352E+00 0. -1.
       -3    1    3    3    0  502 -0.67872312901E+02 -0.18815658601E+03 -0.12556673057E+04  0.12714990934E+04  0.10100000352E+00 0.  1.
</event>
<event>
 5   0  0.9878336E-07  0.3591460E+04  0.7818609E-02  0.8092451E-01
        2   -1    0    0  501    0  0.00000000000E+00  0.00000000000E+00  0.22847453245E+04  0.22847453245E+04  0.25500000920E-02 0. -1.
       -2   -1    0    0    0  501  0.00000000000E+00  0.00000000000E+00 -0.14113809621E+04  0.14113809621E+04  0.25500000920E-02 0.  1.
    10030    2    1    2    0    0  0.00000000000E+00  0.00000000000E+00  0.87336436243E+03  0.36961262866E+04  0.35914599005E+04 0.  0.
        3    1    3    3  502    0 -0.31725480995E+03  0.85809475422E+03 -0.11535583706E+04  0.14723023284E+04  0.10100000352E+00 0.  1.
       -3    1    3    3    0  502  0.31725480995E+03 -0.85809475422E+03  0.20269227330E+04  0.22238239583E+04  0.10100000352E+00 0. -1.
</event>
<event>
 5   0  0.9878336E-07  0.3493087E+04  0.7818609E-02  0.8115430E-01
       -2   -1    0    0    0  501  0.00000000000E+00  0.00000000000E+00  0.28325770465E+04  0.28325770465E+04  0.25500000920E-02 0.  1.
        2   -1    0    0  501    0  0.00000000000E+00  0.00000000000E+00 -0.10769040088E+04  0.10769040088E+04  0.25500000920E-02 0. -1.
    10030    2    1    2    0    0  0.00000000000E+00  0.00000000000E+00  0.17556730377E+04  0.39094810554E+04  0.34930866446E+04 0.  0.
        3    1    3    3  502    0 -0.69114887541E+03  0.15395399559E+04  0.37414001763E+03  0.17285400796E+04  0.10100000352E+00 0. -1.
       -3    1    3    3    0  502  0.69114887541E+03 -0.15395399559E+04  0.13815330201E+04  0.21809409757E+04  0.10100000352E+00 0.  1.
</event>
<event>
 5   0  0.9878977E-07  0.3578817E+04  0.7818609E-02  0.8095361E-01
       -2   -1    0    0    0  501  0.00000000000E+00  0.00000000000E+00  0.14642090892E+04  0.14642090892E+04  0.25500000920E-02 0. -1.
        2   -1    0    0  501    0  0.00000000000E+00  0.00000000000E+00 -0.21868338069E+04  0.21868338069E+04  0.25500000920E-02 0.  1.
    10030    2    1    2    0    0  0.00000000000E+00  0.00000000000E+00 -0.72262471776E+03  0.36510428961E+04  0.35788165287E+04 0.  0.
        5    1    3    3  502    0  0.61911408453E+03 -0.77503826845E+03  0.11580300346E+04  0.15248089121E+04  0.46999998093E+01 0. -1.
       -5    1    3    3    0  502 -0.61911408453E+03  0.77503826845E+03 -0.18806547524E+04  0.21262339840E+04  0.46999998093E+01 0.  1.
</event>
<event>
 5   0  0.3365378E-07  0.3613696E+04  0.7818609E-02  0.8087362E-01
        1   -1    0    0  501    0  0.00000000000E+00  0.00000000000E+00  0.19027246617E+04  0.19027246617E+04  0.50400001928E-02 0. -1.
       -1   -1    0    0    0  501  0.00000000000E+00  0.00000000000E+00 -0.17158024271E+04  0.17158024271E+04  0.50400001928E-02 0.  1.
    10030    2    1    2    0    0  0.00000000000E+00  0.00000000000E+00  0.18692223461E+03  0.36185270889E+04  0.36136959434E+04 0.  0.
        3    1    3    3  502    0  0.15486734512E+04  0.62922548162E+03 -0.59330228706E+03  0.17737874109E+04  0.10100000352E+00 0.  1.
       -3    1    3    3    0  502 -0.15486734512E+04 -0.62922548162E+03  0.78022452167E+03  0.18447396780E+04  0.10100000352E+00 0. -1.
</event>
<event>
 5   0  0.3159875E-07  0.3836407E+04  0.7818609E-02  0.8038387E-01
        1   -1    0    0  501    0  0.00000000000E+00  0.00000000000E+00  0.14838650649E+04  0.14838650649E+04  0.50400001928E-02 0.  1.
       -1   -1    0    0    0  501  0.00000000000E+00  0.00000000000E+00 -0.24796761657E+04  0.24796761657E+04  0.50400001928E-02 0. -1.
    10030    2    1    2    0    0  0.00000000000E+00  0.00000000000E+00 -0.99581110079E+03  0.39635412307E+04  0.38364070872E+04 0.  0.
        2    1    3    3  502    0  0.30460103411E+03  0.82426500775E+03  0.12636826182E+04  0.15391843140E+04  0.25500000920E-02 0.  1.
       -2    1    3    3    0  502 -0.30460103411E+03 -0.82426500775E+03 -0.22594937190E+04  0.24243569166E+04  0.25500000920E-02 0. -1.
</event>
<event>
 5   0  0.3278988E-07  0.3533187E+04  0.7818609E-02  0.8105970E-01
       -1   -1    0    0    0  501  0.00000000000E+00  0.00000000000E+00  0.15938267381E+04  0.15938267381E+04  0.50400001928E-02 0. -1.
        1   -1    0    0  501    0  0.00000000000E+00  0.00000000000E+00 -0.19580875557E+04  0.19580875557E+04  0.50400001928E-02 0.  1.
    10030    2    1    2    0    0  0.00000000000E+00  0.00000000000E+00 -0.36426081766E+03  0.35519142938E+04  0.35331868344E+04 0.  0.
        4    1    3    3  502    0  0.72424853862E+03  0.44981758009E+02 -0.18013481408E+04  0.19420133989E+04  0.12699999809E+01 0.  1.
       -4    1    3    3    0  502 -0.72424853862E+03 -0.44981758009E+02  0.14370873231E+04  0.16099008949E+04  0.12699999809E+01 0. -1.
</event>
<event>
 5   0  0.9878336E-07  0.3726356E+04  0.7818609E-02  0.8062146E-01
        2   -1    0    0  501    0  0.00000000000E+00  0.00000000000E+00  0.17714224368E+04  0.17714224368E+04  0.25500000920E-02 0. -1.
       -2   -1    0    0    0  501  0.00000000000E+00  0.00000000000E+00 -0.19596859990E+04  0.19596859990E+04  0.25500000920E-02 0.  1.
    10030    2    1    2    0    0  0.00000000000E+00  0.00000000000E+00 -0.18826356217E+03  0.37311084359E+04  0.37263557253E+04 0.  0.
        3    1    3    3  502    0  0.13996338611E+04  0.12294000855E+04 -0.61962590997E+02  0.18639310310E+04  0.10100000352E+00 0. -1.
       -3    1    3    3    0  502 -0.13996338611E+04 -0.12294000855E+04 -0.12630097117E+03  0.18671774048E+04  0.10100000352E+00 0.  1.
</event>
<event>
 5   0  0.9878336E-07  0.3613185E+04  0.7818609E-02  0.8087478E-01
       -2   -1    0    0    0  501  0.00000000000E+00  0.00000000000E+00  0.13266865349E+04  0.13266865349E+04  0.25500000920E-02 0. -1.
        2   -1    0    0  501    0  0.00000000000E+00  0.00000000000E+00 -0.24600965288E+04  0.24600965288E+04  0.25500000920E-02 0.  1.
    10030    2    1    2    0    0  0.00000000000E+00  0.00000000000E+00 -0.11334099940E+04  0.37867830637E+04  0.36131852647E+04 0.  0.
        3    1    3    3  502    0  0.34673467342E+03  0.81247414918E+03 -0.22183124540E+04  0.23877289065E+04  0.10100000352E+00 0.  1.
       -3    1    3    3    0  502 -0.34673467342E+03 -0.81247414918E+03  0.10849024600E+04  0.13990541572E+04  0.10100000352E+00 0. -1.
</event>
<event>
 5   0  0.1006019E-06  0.3614340E+04  0.7818609E-02  0.8087215E-01
        2   -1    0    0  501    0  0.00000000000E+00  0.00000000000E+00  0.19049574177E+04  0.19049574177E+04  0.25500000920E-02 0.  1.
       -2   -1    0    0    0  501  0.00000000000E+00  0.00000000000E+00 -0.17144019400E+04  0.17144019400E+04  0.25500000920E-02 0. -1.
    10030    2    1    2    0    0  0.00000000000E+00  0.00000000000E+00  0.19055547778E+03  0.36193593577E+04  0.36143396036E+04 0.  0.
        1    1    3    3  502    0  0.17131823190E+04 -0.36004292023E+03  0.54449649958E+03  0.18333305759E+04  0.50400001928E-02 0.  1.
       -1    1    3    3    0  502 -0.17131823190E+04  0.36004292023E+03 -0.35394102180E+03  0.17860287818E+04  0.50400001928E-02 0. -1.
</event>
<event>
 5   0  0.3242047E-07  0.3754385E+04  0.7818609E-02  0.8056015E-01
       -1   -1    0    0    0  501  0.00000000000E+00  0.00000000000E+00  0.14762190261E+04  0.14762190261E+04  0.50400001928E-02 0. -1.
        1   -1    0    0  501    0  0.00000000000E+00  0.00000000000E+00 -0.23870788444E+04  0.23870788444E+04  0.50400001928E-02 0.  1.
    10030    2    1    2    0    0  0.00000000000E+00  0.00000000000E+00 -0.91085981828E+03  0.38632978704E+04  0.37543847468E+04 0.  0.
        1    1    3    3  502    0 -0.35533847729E+03 -0.18422385513E+04 -0.39247593511E+03  0.19168061125E+04  0.50400001928E-02 0. -1.
       -1    1    3    3    0  502  0.35533847729E+03  0.18422385513E+04 -0.51838388317E+03  0.19464917579E+04  0.50400001928E-02 0.  1.
</event>
<event>
 5   0  0.1031659E-06  0.3586579E+04  0.7818609E-02  0.8093573E-01
       -2   -1    0    0    0  501  0.00000000000E+00  0.00000000000E+00  0.21582969149E+04  0.21582969149E+04  0.25500000920E-02 0.  1.
        2   -1    0    0  501    0  0.00000000000E+00  0.00000000000E+00 -0.14900117724E+04  0.14900117724E+04  0.25500000920E-02 0. -1.
    10030    2    1    2    0    0  0.00000000000E+00  0.00000000000E+00  0.66828514251E+03  0.36483086874E+04  0.35865793239E+04 0.  0.
        2    1    3    3  502    0  0.24006799097E+03 -0.47260965966E+03  0.20767816216E+04  0.21433652126E+04  0.25500000920E-02 0.  1.
       -2    1    3    3    0  502 -0.24006799097E+03  0.47260965966E+03 -0.14084964791E+04  0.15049434748E+04  0.25500000920E-02 0. -1.
</event>
<event>
 5   0  0.9878336E-07  0.3614147E+04  0.7818609E-02  0.8087259E-01
       -2   -1    0    0    0  501  0.00000000000E+00  0.00000000000E+00  0.13564311326E+04  0.13564311326E+04  0.25500000920E-02 0.  1.
        2   -1    0    0  501    0  0.00000000000E+00  0.00000000000E+00 -0.24074312067E+04  0.24074312067E+04  0.25500000920E-02 0. -1.
    10030    2    1    2    0    0  0.00000000000E+00  0.00000000000E+00 -0.10510000741E+04  0.37638623393E+04  0.36141470022E+04 0.  0.
        3    1    3    3  502    0  0.12043625721E+04  0.16991131144E+03  0.86633433984E+03  0.14932830467E+04  0.10100000352E+00 0.  1.
       -3    1    3    3    0  502 -0.12043625721E+04 -0.16991131144E+03 -0.19173344140E+04  0.22705792926E+04  0.10100000352E+00 0. -1.
</event>
<event>
 5   0  0.3242047E-07  0.3341073E+04  0.7818609E-02  0.8152522E-01
        1   -1    0    0  501    0  0.00000000000E+00  0.00000000000E+00  0.17756221299E+04  0.17756221300E+04  0.50400001928E-02 0.  1.
       -1   -1    0    0    0  501  0.00000000000E+00  0.00000000000E+00 -0.15716705428E+04  0.15716705428E+04  0.50400001928E-02 0. -1.
    10030    2    1    2    0    0  0.00000000000E+00  0.00000000000E+00  0.20395158715E+03  0.33472926728E+04  0.33410734783E+04 0.  0.
        1    1    3    3  502    0 -0.15607563401E+04  0.59339818258E+03  0.15317121148E+03  0.16767656892E+04  0.50400001928E-02 0. -1.
       -1    1    3    3    0  502  0.15607563401E+04 -0.59339818258E+03  0.50780375666E+02  0.16705269836E+04  0.50400001928E-02 0.  1.
</event>
<event>
 5   0  0.9538919E-07  0.3534349E+04  0.7818609E-02  0.8105698E-01
        2   -1    0    0  501    0  0.00000000000E+00  0.00000000000E+00  0.19693727757E+04  0.19693727757E+04  0.25500000920E-02 0.  1.
       -2   -1    0    0    0  501  0.00000000000E+00  0.00000000000E+00 -0.15857362997E+04  0.15857362997E+04  0.25500000920E-02 0. -1.
    10030    2    1    2    0    0  0.00000000000E+00  0.00000000000E+00  0.38363647598E+03  0.35551090754E+04  0.35343491045E+04 0.  0.
        4    1    3    3  502    0 -0.11377374746E+04  0.48417737738E+03  0.14617831721E+04  0.19145981168E+04  0.12699999809E+01 0.  1.
       -4    1    3    3    0  502  0.11377374746E+04 -0.48417737738E+03 -0.10781466961E+04  0.16405109586E+04  0.12699999809E+01 0. -1.
</event>
<event>
 5   0  0.3159875E-07  0.3627583E+04  0.7818609E-02  0.8084203E-01
        3   -1    0    0  501    0  0.00000000000E+00  0.00000000000E+00  0.11750316712E+04  0.11750316755E+04  0.10100000352E+00 0.  1.
       -3   -1    0    0    0  501  0.00000000000E+00  0.00000000000E+00 -0.27997882964E+04  0.27997882982E+04  0.10100000352E+00 0. -1.
    10030    2    1    2    0    0  0.00000000000E+00  0.00000000000E+00 -0.16247566252E+04  0.39748199737E+04  0.36275831806E+04 0.  0.
        1    1    3    3  502    0 -0.92998675268E+03  0.93952487004E+03  0.54837231164E+03  0.14311864078E+04  0.50400001928E-02 0.  1.
       -1    1    3    3    0  502  0.92998675268E+03 -0.93952487004E+03 -0.21731289369E+04  0.25436335660E+04  0.50400001928E-02 0. -1.
</event>
<event>
 5   0  0.9878977E-07  0.3592590E+04  0.7818609E-02  0.8092191E-01
        2   -1    0    0  501    0  0.00000000000E+00  0.00000000000E+00  0.31802177651E+04  0.31802177651E+04  0.25500000920E-02 0.  1.
       -2   -1    0    0    0  501  0.00000000000E+00  0.00000000000E+00 -0.10146086684E+04  0.10146086684E+04  0.25500000920E-02 0. -1.
    10030    2    1    2    0    0  0.00000000000E+00  0.00000000000E+00  0.21656090968E+04  0.41948264335E+04  0.35925904369E+04 0.  0.
        5    1    3    3  502    0 -0.11233873315E+03  0.15648984812E+04  0.61458060341E+02  0.15701358000E+04  0.46999998093E+01 0. -1.
       -5    1    3    3    0  502  0.11233873315E+03 -0.15648984812E+04  0.21041510364E+04  0.26246906335E+04  0.46999998093E+01 0.  1.
</event>
<event>
 5   0  0.9538919E-07  0.3709068E+04  0.7818609E-02  0.8065955E-01
       -2   -1    0    0    0  501  0.00000000000E+00  0.00000000000E+00  0.17413766520E+04  0.17413766520E+04  0.25500000920E-02 0. -1.
        2   -1    0    0  501    0  0.00000000000E+00  0.00000000000E+00 -0.19750440310E+04  0.19750440310E+04  0.25500000920E-02 0.  1.
    10030    2    1    2    0    0  0.00000000000E+00  0.00000000000E+00 -0.23366737900E+03  0.37164206829E+04  0.37090675713E+04 0.  0.
        4    1    3    3  502    0  0.17104380123E+04 -0.60142095986E+03  0.27379632325E+03  0.18336497497E+04  0.12699999809E+01 0. -1.
       -4    1    3    3    0  502 -0.17104380123E+04  0.60142095986E+03 -0.50746370224E+03  0.18827709332E+04  0.12699999809E+01 0.  1.
</event>
<event>
 5   0  0.9878336E-07  0.3290631E+04  0.7818609E-02  0.8165283E-01
       -2   -1    0    0    0  501  0.00000000000E+00  0.00000000000E+00  0.13073636242E+04  0.13073636242E+04  0.25500000920E-02 0.  1.
        2   -1    0    0  501    0  0.00000000000E+00  0.00000000000E+00 -0.20706278306E+04  0.20706278306E+04  0.25500000920E-02 0. -1.
    10030    2    1    2    0    0  0.00000000000E+00  0.00000000000E+00 -0.76326420638E+03  0.33779914548E+04  0.32906312494E+04 0.  0.
        3    1    3    3  502    0 -0.34007732437E+03  0.15843380070E+04 -0.88959662365E+02  0.16228657797E+04  0.10100000352E+00 0.  1.
       -3    1    3    3    0  502  0.34007732437E+03 -0.15843380070E+04 -0.67430454401E+03  0.17551256751E+04  0.10100000352E+00 0. -1.
</event>
<event>
 5   0  0.9878336E-07  0.3637394E+04  0.7818609E-02  0.8081979E-01
        2   -1    0    0  501    0  0.00000000000E+00  0.00000000000E+00  0.25982786615E+04  0.25982786615E+04  0.25500000920E-02 0.  1.
       -2   -1    0    0    0  501  0.00000000000E+00  0.00000000000E+00 -0.12730192307E+04  0.12730192307E+04  0.25500000920E-02 0. -1.
    10030    2    1    2    0    0  0.00000000000E+00  0.00000000000E+00  0.13252594309E+04  0.38712978922E+04  0.36373939587E+04 0.  0.
        3    1    3    3  502    0  0.15148020205E+04  0.77365494015E+03 -0.22580925043E+02  0.17010811374E+04  0.10100000352E+00 0.  1.
       -3    1    3    3    0  502 -0.15148020205E+04 -0.77365494015E+03  0.13478403559E+04  0.21702167548E+04  0.10100000352E+00 0. -1.
</event>
<event>
 5   0  0.9538919E-07  0.2996492E+04  0.7818609E-02  0.8244733E-01
       -2   -1    0    0    0  501  0.00000000000E+00  0.00000000000E+00  0.10124315501E+04  0.10124315501E+04  0.25500000920E-02 0. -1.
        2   -1    0    0  501    0  0.00000000000E+00  0.00000000000E+00 -0.22171783549E+04  0.22171783549E+04  0.25500000920E-02 0.  1.
    10030    2    1    2    0    0  0.00000000000E+00  0.00000000000E+00 -0.12047468048E+04  0.32296099051E+04  0.29964921617E+04 0.  0.
        4    1    3    3  502    0 -0.87584520934E+03 -0.11737926023E+03 -0.19063993916E+04  0.21012479565E+04  0.12699999809E+01 0.  1.
       -4    1    3    3    0  502  0.87584520934E+03  0.11737926023E+03  0.70165258683E+03  0.11283619486E+04  0.12699999809E+01 0. -1.
</event>
<event>
 5   0  0.9878336E-07  0.3750052E+04  0.7818609E-02  0.8056959E-01
       -2   -1    0    0    0  501  0.00000000000E+00  0.00000000000E+00  0.26929130360E+04  0.26929130360E+04  0.25500000920E-02 0.  1.
        2   -1    0    0  501    0  0.00000000000E+00  0.00000000000E+00 -0.13055460131E+04  0.13055460131E+04  0.25500000920E-02 0. -1.
    10030    2    1    2    0    0  0.00000000000E+00  0.00000000000E+00  0.13873670229E+04  0.39984590490E+04  0.37500516677E+04 0.  0.
        3    1    3    3  502    0 -0.14412653594E+04 -0.76714134043E+03  0.16766919581E+04  0.23403092969E+04  0.10100000352E+00 0.  1.
       -3    1    3    3    0  502  0.14412653594E+04  0.76714134043E+03 -0.28932493524E+03  0.16581497522E+04  0.10100000352E+00 0. -1.
</event>
<event>
 5   0  0.3159875E-07  0.3252018E+04  0.7818609E-02  0.8175213E-01
       -1   -1    0    0    0  501  0.00000000000E+00  0.00000000000E+00  0.92810275378E+03  0.92810275380E+03  0.50400001928E-02 0. -1.
        1   -1    0    0  501    0  0.00000000000E+00  0.00000000000E+00 -0.28487209495E+04  0.28487209495E+04  0.50400001928E-02 0.  1.
    10030    2    1    2    0    0  0.00000000000E+00  0.00000000000E+00 -0.19206181957E+04  0.37768237033E+04  0.32520183013E+04 0.  0.
        5    1    3    3  502    0  0.63523601387E+03 -0.14575624154E+04 -0.13556397691E+04  0.20894483151E+04  0.46999998093E+01 0.  1.
       -5    1    3    3    0  502 -0.63523601387E+03  0.14575624154E+04 -0.56497842662E+03  0.16873753882E+04  0.46999998093E+01 0. -1.
</event>
<event>
 5   0  0.1006019E-06  0.3679102E+04  0.7818609E-02  0.8072609E-01
        2   -1    0    0  501    0  0.00000000000E+00  0.00000000000E+00  0.13639333012E+04  0.13639333012E+04  0.25500000920E-02 0.  1.
       -2   -1    0    0    0  501  0.00000000000E+00  0.00000000000E+00 -0.24810208916E+04  0.24810208916E+04  0.25500000920E-02 0. -1.
    10030    2    1    2    0    0  0.00000000000E+00  0.00000000000E+00 -0.11170875903E+04  0.38449541928E+04  0.36791015289E+04 0.  0.
        1    1    3    3  502    0 -0.14269921353E+04 -0.98743232607E+03  0.79398258744E+02  0.17371336265E+04  0.50400001928E-02 0.  1.
       -1    1    3    3    0  502  0.14269921353E+04  0.98743232607E+03 -0.11964858491E+04  0.21078205663E+04  0.50400001928E-02 0. -1.
</event>
<event>
 5   0  0.3365378E-07  0.3606948E+04  0.7818609E-02  0.8088902E-01
        1   -1    0    0  501    0  0.00000000000E+00  0.00000000000E+00  0.23399685628E+04  0.23399685628E+04  0.50400001928E-02 0.  1.
       -1   -1    0    0    0  501  0.00000000000E+00  0.00000000000E+00 -0.13899838496E+04  0.13899838496E+04  0.50400001928E-02 0. -1.
    10030    2    1    2    0    0  0.00000000000E+00  0.00000000000E+00  0.94998471320E+03  0.37299524124E+04  0.36069480233E+04 0.  0.
        3    1    3    3  502    0  0.12085353266E+04  0.13368468397E+04  0.54664743803E+03  0.18832260991E+04  0.10100000352E+00 0. -1.
       -3    1    3    3    0  502 -0.12085353266E+04 -0.13368468397E+04  0.40333727517E+03  0.18467263133E+04  0.10100000352E+00 0.  1.
</event>
<event>
 5   0  0.9538919E-07  0.3623506E+04  0.7818609E-02  0.8085129E-01
       -2   -1    0    0    0  501  0.00000000000E+00  0.00000000000E+00  0.12414397619E+04  0.12414397619E+04  0.25500000920E-02 0.  1.
        2   -1    0    0  501    0  0.00000000000E+00  0.00000000000E+00 -0.26440656902E+04  0.26440656902E+04  0.25500000920E-02 0. -1.
    10030    2    1    2    0    0  0.00000000000E+00  0.00000000000E+00 -0.14026259283E+04  0.38855054521E+04  0.36235056401E+04 0.  0.
        4    1    3    3  502    0  0.10057936255E+04 -0.45799327020E+03 -0.22407599688E+04  0.24984766365E+04  0.12699999809E+01 0. -1.
       -4    1    3    3    0  502 -0.10057936255E+04  0.45799327020E+03  0.83813404043E+03  0.13870288156E+04  0.12699999809E+01 0.  1.
</event>
<event>
 5   0  0.9538919E-07  0.3576788E+04  0.7818609E-02  0.8095829E-01
        2   -1    0    0  501    0  0.00000000000E+00  0.00000000000E+00  0.12582606918E+04  0.12582606918E+04  0.25500000920E-02 0. -1.
       -2   -1    0    0    0  501  0.00000000000E+00  0.00000000000E+00 -0.25418840959E+04  0.25418840959E+04  0.25500000920E-02 0.  1.
    10030    2    1    2    0    0  0.00000000000E+00  0.00000000000E+00 -0.12836234041E+04  0.38001447878E+04  0.35767878557E+04 0.  0.
        4    1    3    3  502    0  0.13896399001E+03  0.52919738979E+02 -0.25353042447E+04  0.25396615356E+04  0.12699999809E+01 0.  1.
       -4    1    3    3    0  502 -0.13896399001E+03 -0.52919738979E+02  0.12516808406E+04  0.12604832522E+04  0.12699999809E+01 0. -1.
</event>
<event>
 5   0  0.9538919E-07  0.3485166E+04  0.7818609E-02  0.8117315E-01
       -2   -1    0    0    0  501  0.00000000000E+00  0.00000000000E+00  0.15423743555E+04  0.15423743555E+04  0.25500000920E-02 0.  1.
        2   -1    0    0  501    0  0.00000000000E+00  0.00000000000E+00 -0.19687794147E+04  0.19687794147E+04  0.25500000920E-02 0. -1.
    10030    2    1    2    0    0  0.00000000000E+00  0.00000000000E+00 -0.42640505921E+03  0.35111537702E+04  0.34851656379E+04 0.  0.
        4    1    3    3  502    0 -0.41869703722E+03 -0.11469732898E+04  0.10393455766E+04  0.16034636812E+04  0.12699999809E+01 0.  1.
       -4    1    3    3    0  502  0.41869703722E+03  0.11469732898E+04 -0.14657506358E+04  0.19076900890E+04  0.12699999809E+01 0. -1.
</event>
<event>
 5   0  0.1006019E-06  0.3094705E+04  0.7818609E-02  0.8217193E-01
       -2   -1    0    0    0  501  0.00000000000E+00  0.00000000000E+00  0.14996982982E+04  0.14996982982E+04  0.25500000920E-02 0.  1.
        2   -1    0    0  501    0  0.00000000000E+00  0.00000000000E+00 -0.15965208647E+04  0.15965208647E+04  0.25500000920E-02 0. -1.
    10030    2    1    2    0    0  0.00000000000E+00  0.00000000000E+00 -0.96822566431E+02  0.30962191629E+04  0.30947049125E+04 0.  0.
        1    1    3    3  502    0  0.98316955233E+02  0.12022198846E+04 -0.10180607975E+04  0.15784317097E+04  0.50400001928E-02 0. -1.
       -1    1    3    3    0  502 -0.98316955233E+02 -0.12022198846E+04  0.92123823111E+03  0.15177874532E+04  0.50400001928E-02 0.  1.
</event>
<event>
 5   0  0.3278988E-07  0.3504975E+04  0.7818609E-02  0.8112612E-01
       -1   -1    0    0    0  501  0.00000000000E+00  0.00000000000E+00  0.15329777177E+04  0.15329777177E+04  0.50400001928E-02 0. -1.
        1   -1    0    0  501    0  0.00000000000E+00  0.00000000000E+00 -0.20034297177E+04  0.20034297177E+04  0.50400001928E-02 0.  1.
    10030    2    1    2    0    0  0.00000000000E+00  0.00000000000E+00 -0.47045199996E+03  0.35364074354E+04  0.35049753872E+04 0.  0.
        4    1    3    3  502    0 -0.87792531393E+03 -0.13790605234E+04  0.40182411493E+03  0.16834562710E+04  0.12699999809E+01 0. -1.
       -4    1    3    3    0  502  0.87792531393E+03  0.13790605234E+04 -0.87227611490E+03  0.18529511644E+04  0.12699999809E+01 0.  1.
</event>
<event>
 5   0  0.3159875E-07  0.3550536E+04  0.7818609E-02  0.8101917E-01
        1   -1    0    0  501    0  0.00000000000E+00  0.00000000000E+00  0.11673374768E+04  0.11673374768E+04  0.50400001928E-02 0. -1.
       -1   -1    0    0    0  501  0.00000000000E+00  0.00000000000E+00 -0.26997988642E+04  0.26997988642E+04  0.50400001928E-02 0.  1.
    10030    2    1    2    0    0  0.00000000000E+00  0.00000000000E+00 -0.15324613874E+04  0.38671363410E+04  0.35505359562E+04 0.  0.
        5    1    3    3  502    0 -0.41769105784E+02 -0.13714553936E+03 -0.26934767004E+04  0.26972935292E+04  0.46999998093E+01 0.  1.
       -5    1    3    3    0  502  0.41769105784E+02  0.13714553936E+03  0.11610153131E+04  0.11698428118E+04  0.46999998093E+01 0. -1.
</event>
<event>
 5   0  0.9538919E-07  0.3556309E+04  0.7818609E-02  0.8100574E-01
        2   -1    0    0  501    0  0.00000000000E+00  0.00000000000E+00  0.18278780452E+04  0.18278780452E+04  0.25500000920E-02 0.  1.
       -2   -1    0    0    0  501  0.00000000000E+00  0.00000000000E+00 -0.17297832732E+04  0.17297832732E+04  0.25500000920E-02 0. -1.
    10030    2    1    2    0    0  0.00000000000E+00  0.00000000000E+00  0.98094772007E+02  0.35576613184E+04  0.35563086863E+04 0.  0.
        4    1    3    3  502    0  0.94594919026E+03 -0.47198563177E+03 -0.13812659666E+04  0.17393928798E+04  0.12699999809E+01 0. -1.
       -4    1    3    3    0  502 -0.94594919026E+03  0.47198563177E+03  0.14793607386E+04  0.18182684386E+04  0.12699999809E+01 0.  1.
</event>
<event>
 5   0  0.1006019E-06  0.3549564E+04  0.7818609E-02  0.8102143E-01
        2   -1    0    0  501    0  0.00000000000E+00  0.00000000000E+00  0.23718905125E+04  0.23718905125E+04  0.25500000920E-02 0.  1.
       -2   -1    0    0    0  501  0.00000000000E+00  0.00000000000E+00 -0.13279917099E+04  0.13279917099E+04  0.25500000920E-02 0. -1.
    10030    2    1    2    0    0  0.00000000000E+00  0.00000000000E+00  0.10438988025E+04  0.36998822224E+04  0.35495638816E+04 0.  0.
        1    1    3    3  502    0 -0.78311740441E+03  0.59950033780E+03 -0.10160629139E+04  0.14160004835E+04  0.50400001928E-02 0. -1.
       -1    1    3    3    0  502  0.78311740441E+03 -0.59950033780E+03  0.20599617165E+04  0.22838817389E+04  0.50400001928E-02 0.  1.
</event>
<event>
 5   0  0.9538919E-07  0.3427378E+04  0.7818609E-02  0.8131219E-01
       -2   -1    0    0    0  501  0.00000000000E+00  0.00000000000E+00  0.26646472063E+04  0.26646472063E+04  0.25500000920E-02 0.  1.
        2   -1    0    0  501    0  0.00000000000E+00  0.00000000000E+00 -0.11021081351E+04  0.11021081351E+04  0.25500000920E-02 0. -1.
    10030    2    1    2    0    0  0.00000000000E+00  0.00000000000E+00  0.15625390711E+04  0.37667553414E+04  0.34273776351E+04 0.  0.
        4    1    3    3  502    0  0.19762835364E+03  0.10555925228E+04  0.22489423579E+04  0.24922030179E+04  0.12699999809E+01 0.  1.
       -4    1    3    3    0  502 -0.19762835364E+03 -0.10555925228E+04 -0.68640328675E+03  0.12745523235E+04  0.12699999809E+01 0. -1.
</event>
<event>
 5   0  0.9878977E-07  0.3601226E+04  0.7818609E-02  0.8090211E-01
        2   -1    0    0  501    0  0.00000000000E+00  0.00000000000E+00  0.19176878302E+04  0.19176878302E+04  0.25500000920E-02 0. -1.
       -2   -1    0    0    0  501  0.00000000000E+00  0.00000000000E+00 -0.16906858081E+04  0.16906858081E+04  0.25500000920E-02 0.  1.
    10030    2    1    2    0    0  0.00000000000E+00  0.00000000000E+00  0.22700202208E+03  0.36083736382E+04  0.36012262349E+04 0.  0.
        5    1    3    3  502    0 -0.16379318072E+04  0.47504600632E+03  0.69231194137E+03  0.18405996923E+04  0.46999998093E+01 0. -1.
       -5    1    3    3    0  502  0.16379318072E+04 -0.47504600632E+03 -0.46530991929E+03  0.17677739460E+04  0.46999998093E+01 0.  1.
</event>
<event>
 5   0  0.1031659E-06  0.3609334E+04  0.7818609E-02  0.8088357E-01
        2   -1    0    0  501    0  0.00000000000E+00  0.00000000000E+00  0.27252275105E+04  0.27252275105E+04  0.25500000920E-02 0.  1.
       -2   -1    0    0    0  501  0.00000000000E+00  0.00000000000E+00 -0.11950646317E+04  0.11950646317E+04  0.25500000920E-02 0. -1.
    10030    2    1    2    0    0  0.00000000000E+00  0.00000000000E+00  0.15301628788E+04  0.39202921422E+04  0.36093340167E+04 0.  0.
        2    1    3    3  502    0 -0.13640037262E+03  0.66830495199E+03  0.25798318258E+04  0.26684768727E+04  0.25500000920E-02 0.  1.
       -2    1    3    3    0  502  0.13640037262E+03 -0.66830495199E+03 -0.10496689470E+04  0.12518152695E+04  0.25500000920E-02 0. -1.
</event>
<event>
 5   0  0.3365378E-07  0.3581013E+04  0.7818609E-02  0.8094855E-01
       -1   -1    0    0    0  501  0.00000000000E+00  0.00000000000E+00  0.29637712706E+04  0.29637712706E+04  0.50400001928E-02 0. -1.
        1   -1    0    0  501    0  0.00000000000E+00  0.00000000000E+00 -0.10817004598E+04  0.10817004598E+04  0.50400001928E-02 0.  1.
    10030    2    1    2    0    0  0.00000000000E+00  0.00000000000E+00  0.18820708108E+04  0.40454717305E+04  0.35810125642E+04 0.  0.
        3    1    3    3  502    0  0.26290788690E+03  0.15987341709E+04  0.80057425709E+02  0.16221839316E+04  0.10100000352E+00 0.  1.
       -3    1    3    3    0  502 -0.26290788690E+03 -0.15987341709E+04  0.18020133851E+04  0.24232877989E+04  0.10100000352E+00 0. -1.
</event>
<event>
 5   0  0.1006019E-06  0.3565827E+04  0.7818609E-02  0.8098365E-01
       -2   -1    0    0    0  501  0.00000000000E+00  0.00000000000E+00  0.19646210069E+04  0.19646210069E+04  0.25500000920E-02 0. -1.
        2   -1    0    0  501    0  0.00000000000E+00  0.00000000000E+00 -0.16180120422E+04  0.16180120422E+04  0.25500000920E-02 0.  1.
    10030    2    1    2    0    0  0.00000000000E+00  0.00000000000E+00  0.34660896465E+03  0.35826330491E+04  0.35658269434E+04 0.  0.
        1    1    3    3  502    0 -0.67953172500E+03 -0.55900942950E+03  0.17312661315E+04  0.19420446250E+04  0.50400001928E-02 0. -1.
       -1    1    3    3    0  502  0.67953172500E+03  0.55900942950E+03 -0.13846571668E+04  0.16405884241E+04  0.50400001928E-02 0.  1.
</event>
<event>
 5   0  0.3278988E-07  0.3455215E+04  0.7818609E-02  0.8124486E-01
       -1   -1    0    0    0  501  0.00000000000E+00  0.00000000000E+00  0.16867158443E+04  0.16867158443E+04  0.50400001928E-02 0. -1.
        1   -1    0    0  501    0  0.00000000000E+00  0.00000000000E+00 -0.17694904745E+04  0.17694904745E+04  0.50400001928E-02 0.  1.
    10030    2    1    2    0    0  0.00000000000E+00  0.00000000000E+00 -0.82774630256E+02  0.34562063188E+04  0.34552149685E+04 0.  0.
        4    1    3    3  502    0  0.14551366801E+04  0.26625069478E+03 -0.93400751962E+03  0.17494810230E+04  0.12699999809E+01 0.  1.
       -4    1    3    3    0  502 -0.14551366801E+04 -0.26625069478E+03  0.85123288936E+03  0.17067252958E+04  0.12699999809E+01 0. -1.
</event>
<event>
 5   0  0.3278988E-07  0.3592321E+04  0.7818609E-02  0.8092253E-01
       -1   -1    0    0    0  501  0.00000000000E+00  0.00000000000E+00  0.17407647779E+04  0.17407647780E+04  0.50400001928E-02 0.  1.
        1   -1    0    0  501    0  0.00000000000E+00  0.00000000000E+00 -0.18533189220E+04  0.18533189220E+04  0.50400001928E-02 0. -1.
    10030    2    1    2    0    0  0.00000000000E+00  0.00000000000E+00 -0.11255414403E+03  0.35940836999E+04  0.35923208663E+04 0.  0.
        4    1    3    3  502    0 -0.77912173901E+03 -0.16148634870E+04 -0.16298738263E+03  0.18003836441E+04  0.12699999809E+01 0.  1.
       -4    1    3    3    0  502  0.77912173901E+03  0.16148634870E+04  0.50433238598E+02  0.17937000559E+04  0.12699999809E+01 0. -1.
</event>
<event>
 5   0  0.9878336E-07  0.3591027E+04  0.7818609E-02  0.8092550E-01
        2   -1    0    0  501    0  0.00000000000E+00  0.00000000000E+00  0.20537365000E+04  0.20537365000E+04  0.25500000920E-02 0. -1.
       -2   -1    0    0    0  501  0.00000000000E+00  0.00000000000E+00 -0.15697580052E+04  0.15697580052E+04  0.25500000920E-02 0.  1.
    10030    2    1    2    0    0  0.00000000000E+00  0.00000000000E+00  0.48397849482E+03  0.36234945052E+04  0.35910273246E+04 0.  0.
        3    1    3    3  502    0 -0.10915459535E+03 -0.47659695448E+03  0.19852696057E+04  0.20445915974E+04  0.10100000352E+00 0. -1.
       -3    1    3    3    0  502  0.10915459535E+03  0.47659695448E+03 -0.15012911108E+04  0.15789029078E+04  0.10100000352E+00 0.  1.
</event>
<event>
 5   0  0.9878977E-07  0.3611503E+04  0.7818609E-02  0.8087862E-01
       -2   -1    0    0    0  501  0.00000000000E+00  0.00000000000E+00  0.16236492172E+04  0.16236492172E+04  0.25500000920E-02 0.  1.
        2   -1    0    0  501    0  0.00000000000E+00  0.00000000000E+00 -0.20082778201E+04  0.20082778201E+04  0.25500000920E-02 0. -1.
    10030    2    1    2    0    0  0.00000000000E+00  0.00000000000E+00 -0.38462860284E+03  0.36319270373E+04  0.36115031278E+04 0.  0.
        5    1    3    3  502    0 -0.52747193377E+03  0.14366900008E+04 -0.11560719828E+04  0.19180274551E+04  0.46999998093E+01 0. -1.
       -5    1    3    3    0  502  0.52747193377E+03 -0.14366900008E+04  0.77144337995E+03  0.17138995822E+04  0.46999998093E+01 0.  1.
</event>
<event>
 5   0  0.9878977E-07  0.3631700E+04  0.7818609E-02  0.8083269E-01
       -2   -1    0    0    0  501  0.00000000000E+00  0.00000000000E+00  0.12665179740E+04  0.12665179740E+04  0.25500000920E-02 0.  1.
        2   -1    0    0  501    0  0.00000000000E+00  0.00000000000E+00 -0.26034457273E+04  0.26034457273E+04  0.25500000920E-02 0. -1.
    10030    2    1    2    0    0  0.00000000000E+00  0.00000000000E+00 -0.13369277533E+04  0.38699637013E+04  0.36316997717E+04 0.  0.
        5    1    3    3  502    0  0.11998529512E+03 -0.15091930164E+04 -0.17368528316E+04  0.23040702854E+04  0.46999998093E+01 0. -1.
       -5    1    3    3    0  502 -0.11998529512E+03  0.15091930164E+04  0.39992507821E+03  0.15658934159E+04  0.46999998093E+01 0.  1.
</event>
<event>
 5   0  0.1006019E-06  0.2730838E+04  0.7818609E-02  0.8325068E-01
        2   -1    0    0  501    0  0.00000000000E+00  0.00000000000E+00  0.23355906122E+04  0.23355906122E+04  0.25500000920E-02 0. -1.
       -2   -1    0    0    0  501  0.00000000000E+00  0.00000000000E+00 -0.79824314162E+03  0.79824314163E+03  0.25500000920E-02 0.  1.
    10030    2    1    2    0    0  0.00000000000E+00  0.00000000000E+00  0.15373474706E+04  0.31338337538E+04  0.27308381042E+04 0.  0.
        1    1    3    3  502    0  0.63089916021E+03 -0.56625547528E+03 -0.45965212169E+03  0.96434386328E+03  0.50400001928E-02 0.  1.
       -1    1    3    3    0  502 -0.63089916021E+03  0.56625547528E+03  0.19969995923E+04  0.21694898905E+04  0.50400001928E-02 0. -1.
</event>
<event>
 5   0  0.3278988E-07  0.3689040E+04  0.7818609E-02  0.8070395E-01
        1   -1    0    0  501    0  0.00000000000E+00  0.00000000000E+00  0.31272562895E+04  0.31272562896E+04  0.50400001928E-02 0. -1.
       -1   -1    0    0    0  501  0.00000000000E+00  0.00000000000E+00 -0.10879358581E+04  0.10879358581E+04  0.50400001928E-02 0.  1.
    10030    2    1    2    0    0  0.00000000000E+00  0.00000000000E+00  0.20393204314E+04  0.42151921477E+04  0.36890401217E+04 0.  0.
        4    1    3    3  502    0  0.90117787538E+03 -0.51980250402E+03 -0.72071159708E+03  0.12655998678E+04  0.12699999809E+01 0.  1.
       -4    1    3    3    0  502 -0.90117787538E+03  0.51980250402E+03  0.27600320285E+04  0.29495922799E+04  0.12699999809E+01 0. -1.
</event>
<event>
 5   0  0.3159875E-07  0.3575635E+04  0.7818609E-02  0.8096096E-01
        3   -1    0    0  501    0  0.00000000000E+00  0.00000000000E+00  0.13842163089E+04  0.13842163125E+04  0.10100000352E+00 0. -1.
       -3   -1    0    0    0  501  0.00000000000E+00  0.00000000000E+00 -0.23090983931E+04  0.23090983954E+04  0.10100000352E+00 0.  1.
    10030    2    1    2    0    0  0.00000000000E+00  0.00000000000E+00 -0.92488208429E+03  0.36933147079E+04  0.35756351410E+04 0.  0.
        1    1    3    3  502    0 -0.13836039412E+04  0.85421284218E+03  0.30515345699E+03  0.16544358791E+04  0.50400001928E-02 0. -1.
       -1    1    3    3    0  502  0.13836039412E+04 -0.85421284218E+03 -0.12300355413E+04  0.20388788288E+04  0.50400001928E-02 0.  1.
</event>
<event>
 5   0  0.9878977E-07  0.3601736E+04  0.7818609E-02  0.8090094E-01
        2   -1    0    0  501    0  0.00000000000E+00  0.00000000000E+00  0.11819241166E+04  0.11819241166E+04  0.25500000920E-02 0.  1.
       -2   -1    0    0    0  501  0.00000000000E+00  0.00000000000E+00 -0.27439375606E+04  0.27439375606E+04  0.25500000920E-02 0. -1.
    10030    2    1    2    0    0  0.00000000000E+00  0.00000000000E+00 -0.15620134440E+04  0.39258616773E+04  0.36017362355E+04 0.  0.
        5    1    3    3  502    0 -0.67355818794E+03  0.16542441808E+04 -0.53031000483E+03  0.18631841652E+04  0.46999998093E+01 0.  1.
       -5    1    3    3    0  502  0.67355818794E+03 -0.16542441808E+04 -0.10317034392E+04  0.20626775120E+04  0.46999998093E+01 0. -1.
</event>
<event>
 5   0  0.1031659E-06  0.3444337E+04  0.7818609E-02  0.8127109E-01
       -2   -1    0    0    0  501  0.00000000000E+00  0.00000000000E+00  0.17319407545E+04  0.17319407545E+04  0.25500000920E-02 0.  1.
        2   -1    0    0  501    0  0.00000000000E+00  0.00000000000E+00 -0.17124516883E+04  0.17124516883E+04  0.25500000920E-02 0. -1.
    10030    2    1    2    0    0  0.00000000000E+00  0.00000000000E+00  0.19489066229E+02  0.34443924428E+04  0.34443373058E+04 0.  0.
        2    1    3    3  502    0 -0.96394034363E+03  0.18249092082E+03 -0.14056865276E+04  0.17141874273E+04  0.25500000920E-02 0. -1.
       -2    1    3    3    0  502  0.96394034363E+03 -0.18249092082E+03  0.14251755938E+04  0.17302050154E+04  0.25500000920E-02 0.  1.
</event>
<event>
 5   0  0.9878336E-07  0.3647111E+04  0.7818609E-02  0.8079785E-01
        2   -1    0    0  501    0  0.00000000000E+00  0.00000000000E+00  0.12163404998E+04  0.12163404998E+04  0.25500000920E-02 0. -1.
       -2   -1    0    0    0  501  0.00000000000E+00  0.00000000000E+00 -0.27339007428E+04  0.27339007428E+04  0.25500000920E-02 0.  1.
    10030    2    1    2    0    0  0.00000000000E+00  0.00000000000E+00 -0.15175602430E+04  0.39502412425E+04  0.36471107446E+04 0.  0.
        3    1    3    3  502    0 -0.11604783820E+04 -0.30014475231E+03 -0.22472489498E+04  0.25469442083E+04  0.10100000352E+00 0.  1.
       -3    1    3    3    0  502  0.11604783820E+04  0.30014475231E+03  0.72968870681E+03  0.14032970343E+04  0.10100000352E+00 0. -1.
</event>
<event>
 5   0  0.3242047E-07  0.3631333E+04  0.7818609E-02  0.8083352E-01
       -1   -1    0    0    0  501  0.00000000000E+00  0.00000000000E+00  0.14076566485E+04  0.14076566486E+04  0.50400001928E-02 0. -1.
        1   -1    0    0  501    0  0.00000000000E+00  0.00000000000E+00 -0.23419385590E+04  0.23419385590E+04  0.50400001928E-02 0.  1.
    10030    2    1    2    0    0  0.00000000000E+00  0.00000000000E+00 -0.93428191049E+03  0.37495952076E+04  0.36313332996E+04 0.  0.
        1    1    3    3  502    0  0.99549125420E+03  0.14226820659E+04 -0.10151007549E+04  0.20113320562E+04  0.50400001928E-02 0.  1.
       -1    1    3    3    0  502 -0.99549125420E+03 -0.14226820659E+04  0.80818844418E+02  0.17382631514E+04  0.50400001928E-02 0. -1.
</event>
<event>
 5   0  0.9878336E-07  0.3625107E+04  0.7818609E-02  0.8084765E-01
        2   -1    0    0  501    0  0.00000000000E+00  0.00000000000E+00  0.24635902291E+04  0.24635902291E+04  0.25500000920E-02 0. -1.
       -2   -1    0    0    0  501  0.00000000000E+00  0.00000000000E+00 -0.13335622108E+04  0.13335622108E+04  0.25500000920E-02 0.  1.
    10030    2    1    2    0    0  0.00000000000E+00  0.00000000000E+00  0.11300280183E+04  0.37971524399E+04  0.36251073542E+04 0.  0.
        3    1    3    3  502    0  0.99361670441E+03 -0.13508579806E+04 -0.15557357837E+03  0.16841302169E+04  0.10100000352E+00 0. -1.
       -3    1    3    3    0  502 -0.99361670441E+03  0.13508579806E+04  0.12856015967E+04  0.21130222229E+04  0.10100000352E+00 0.  1.
</event>
<event>
 5   0  0.9878977E-07  0.3605429E+04  0.7818609E-02  0.8089249E-01
        2   -1    0    0  501    0  0.00000000000E+00  0.00000000000E+00  0.23224550838E+04  0.23224550838E+04  0.25500000920E-02 0. -1.
       -2   -1    0    0    0  501  0.00000000000E+00  0.00000000000E+00 -0.13992861495E+04  0.13992861495E+04  0.25500000920E-02 0.  1.
    10030    2    1    2    0    0  0.00000000000E+00  0.00000000000E+00  0.92316893433E+03  0.37217412333E+04  0.36054288131E+04 0.  0.
        5    1    3    3  502    0  0.47770963407E+03 -0.94950533839E+03 -0.10414058465E+04  0.14880574953E+04  0.46999998093E+01 0.  1.
       -5    1    3    3    0  502 -0.47770963407E+03  0.94950533839E+03  0.19645747808E+04  0.22336837380E+04  0.46999998093E+01 0. -1.
</event>
<event>
 5   0  0.3242047E-07  0.3606224E+04  0.7818609E-02  0.8089067E-01
        1   -1    0    0  501    0  0.00000000000E+00  0.00000000000E+00  0.28505849317E+04  0.28505849317E+04  0.50400001928E-02 0.  1.
       -1   -1    0    0    0  501  0.00000000000E+00  0.00000000000E+00 -0.11405426382E+04  0.11405426382E+04  0.50400001928E-02 0. -1.
    10030    2    1    2    0    0  0.00000000000E+00  0.00000000000E+00  0.17100422935E+04  0.39911275699E+04  0.36062244292E+04 0.  0.
        1    1    3    3  502    0  0.69496577816E+03  0.12801121309E+04  0.20312597447E+04  0.24995360871E+04  0.50400001928E-02 0.  1.
       -1    1    3    3    0  502 -0.69496577816E+03 -0.12801121309E+04 -0.32121745119E+03  0.14915914828E+04  0.50400001928E-02 0. -1.
</event>
<event>
 5   0  0.3159875E-07  0.2871575E+04  0.7818609E-02  0.8281385E-01
       -1   -1    0    0    0  501  0.00000000000E+00  0.00000000000E+00  0.11669506444E+04  0.11669506444E+04  0.50400001928E-02 0.  1.
        1   -1    0    0  501    0  0.00000000000E+00  0.00000000000E+00 -0.17665578717E+04  0.17665578718E+04  0.50400001928E-02 0. -1.
    10030    2    1    2    0    0  0.00000000000E+00  0.00000000000E+00 -0.59960722737E+03  0.29335085161E+04  0.28715750708E+04 0.  0.
        2    1    3    3  502    0 -0.11423385586E+04  0.81926113676E+03 -0.13385502387E+01  0.14057481938E+04  0.25500000920E-02 0.  1.
       -2    1    3    3    0  502  0.11423385586E+04 -0.81926113676E+03 -0.59826867713E+03  0.15277603224E+04  0.25500000920E-02 0. -1.
</event>
<event>
 5   0  0.9538919E-07  0.3602849E+04  0.7818609E-02  0.8089839E-01
       -2   -1    0    0    0  501  0.00000000000E+00  0.00000000000E+00  0.11377971787E+04  0.11377971787E+04  0.25500000920E-02 0.  1.
        2   -1    0    0  501    0  0.00000000000E+00  0.00000000000E+00 -0.28521173029E+04  0.28521173029E+04  0.25500000920E-02 0. -1.
    10030    2    1    2    0    0  0.00000000000E+00  0.00000000000E+00 -0.17143201243E+04  0.39899144816E+04  0.36028494393E+04 0.  0.
        4    1    3    3  502    0 -0.14998758159E+04  0.83325112680E+02 -0.19582397277E+04  0.24680508467E+04  0.12699999809E+01 0. -1.
       -4    1    3    3    0  502  0.14998758159E+04 -0.83325112680E+02  0.24391960343E+03  0.15218636350E+04  0.12699999809E+01 0.  1.
</event>
<event>
 5   0  0.9538919E-07  0.3470798E+04  0.7818609E-02  0.8120745E-01
       -2   -1    0    0    0  501  0.00000000000E+00  0.00000000000E+00  0.15887177443E+04  0.15887177443E+04  0.25500000920E-02 0.  1.
        2   -1    0    0  501    0  0.00000000000E+00  0.00000000000E+00 -0.18956232111E+04  0.18956232111E+04  0.25500000920E-02 0. -1.
    10030    2    1    2    0    0  0.00000000000E+00  0.00000000000E+00 -0.30690546687E+03  0.34843409554E+04  0.34707983128E+04 0.  0.
        4    1    3    3  502    0 -0.17097558126E+04 -0.74824090967E+02  0.13532402831E+03  0.17167346297E+04  0.12699999809E+01 0.  1.
       -4    1    3    3    0  502  0.17097558126E+04  0.74824090967E+02 -0.44222949518E+03  0.17676063257E+04  0.12699999809E+01 0. -1.
</event>
<event>
 5   0  0.1031659E-06  0.3486385E+04  0.7818609E-02  0.8117024E-01
        2   -1    0    0  501    0  0.00000000000E+00  0.00000000000E+00  0.17788271695E+04  0.17788271695E+04  0.25500000920E-02 0.  1.
       -2   -1    0    0    0  501  0.00000000000E+00  0.00000000000E+00 -0.17082714972E+04  0.17082714972E+04  0.25500000920E-02 0. -1.
    10030    2    1    2    0    0  0.00000000000E+00  0.00000000000E+00  0.70555672339E+02  0.34870986666E+04  0.34863848049E+04 0.  0.
        2    1    3    3  502    0 -0.11319549705E+04  0.12810216105E+04  0.37649476829E+03  0.17504532934E+04  0.25500000920E-02 0.  1.
       -2    1    3    3    0  502  0.11319549705E+04 -0.12810216105E+04 -0.30593909595E+03  0.17366453732E+04  0.25500000920E-02 0. -1.
</event>
<event>
 5   0  0.1006019E-06  0.3613729E+04  0.7818609E-02  0.8087354E-01
        2   -1    0    0  501    0  0.00000000000E+00  0.00000000000E+00  0.22112910152E+04  0.22112910152E+04  0.25500000920E-02 0. -1.
       -2   -1    0    0    0  501  0.00000000000E+00  0.00000000000E+00 -0.14764044316E+04  0.14764044316E+04  0.25500000920E-02 0.  1.
    10030    2    1    2    0    0  0.00000000000E+00  0.00000000000E+00  0.73488658368E+03  0.36876954468E+04  0.36137292950E+04 0.  0.
        1    1    3    3  502    0 -0.10016242040E+04  0.51934742989E+03 -0.10727503308E+04  0.15568449092E+04  0.50400001928E-02 0.  1.
       -1    1    3    3    0  502  0.10016242040E+04 -0.51934742989E+03  0.18076369145E+04  0.21308505376E+04  0.50400001928E-02 0. -1.
</event>
<event>
 5   0  0.9538919E-07  0.3600296E+04  0.7818609E-02  0.8090424E-01
       -2   -1    0    0    0  501  0.00000000000E+00  0.00000000000E+00  0.20726623908E+04  0.20726623908E+04  0.25500000920E-02 0.  1.
        2   -1    0    0  501    0  0.00000000000E+00  0.00000000000E+00 -0.15634640593E+04  0.15634640594E+04  0.25500000920E-02 0. -1.
    10030    2    1    2    0    0  0.00000000000E+00  0.00000000000E+00  0.50919833145E+03  0.36361264501E+04  0.36002961851E+04 0.  0.
        4    1    3    3  502    0  0.17336855540E+04  0.29427898733E+03  0.64348423489E+03  0.18725221750E+04  0.12699999809E+01 0.  1.
       -4    1    3    3    0  502 -0.17336855540E+04 -0.29427898733E+03 -0.13428590345E+03  0.17636042751E+04  0.12699999809E+01 0. -1.
</event>
<event>
 5   0  0.9878336E-07  0.3570607E+04  0.7818609E-02  0.8097258E-01
       -2   -1    0    0    0  501  0.00000000000E+00  0.00000000000E+00  0.23841264210E+04  0.23841264210E+04  0.25500000920E-02 0.  1.
        2   -1    0    0  501    0  0.00000000000E+00  0.00000000000E+00 -0.13368871222E+04  0.13368871222E+04  0.25500000920E-02 0. -1.
    10030    2    1    2    0    0  0.00000000000E+00  0.00000000000E+00  0.10472392988E+04  0.37210135431E+04  0.35706066206E+04 0.  0.
        3    1    3    3  502    0  0.17838851998E+04 -0.64984529781E+02  0.49344293697E+03  0.18520138599E+04  0.10100000352E+00 0.  1.
       -3    1    3    3    0  502 -0.17838851998E+04  0.64984529781E+02  0.55379636184E+03  0.18689996832E+04  0.10100000352E+00 0. -1.
</event>
<event>
 5   0  0.3365378E-07  0.3644339E+04  0.7818609E-02  0.8080410E-01
       -1   -1    0    0    0  501  0.00000000000E+00  0.00000000000E+00  0.25318501868E+04  0.25318501868E+04  0.50400001928E-02 0.  1.
        1   -1    0    0  501    0  0.00000000000E+00  0.00000000000E+00 -0.13114131581E+04  0.13114131581E+04  0.50400001928E-02 0. -1.
    10030    2    1    2    0    0  0.00000000000E+00  0.00000000000E+00  0.12204370287E+04  0.38432633449E+04  0.36443389795E+04 0.  0.
        3    1    3    3  502    0 -0.74360849747E+03 -0.12256837486E+04  0.17963553006E+04  0.22982921105E+04  0.10100000352E+00 0.  1.
       -3    1    3    3    0  502  0.74360849747E+03  0.12256837486E+04 -0.57591827188E+03  0.15449712344E+04  0.10100000352E+00 0. -1.
</event>
<event>
 5   0  0.3365378E-07  0.3605453E+04  0.7818609E-02  0.8089244E-01
       -1   -1    0    0    0  501  0.00000000000E+00  0.00000000000E+00  0.19294489265E+04  0.19294489265E+04  0.50400001928E-02 0. -1.
        1   -1    0    0  501    0  0.00000000000E+00  0.00000000000E+00 -0.16843274106E+04  0.16843274106E+04  0.50400001928E-02 0.  1.
    10030    2    1    2    0    0  0.00000000000E+00  0.00000000000E+00  0.24512151589E+03  0.36137763371E+04  0.36054534884E+04 0.  0.
        3    1    3    3  502    0  0.14737444100E+04  0.10169791857E+04  0.33197955108E+03  0.18210929912E+04  0.10100000352E+00 0. -1.
       -3    1    3    3    0  502 -0.14737444100E+04 -0.10169791857E+04 -0.86858035195E+02  0.17926833459E+04  0.10100000352E+00 0.  1.
</event>
<event>
 5   0  0.3278988E-07  0.3646588E+04  0.7818609E-02  0.8079903E-01
        1   -1    0    0  501    0  0.00000000000E+00  0.00000000000E+00  0.28282985015E+04  0.28282985015E+04  0.50400001928E-02 0. -1.
       -1   -1    0    0    0  501  0.00000000000E+00  0.00000000000E+00 -0.11754067487E+04  0.11754067487E+04  0.50400001928E-02 0.  1.
    10030    2    1    2    0    0  0.00000000000E+00  0.00000000000E+00  0.16528917528E+04  0.40037052502E+04  0.36465880744E+04 0.  0.
        4    1    3    3  502    0 -0.26348941962E+03  0.12634861184E+04  0.22404251309E+04  0.25856005541E+04  0.12699999809E+01 0. -1.
       -4    1    3    3    0  502  0.26348941962E+03 -0.12634861184E+04 -0.58753337811E+03  0.14181046960E+04  0.12699999809E+01 0.  1.
</event>
<event>
 5   0  0.3242047E-07  0.3618741E+04  0.7818609E-02  0.8086212E-01
        1   -1    0    0  501    0  0.00000000000E+00  0.00000000000E+00  0.21476700917E+04  0.21476700917E+04  0.50400001928E-02 0. -1.
       -1   -1    0    0    0  501  0.00000000000E+00  0.00000000000E+00 -0.15243594356E+04  0.15243594356E+04  0.50400001928E-02 0.  1.
    10030    2    1    2    0    0  0.00000000000E+00  0.00000000000E+00  0.62331065608E+03  0.36720295273E+04  0.36187407583E+04 0.  0.
        1    1    3    3  502    0 -0.13969782744E+04  0.35185152150E+03 -0.79921377619E+03  0.16474496813E+04  0.50400001928E-02 0.  1.
       -1    1    3    3    0  502  0.13969782744E+04 -0.35185152150E+03  0.14225244323E+04  0.20245798460E+04  0.50400001928E-02 0. -1.
</event>
<event>
 5   0  0.1006019E-06  0.3472850E+04  0.7818609E-02  0.8120254E-01
       -2   -1    0    0    0  501  0.00000000000E+00  0.00000000000E+00  0.13542792349E+04  0.13542792349E+04  0.25500000920E-02 0. -1.
        2   -1    0    0  501    0  0.00000000000E+00  0.00000000000E+00 -0.22264031490E+04  0.22264031490E+04  0.25500000920E-02 0.  1.
    10030    2    1    2    0    0  0.00000000000E+00  0.00000000000E+00 -0.87212391411E+03  0.35806823838E+04  0.34728498689E+04 0.  0.
        1    1    3    3  502    0 -0.57902255635E+03  0.14479996801E+04 -0.12234504326E+04  0.19821203685E+04  0.50400001928E-02 0.  1.
       -1    1    3    3    0  502  0.57902255635E+03 -0.14479996801E+04  0.35132651845E+03  0.15985620153E+04  0.50400001928E-02 0. -1.
</event>
<event>
 5   0  0.9538919E-07  0.2864600E+04  0.7818609E-02  0.8283488E-01
       -2   -1    0    0    0  501  0.00000000000E+00  0.00000000000E+00  0.13032772917E+04  0.13032772917E+04  0.25500000920E-02 0. -1.
        2   -1    0    0  501    0  0.00000000000E+00  0.00000000000E+00 -0.15740962065E+04  0.15740962065E+04  0.25500000920E-02 0.  1.
    10030    2    1    2    0    0  0.00000000000E+00  0.00000000000E+00 -0.27081891483E+03  0.28773734982E+04  0.28646003846E+04 0.  0.
        4    1    3    3  502    0 -0.84978776691E+03 -0.64621276989E+02 -0.12917014308E+04  0.15475171591E+04  0.12699999809E+01 0.  1.
       -4    1    3    3    0  502  0.84978776691E+03  0.64621276989E+02  0.10208825160E+04  0.13298563391E+04  0.12699999809E+01 0. -1.
</event>
<event>
 5   0  0.1031659E-06  0.2856740E+04  0.7818609E-02  0.8285866E-01
        2   -1    0    0  501    0  0.00000000000E+00  0.00000000000E+00  0.28294038647E+04  0.28294038647E+04  0.25500000920E-02 0.  1.
       -2   -1    0    0    0  501  0.00000000000E+00  0.00000000000E+00 -0.72108490616E+03  0.72108490616E+03  0.25500000920E-02 0. -1.
    10030    2    1    2    0    0  0.00000000000E+00  0.00000000000E+00  0.21083189586E+04  0.35504887709E+04  0.28567396943E+04 0.  0.
        2    1    3    3  502    0  0.96849843071E+03  0.61168866482E+03  0.21146565338E+04  0.24049791036E+04  0.25500000920E-02 0. -1.
       -2    1    3    3    0  502 -0.96849843071E+03 -0.61168866482E+03 -0.63375752032E+01  0.11455096673E+04  0.25500000920E-02 0.  1.
</event>
<event>
 5   0  0.3159875E-07  0.3597706E+04  0.7818609E-02  0.8091017E-01
       -3   -1    0    0    0  501  0.00000000000E+00  0.00000000000E+00  0.13935280611E+04  0.13935280647E+04  0.10100000352E+00 0. -1.
        3   -1    0    0  501    0  0.00000000000E+00  0.00000000000E+00 -0.23220713402E+04  0.23220713424E+04  0.10100000352E+00 0.  1.
    10030    2    1    2    0    0  0.00000000000E+00  0.00000000000E+00 -0.92854327915E+03  0.37155994071E+04  0.35977057041E+04 0.  0.
        2    1    3    3  502    0  0.14723053132E+04 -0.26403768010E+03 -0.14962518254E+04  0.21156957146E+04  0.25500000920E-02 0.  1.
       -2    1    3    3    0  502 -0.14723053132E+04  0.26403768010E+03  0.56770854628E+03  0.15999036925E+04  0.25500000920E-02 0. -1.
</event>
<event>
 5   0  0.3365378E-07  0.3590029E+04  0.7818609E-02  0.8092779E-01
       -1   -1    0    0    0  501  0.00000000000E+00  0.00000000000E+00  0.17370355341E+04  0.17370355341E+04  0.50400001928E-02 0.  1.
        1   -1    0    0  501    0  0.00000000000E+00  0.00000000000E+00 -0.18549289925E+04  0.18549289925E+04  0.50400001928E-02 0. -1.
    10030    2    1    2    0    0  0.00000000000E+00  0.00000000000E+00 -0.11789345839E+03  0.35919645266E+04  0.35900292886E+04 0.  0.
        3    1    3    3  502    0 -0.52596230476E+03  0.17148826946E+04 -0.12694335710E+03  0.17982140108E+04  0.10100000352E+00 0.  1.
       -3    1    3    3    0  502  0.52596230476E+03 -0.17148826946E+04  0.90498987061E+01  0.17937505159E+04  0.10100000352E+00 0. -1.
</event>
<event>
 5   0  0.1006019E-06  0.3643547E+04  0.7818609E-02  0.8080589E-01
       -2   -1    0    0    0  501  0.00000000000E+00  0.00000000000E+00  0.19116247811E+04  0.19116247811E+04  0.25500000920E-02 0. -1.
        2   -1    0    0  501    0  0.00000000000E+00  0.00000000000E+00 -0.17361458873E+04  0.17361458873E+04  0.25500000920E-02 0.  1.
    10030    2    1    2    0    0  0.00000000000E+00  0.00000000000E+00  0.17547889378E+03  0.36477706683E+04  0.36435474481E+04 0.  0.
        1    1    3    3  502    0 -0.17450417584E+04  0.45261163172E+03 -0.17492218154E+03  0.18112497887E+04  0.50400001928E-02 0.  1.
       -1    1    3    3    0  502  0.17450417584E+04 -0.45261163172E+03  0.35040107532E+03  0.18365208796E+04  0.50400001928E-02 0. -1.
</event>
<event>
 5   0  0.3278988E-07  0.3396904E+04  0.7818609E-02  0.8138667E-01
       -1   -1    0    0    0  501  0.00000000000E+00  0.00000000000E+00  0.15722120059E+04  0.15722120059E+04  0.50400001928E-02 0. -1.
        1   -1    0    0  501    0  0.00000000000E+00  0.00000000000E+00 -0.18348281449E+04  0.18348281449E+04  0.50400001928E-02 0.  1.
    10030    2    1    2    0    0  0.00000000000E+00  0.00000000000E+00 -0.26261613898E+03  0.34070401509E+04  0.33969037892E+04 0.  0.
        4    1    3    3  502    0 -0.10469191615E+04 -0.11398386994E+04 -0.83301364965E+03  0.17576078472E+04  0.12699999809E+01 0.  1.
       -4    1    3    3    0  502  0.10469191615E+04  0.11398386994E+04  0.57039751066E+03  0.16494323036E+04  0.12699999809E+01 0. -1.
</event>
<event>
 5   0  0.3365378E-07  0.2802361E+04  0.7818609E-02  0.8302536E-01
        1   -1    0    0  501    0  0.00000000000E+00  0.00000000000E+00  0.24930612916E+04  0.24930612916E+04  0.50400001928E-02 0. -1.
       -1   -1    0    0    0  501  0.00000000000E+00  0.00000000000E+00 -0.78750860060E+03  0.78750860062E+03  0.50400001928E-02 0.  1.
    10030    2    1    2    0    0  0.00000000000E+00  0.00000000000E+00  0.17055526910E+04  0.32805698922E+04  0.28023612965E+04 0.  0.
        3    1    3    3  502    0 -0.13998493429E+04 -0.55547028607E+02  0.88247345448E+03  0.16557243319E+04  0.10100000352E+00 0. -1.
       -3    1    3    3    0  502  0.13998493429E+04  0.55547028607E+02  0.82307923649E+03  0.16248455603E+04  0.10100000352E+00 0.  1.
</event>
<event>
 5   0  0.3242047E-07  0.3582887E+04  0.7818609E-02  0.8094423E-01
        1   -1    0    0  501    0  0.00000000000E+00  0.00000000000E+00  0.16104841646E+04  0.16104841647E+04  0.50400001928E-02 0. -1.
       -1   -1    0    0    0  501  0.00000000000E+00  0.00000000000E+00 -0.19927360799E+04  0.19927360799E+04  0.50400001928E-02 0.  1.
    10030    2    1    2    0    0  0.00000000000E+00  0.00000000000E+00 -0.38225191521E+03  0.36032202445E+04  0.35828870487E+04 0.  0.
        1    1    3    3  502    0  0.17445680881E+04  0.77481995246E+02  0.21082795373E+03  0.17589683624E+04  0.50400001928E-02 0. -1.
       -1    1    3    3    0  502 -0.17445680881E+04 -0.77481995246E+02 -0.59307986894E+03  0.18442518821E+04  0.50400001928E-02 0.  1.
</event>
<event>
 5   0  0.3159875E-07  0.3592203E+04  0.7818609E-02  0.8092280E-01
       -3   -1    0    0    0  501  0.00000000000E+00  0.00000000000E+00  0.16143845172E+04  0.16143845204E+04  0.10100000352E+00 0.  1.
        3   -1    0    0  501    0  0.00000000000E+00  0.00000000000E+00 -0.19982730787E+04  0.19982730813E+04  0.10100000352E+00 0. -1.
    10030    2    1    2    0    0  0.00000000000E+00  0.00000000000E+00 -0.38388856149E+03  0.36126576017E+04  0.35922032959E+04 0.  0.
        2    1    3    3  502    0  0.45537405682E+01  0.93479352363E+03 -0.17343398447E+04  0.19702269832E+04  0.25500000920E-02 0. -1.
       -2    1    3    3    0  502 -0.45537405682E+01 -0.93479352363E+03  0.13504512832E+04  0.16424306185E+04  0.25500000920E-02 0.  1.
</event>
<event>
 5   0  0.3365378E-07  0.3469645E+04  0.7818609E-02  0.8121021E-01
       -1   -1    0    0    0  501  0.00000000000E+00  0.00000000000E+00  0.15091528274E+04  0.15091528274E+04  0.50400001928E-02 0. -1.
        1   -1    0    0  501    0  0.00000000000E+00  0.00000000000E+00 -0.19942379767E+04  0.19942379767E+04  0.50400001928E-02 0.  1.
    10030    2    1    2    0    0  0.00000000000E+00  0.00000000000E+00 -0.48508514932E+03  0.35033908041E+04  0.34696454465E+04 0.  0.
        3    1    3    3  502    0  0.13593626605E+04  0.61770960239E+03 -0.11344100022E+04  0.18751848066E+04  0.10100000352E+00 0.  1.
       -3    1    3    3    0  502 -0.13593626605E+04 -0.61770960239E+03  0.64932485292E+03  0.16282059975E+04  0.10100000352E+00 0. -1.
</event>
<event>
 5   0  0.9538919E-07  0.3607351E+04  0.7818609E-02  0.8088810E-01
        2   -1    0    0  501    0  0.00000000000E+00  0.00000000000E+00  0.27982197659E+04  0.27982197659E+04  0.25500000920E-02 0.  1.
       -2   -1    0    0    0  501  0.00000000000E+00  0.00000000000E+00 -0.11626124364E+04  0.11626124364E+04  0.25500000920E-02 0. -1.
    10030    2    1    2    0    0  0.00000000000E+00  0.00000000000E+00  0.16356073295E+04  0.39608322024E+04  0.36073508838E+04 0.  0.
        4    1    3    3  502    0  0.52789347497E+03 -0.10073744145E+04 -0.71929049017E+03  0.13456801827E+04  0.12699999809E+01 0. -1.
       -4    1    3    3    0  502 -0.52789347497E+03  0.10073744145E+04  0.23548978197E+04  0.26151520197E+04  0.12699999809E+01 0.  1.
</event>
<event>
 5   0  0.1006019E-06  0.3587015E+04  0.7818609E-02  0.8093472E-01
       -2   -1    0    0    0  501  0.00000000000E+00  0.00000000000E+00  0.17005645614E+04  0.17005645614E+04  0.25500000920E-02 0.  1.
        2   -1    0    0  501    0  0.00000000000E+00  0.00000000000E+00 -0.18915305312E+04  0.18915305312E+04  0.25500000920E-02 0. -1.
    10030    2    1    2    0    0  0.00000000000E+00  0.00000000000E+00 -0.19096596980E+03  0.35920950925E+04  0.35870153543E+04 0.  0.
        1    1    3    3  502    0 -0.94501425258E+03 -0.14828749657E+04 -0.44911149423E+03  0.18148474414E+04  0.50400001928E-02 0. -1.
       -1    1    3    3    0  502  0.94501425258E+03  0.14828749657E+04  0.25814552443E+03  0.17772476511E+04  0.50400001928E-02 0.  1.
</event>
<event>
 5   0  0.3278988E-07  0.3569116E+04  0.7818609E-02  0.8097603E-01
        1   -1    0    0  501    0  0.00000000000E+00  0.00000000000E+00  0.14883334481E+04  0.14883334481E+04  0.50400001928E-02 0. -1.
       -1   -1    0    0    0  501  0.00000000000E+00  0.00000000000E+00 -0.21397410040E+04  0.21397410040E+04  0.50400001928E-02 0.  1.
    10030    2    1    2    0    0  0.00000000000E+00  0.00000000000E+00 -0.65140755591E+03  0.36280744521E+04  0.35691164769E+04 0.  0.
        4    1    3    3  502    0  0.23894988004E+03 -0.16474333094E+03  0.14641805677E+04  0.14926700098E+04  0.12699999809E+01 0. -1.
       -4    1    3    3    0  502 -0.23894988004E+03  0.16474333094E+03 -0.21155881236E+04  0.21354044423E+04  0.12699999809E+01 0.  1.
</event>
<event>
 5   0  0.9878977E-07  0.3628838E+04  0.7818609E-02  0.8083918E-01
        2   -1    0    0  501    0  0.00000000000E+00  0.00000000000E+00  0.20736788729E+04  0.20736788729E+04  0.25500000920E-02 0. -1.
       -2   -1    0    0    0  501  0.00000000000E+00  0.00000000000E+00 -0.15875727175E+04  0.15875727175E+04  0.25500000920E-02 0.  1.
    10030    2    1    2    0    0  0.00000000000E+00  0.00000000000E+00  0.48610615541E+03  0.36612515904E+04  0.36288378324E+04 0.  0.
        5    1    3    3  502    0  0.14873531725E+04 -0.92103881584E+03 -0.24245405545E+03  0.17661647769E+04  0.46999998093E+01 0.  1.
       -5    1    3    3    0  502 -0.14873531725E+04  0.92103881584E+03  0.72856021086E+03  0.18950868136E+04  0.46999998093E+01 0. -1.
</event>
<event>
 5   0  0.3278988E-07  0.3597977E+04  0.7818609E-02  0.8090955E-01
        1   -1    0    0  501    0  0.00000000000E+00  0.00000000000E+00  0.16605476946E+04  0.16605476946E+04  0.50400001928E-02 0. -1.
       -1   -1    0    0    0  501  0.00000000000E+00  0.00000000000E+00 -0.19489715447E+04  0.19489715447E+04  0.50400001928E-02 0.  1.
    10030    2    1    2    0    0  0.00000000000E+00  0.00000000000E+00 -0.28842385003E+03  0.36095192393E+04  0.35979773237E+04 0.  0.
        4    1    3    3  502    0 -0.10033988781E+04  0.73184906508E+03  0.11614800938E+04  0.17004264123E+04  0.12699999809E+01 0. -1.
       -4    1    3    3    0  502  0.10033988781E+04 -0.73184906508E+03 -0.14499039439E+04  0.19090928269E+04  0.12699999809E+01 0.  1.
</event>
<event>
 5   0  0.3242047E-07  0.3601839E+04  0.7818609E-02  0.8090071E-01
       -1   -1    0    0    0  501  0.00000000000E+00  0.00000000000E+00  0.15158723312E+04  0.15158723312E+04  0.50400001928E-02 0.  1.
        1   -1    0    0  501    0  0.00000000000E+00  0.00000000000E+00 -0.21395678164E+04  0.21395678164E+04  0.50400001928E-02 0. -1.
    10030    2    1    2    0    0  0.00000000000E+00  0.00000000000E+00 -0.62369548515E+03  0.36554401476E+04  0.36018393377E+04 0.  0.
        1    1    3    3  502    0  0.73136465670E+03  0.12088344846E+04 -0.14452194044E+04  0.20210972760E+04  0.50400001928E-02 0.  1.
       -1    1    3    3    0  502 -0.73136465670E+03 -0.12088344846E+04  0.82152391925E+03  0.16343428716E+04  0.50400001928E-02 0. -1.
</event>
<event>
 5   0  0.3242047E-07  0.3613881E+04  0.7818609E-02  0.8087319E-01
       -1   -1    0    0    0  501  0.00000000000E+00  0.00000000000E+00  0.14703595742E+04  0.14703595742E+04  0.50400001928E-02 0. -1.
        1   -1    0    0  501    0  0.00000000000E+00  0.00000000000E+00 -0.22205686062E+04  0.22205686062E+04  0.50400001928E-02 0.  1.
    10030    2    1    2    0    0  0.00000000000E+00  0.00000000000E+00 -0.75020903203E+03  0.36909281804E+04  0.36138811880E+04 0.  0.
        1    1    3    3  502    0  0.64448010529E+03 -0.21516872152E+03  0.13349221162E+04  0.14978882606E+04  0.50400001928E-02 0. -1.
       -1    1    3    3    0  502 -0.64448010529E+03  0.21516872152E+03 -0.20851311482E+04  0.21930399198E+04  0.50400001928E-02 0.  1.
</event>
<event>
 5   0  0.3365378E-07  0.3567925E+04  0.7818609E-02  0.8097879E-01
        1   -1    0    0  501    0  0.00000000000E+00  0.00000000000E+00  0.19959095700E+04  0.19959095700E+04  0.50400001928E-02 0.  1.
       -1   -1    0    0    0  501  0.00000000000E+00  0.00000000000E+00 -0.15945219617E+04  0.15945219617E+04  0.50400001928E-02 0. -1.
    10030    2    1    2    0    0  0.00000000000E+00  0.00000000000E+00  0.40138760829E+03  0.35904315317E+04  0.35679246870E+04 0.  0.
        3    1    3    3  502    0 -0.17114175914E+04 -0.48754166716E+03  0.32748296910E+03  0.18093899951E+04  0.10100000352E+00 0. -1.
       -3    1    3    3    0  502  0.17114175914E+04  0.48754166716E+03  0.73904639197E+02  0.17810415366E+04  0.10100000352E+00 0.  1.
</event>
<event>
 5   0  0.9878977E-07  0.3607638E+04  0.7818609E-02  0.8088744E-01
       -2   -1    0    0    0  501  0.00000000000E+00  0.00000000000E+00  0.14309941295E+04  0.14309941295E+04  0.25500000920E-02 0.  1.
        2   -1    0    0  501    0  0.00000000000E+00  0.00000000000E+00 -0.22737779943E+04  0.22737779943E+04  0.25500000920E-02 0. -1.
    10030    2    1    2    0    0  0.00000000000E+00  0.00000000000E+00 -0.84278386474E+03  0.37047721238E+04  0.36076379872E+04 0.  0.
        5    1    3    3  502    0  0.33512744822E+03 -0.13915657372E+03 -0.22359028381E+04  0.22651619257E+04  0.46999998093E+01 0. -1.
       -5    1    3    3    0  502 -0.33512744822E+03  0.13915657372E+03  0.13931189733E+04  0.14396101981E+04  0.46999998093E+01 0.  1.
</event>
<event>
 5   0  0.1006019E-06  0.3582025E+04  0.7818609E-02  0.8094622E-01
       -2   -1    0    0    0  501  0.00000000000E+00  0.00000000000E+00  0.20679576805E+04  0.20679576805E+04  0.25500000920E-02 0.  1.
        2   -1    0    0  501    0  0.00000000000E+00  0.00000000000E+00 -0.15511562034E+04  0.15511562034E+04  0.25500000920E-02 0. -1.
    10030    2    1    2    0    0  0.00000000000E+00  0.00000000000E+00  0.51680147718E+03  0.36191138839E+04  0.35820247818E+04 0.  0.
        1    1    3    3  502    0  0.31296407565E+01  0.16198204460E+04 -0.51364299353E+03  0.16993108005E+04  0.50400001928E-02 0.  1.
       -1    1    3    3    0  502 -0.31296407565E+01 -0.16198204460E+04  0.10304444707E+04  0.19198030834E+04  0.50400001928E-02 0. -1.
</event>
<event>
 5   0  0.3278988E-07  0.3565883E+04  0.7818609E-02  0.8098352E-01
       -1   -1    0    0    0  501  0.00000000000E+00  0.00000000000E+00  0.13746211512E+04  0.13746211512E+04  0.50400001928E-02 0.  1.
        1   -1    0    0  501    0  0.00000000000E+00  0.00000000000E+00 -0.23125497560E+04  0.23125497560E+04  0.50400001928E-02 0. -1.
    10030    2    1    2    0    0  0.00000000000E+00  0.00000000000E+00 -0.93792860483E+03  0.36871709073E+04  0.35658826722E+04 0.  0.
        4    1    3    3  502    0  0.16429418922E+03 -0.12468516165E+04 -0.17757735929E+04  0.21760066637E+04  0.12699999809E+01 0. -1.
       -4    1    3    3    0  502 -0.16429418922E+03  0.12468516165E+04  0.83784498808E+03  0.15111642436E+04  0.12699999809E+01 0.  1.
</event>
<event>
 5   0  0.3365378E-07  0.3593958E+04  0.7818609E-02  0.8091877E-01
       -1   -1    0    0    0  501  0.00000000000E+00  0.00000000000E+00  0.16980454199E+04  0.16980454199E+04  0.50400001928E-02 0. -1.
        1   -1    0    0  501    0  0.00000000000E+00  0.00000000000E+00 -0.19016763986E+04  0.19016763986E+04  0.50400001928E-02 0.  1.
    10030    2    1    2    0    0  0.00000000000E+00  0.00000000000E+00 -0.20363097871E+03  0.35997218185E+04  0.35939576507E+04 0.  0.
        3    1    3    3  502    0  0.11975692007E+04 -0.13054917877E+04  0.19975226153E+03  0.17828016643E+04  0.10100000352E+00 0. -1.
       -3    1    3    3    0  502 -0.11975692007E+04  0.13054917877E+04 -0.40338324024E+03  0.18169201542E+04  0.10100000352E+00 0.  1.
</event>
<event>
 5   0  0.9878977E-07  0.3574964E+04  0.7818609E-02  0.8096251E-01
        2   -1    0    0  501    0  0.00000000000E+00  0.00000000000E+00  0.28884145412E+04  0.28884145412E+04  0.25500000920E-02 0.  1.
       -2   -1    0    0    0  501  0.00000000000E+00  0.00000000000E+00 -0.11061752021E+04  0.11061752021E+04  0.25500000920E-02 0. -1.
    10030    2    1    2    0    0  0.00000000000E+00  0.00000000000E+00  0.17822393391E+04  0.39945897433E+04  0.35749643572E+04 0.  0.
        5    1    3    3  502    0  0.13219833943E+04 -0.11643145844E+04  0.55256694936E+03  0.18462450730E+04  0.46999998093E+01 0.  1.
       -5    1    3    3    0  502 -0.13219833943E+04  0.11643145844E+04  0.12296723898E+04  0.21483446703E+04  0.46999998093E+01 0. -1.
</event>
<event>
 5   0  0.3159875E-07  0.2638869E+04  0.7818609E-02  0.8355117E-01
       -1   -1    0    0    0  501  0.00000000000E+00  0.00000000000E+00  0.13616319718E+04  0.13616319718E+04  0.50400001928E-02 0. -1.
        1   -1    0    0  501    0  0.00000000000E+00  0.00000000000E+00 -0.12785449553E+04  0.12785449553E+04  0.50400001928E-02 0.  1.
    10030    2    1    2    0    0  0.00000000000E+00  0.00000000000E+00  0.83087016488E+02  0.26401769270E+04  0.26388692188E+04 0.  0.
        5    1    3    3  502    0  0.33684363224E+02  0.13162349104E+04  0.12688890411E+03  0.13227743041E+04  0.46999998093E+01 0.  1.
       -5    1    3    3    0  502 -0.33684363224E+02 -0.13162349104E+04 -0.43801887619E+02  0.13174026229E+04  0.46999998093E+01 0. -1.
</event>
<event>
 5   0  0.3365378E-07  0.3602714E+04  0.7818609E-02  0.8089870E-01
        1   -1    0    0  501    0  0.00000000000E+00  0.00000000000E+00  0.21422810220E+04  0.21422810220E+04  0.50400001928E-02 0. -1.
       -1   -1    0    0    0  501  0.00000000000E+00  0.00000000000E+00 -0.15146880389E+04  0.15146880389E+04  0.50400001928E-02 0.  1.
    10030    2    1    2    0    0  0.00000000000E+00  0.00000000000E+00  0.62759298305E+03  0.36569690609E+04  0.36027142212E+04 0.  0.
        3    1    3    3  502    0  0.56018128804E+03 -0.17698176732E+03 -0.14147164482E+04  0.15318447246E+04  0.10100000352E+00 0.  1.
       -3    1    3    3    0  502 -0.56018128804E+03  0.17698176732E+03  0.20423094312E+04  0.21251243363E+04  0.10100000352E+00 0. -1.
</event>
<event>
 5   0  0.9538919E-07  0.2979998E+04  0.7818609E-02  0.8249466E-01
       -2   -1    0    0    0  501  0.00000000000E+00  0.00000000000E+00  0.21826360292E+04  0.21826360292E+04  0.25500000920E-02 0.  1.
        2   -1    0    0  501    0  0.00000000000E+00  0.00000000000E+00 -0.10171632947E+04  0.10171632947E+04  0.25500000920E-02 0. -1.
    10030    2    1    2    0    0  0.00000000000E+00  0.00000000000E+00  0.11654727344E+04  0.31997993239E+04  0.29799981575E+04 0.  0.
        4    1    3    3  502    0 -0.76175125093E+03  0.12771487560E+04  0.68301491414E+03  0.16364244251E+04  0.12699999809E+01 0.  1.
       -4    1    3    3    0  502  0.76175125093E+03 -0.12771487560E+04  0.48245782030E+03  0.15633748989E+04  0.12699999809E+01 0. -1.
</event>
<event>
 5   0  0.1031659E-06  0.3581863E+04  0.7818609E-02  0.8094659E-01
       -2   -1    0    0    0  501  0.00000000000E+00  0.00000000000E+00  0.15670389493E+04  0.15670389493E+04  0.25500000920E-02 0.  1.
        2   -1    0    0  501    0  0.00000000000E+00  0.00000000000E+00 -0.20468126887E+04  0.20468126887E+04  0.25500000920E-02 0. -1.
    10030    2    1    2    0    0  0.00000000000E+00  0.00000000000E+00 -0.47977373935E+03  0.36138516380E+04  0.35818627584E+04 0.  0.
        2    1    3    3  502    0 -0.15161335375E+04 -0.79789913868E+03  0.28643400932E+03  0.17370516345E+04  0.25500000920E-02 0.  1.
       -2    1    3    3    0  502  0.15161335375E+04  0.79789913868E+03 -0.76620774867E+03  0.18768000035E+04  0.25500000920E-02 0. -1.
</event>
<event>
 5   0  0.3159875E-07  0.3530115E+04  0.7818609E-02  0.8106690E-01
        1   -1    0    0  501    0  0.00000000000E+00  0.00000000000E+00  0.26696744456E+04  0.26696744456E+04  0.50400001928E-02 0. -1.
       -1   -1    0    0    0  501  0.00000000000E+00  0.00000000000E+00 -0.11669692698E+04  0.11669692698E+04  0.50400001928E-02 0.  1.
    10030    2    1    2    0    0  0.00000000000E+00  0.00000000000E+00  0.15027051758E+04  0.38366437155E+04  0.35301150341E+04 0.  0.
        2    1    3    3  502    0 -0.83975877381E+03 -0.11803720868E+04  0.18473599622E+04  0.23475970462E+04  0.25500000920E-02 0. -1.
       -2    1    3    3    0  502  0.83975877381E+03  0.11803720868E+04 -0.34465478637E+03  0.14890466693E+04  0.25500000920E-02 0.  1.
</event>
<event>
 5   0  0.1031659E-06  0.3589022E+04  0.7818609E-02  0.8093011E-01
        2   -1    0    0  501    0  0.00000000000E+00  0.00000000000E+00  0.23575792451E+04  0.23575792451E+04  0.25500000920E-02 0.  1.
       -2   -1    0    0    0  501  0.00000000000E+00  0.00000000000E+00 -0.13659219967E+04  0.13659219967E+04  0.25500000920E-02 0. -1.
    10030    2    1    2    0    0  0.00000000000E+00  0.00000000000E+00  0.99165724844E+03  0.37235012418E+04  0.35890217886E+04 0.  0.
        2    1    3    3  502    0  0.87792666554E+03  0.15622578955E+04  0.39814994563E+03  0.18357364575E+04  0.25500000920E-02 0. -1.
       -2    1    3    3    0  502 -0.87792666554E+03 -0.15622578955E+04  0.59350730281E+03  0.18877647843E+04  0.25500000920E-02 0.  1.
</event>
<event>
 5   0  0.3159875E-07  0.2617929E+04  0.7818609E-02  0.8362136E-01
       -1   -1    0    0    0  501  0.00000000000E+00  0.00000000000E+00  0.14080920333E+04  0.14080920334E+04  0.50400001928E-02 0.  1.
        1   -1    0    0  501    0  0.00000000000E+00  0.00000000000E+00 -0.12168156489E+04  0.12168156489E+04  0.50400001928E-02 0. -1.
    10030    2    1    2    0    0  0.00000000000E+00  0.00000000000E+00  0.19127638443E+03  0.26249076823E+04  0.26179292743E+04 0.  0.
        2    1    3    3  502    0 -0.43168205249E+03 -0.11579711496E+03 -0.11379380475E+04  0.12225634406E+04  0.25500000920E-02 0. -1.
       -2    1    3    3    0  502  0.43168205249E+03  0.11579711496E+03  0.13292144319E+04  0.14023442417E+04  0.25500000920E-02 0.  1.
</event>
<event>
 5   0  0.3242047E-07  0.3578675E+04  0.7818609E-02  0.8095394E-01
        1   -1    0    0  501    0  0.00000000000E+00  0.00000000000E+00  0.12879503169E+04  0.12879503169E+04  0.50400001928E-02 0.  1.
       -1   -1    0    0    0  501  0.00000000000E+00  0.00000000000E+00 -0.24859096391E+04  0.24859096391E+04  0.50400001928E-02 0. -1.
    10030    2    1    2    0    0  0.00000000000E+00  0.00000000000E+00 -0.11979593222E+04  0.37738599560E+04  0.35786746751E+04 0.  0.
        1    1    3    3  502    0  0.11336546262E+04  0.10211157883E+04 -0.15847799111E+04  0.21998585480E+04  0.50400001928E-02 0. -1.
       -1    1    3    3    0  502 -0.11336546262E+04 -0.10211157883E+04  0.38682058887E+03  0.15740014080E+04  0.50400001928E-02 0.  1.
</event>
<event>
 5   0  0.1031659E-06  0.3579089E+04  0.7818609E-02  0.8095299E-01
       -2   -1    0    0    0  501  0.00000000000E+00  0.00000000000E+00  0.10077290653E+04  0.10077290653E+04  0.25500000920E-02 0. -1.
        2   -1    0    0  501    0  0.00000000000E+00  0.00000000000E+00 -0.31779068923E+04  0.31779068923E+04  0.25500000920E-02 0.  1.
    10030    2    1    2    0    0  0.00000000000E+00  0.00000000000E+00 -0.21701778270E+04  0.41856359577E+04  0.35790887904E+04 0.  0.
        2    1    3    3  502    0 -0.22865492632E+03  0.14880883121E+04 -0.22163834360E+04  0.26793740753E+04  0.25500000920E-02 0.  1.
       -2    1    3    3    0  502  0.22865492632E+03 -0.14880883121E+04  0.46205609027E+02  0.15062618824E+04  0.25500000920E-02 0. -1.
</event>
<event>
 5   0  0.9538919E-07  0.2575858E+04  0.7818609E-02  0.8376448E-01
        2   -1    0    0  501    0  0.00000000000E+00  0.00000000000E+00  0.18473877967E+04  0.18473877967E+04  0.25500000920E-02 0. -1.
       -2   -1    0    0    0  501  0.00000000000E+00  0.00000000000E+00 -0.89789525765E+03  0.89789525766E+03  0.25500000920E-02 0.  1.
    10030    2    1    2    0    0  0.00000000000E+00  0.00000000000E+00  0.94949253905E+03  0.27452830544E+04  0.25758577148E+04 0.  0.
        4    1    3    3  502    0 -0.88909061286E+03  0.73355363872E+03  0.10871503229E+04  0.15844495878E+04  0.12699999809E+01 0. -1.
       -4    1    3    3    0  502  0.88909061286E+03 -0.73355363872E+03 -0.13765778386E+03  0.11608334666E+04  0.12699999809E+01 0.  1.
</event>
<event>
 5   0  0.1006019E-06  0.3575313E+04  0.7818609E-02  0.8096170E-01
        2   -1    0    0  501    0  0.00000000000E+00  0.00000000000E+00  0.21286419660E+04  0.21286419660E+04  0.25500000920E-02 0.  1.
       -2   -1    0    0    0  501  0.00000000000E+00  0.00000000000E+00 -0.15012935050E+04  0.15012935050E+04  0.25500000920E-02 0. -1.
    10030    2    1    2    0    0  0.00000000000E+00  0.00000000000E+00  0.62734846097E+03  0.36299354709E+04  0.35753133334E+04 0.  0.
        1    1    3    3  502    0 -0.84298512984E+03  0.15740037110E+04  0.40221171340E+03  0.18302693446E+04  0.50400001928E-02 0.  1.
       -1    1    3    3    0  502  0.84298512984E+03 -0.15740037110E+04  0.22513674757E+03  0.17996661264E+04  0.50400001928E-02 0. -1.
</event>
<event>
 5   0  0.1006019E-06  0.3607679E+04  0.7818609E-02  0.8088735E-01
        2   -1    0    0  501    0  0.00000000000E+00  0.00000000000E+00  0.15917330698E+04  0.15917330698E+04  0.25500000920E-02 0.  1.
       -2   -1    0    0    0  501  0.00000000000E+00  0.00000000000E+00 -0.20442106026E+04  0.20442106026E+04  0.25500000920E-02 0. -1.
    10030    2    1    2    0    0  0.00000000000E+00  0.00000000000E+00 -0.45247753275E+03  0.36359436724E+04  0.36076793748E+04 0.  0.
        1    1    3    3  502    0 -0.13252078419E+04  0.71842905003E+03  0.77224065890E+03  0.16937153714E+04  0.50400001928E-02 0.  1.
       -1    1    3    3    0  502  0.13252078419E+04 -0.71842905003E+03 -0.12247181916E+04  0.19422283010E+04  0.50400001928E-02 0. -1.
</event>
<event>
 5   0  0.3159875E-07  0.3320032E+04  0.7818609E-02  0.8157817E-01
        1   -1    0    0  501    0  0.00000000000E+00  0.00000000000E+00  0.22073027390E+04  0.22073027390E+04  0.50400001928E-02 0.  1.
       -1   -1    0    0    0  501  0.00000000000E+00  0.00000000000E+00 -0.12484257885E+04  0.12484257885E+04  0.50400001928E-02 0. -1.
    10030    2    1    2    0    0  0.00000000000E+00  0.00000000000E+00  0.95887695050E+03  0.34557285275E+04  0.33200323266E+04 0.  0.
        2    1    3    3  502    0 -0.15914041629E+03 -0.37862784399E+03 -0.11947059211E+04  0.12633316882E+04  0.25500000920E-02 0. -1.
       -2    1    3    3    0  502  0.15914041629E+03  0.37862784399E+03  0.21535828716E+04  0.21923968394E+04  0.25500000920E-02 0.  1.
</event>
<event>
 5   0  0.3159875E-07  0.3625953E+04  0.7818609E-02  0.8084573E-01
       -1   -1    0    0    0  501  0.00000000000E+00  0.00000000000E+00  0.17782344565E+04  0.17782344565E+04  0.50400001928E-02 0.  1.
        1   -1    0    0  501    0  0.00000000000E+00  0.00000000000E+00 -0.18483973772E+04  0.18483973772E+04  0.50400001928E-02 0. -1.
    10030    2    1    2    0    0  0.00000000000E+00  0.00000000000E+00 -0.70162920646E+02  0.36266318337E+04  0.36259530640E+04 0.  0.
        2    1    3    3  502    0 -0.63777492764E+03  0.87552072656E+03 -0.14891728938E+04  0.18414476122E+04  0.25500000920E-02 0. -1.
       -2    1    3    3    0  502  0.63777492764E+03 -0.87552072656E+03  0.14190099731E+04  0.17851842215E+04  0.25500000920E-02 0.  1.
</event>
<event>
 5   0  0.1006019E-06  0.3581957E+04  0.7818609E-02  0.8094637E-01
       -2   -1    0    0    0  501  0.00000000000E+00  0.00000000000E+00  0.30522091483E+04  0.30522091483E+04  0.25500000920E-02 0.  1.
        2   -1    0    0  501    0  0.00000000000E+00  0.00000000000E+00 -0.10509120785E+04  0.10509120785E+04  0.25500000920E-02 0. -1.
    10030    2    1    2    0    0  0.00000000000E+00  0.00000000000E+00  0.20012970698E+04  0.41031212268E+04  0.35819567055E+04 0.  0.
        1    1    3    3  502    0  0.32882455057E+03  0.44272334119E+03  0.29525279352E+04  0.30035896441E+04  0.50400001928E-02 0.  1.
       -1    1    3    3    0  502 -0.32882455057E+03 -0.44272334119E+03 -0.95123086543E+03  0.10995315827E+04  0.50400001928E-02 0. -1.
</event>
<event>
 5   0  0.9878977E-07  0.3592082E+04  0.7818609E-02  0.8092308E-01
       -2   -1    0    0    0  501  0.00000000000E+00  0.00000000000E+00  0.13465409893E+04  0.13465409893E+04  0.25500000920E-02 0.  1.
        2   -1    0    0  501    0  0.00000000000E+00  0.00000000000E+00 -0.23955928000E+04  0.23955928000E+04  0.25500000920E-02 0. -1.
    10030    2    1    2    0    0  0.00000000000E+00  0.00000000000E+00 -0.10490518108E+04  0.37421337893E+04  0.35920823481E+04 0.  0.
        5    1    3    3  502    0 -0.49513342137E+03  0.14841312717E+04 -0.14433784417E+04  0.21286536009E+04  0.46999998093E+01 0. -1.
       -5    1    3    3    0  502  0.49513342137E+03 -0.14841312717E+04  0.39432663087E+03  0.16134801884E+04  0.46999998093E+01 0.  1.
</event>
<event>
 5   0  0.9538919E-07  0.3561933E+04  0.7818609E-02  0.8099268E-01
       -2   -1    0    0    0  501  0.00000000000E+00  0.00000000000E+00  0.24920157038E+04  0.24920157038E+04  0.25500000920E-02 0.  1.
        2   -1    0    0  501    0  0.00000000000E+00  0.00000000000E+00 -0.12728013687E+04  0.12728013687E+04  0.25500000920E-02 0. -1.
    10030    2    1    2    0    0  0.00000000000E+00  0.00000000000E+00  0.12192143351E+04  0.37648170725E+04  0.35619326207E+04 0.  0.
        4    1    3    3  502    0  0.24044736710E+03  0.10849057644E+04 -0.86142927062E+03  0.14060218544E+04  0.12699999809E+01 0. -1.
       -4    1    3    3    0  502 -0.24044736710E+03 -0.10849057644E+04  0.20806436057E+04  0.23587952181E+04  0.12699999809E+01 0.  1.
</event>
<event>
 5   0  0.3242047E-07  0.3587462E+04  0.7818609E-02  0.8093370E-01
        1   -1    0    0  501    0  0.00000000000E+00  0.00000000000E+00  0.17984448521E+04  0.17984448521E+04  0.50400001928E-02 0. -1.
       -1   -1    0    0    0  501  0.00000000000E+00  0.00000000000E+00 -0.17890294173E+04  0.17890294173E+04  0.50400001928E-02 0.  1.
    10030    2    1    2    0    0  0.00000000000E+00  0.00000000000E+00  0.94154347274E+01  0.35874742694E+04  0.35874619138E+04 0.  0.
        1    1    3    3  502    0 -0.17329742295E+04  0.46117189370E+03 -0.35186657294E+02  0.17936324307E+04  0.50400001928E-02 0.  1.
       -1    1    3    3    0  502  0.17329742295E+04 -0.46117189370E+03  0.44602092022E+02  0.17938418387E+04  0.50400001928E-02 0. -1.
</event>
<event>
 5   0  0.9878336E-07  0.3639207E+04  0.7818609E-02  0.8081569E-01
        2   -1    0    0  501    0  0.00000000000E+00  0.00000000000E+00  0.30450168413E+04  0.30450168413E+04  0.25500000920E-02 0. -1.
       -2   -1    0    0    0  501  0.00000000000E+00  0.00000000000E+00 -0.10873361231E+04  0.10873361231E+04  0.25500000920E-02 0.  1.
    10030    2    1    2    0    0  0.00000000000E+00  0.00000000000E+00  0.19576807182E+04  0.41323529643E+04  0.36392069503E+04 0.  0.
        3    1    3    3  502    0  0.43053673193E+03  0.14920362286E+04  0.20557334867E+04  0.25763489988E+04  0.10100000352E+00 0. -1.
       -3    1    3    3    0  502 -0.43053673193E+03 -0.14920362286E+04 -0.98052768488E+02  0.15560039655E+04  0.10100000352E+00 0.  1.
</event>
<event>
 5   0  0.1006019E-06  0.3646278E+04  0.7818609E-02  0.8079973E-01
       -2   -1    0    0    0  501  0.00000000000E+00  0.00000000000E+00  0.27896521196E+04  0.27896521196E+04  0.25500000920E-02 0. -1.
        2   -1    0    0  501    0  0.00000000000E+00  0.00000000000E+00 -0.11914877489E+04  0.11914877489E+04  0.25500000920E-02 0.  1.
    10030    2    1    2    0    0  0.00000000000E+00  0.00000000000E+00  0.15981643707E+04  0.39811398685E+04  0.36462782802E+04 0.  0.
        1    1    3    3  502    0 -0.34673949212E+03 -0.35972744289E+03  0.27134438206E+04  0.27590595275E+04  0.50400001928E-02 0. -1.
       -1    1    3    3    0  502  0.34673949212E+03  0.35972744289E+03 -0.11152794499E+04  0.12220803411E+04  0.50400001928E-02 0.  1.
</event>
<event>
 5   0  0.3278988E-07  0.3574908E+04  0.7818609E-02  0.8096264E-01
       -1   -1    0    0    0  501  0.00000000000E+00  0.00000000000E+00  0.18837165779E+04  0.18837165779E+04  0.50400001928E-02 0.  1.
        1   -1    0    0  501    0  0.00000000000E+00  0.00000000000E+00 -0.16961108775E+04  0.16961108775E+04  0.50400001928E-02 0. -1.
    10030    2    1    2    0    0  0.00000000000E+00  0.00000000000E+00  0.18760570036E+03  0.35798274554E+04  0.35749082102E+04 0.  0.
        4    1    3    3  502    0  0.99501463600E+03 -0.46370403617E+02  0.15800237876E+04  0.18678011464E+04  0.12699999809E+01 0.  1.
       -4    1    3    3    0  502 -0.99501463600E+03  0.46370403617E+02 -0.13924180872E+04  0.17120263090E+04  0.12699999809E+01 0. -1.
</event>
<event>
 5   0  0.9878336E-07  0.3601227E+04  0.7818609E-02  0.8090211E-01
       -2   -1    0    0    0  501  0.00000000000E+00  0.00000000000E+00  0.21893810121E+04  0.21893810121E+04  0.25500000920E-02 0. -1.
        2   -1    0    0  501    0  0.00000000000E+00  0.00000000000E+00 -0.14808793354E+04  0.14808793354E+04  0.25500000920E-02 0.  1.
    10030    2    1    2    0    0  0.00000000000E+00  0.00000000000E+00  0.70850167668E+03  0.36702603475E+04  0.36012270676E+04 0.  0.
        3    1    3    3  502    0  0.12658120699E+04 -0.36938607666E+03 -0.89541989971E+03  0.15938955665E+04  0.10100000352E+00 0. -1.
       -3    1    3    3    0  502 -0.12658120699E+04  0.36938607666E+03  0.16039215764E+04  0.20763647809E+04  0.10100000352E+00 0.  1.
</event>
<event>
 5   0  0.1006019E-06  0.3368566E+04  0.7818609E-02  0.8145665E-01
       -2   -1    0    0    0  501  0.00000000000E+00  0.00000000000E+00  0.15998224885E+04  0.15998224885E+04  0.25500000920E-02 0.  1.
        2   -1    0    0  501    0  0.00000000000E+00  0.00000000000E+00 -0.17732024881E+04  0.17732024881E+04  0.25500000920E-02 0. -1.
    10030    2    1    2    0    0  0.00000000000E+00  0.00000000000E+00 -0.17337999967E+03  0.33730249766E+04  0.33685659959E+04 0.  0.
        1    1    3    3  502    0 -0.48726979681E+03  0.14735482502E+04  0.56841826861E+03  0.16528386578E+04  0.50400001928E-02 0.  1.
       -1    1    3    3    0  502  0.48726979681E+03 -0.14735482502E+04 -0.74179826829E+03  0.17201863188E+04  0.50400001928E-02 0. -1.
</event>
<event>
 5   0  0.3159875E-07  0.3717987E+04  0.7818609E-02  0.8063987E-01
       -1   -1    0    0    0  501  0.00000000000E+00  0.00000000000E+00  0.17877513874E+04  0.17877513874E+04  0.50400001928E-02 0. -1.
        1   -1    0    0  501    0  0.00000000000E+00  0.00000000000E+00 -0.19330746981E+04  0.19330746981E+04  0.50400001928E-02 0.  1.
    10030    2    1    2    0    0  0.00000000000E+00  0.00000000000E+00 -0.14532331071E+03  0.37208260854E+04  0.37179870755E+04 0.  0.
        2    1    3    3  502    0 -0.51763053369E+03 -0.17686684052E+04  0.17191742397E+03  0.18508605829E+04  0.25500000920E-02 0.  1.
       -2    1    3    3    0  502  0.51763053369E+03  0.17686684052E+04 -0.31724073468E+03  0.18699655025E+04  0.25500000920E-02 0. -1.
</event>
<event>
 5   0  0.9878977E-07  0.3623525E+04  0.7818609E-02  0.8085124E-01
       -2   -1    0    0    0  501  0.00000000000E+00  0.00000000000E+00  0.14358766465E+04  0.14358766465E+04  0.25500000920E-02 0.  1.
        2   -1    0    0  501    0  0.00000000000E+00  0.00000000000E+00 -0.22860479100E+04  0.22860479100E+04  0.25500000920E-02 0. -1.
    10030    2    1    2    0    0  0.00000000000E+00  0.00000000000E+00 -0.85017126349E+03  0.37219245564E+04  0.36235246966E+04 0.  0.
        5    1    3    3  502    0 -0.13606824055E+04 -0.11213682977E+04 -0.85297618067E+03  0.19587021016E+04  0.46999998093E+01 0. -1.
       -5    1    3    3    0  502  0.13606824055E+04  0.11213682977E+04  0.28049171814E+01  0.17632224549E+04  0.46999998093E+01 0.  1.
</event>
<event>
 5   0  0.3242047E-07  0.3602755E+04  0.7818609E-02  0.8089861E-01
        1   -1    0    0  501    0  0.00000000000E+00  0.00000000000E+00  0.19273525497E+04  0.19273525497E+04  0.50400001928E-02 0.  1.
       -1   -1    0    0    0  501  0.00000000000E+00  0.00000000000E+00 -0.16836366154E+04  0.16836366155E+04  0.50400001928E-02 0. -1.
    10030    2    1    2    0    0  0.00000000000E+00  0.00000000000E+00  0.24371593423E+03  0.36109891651E+04  0.36027552365E+04 0.  0.
        1    1    3    3  502    0 -0.68094701002E+02 -0.19941272798E+03 -0.16712413532E+04  0.16844732070E+04  0.50400001928E-02 0. -1.
       -1    1    3    3    0  502  0.68094701002E+02  0.19941272798E+03  0.19149572874E+04  0.19265159582E+04  0.50400001928E-02 0.  1.
</event>
<event>
 5   0  0.1006019E-06  0.3586070E+04  0.7818609E-02  0.8093690E-01
        2   -1    0    0  501    0  0.00000000000E+00  0.00000000000E+00  0.20489438848E+04  0.20489438848E+04  0.25500000920E-02 0.  1.
       -2   -1    0    0    0  501  0.00000000000E+00  0.00000000000E+00 -0.15690887833E+04  0.15690887833E+04  0.25500000920E-02 0. -1.
    10030    2    1    2    0    0  0.00000000000E+00  0.00000000000E+00  0.47985510157E+03  0.36180326681E+04  0.35860701986E+04 0.  0.
        1    1    3    3  502    0  0.48078046219E+03  0.98255390400E+03  0.16732988270E+04  0.19991225554E+04  0.50400001928E-02 0.  1.
       -1    1    3    3    0  502 -0.48078046219E+03 -0.98255390400E+03 -0.11934437255E+04  0.16189101127E+04  0.50400001928E-02 0. -1.
</event>
<event>
 5   0  0.1031659E-06  0.3608961E+04  0.7818609E-02  0.8088442E-01
        2   -1    0    0  501    0  0.00000000000E+00  0.00000000000E+00  0.14985647730E+04  0.14985647730E+04  0.25500000920E-02 0.  1.
       -2   -1    0    0    0  501  0.00000000000E+00  0.00000000000E+00 -0.21728456369E+04  0.21728456369E+04  0.25500000920E-02 0. -1.
    10030    2    1    2    0    0  0.00000000000E+00  0.00000000000E+00 -0.67428086385E+03  0.36714104099E+04  0.36089610298E+04 0.  0.
        2    1    3    3  502    0 -0.53795144340E+03 -0.14580824797E+04  0.59565223788E+03  0.16643911384E+04  0.25500000920E-02 0.  1.
       -2    1    3    3    0  502  0.53795144340E+03  0.14580824797E+04 -0.12699331017E+04  0.20070192715E+04  0.25500000920E-02 0. -1.
</event>
<event>
 5   0  0.3159875E-07  0.3584259E+04  0.7818609E-02  0.8094107E-01
        3   -1    0    0  501    0  0.00000000000E+00  0.00000000000E+00  0.11827381372E+04  0.11827381415E+04  0.10100000352E+00 0.  1.
       -3   -1    0    0    0  501  0.00000000000E+00  0.00000000000E+00 -0.27155021722E+04  0.27155021741E+04  0.10100000352E+00 0. -1.
    10030    2    1    2    0    0  0.00000000000E+00  0.00000000000E+00 -0.15327640350E+04  0.38982403157E+04  0.35842589152E+04 0.  0.
        2    1    3    3  502    0  0.16780952700E+04  0.55067932393E+03 -0.43564331339E+03  0.18190757404E+04  0.25500000920E-02 0.  1.
       -2    1    3    3    0  502 -0.16780952700E+04 -0.55067932393E+03 -0.10971207216E+04  0.20791645752E+04  0.25500000920E-02 0. -1.
</event>
<event>
 5   0  0.3365378E-07  0.2709326E+04  0.7818609E-02  0.8331985E-01
        1   -1    0    0  501    0  0.00000000000E+00  0.00000000000E+00  0.13860811883E+04  0.13860811883E+04  0.50400001928E-02 0.  1.
       -1   -1    0    0    0  501  0.00000000000E+00  0.00000000000E+00 -0.13239573248E+04  0.13239573248E+04  0.50400001928E-02 0. -1.
    10030    2    1    2    0    0  0.00000000000E+00  0.00000000000E+00  0.62123863519E+02  0.27100385131E+04  0.27093263679E+04 0.  0.
        3    1    3    3  502    0 -0.18571610962E+03 -0.13802267415E+03 -0.13040441664E+04  0.13244138062E+04  0.10100000352E+00 0. -1.
       -3    1    3    3    0  502  0.18571610962E+03  0.13802267415E+03  0.13661680299E+04  0.13856247068E+04  0.10100000352E+00 0.  1.
</event>
<event>
 5   0  0.9878336E-07  0.3612749E+04  0.7818609E-02  0.8087578E-01
       -2   -1    0    0    0  501  0.00000000000E+00  0.00000000000E+00  0.20047119002E+04  0.20047119002E+04  0.25500000920E-02 0.  1.
        2   -1    0    0  501    0  0.00000000000E+00  0.00000000000E+00 -0.16276600777E+04  0.16276600777E+04  0.25500000920E-02 0. -1.
    10030    2    1    2    0    0  0.00000000000E+00  0.00000000000E+00  0.37705182244E+03  0.36323719779E+04  0.36127493836E+04 0.  0.
        3    1    3    3  502    0 -0.17406449526E+04 -0.19316354925E+03 -0.25640735278E+03  0.17700004939E+04  0.10100000352E+00 0.  1.
       -3    1    3    3    0  502  0.17406449526E+04  0.19316354925E+03  0.63345917522E+03  0.18623714840E+04  0.10100000352E+00 0. -1.
</event>
<event>
 5   0  0.9878977E-07  0.3407429E+04  0.7818609E-02  0.8136085E-01
        2   -1    0    0  501    0  0.00000000000E+00  0.00000000000E+00  0.19268483866E+04  0.19268483866E+04  0.25500000920E-02 0.  1.
       -2   -1    0    0    0  501  0.00000000000E+00  0.00000000000E+00 -0.15064201358E+04  0.15064201358E+04  0.25500000920E-02 0. -1.
    10030    2    1    2    0    0  0.00000000000E+00  0.00000000000E+00  0.42042825071E+03  0.34332685224E+04  0.34074290650E+04 0.  0.
        5    1    3    3  502    0 -0.13824167480E+04 -0.97782273795E+03  0.39981052685E+03  0.17398516946E+04  0.46999998093E+01 0.  1.
       -5    1    3    3    0  502  0.13824167480E+04  0.97782273795E+03  0.20617723869E+02  0.16934168278E+04  0.46999998093E+01 0. -1.
</event>
<event>
 5   0  0.3159875E-07  0.3589474E+04  0.7818609E-02  0.8092907E-01
        3   -1    0    0  501    0  0.00000000000E+00  0.00000000000E+00  0.23934178193E+04  0.23934178214E+04  0.10100000352E+00 0. -1.
       -3   -1    0    0    0  501  0.00000000000E+00  0.00000000000E+00 -0.13458083790E+04  0.13458083828E+04  0.10100000352E+00 0.  1.
    10030    2    1    2    0    0  0.00000000000E+00  0.00000000000E+00  0.10476094403E+04  0.37392262041E+04  0.35894744833E+04 0.  0.
        2    1    3    3  502    0 -0.46218558629E+03  0.44703281679E+03  0.22693078977E+04  0.23586462621E+04  0.25500000920E-02 0. -1.
       -2    1    3    3    0  502  0.46218558629E+03 -0.44703281679E+03 -0.12216984574E+04  0.13805799420E+04  0.25500000920E-02 0.  1.
</event>
<event>
 5   0  0.1006019E-06  0.3587342E+04  0.7818609E-02  0.8093397E-01
       -2   -1    0    0    0  501  0.00000000000E+00  0.00000000000E+00  0.15136286313E+04  0.15136286313E+04  0.25500000920E-02 0.  1.
        2   -1    0    0  501    0  0.00000000000E+00  0.00000000000E+00 -0.21255250678E+04  0.21255250678E+04  0.25500000920E-02 0. -1.
    10030    2    1    2    0    0  0.00000000000E+00  0.00000000000E+00 -0.61189643654E+03  0.36391536992E+04  0.35873419682E+04 0.  0.
        1    1    3    3  502    0 -0.41950112106E+03 -0.10073542911E+04 -0.17500645586E+04  0.20623941955E+04  0.50400001928E-02 0. -1.
       -1    1    3    3    0  502  0.41950112106E+03  0.10073542911E+04  0.11381681220E+04  0.15767595037E+04  0.50400001928E-02 0.  1.
</event>
<event>
 5   0  0.3242047E-07  0.2681022E+04  0.7818609E-02  0.8341189E-01
       -1   -1    0    0    0  501  0.00000000000E+00  0.00000000000E+00  0.16173870967E+04  0.16173870967E+04  0.50400001928E-02 0.  1.
        1   -1    0    0  501    0  0.00000000000E+00  0.00000000000E+00 -0.11110326674E+04  0.11110326675E+04  0.50400001928E-02 0. -1.
    10030    2    1    2    0    0  0.00000000000E+00  0.00000000000E+00  0.50635442929E+03  0.27284197642E+04  0.26810221188E+04 0.  0.
        1    1    3    3  502    0 -0.55171283564E+03 -0.30447254154E+03  0.14572592825E+04  0.15876697383E+04  0.50400001928E-02 0.  1.
       -1    1    3    3    0  502  0.55171283564E+03  0.30447254154E+03 -0.95090485322E+03  0.11407500258E+04  0.50400001928E-02 0. -1.
</event>
<event>
 5   0  0.9878336E-07  0.3374525E+04  0.7818609E-02  0.8144187E-01
        2   -1    0    0  501    0  0.00000000000E+00  0.00000000000E+00  0.26157488648E+04  0.26157488648E+04  0.25500000920E-02 0.  1.
       -2   -1    0    0    0  501  0.00000000000E+00  0.00000000000E+00 -0.10883520062E+04  0.10883520062E+04  0.25500000920E-02 0. -1.
    10030    2    1    2    0    0  0.00000000000E+00  0.00000000000E+00  0.15273968585E+04  0.37041008710E+04  0.33745254628E+04 0.  0.
        3    1    3    3  502    0 -0.88291922807E+03  0.14310408042E+04  0.61068773591E+03  0.17889560273E+04  0.10100000352E+00 0.  1.
       -3    1    3    3    0  502  0.88291922807E+03 -0.14310408042E+04  0.91670912263E+03  0.19151448437E+04  0.10100000352E+00 0. -1.
</event>
<event>
 5   0  0.9538919E-07  0.3590095E+04  0.7818609E-02  0.8092764E-01
        2   -1    0    0  501    0  0.00000000000E+00  0.00000000000E+00  0.22867715888E+04  0.22867715888E+04  0.25500000920E-02 0.  1.
       -2   -1    0    0    0  501  0.00000000000E+00  0.00000000000E+00 -0.14090591275E+04  0.14090591275E+04  0.25500000920E-02 0. -1.
    10030    2    1    2    0    0  0.00000000000E+00  0.00000000000E+00  0.87771246125E+03  0.36958307163E+04  0.35900954749E+04 0.  0.
        4    1    3    3  502    0  0.23795668787E+03 -0.17778797956E+04  0.50954303631E+03  0.18647025692E+04  0.12699999809E+01 0.  1.
       -4    1    3    3    0  502 -0.23795668787E+03  0.17778797956E+04  0.36816942494E+03  0.18311281471E+04  0.12699999809E+01 0. -1.
</event>
<event>
 5   0  0.1031659E-06  0.3546010E+04  0.7818609E-02  0.8102972E-01
       -2   -1    0    0    0  501  0.00000000000E+00  0.00000000000E+00  0.18702998698E+04  0.18702998699E+04  0.25500000920E-02 0. -1.
        2   -1    0    0  501    0  0.00000000000E+00  0.00000000000E+00 -0.16807712108E+04  0.16807712108E+04  0.25500000920E-02 0.  1.
    10030    2    1    2    0    0  0.00000000000E+00  0.00000000000E+00  0.18952865901E+03  0.35510710807E+04  0.35460096880E+04 0.  0.
        2    1    3    3  502    0 -0.14278107018E+03 -0.20531287105E+03  0.18525492954E+04  0.18693524817E+04  0.25500000920E-02 0. -1.
       -2    1    3    3    0  502  0.14278107018E+03  0.20531287105E+03 -0.16630206364E+04  0.16817185990E+04  0.25500000920E-02 0.  1.
</event>
<event>
 5   0  0.9538919E-07  0.3536643E+04  0.7818609E-02  0.8105161E-01
        2   -1    0    0  501    0  0.00000000000E+00  0.00000000000E+00  0.23514910715E+04  0.23514910715E+04  0.25500000920E-02 0.  1.
       -2   -1    0    0    0  501  0.00000000000E+00  0.00000000000E+00 -0.13297777537E+04  0.13297777537E+04  0.25500000920E-02 0. -1.
    10030    2    1    2    0    0  0.00000000000E+00  0.00000000000E+00  0.10217133178E+04  0.36812688252E+04  0.35366427668E+04 0.  0.
        4    1    3    3  502    0  0.11539453025E+04  0.49331673565E+03 -0.78588445314E+03  0.14807319641E+04  0.12699999809E+01 0. -1.
       -4    1    3    3    0  502 -0.11539453025E+04 -0.49331673565E+03  0.18075977710E+04  0.22005368611E+04  0.12699999809E+01 0.  1.
</event>
<event>
 5   0  0.1006019E-06  0.3604256E+04  0.7818609E-02  0.8089518E-01
       -2   -1    0    0    0  501  0.00000000000E+00  0.00000000000E+00  0.12950801520E+04  0.12950801520E+04  0.25500000920E-02 0.  1.
        2   -1    0    0  501    0  0.00000000000E+00  0.00000000000E+00 -0.25076942511E+04  0.25076942511E+04  0.25500000920E-02 0. -1.
    10030    2    1    2    0    0  0.00000000000E+00  0.00000000000E+00 -0.12126140991E+04  0.38027744031E+04  0.36042558466E+04 0.  0.
        1    1    3    3  502    0  0.17903462076E+04  0.67068870449E+02 -0.40110226608E+03  0.18359522882E+04  0.50400001928E-02 0.  1.
       -1    1    3    3    0  502 -0.17903462076E+04 -0.67068870449E+02 -0.81151183297E+03  0.19668221149E+04  0.50400001928E-02 0. -1.
</event>
<event>
 5   0  0.3159875E-07  0.3599128E+04  0.7818609E-02  0.8090691E-01
       -3   -1    0    0    0  501  0.00000000000E+00  0.00000000000E+00  0.17284246211E+04  0.17284246240E+04  0.10100000352E+00 0. -1.
        3   -1    0    0  501    0  0.00000000000E+00  0.00000000000E+00 -0.18736312764E+04  0.18736312791E+04  0.10100000352E+00 0.  1.
    10030    2    1    2    0    0  0.00000000000E+00  0.00000000000E+00 -0.14520665530E+03  0.36020559032E+04  0.35991279161E+04 0.  0.
        2    1    3    3  502    0  0.63328161761E+03 -0.11521213494E+04  0.11572174237E+04  0.17514512202E+04  0.25500000920E-02 0. -1.
       -2    1    3    3    0  502 -0.63328161761E+03  0.11521213494E+04 -0.13024240790E+04  0.18506046830E+04  0.25500000920E-02 0.  1.
</event>
<event>
 5   0  0.3242047E-07  0.3553297E+04  0.7818609E-02  0.8101274E-01
       -1   -1    0    0    0  501  0.00000000000E+00  0.00000000000E+00  0.15368243193E+04  0.15368243193E+04  0.50400001928E-02 0. -1.
        1   -1    0    0  501    0  0.00000000000E+00  0.00000000000E+00 -0.20538971038E+04  0.20538971038E+04  0.50400001928E-02 0.  1.
    10030    2    1    2    0    0  0.00000000000E+00  0.00000000000E+00 -0.51707278446E+03  0.35907214231E+04  0.35532965081E+04 0.  0.
        1    1    3    3  502    0 -0.10672263891E+04 -0.72012414535E+03  0.97866573988E+03  0.16172005382E+04  0.50400001928E-02 0. -1.
       -1    1    3    3    0  502  0.10672263891E+04  0.72012414535E+03 -0.14957385243E+04  0.19735208850E+04  0.50400001928E-02 0.  1.
</event>
<event>
 5   0  0.1006019E-06  0.3599173E+04  0.7818609E-02  0.8090681E-01
        2   -1    0    0  501    0  0.00000000000E+00  0.00000000000E+00  0.24328816706E+04  0.24328816706E+04  0.25500000920E-02 0. -1.
       -2   -1    0    0    0  501  0.00000000000E+00  0.00000000000E+00 -0.13311424004E+04  0.13311424004E+04  0.25500000920E-02 0.  1.
    10030    2    1    2    0    0  0.00000000000E+00  0.00000000000E+00  0.11017392702E+04  0.37640240709E+04  0.35991732088E+04 0.  0.
        1    1    3    3  502    0  0.31138709204E+03  0.13214820337E+04  0.17861722656E+04  0.22435882085E+04  0.50400001928E-02 0. -1.
       -1    1    3    3    0  502 -0.31138709204E+03 -0.13214820337E+04 -0.68443299545E+03  0.15204358625E+04  0.50400001928E-02 0.  1.
</event>
<event>
 5   0  0.3159875E-07  0.3582775E+04  0.7818609E-02  0.8094449E-01
        1   -1    0    0  501    0  0.00000000000E+00  0.00000000000E+00  0.19519183879E+04  0.19519183879E+04  0.50400001928E-02 0. -1.
       -1   -1    0    0    0  501  0.00000000000E+00  0.00000000000E+00 -0.16440594253E+04  0.16440594253E+04  0.50400001928E-02 0.  1.
    10030    2    1    2    0    0  0.00000000000E+00  0.00000000000E+00  0.30785896260E+03  0.35959778132E+04  0.35827753616E+04 0.  0.
        2    1    3    3  502    0 -0.79442552724E+03 -0.89296032158E+03 -0.11853713606E+04  0.16833286419E+04  0.25500000920E-02 0.  1.
       -2    1    3    3    0  502  0.79442552724E+03  0.89296032158E+03  0.14932303232E+04  0.19126491712E+04  0.25500000920E-02 0. -1.
</event>
<event>
 5   0  0.3365378E-07  0.3556540E+04  0.7818609E-02  0.8100520E-01
        1   -1    0    0  501    0  0.00000000000E+00  0.00000000000E+00  0.12294164957E+04  0.12294164957E+04  0.50400001928E-02 0. -1.
       -1   -1    0    0    0  501  0.00000000000E+00  0.00000000000E+00 -0.25721510763E+04  0.25721510763E+04  0.50400001928E-02 0.  1.
    10030    2    1    2    0    0  0.00000000000E+00  0.00000000000E+00 -0.13427345807E+04  0.38015675720E+04  0.35565404329E+04 0.  0.
        3    1    3    3  502    0 -0.11289522200E+04 -0.25760344240E+03 -0.21139208398E+04  0.24103016359E+04  0.10100000352E+00 0.  1.
       -3    1    3    3    0  502  0.11289522200E+04  0.25760344240E+03  0.77118625916E+03  0.13912659362E+04  0.10100000352E+00 0. -1.
</event>
<event>
 5   0  0.3278988E-07  0.3579118E+04  0.7818609E-02  0.8095292E-01
       -1   -1    0    0    0  501  0.00000000000E+00  0.00000000000E+00  0.13584422268E+04  0.13584422268E+04  0.50400001928E-02 0.  1.
        1   -1    0    0  501    0  0.00000000000E+00  0.00000000000E+00 -0.23574956496E+04  0.23574956496E+04  0.50400001928E-02 0. -1.
    10030    2    1    2    0    0  0.00000000000E+00  0.00000000000E+00 -0.99905342286E+03  0.37159378764E+04  0.35791181260E+04 0.  0.
        4    1    3    3  502    0  0.21446405456E+03 -0.10853096422E+04 -0.19599357337E+04  0.22506091494E+04  0.12699999809E+01 0. -1.
       -4    1    3    3    0  502 -0.21446405456E+03  0.10853096422E+04  0.96088231080E+03  0.14653287271E+04  0.12699999809E+01 0.  1.
</event>
<event>
 5   0  0.1006019E-06  0.3552172E+04  0.7818609E-02  0.8101536E-01
        2   -1    0    0  501    0  0.00000000000E+00  0.00000000000E+00  0.17579315412E+04  0.17579315412E+04  0.25500000920E-02 0. -1.
       -2   -1    0    0    0  501  0.00000000000E+00  0.00000000000E+00 -0.17944277939E+04  0.17944277939E+04  0.25500000920E-02 0.  1.
    10030    2    1    2    0    0  0.00000000000E+00  0.00000000000E+00 -0.36496252728E+02  0.35523593350E+04  0.35521718524E+04 0.  0.
        1    1    3    3  502    0 -0.11529657853E+04  0.72583186152E+03  0.11212501305E+04  0.17644726828E+04  0.50400001928E-02 0. -1.
       -1    1    3    3    0  502  0.11529657853E+04 -0.72583186152E+03 -0.11577463832E+04  0.17878866522E+04  0.50400001928E-02 0.  1.
</event>
<event>
 5   0  0.3159875E-07  0.2609396E+04  0.7818609E-02  0.8365017E-01
       -1   -1    0    0    0  501  0.00000000000E+00  0.00000000000E+00  0.17498286750E+04  0.17498286750E+04  0.50400001928E-02 0.  1.
        1   -1    0    0  501    0  0.00000000000E+00  0.00000000000E+00 -0.97280206047E+03  0.97280206049E+03  0.50400001928E-02 0. -1.
    10030    2    1    2    0    0  0.00000000000E+00  0.00000000000E+00  0.77702661449E+03  0.27226307355E+04  0.26093960531E+04 0.  0.
        2    1    3    3  502    0  0.89834679695E+03  0.89930160772E+03  0.81700905104E+02  0.12737524827E+04  0.25500000920E-02 0.  1.
       -2    1    3    3    0  502 -0.89834679695E+03 -0.89930160772E+03  0.69532570939E+03  0.14488782528E+04  0.25500000920E-02 0. -1.
</event>
<event>
 5   0  0.3159875E-07  0.3559266E+04  0.7818609E-02  0.8099887E-01
        1   -1    0    0  501    0  0.00000000000E+00  0.00000000000E+00  0.17347953051E+04  0.17347953051E+04  0.50400001928E-02 0.  1.
       -1   -1    0    0    0  501  0.00000000000E+00  0.00000000000E+00 -0.18256292304E+04  0.18256292304E+04  0.50400001928E-02 0. -1.
    10030    2    1    2    0    0  0.00000000000E+00  0.00000000000E+00 -0.90833925347E+02  0.35604245355E+04  0.35592656646E+04 0.  0.
        5    1    3    3  502    0 -0.92137707039E+03 -0.12045324452E+02 -0.15684073826E+04  0.18190669596E+04  0.46999998093E+01 0. -1.
       -5    1    3    3    0  502  0.92137707039E+03  0.12045324452E+02  0.14775734572E+04  0.17413575759E+04  0.46999998093E+01 0.  1.
</event>
<event>
 5   0  0.3159875E-07  0.3625185E+04  0.7818609E-02  0.8084747E-01
       -1   -1    0    0    0  501  0.00000000000E+00  0.00000000000E+00  0.19745049312E+04  0.19745049312E+04  0.50400001928E-02 0. -1.
        1   -1    0    0  501    0  0.00000000000E+00  0.00000000000E+00 -0.16639569661E+04  0.16639569661E+04  0.50400001928E-02 0.  1.
    10030    2    1    2    0    0  0.00000000000E+00  0.00000000000E+00  0.31054796507E+03  0.36384618973E+04  0.36251848145E+04 0.  0.
        5    1    3    3  502    0 -0.12045015418E+04 -0.11596054821E+04 -0.54726128025E+03  0.17592685518E+04  0.46999998093E+01 0.  1.
       -5    1    3    3    0  502  0.12045015418E+04  0.11596054821E+04  0.85780924532E+03  0.18791933455E+04  0.46999998093E+01 0. -1.
</event>
<event>
 5   0  0.1006019E-06  0.3311629E+04  0.7818609E-02  0.8159943E-01
        2   -1    0    0  501    0  0.00000000000E+00  0.00000000000E+00  0.19561914780E+04  0.19561914780E+04  0.25500000920E-02 0. -1.
       -2   -1    0    0    0  501  0.00000000000E+00  0.00000000000E+00 -0.14015612634E+04  0.14015612634E+04  0.25500000920E-02 0.  1.
    10030    2    1    2    0    0  0.00000000000E+00  0.00000000000E+00  0.55463021462E+03  0.33577527414E+04  0.33116293267E+04 0.  0.
        1    1    3    3  502    0  0.25111527211E+03  0.44947059589E+03  0.18729678767E+04  0.19424446874E+04  0.50400001928E-02 0. -1.
       -1    1    3    3    0  502 -0.25111527211E+03 -0.44947059589E+03 -0.13183376621E+04  0.14153080540E+04  0.50400001928E-02 0.  1.
</event>
<event>
 5   0  0.3159875E-07  0.3622527E+04  0.7818609E-02  0.8085351E-01
        1   -1    0    0  501    0  0.00000000000E+00  0.00000000000E+00  0.27373289523E+04  0.27373289523E+04  0.50400001928E-02 0. -1.
       -1   -1    0    0    0  501  0.00000000000E+00  0.00000000000E+00 -0.11984950815E+04  0.11984950815E+04  0.50400001928E-02 0.  1.
    10030    2    1    2    0    0  0.00000000000E+00  0.00000000000E+00  0.15388338709E+04  0.39358240338E+04  0.36225269002E+04 0.  0.
        5    1    3    3  502    0  0.63400771346E+03 -0.16794006496E+04  0.10317551652E+04  0.20704813772E+04  0.46999998093E+01 0. -1.
       -5    1    3    3    0  502 -0.63400771346E+03  0.16794006496E+04  0.50707870570E+03  0.18653426566E+04  0.46999998093E+01 0.  1.
</event>
<event>
 5   0  0.1031659E-06  0.3700483E+04  0.7818609E-02  0.8067855E-01
       -2   -1    0    0    0  501  0.00000000000E+00  0.00000000000E+00  0.15435944861E+04  0.15435944861E+04  0.25500000920E-02 0. -1.
        2   -1    0    0  501    0  0.00000000000E+00  0.00000000000E+00 -0.22178063428E+04  0.22178063428E+04  0.25500000920E-02 0.  1.
    10030    2    1    2    0    0  0.00000000000E+00  0.00000000000E+00 -0.67421185670E+03  0.37614008289E+04  0.37004830181E+04 0.  0.
        2    1    3    3  502    0 -0.11776620694E+04 -0.63994436259E+03  0.95942205421E+03  0.16483044061E+04  0.25500000920E-02 0. -1.
       -2    1    3    3    0  502  0.11776620694E+04  0.63994436259E+03 -0.16336339109E+04  0.21130964228E+04  0.25500000920E-02 0.  1.
</event>
<event>
 5   0  0.3159875E-07  0.2692481E+04  0.7818609E-02  0.8337449E-01
       -1   -1    0    0    0  501  0.00000000000E+00  0.00000000000E+00  0.10881529595E+04  0.10881529595E+04  0.50400001928E-02 0. -1.
        1   -1    0    0  501    0  0.00000000000E+00  0.00000000000E+00 -0.16655407406E+04  0.16655407406E+04  0.50400001928E-02 0.  1.
    10030    2    1    2    0    0  0.00000000000E+00  0.00000000000E+00 -0.57738778110E+03  0.27536937001E+04  0.26924807045E+04 0.  0.
        2    1    3    3  502    0 -0.15822948917E+03  0.18772505483E+03  0.10650631197E+04  0.10929943808E+04  0.25500000920E-02 0. -1.
       -2    1    3    3    0  502  0.15822948917E+03 -0.18772505483E+03 -0.16424509008E+04  0.16606993193E+04  0.25500000920E-02 0.  1.
</event>
<event>
 5   0  0.9878977E-07  0.3523705E+04  0.7818609E-02  0.8108195E-01
        2   -1    0    0  501    0  0.00000000000E+00  0.00000000000E+00  0.26290441933E+04  0.26290441933E+04  0.25500000920E-02 0. -1.
       -2   -1    0    0    0  501  0.00000000000E+00  0.00000000000E+00 -0.11807045535E+04  0.11807045535E+04  0.25500000920E-02 0.  1.
    10030    2    1    2    0    0  0.00000000000E+00  0.00000000000E+00  0.14483396398E+04  0.38097487468E+04  0.35237051240E+04 0.  0.
        5    1    3    3  502    0  0.55311401193E+03 -0.29265573016E+03 -0.10564993573E+04  0.12279232340E+04  0.46999998093E+01 0.  1.
       -5    1    3    3    0  502 -0.55311401193E+03  0.29265573016E+03  0.25048389972E+04  0.25818255128E+04  0.46999998093E+01 0. -1.
</event>
<event>
 5   0  0.9538919E-07  0.3268475E+04  0.7818609E-02  0.8170964E-01
       -2   -1    0    0    0  501  0.00000000000E+00  0.00000000000E+00  0.13266728409E+04  0.13266728409E+04  0.25500000920E-02 0. -1.
        2   -1    0    0  501    0  0.00000000000E+00  0.00000000000E+00 -0.20131050683E+04  0.20131050683E+04  0.25500000920E-02 0.  1.
    10030    2    1    2    0    0  0.00000000000E+00  0.00000000000E+00 -0.68643222738E+03  0.33397779092E+04  0.32684747636E+04 0.  0.
        4    1    3    3  502    0 -0.54612309876E+03  0.12392140451E+04  0.59152347360E+03  0.14777697795E+04  0.12699999809E+01 0. -1.
       -4    1    3    3    0  502  0.54612309876E+03 -0.12392140451E+04 -0.12779557010E+04  0.18620081297E+04  0.12699999809E+01 0.  1.
</event>
<event>
 5   0  0.9538919E-07  0.3585953E+04  0.7818609E-02  0.8093717E-01
        2   -1    0    0  501    0  0.00000000000E+00  0.00000000000E+00  0.15245897783E+04  0.15245897783E+04  0.25500000920E-02 0.  1.
       -2   -1    0    0    0  501  0.00000000000E+00  0.00000000000E+00 -0.21086099842E+04  0.21086099842E+04  0.25500000920E-02 0. -1.
    10030    2    1    2    0    0  0.00000000000E+00  0.00000000000E+00 -0.58402020581E+03  0.36331997625E+04  0.35859532782E+04 0.  0.
        4    1    3    3  502    0  0.16657818904E+04 -0.65957985716E+03 -0.22116949559E+03  0.18052125784E+04  0.12699999809E+01 0. -1.
       -4    1    3    3    0  502 -0.16657818904E+04  0.65957985716E+03 -0.36285071023E+03  0.18279871841E+04  0.12699999809E+01 0.  1.
</event>
<event>
 5   0  0.3159875E-07  0.2977209E+04  0.7818609E-02  0.8250269E-01
        3   -1    0    0  501    0  0.00000000000E+00  0.00000000000E+00  0.14374089435E+04  0.14374089470E+04  0.10100000352E+00 0. -1.
       -3   -1    0    0    0  501  0.00000000000E+00  0.00000000000E+00 -0.15416234144E+04  0.15416234177E+04  0.10100000352E+00 0.  1.
    10030    2    1    2    0    0  0.00000000000E+00  0.00000000000E+00 -0.10421447090E+03  0.29790323647E+04  0.29772089571E+04 0.  0.
        4    1    3    3  502    0 -0.19373785544E+03  0.14389337563E+04  0.27654021882E+03  0.14780192208E+04  0.12699999809E+01 0.  1.
       -4    1    3    3    0  502  0.19373785544E+03 -0.14389337563E+04 -0.38075468971E+03  0.15010131439E+04  0.12699999809E+01 0. -1.
</event>
<event>
 5   0  0.3159875E-07  0.3666387E+04  0.7818609E-02  0.8075452E-01
       -3   -1    0    0    0  501  0.00000000000E+00  0.00000000000E+00  0.12662409143E+04  0.12662409183E+04  0.10100000352E+00 0.  1.
        3   -1    0    0  501    0  0.00000000000E+00  0.00000000000E+00 -0.26539954875E+04  0.26539954894E+04  0.10100000352E+00 0. -1.
    10030    2    1    2    0    0  0.00000000000E+00  0.00000000000E+00 -0.13877545732E+04  0.39202364078E+04  0.36663866050E+04 0.  0.
        3    1    3    3  502    0 -0.16429885531E+04  0.14865757089E+02  0.17541000276E+03  0.16523925247E+04  0.10100000352E+00 0.  1.
       -3    1    3    3    0  502  0.16429885531E+04 -0.14865757089E+02 -0.15631645759E+04  0.22678438831E+04  0.10100000352E+00 0. -1.
</event>
<event>
 5   0  0.3159875E-07  0.3537064E+04  0.7818609E-02  0.8105062E-01
        1   -1    0    0  501    0  0.00000000000E+00  0.00000000000E+00  0.21495252937E+04  0.21495252937E+04  0.50400001928E-02 0. -1.
       -1   -1    0    0    0  501  0.00000000000E+00  0.00000000000E+00 -0.14550679535E+04  0.14550679535E+04  0.50400001928E-02 0.  1.
    10030    2    1    2    0    0  0.00000000000E+00  0.00000000000E+00  0.69445734016E+03  0.36045932472E+04  0.35370639633E+04 0.  0.
        5    1    3    3  502    0  0.12866989296E+04 -0.11529912307E+04 -0.37740450976E+02  0.17281288567E+04  0.46999998093E+01 0.  1.
       -5    1    3    3    0  502 -0.12866989296E+04  0.11529912307E+04  0.73219779113E+03  0.18764643906E+04  0.46999998093E+01 0. -1.
</event>
<event>
 5   0  0.9538919E-07  0.3615291E+04  0.7818609E-02  0.8086998E-01
        2   -1    0    0  501    0  0.00000000000E+00  0.00000000000E+00  0.11095650225E+04  0.11095650225E+04  0.25500000920E-02 0.  1.
       -2   -1    0    0    0  501  0.00000000000E+00  0.00000000000E+00 -0.29449218090E+04  0.29449218090E+04  0.25500000920E-02 0. -1.
    10030    2    1    2    0    0  0.00000000000E+00  0.00000000000E+00 -0.18353567865E+04  0.40544868315E+04  0.36152909887E+04 0.  0.
        4    1    3    3  502    0 -0.68735678430E+03  0.10522012285E+03  0.95356875145E+03  0.11801803251E+04  0.12699999809E+01 0.  1.
       -4    1    3    3    0  502  0.68735678430E+03 -0.10522012285E+03 -0.27889255380E+04  0.28743065063E+04  0.12699999809E+01 0. -1.
</event>
<event>
 5   0  0.9878977E-07  0.3441475E+04  0.7818609E-02  0.8127801E-01
       -2   -1    0    0    0  501  0.00000000000E+00  0.00000000000E+00  0.15094294070E+04  0.15094294070E+04  0.25500000920E-02 0.  1.
        2   -1    0    0  501    0  0.00000000000E+00  0.00000000000E+00 -0.19616268482E+04  0.19616268482E+04  0.25500000920E-02 0. -1.
    10030    2    1    2    0    0  0.00000000000E+00  0.00000000000E+00 -0.45219744121E+03  0.34710562552E+04  0.34414748293E+04 0.  0.
        5    1    3    3  502    0 -0.32261150450E+03  0.61090281709E+03  0.13634026857E+04  0.15284532732E+04  0.46999998093E+01 0.  1.
       -5    1    3    3    0  502  0.32261150450E+03 -0.61090281709E+03 -0.18156001269E+04  0.19426029820E+04  0.46999998093E+01 0. -1.
</event>
<event>
 5   0  0.3159875E-07  0.3512532E+04  0.7818609E-02  0.8110826E-01
       -1   -1    0    0    0  501  0.00000000000E+00  0.00000000000E+00  0.14299443563E+04  0.14299443564E+04  0.50400001928E-02 0. -1.
        1   -1    0    0  501    0  0.00000000000E+00  0.00000000000E+00 -0.21570562565E+04  0.21570562565E+04  0.50400001928E-02 0.  1.
    10030    2    1    2    0    0  0.00000000000E+00  0.00000000000E+00 -0.72711190018E+03  0.35870006129E+04  0.35125320897E+04 0.  0.
        5    1    3    3  502    0 -0.13823609945E+04  0.67609519686E+03  0.50080575012E+03  0.16182877135E+04  0.46999998093E+01 0. -1.
       -5    1    3    3    0  502  0.13823609945E+04 -0.67609519686E+03 -0.12279176503E+04  0.19687128994E+04  0.46999998093E+01 0.  1.
</event>
<event>
 5   0  0.9538919E-07  0.3594045E+04  0.7818609E-02  0.8091857E-01
       -2   -1    0    0    0  501  0.00000000000E+00  0.00000000000E+00  0.13962004945E+04  0.13962004945E+04  0.25500000920E-02 0.  1.
        2   -1    0    0  501    0  0.00000000000E+00  0.00000000000E+00 -0.23129122433E+04  0.23129122433E+04  0.25500000920E-02 0. -1.
    10030    2    1    2    0    0  0.00000000000E+00  0.00000000000E+00 -0.91671174874E+03  0.37091127378E+04  0.35940446396E+04 0.  0.
        4    1    3    3  502    0  0.11597199521E+04  0.35948959811E+03  0.90886302345E+03  0.15166465464E+04  0.12699999809E+01 0.  1.
       -4    1    3    3    0  502 -0.11597199521E+04 -0.35948959811E+03 -0.18255747722E+04  0.21924661914E+04  0.12699999809E+01 0. -1.
</event>
<event>
 5   0  0.1006019E-06  0.3656157E+04  0.7818609E-02  0.8077748E-01
       -2   -1    0    0    0  501  0.00000000000E+00  0.00000000000E+00  0.16538297901E+04  0.16538297901E+04  0.25500000920E-02 0.  1.
        2   -1    0    0  501    0  0.00000000000E+00  0.00000000000E+00 -0.20206864388E+04  0.20206864388E+04  0.25500000920E-02 0. -1.
    10030    2    1    2    0    0  0.00000000000E+00  0.00000000000E+00 -0.36685664866E+03  0.36745162289E+04  0.36561572334E+04 0.  0.
        1    1    3    3  502    0  0.12389650413E+04  0.24879291343E+03 -0.15110228343E+04  0.19698026026E+04  0.50400001928E-02 0. -1.
       -1    1    3    3    0  502 -0.12389650413E+04 -0.24879291343E+03  0.11441661856E+04  0.17047136263E+04  0.50400001928E-02 0.  1.
</event>
<event>
 5   0  0.3365378E-07  0.3518712E+04  0.7818609E-02  0.8109370E-01
       -1   -1    0    0    0  501  0.00000000000E+00  0.00000000000E+00  0.14510748072E+04  0.14510748072E+04  0.50400001928E-02 0. -1.
        1   -1    0    0  501    0  0.00000000000E+00  0.00000000000E+00 -0.21331314235E+04  0.21331314235E+04  0.50400001928E-02 0.  1.
    10030    2    1    2    0    0  0.00000000000E+00  0.00000000000E+00 -0.68205661629E+03  0.35842062307E+04  0.35187118490E+04 0.  0.
        3    1    3    3  502    0 -0.11009633478E+04 -0.10266636862E+04 -0.12685675503E+04  0.19686092192E+04  0.10100000352E+00 0.  1.
       -3    1    3    3    0  502  0.11009633478E+04  0.10266636862E+04  0.58651093406E+03  0.16155970116E+04  0.10100000352E+00 0. -1.
</event>
<event>
 5   0  0.9878336E-07  0.3613374E+04  0.7818609E-02  0.8087435E-01
       -2   -1    0    0    0  501  0.00000000000E+00  0.00000000000E+00  0.17177082394E+04  0.17177082394E+04  0.25500000920E-02 0. -1.
        2   -1    0    0  501    0  0.00000000000E+00  0.00000000000E+00 -0.19002754014E+04  0.19002754014E+04  0.25500000920E-02 0.  1.
    10030    2    1    2    0    0  0.00000000000E+00  0.00000000000E+00 -0.18256716198E+03  0.36179836407E+04  0.36133744417E+04 0.  0.
        3    1    3    3  502    0  0.13916042797E+04 -0.10877985552E+04  0.28900417950E+03  0.17898021103E+04  0.10100000352E+00 0.  1.
       -3    1    3    3    0  502 -0.13916042797E+04  0.10877985552E+04 -0.47157134148E+03  0.18281815305E+04  0.10100000352E+00 0. -1.
</event>
<event>
 5   0  0.3365378E-07  0.3486258E+04  0.7818609E-02  0.8117054E-01
        1   -1    0    0  501    0  0.00000000000E+00  0.00000000000E+00  0.18939966400E+04  0.18939966400E+04  0.50400001928E-02 0.  1.
       -1   -1    0    0    0  501  0.00000000000E+00  0.00000000000E+00 -0.16042786473E+04  0.16042786473E+04  0.50400001928E-02 0. -1.
    10030    2    1    2    0    0  0.00000000000E+00  0.00000000000E+00  0.28971799265E+03  0.34982752873E+04  0.34862578033E+04 0.  0.
        3    1    3    3  502    0 -0.12211163393E+04  0.86636233000E+03 -0.75084868659E+03  0.16749574804E+04  0.10100000352E+00 0. -1.
       -3    1    3    3    0  502  0.12211163393E+04 -0.86636233000E+03  0.10405666792E+04  0.18233178069E+04  0.10100000352E+00 0.  1.
</event>
<event>
 5   0  0.3159875E-07  0.3572754E+04  0.7818609E-02  0.8096761E-01
        1   -1    0    0  501    0  0.00000000000E+00  0.00000000000E+00  0.12392325420E+04  0.12392325421E+04  0.50400001928E-02 0. -1.
       -1   -1    0    0    0  501  0.00000000000E+00  0.00000000000E+00 -0.25750956654E+04  0.25750956654E+04  0.50400001928E-02 0.  1.
    10030    2    1    2    0    0  0.00000000000E+00  0.00000000000E+00 -0.13358631234E+04  0.38143282075E+04  0.35727537545E+04 0.  0.
        5    1    3    3  502    0  0.11578467470E+04  0.34044184231E+03  0.73816764528E+03  0.14147166854E+04  0.46999998093E+01 0.  1.
       -5    1    3    3    0  502 -0.11578467470E+04 -0.34044184231E+03 -0.20740307687E+04  0.23996115221E+04  0.46999998093E+01 0. -1.
</event>
<event>
 5   0  0.3242047E-07  0.3353784E+04  0.7818609E-02  0.8149343E-01
       -1   -1    0    0    0  501  0.00000000000E+00  0.00000000000E+00  0.15396188638E+04  0.15396188638E+04  0.50400001928E-02 0.  1.
        1   -1    0    0  501    0  0.00000000000E+00  0.00000000000E+00 -0.18264042260E+04  0.18264042260E+04  0.50400001928E-02 0. -1.
    10030    2    1    2    0    0  0.00000000000E+00  0.00000000000E+00 -0.28678536216E+03  0.33660230898E+04  0.33537837732E+04 0.  0.
        1    1    3    3  502    0  0.18523146298E+03  0.28217334075E+03 -0.17919563839E+04  0.18234692679E+04  0.50400001928E-02 0. -1.
       -1    1    3    3    0  502 -0.18523146298E+03 -0.28217334075E+03  0.15051710217E+04  0.15425538220E+04  0.50400001928E-02 0.  1.
</event>
<event>
 5   0  0.3242047E-07  0.3584755E+04  0.7818609E-02  0.8093993E-01
       -1   -1    0    0    0  501  0.00000000000E+00  0.00000000000E+00  0.26924193572E+04  0.26924193573E+04  0.50400001928E-02 0.  1.
        1   -1    0    0  501    0  0.00000000000E+00  0.00000000000E+00 -0.11932083177E+04  0.11932083177E+04  0.50400001928E-02 0. -1.
    10030    2    1    2    0    0  0.00000000000E+00  0.00000000000E+00  0.14992110395E+04  0.38856276750E+04  0.35847550387E+04 0.  0.
        1    1    3    3  502    0 -0.73591209128E+03 -0.13292862937E+04  0.17802231523E+04  0.23404621614E+04  0.50400001928E-02 0.  1.
       -1    1    3    3    0  502  0.73591209128E+03  0.13292862937E+04 -0.28101211281E+03  0.15451655136E+04  0.50400001928E-02 0. -1.
</event>
<event>
 5   0  0.9878336E-07  0.3643849E+04  0.7818609E-02  0.8080521E-01
       -2   -1    0    0    0  501  0.00000000000E+00  0.00000000000E+00  0.13739917150E+04  0.13739917150E+04  0.25500000920E-02 0.  1.
        2   -1    0    0  501    0  0.00000000000E+00  0.00000000000E+00 -0.24158871317E+04  0.24158871317E+04  0.25500000920E-02 0. -1.
    10030    2    1    2    0    0  0.00000000000E+00  0.00000000000E+00 -0.10418954167E+04  0.37898788468E+04  0.36438490108E+04 0.  0.
        3    1    3    3  502    0  0.10873506854E+04 -0.13366947355E+04 -0.11365500302E+04  0.20641778776E+04  0.10100000352E+00 0. -1.
       -3    1    3    3    0  502 -0.10873506854E+04  0.13366947355E+04  0.94654613449E+02  0.17257009692E+04  0.10100000352E+00 0.  1.
</event>
<event>
 5   0  0.3242047E-07  0.3670039E+04  0.7818609E-02  0.8074634E-01
       -1   -1    0    0    0  501  0.00000000000E+00  0.00000000000E+00  0.21633131240E+04  0.21633131240E+04  0.50400001928E-02 0.  1.
        1   -1    0    0  501    0  0.00000000000E+00  0.00000000000E+00 -0.15565461476E+04  0.15565461476E+04  0.50400001928E-02 0. -1.
    10030    2    1    2    0    0  0.00000000000E+00  0.00000000000E+00  0.60676697646E+03  0.37198592716E+04  0.36700390784E+04 0.  0.
        1    1    3    3  502    0  0.87745989861E+03  0.15504554135E+04 -0.14241531007E+03  0.17872129094E+04  0.50400001928E-02 0. -1.
       -1    1    3    3    0  502 -0.87745989861E+03 -0.15504554135E+04  0.74918228652E+03  0.19326463622E+04  0.50400001928E-02 0.  1.
</event>
<event>
 5   0  0.3159875E-07  0.3971160E+04  0.7818609E-02  0.8010390E-01
        1   -1    0    0  501    0  0.00000000000E+00  0.00000000000E+00  0.19433880978E+04  0.19433880978E+04  0.50400001928E-02 0.  1.
       -1   -1    0    0    0  501  0.00000000000E+00  0.00000000000E+00 -0.20286882462E+04  0.20286882462E+04  0.50400001928E-02 0. -1.
    10030    2    1    2    0    0  0.00000000000E+00  0.00000000000E+00 -0.85300148397E+02  0.39720763440E+04  0.39711603300E+04 0.  0.
        2    1    3    3  502    0  0.16578468566E+04 -0.83863211000E+03  0.65806028668E+03  0.19709904507E+04  0.25500000920E-02 0.  1.
       -2    1    3    3    0  502 -0.16578468566E+04  0.83863211000E+03 -0.74336043508E+03  0.20010858933E+04  0.25500000920E-02 0. -1.
</event>
<event>
 5   0  0.3159875E-07  0.3580085E+04  0.7818609E-02  0.8095069E-01
        1   -1    0    0  501    0  0.00000000000E+00  0.00000000000E+00  0.27582538086E+04  0.27582538086E+04  0.50400001928E-02 0. -1.
       -1   -1    0    0    0  501  0.00000000000E+00  0.00000000000E+00 -0.11616959350E+04  0.11616959351E+04  0.50400001928E-02 0.  1.
    10030    2    1    2    0    0  0.00000000000E+00  0.00000000000E+00  0.15965578736E+04  0.39199497437E+04  0.35800850478E+04 0.  0.
        5    1    3    3  502    0  0.24484482594E+02  0.16564941496E+04  0.15406216804E+04  0.22623239400E+04  0.46999998093E+01 0. -1.
       -5    1    3    3    0  502 -0.24484482594E+02 -0.16564941496E+04  0.55936193218E+02  0.16576258037E+04  0.46999998093E+01 0.  1.
</event>
<event>
 5   0  0.1006019E-06  0.3373353E+04  0.7818609E-02  0.8144478E-01
       -2   -1    0    0    0  501  0.00000000000E+00  0.00000000000E+00  0.10866723393E+04  0.10866723393E+04  0.25500000920E-02 0.  1.
        2   -1    0    0  501    0  0.00000000000E+00  0.00000000000E+00 -0.26179713746E+04  0.26179713746E+04  0.25500000920E-02 0. -1.
    10030    2    1    2    0    0  0.00000000000E+00  0.00000000000E+00 -0.15312990352E+04  0.37046437139E+04  0.33733526811E+04 0.  0.
        1    1    3    3  502    0 -0.28744103317E+03  0.82712364279E+03 -0.23487924839E+04  0.25067074023E+04  0.50400001928E-02 0. -1.
       -1    1    3    3    0  502  0.28744103317E+03 -0.82712364279E+03  0.81749344867E+03  0.11979363116E+04  0.50400001928E-02 0.  1.
</event>
<event>
 5   0  0.9878336E-07  0.3729050E+04  0.7818609E-02  0.8061554E-01
        2   -1    0    0  501    0  0.00000000000E+00  0.00000000000E+00  0.23898899388E+04  0.23898899388E+04  0.25500000920E-02 0.  1.
       -2   -1    0    0    0  501  0.00000000000E+00  0.00000000000E+00 -0.14546499071E+04  0.14546499071E+04  0.25500000920E-02 0. -1.
    10030    2    1    2    0    0  0.00000000000E+00  0.00000000000E+00  0.93524003169E+03  0.38445398459E+04  0.37290498401E+04 0.  0.
        3    1    3    3  502    0  0.22641694541E+03  0.12902960032E+04 -0.90024290488E+03  0.15895174447E+04  0.10100000352E+00 0. -1.
       -3    1    3    3    0  502 -0.22641694541E+03 -0.12902960032E+04  0.18354829366E+04  0.22550224012E+04  0.10100000352E+00 0.  1.
</event>
<event>
 5   0  0.3242047E-07  0.3567596E+04  0.7818609E-02  0.8097955E-01
       -1   -1    0    0    0  501  0.00000000000E+00  0.00000000000E+00  0.12164084173E+04  0.12164084173E+04  0.50400001928E-02 0. -1.
        1   -1    0    0  501    0  0.00000000000E+00  0.00000000000E+00 -0.26158443609E+04  0.26158443609E+04  0.50400001928E-02 0.  1.
    10030    2    1    2    0    0  0.00000000000E+00  0.00000000000E+00 -0.13994359436E+04  0.38322527781E+04  0.35675958845E+04 0.  0.
        1    1    3    3  502    0 -0.14072999376E+04 -0.38692407150E+03 -0.18013358749E+04  0.23184077048E+04  0.50400001928E-02 0.  1.
       -1    1    3    3    0  502  0.14072999376E+04  0.38692407150E+03  0.40189993127E+03  0.15138450734E+04  0.50400001928E-02 0. -1.
</event>
<event>
 5   0  0.3159875E-07  0.3708131E+04  0.7818609E-02  0.8066162E-01
       -1   -1    0    0    0  501  0.00000000000E+00  0.00000000000E+00  0.15811855725E+04  0.15811855725E+04  0.50400001928E-02 0. -1.
        1   -1    0    0  501    0  0.00000000000E+00  0.00000000000E+00 -0.21740383738E+04  0.21740383738E+04  0.50400001928E-02 0.  1.
    10030    2    1    2    0    0  0.00000000000E+00  0.00000000000E+00 -0.59285280128E+03  0.37552239463E+04  0.37081305860E+04 0.  0.
        2    1    3    3  502    0 -0.51471536032E+03  0.11323080496E+04 -0.16888446328E+04  0.20974388227E+04  0.25500000920E-02 0.  1.
       -2    1    3    3    0  502  0.51471536032E+03 -0.11323080496E+04  0.10959918315E+04  0.16577851236E+04  0.25500000920E-02 0. -1.
</event>
<event>
 5   0  0.3278988E-07  0.3623683E+04  0.7818609E-02  0.8085088E-01
        1   -1    0    0  501    0  0.00000000000E+00  0.00000000000E+00  0.26074091324E+04  0.26074091324E+04  0.50400001928E-02 0.  1.
       -1   -1    0    0    0  501  0.00000000000E+00  0.00000000000E+00 -0.12590156541E+04  0.12590156541E+04  0.50400001928E-02 0. -1.
    10030    2    1    2    0    0  0.00000000000E+00  0.00000000000E+00  0.13483934783E+04  0.38664247865E+04  0.36236826099E+04 0.  0.
        4    1    3    3  502    0  0.78638658801E+03  0.22273559184E+03 -0.10511432592E+04  0.13315099601E+04  0.12699999809E+01 0. -1.
       -4    1    3    3    0  502 -0.78638658801E+03 -0.22273559184E+03  0.23995367374E+04  0.25349148264E+04  0.12699999809E+01 0.  1.
</event>
<event>
 5   0  0.3365378E-07  0.3126155E+04  0.7818609E-02  0.8208596E-01
        1   -1    0    0  501    0  0.00000000000E+00  0.00000000000E+00  0.19449322754E+04  0.19449322754E+04  0.50400001928E-02 0. -1.
       -1   -1    0    0    0  501  0.00000000000E+00  0.00000000000E+00 -0.12561937465E+04  0.12561937465E+04  0.50400001928E-02 0.  1.
    10030    2    1    2    0    0  0.00000000000E+00  0.00000000000E+00  0.68873852897E+03  0.32011260219E+04  0.31261553139E+04 0.  0.
        3    1    3    3  502    0  0.32013565913E+03  0.43981927446E+03  0.18448725702E+04  0.19234039214E+04  0.10100000352E+00 0. -1.
       -3    1    3    3    0  502 -0.32013565913E+03 -0.43981927446E+03 -0.11561340413E+04  0.12777221005E+04  0.10100000352E+00 0.  1.
</event>
<event>
 5   0  0.3242047E-07  0.3507287E+04  0.7818609E-02  0.8112065E-01
        1   -1    0    0  501    0  0.00000000000E+00  0.00000000000E+00  0.14954996756E+04  0.14954996756E+04  0.50400001928E-02 0.  1.
       -1   -1    0    0    0  501  0.00000000000E+00  0.00000000000E+00 -0.20563462154E+04  0.20563462154E+04  0.50400001928E-02 0. -1.
    10030    2    1    2    0    0  0.00000000000E+00  0.00000000000E+00 -0.56084653980E+03  0.35518458909E+04  0.35072867564E+04 0.  0.
        1    1    3    3  502    0 -0.13604381620E+04  0.10774246007E+04 -0.24969961417E+02  0.17355861436E+04  0.50400001928E-02 0. -1.
       -1    1    3    3    0  502  0.13604381620E+04 -0.10774246007E+04 -0.53587657838E+03  0.18162597474E+04  0.50400001928E-02 0.  1.
</event>
<event>
 5   0  0.9538919E-07  0.3324878E+04  0.7818609E-02  0.8156594E-01
        2   -1    0    0  501    0  0.00000000000E+00  0.00000000000E+00  0.11922379696E+04  0.11922379696E+04  0.25500000920E-02 0.  1.
       -2   -1    0    0    0  501  0.00000000000E+00  0.00000000000E+00 -0.23180808028E+04  0.23180808028E+04  0.25500000920E-02 0. -1.
    10030    2    1    2    0    0  0.00000000000E+00  0.00000000000E+00 -0.11258428332E+04  0.35103187724E+04  0.33248783133E+04 0.  0.
        4    1    3    3  502    0  0.56000668608E+03  0.15465375998E+04 -0.30796509529E+03  0.16733888218E+04  0.12699999809E+01 0.  1.
       -4    1    3    3    0  502 -0.56000668608E+03 -0.15465375998E+04 -0.81787773789E+03  0.18369299505E+04  0.12699999809E+01 0. -1.
</event>
<event>
 5   0  0.9538919E-07  0.3095836E+04  0.7818609E-02  0.8216882E-01
       -2   -1    0    0    0  501  0.00000000000E+00  0.00000000000E+00  0.10043823585E+04  0.10043823585E+04  0.25500000920E-02 0.  1.
        2   -1    0    0  501    0  0.00000000000E+00  0.00000000000E+00 -0.23855956557E+04  0.23855956557E+04  0.25500000920E-02 0. -1.
    10030    2    1    2    0    0  0.00000000000E+00  0.00000000000E+00 -0.13812132972E+04  0.33899780142E+04  0.30958360364E+04 0.  0.
        4    1    3    3  502    0 -0.59718239546E+03 -0.50382327618E+03 -0.21538247243E+04  0.22911628626E+04  0.12699999809E+01 0. -1.
       -4    1    3    3    0  502  0.59718239546E+03  0.50382327618E+03  0.77261142710E+03  0.10988151515E+04  0.12699999809E+01 0.  1.
</event>
<event>
 5   0  0.3242047E-07  0.3589995E+04  0.7818609E-02  0.8092787E-01
       -1   -1    0    0    0  501  0.00000000000E+00  0.00000000000E+00  0.14224565661E+04  0.14224565661E+04  0.50400001928E-02 0.  1.
        1   -1    0    0  501    0  0.00000000000E+00  0.00000000000E+00 -0.22651073301E+04  0.22651073301E+04  0.50400001928E-02 0. -1.
    10030    2    1    2    0    0  0.00000000000E+00  0.00000000000E+00 -0.84265076401E+03  0.36875638962E+04  0.35899954288E+04 0.  0.
        1    1    3    3  502    0 -0.13358524572E+04  0.10488011977E+04 -0.10180892594E+04  0.19801493580E+04  0.50400001928E-02 0. -1.
       -1    1    3    3    0  502  0.13358524572E+04 -0.10488011977E+04  0.17543849543E+03  0.17074145382E+04  0.50400001928E-02 0.  1.
</event>
<event>
 5   0  0.3278988E-07  0.2823047E+04  0.7818609E-02  0.8296149E-01
       -1   -1    0    0    0  501  0.00000000000E+00  0.00000000000E+00  0.99076041520E+03  0.99076041521E+03  0.50400001928E-02 0.  1.
        1   -1    0    0  501    0  0.00000000000E+00  0.00000000000E+00 -0.20109786301E+04  0.20109786301E+04  0.50400001928E-02 0. -1.
    10030    2    1    2    0    0  0.00000000000E+00  0.00000000000E+00 -0.10202182149E+04  0.30017390453E+04  0.28230465972E+04 0.  0.
        4    1    3    3  502    0  0.23319263550E+03 -0.99900964680E+03  0.52079482841E+03  0.11504903067E+04  0.12699999809E+01 0.  1.
       -4    1    3    3    0  502 -0.23319263550E+03  0.99900964680E+03 -0.15410130433E+04  0.18512487386E+04  0.12699999809E+01 0. -1.
</event>
<event>
 5   0  0.9538919E-07  0.3592760E+04  0.7818609E-02  0.8092152E-01
       -2   -1    0    0    0  501  0.00000000000E+00  0.00000000000E+00  0.22444957138E+04  0.22444957138E+04  0.25500000920E-02 0.  1.
        2   -1    0    0  501    0  0.00000000000E+00  0.00000000000E+00 -0.14377311157E+04  0.14377311157E+04  0.25500000920E-02 0. -1.
    10030    2    1    2    0    0  0.00000000000E+00  0.00000000000E+00  0.80676459814E+03  0.36822268295E+04  0.35927601238E+04 0.  0.
        4    1    3    3  502    0  0.82651431490E+01  0.12647420729E+04  0.17108209450E+04  0.21275692098E+04  0.12699999809E+01 0.  1.
       -4    1    3    3    0  502 -0.82651431490E+01 -0.12647420729E+04 -0.90405634689E+03  0.15546576198E+04  0.12699999809E+01 0. -1.
</event>
<event>
 5   0  0.9538919E-07  0.3601094E+04  0.7818609E-02  0.8090241E-01
        2   -1    0    0  501    0  0.00000000000E+00  0.00000000000E+00  0.13702116949E+04  0.13702116949E+04  0.25500000920E-02 0. -1.
       -2   -1    0    0    0  501  0.00000000000E+00  0.00000000000E+00 -0.23660351157E+04  0.23660351157E+04  0.25500000920E-02 0.  1.
    10030    2    1    2    0    0  0.00000000000E+00  0.00000000000E+00 -0.99582342078E+03  0.37362468105E+04  0.36010937149E+04 0.  0.
        4    1    3    3  502    0  0.98983519182E+03  0.11248340772E+04 -0.15338552166E+04  0.21442338601E+04  0.12699999809E+01 0.  1.
       -4    1    3    3    0  502 -0.98983519182E+03 -0.11248340772E+04  0.53803179580E+03  0.15920129505E+04  0.12699999809E+01 0. -1.
</event>
<event>
 5   0  0.9878977E-07  0.3623883E+04  0.7818609E-02  0.8085043E-01
        2   -1    0    0  501    0  0.00000000000E+00  0.00000000000E+00  0.14434449818E+04  0.14434449818E+04  0.25500000920E-02 0. -1.
       -2   -1    0    0    0  501  0.00000000000E+00  0.00000000000E+00 -0.22745113718E+04  0.22745113718E+04  0.25500000920E-02 0.  1.
    10030    2    1    2    0    0  0.00000000000E+00  0.00000000000E+00 -0.83106639000E+03  0.37179563536E+04  0.36238830145E+04 0.  0.
        5    1    3    3  502    0  0.39915960782E+03  0.11018274405E+04  0.10022808294E+04  0.15420574088E+04  0.46999998093E+01 0. -1.
       -5    1    3    3    0  502 -0.39915960782E+03 -0.11018274405E+04 -0.18333472194E+04  0.21758989448E+04  0.46999998093E+01 0.  1.
</event>
<event>
 5   0  0.1006019E-06  0.3613898E+04  0.7818609E-02  0.8087315E-01
       -2   -1    0    0    0  501  0.00000000000E+00  0.00000000000E+00  0.16690343752E+04  0.16690343752E+04  0.25500000920E-02 0.  1.
        2   -1    0    0  501    0  0.00000000000E+00  0.00000000000E+00 -0.19562602193E+04  0.19562602193E+04  0.25500000920E-02 0. -1.
    10030    2    1    2    0    0  0.00000000000E+00  0.00000000000E+00 -0.28722584412E+03  0.36252945944E+04  0.36138984782E+04 0.  0.
        1    1    3    3  502    0 -0.87596065142E+03 -0.45979310225E+02 -0.17283554270E+04  0.19382037153E+04  0.50400001928E-02 0. -1.
       -1    1    3    3    0  502  0.87596065142E+03  0.45979310225E+02  0.14411295829E+04  0.16870908792E+04  0.50400001928E-02 0.  1.
</event>
<event>
 5   0  0.3159875E-07  0.3520818E+04  0.7818609E-02  0.8108874E-01
        3   -1    0    0  501    0  0.00000000000E+00  0.00000000000E+00  0.24019182999E+04  0.24019183020E+04  0.10100000352E+00 0. -1.
       -3   -1    0    0    0  501  0.00000000000E+00  0.00000000000E+00 -0.12902356825E+04  0.12902356864E+04  0.10100000352E+00 0.  1.
    10030    2    1    2    0    0  0.00000000000E+00  0.00000000000E+00  0.11116826174E+04  0.36921539884E+04  0.35208184890E+04 0.  0.
        2    1    3    3  502    0  0.12107126839E+04 -0.21986193878E+03 -0.76434080960E+03  0.14485790791E+04  0.25500000920E-02 0.  1.
       -2    1    3    3    0  502 -0.12107126839E+04  0.21986193878E+03  0.18760234270E+04  0.22435749093E+04  0.25500000920E-02 0. -1.
</event>
<event>
 5   0  0.9878977E-07  0.3602396E+04  0.7818609E-02  0.8089943E-01
       -2   -1    0    0    0  501  0.00000000000E+00  0.00000000000E+00  0.13300087205E+04  0.13300087205E+04  0.25500000920E-02 0. -1.
        2   -1    0    0  501    0  0.00000000000E+00  0.00000000000E+00 -0.24393175266E+04  0.24393175266E+04  0.25500000920E-02 0.  1.
    10030    2    1    2    0    0  0.00000000000E+00  0.00000000000E+00 -0.11093088060E+04  0.37693262471E+04  0.36023956377E+04 0.  0.
        5    1    3    3  502    0 -0.13339337162E+04 -0.10336940560E+03 -0.18164483430E+04  0.22560077717E+04  0.46999998093E+01 0.  1.
       -5    1    3    3    0  502  0.13339337162E+04  0.10336940560E+03  0.70713953694E+03  0.15133184754E+04  0.46999998093E+01 0. -1.
</event>
<event>
 5   0  0.3159875E-07  0.2971205E+04  0.7818609E-02  0.8252002E-01
        1   -1    0    0  501    0  0.00000000000E+00  0.00000000000E+00  0.17110905839E+04  0.17110905839E+04  0.50400001928E-02 0. -1.
       -1   -1    0    0    0  501  0.00000000000E+00  0.00000000000E+00 -0.12898291878E+04  0.12898291879E+04  0.50400001928E-02 0.  1.
    10030    2    1    2    0    0  0.00000000000E+00  0.00000000000E+00  0.42126139608E+03  0.30009197718E+04  0.29712048588E+04 0.  0.
        2    1    3    3  502    0  0.14850308978E+04 -0.38859419673E+02  0.19679123972E+03  0.14985171383E+04  0.25500000920E-02 0. -1.
       -2    1    3    3    0  502 -0.14850308978E+04  0.38859419673E+02  0.22447015637E+03  0.15024026334E+04  0.25500000920E-02 0.  1.
</event>
<event>
 5   0  0.9878977E-07  0.3567169E+04  0.7818609E-02  0.8098054E-01
        2   -1    0    0  501    0  0.00000000000E+00  0.00000000000E+00  0.22340892711E+04  0.22340892712E+04  0.25500000920E-02 0. -1.
       -2   -1    0    0    0  501  0.00000000000E+00  0.00000000000E+00 -0.14239240707E+04  0.14239240707E+04  0.25500000920E-02 0.  1.
    10030    2    1    2    0    0  0.00000000000E+00  0.00000000000E+00  0.81016520044E+03  0.36580133419E+04  0.35671688995E+04 0.  0.
        5    1    3    3  502    0 -0.58620095426E+03 -0.51131933299E+03  0.20509719797E+04  0.21935330339E+04  0.46999998093E+01 0. -1.
       -5    1    3    3    0  502  0.58620095426E+03  0.51131933299E+03 -0.12408067793E+04  0.14644803080E+04  0.46999998093E+01 0.  1.
</event>
<event>
 5   0  0.3365378E-07  0.3624467E+04  0.7818609E-02  0.8084910E-01
        1   -1    0    0  501    0  0.00000000000E+00  0.00000000000E+00  0.17085151108E+04  0.17085151108E+04  0.50400001928E-02 0. -1.
       -1   -1    0    0    0  501  0.00000000000E+00  0.00000000000E+00 -0.19222479977E+04  0.19222479977E+04  0.50400001928E-02 0.  1.
    10030    2    1    2    0    0  0.00000000000E+00  0.00000000000E+00 -0.21373288692E+03  0.36307631086E+04  0.36244667199E+04 0.  0.
        3    1    3    3  502    0 -0.39012149145E+03  0.40876998442E+03 -0.18317467896E+04  0.19169204443E+04  0.10100000352E+00 0.  1.
       -3    1    3    3    0  502  0.39012149145E+03 -0.40876998442E+03  0.16180139027E+04  0.17138426643E+04  0.10100000352E+00 0. -1.
</event>
<event>
 5   0  0.3278988E-07  0.3655150E+04  0.7818609E-02  0.8077974E-01
        1   -1    0    0  501    0  0.00000000000E+00  0.00000000000E+00  0.17416412819E+04  0.17416412819E+04  0.50400001928E-02 0. -1.
       -1   -1    0    0    0  501  0.00000000000E+00  0.00000000000E+00 -0.19177488309E+04  0.19177488309E+04  0.50400001928E-02 0.  1.
    10030    2    1    2    0    0  0.00000000000E+00  0.00000000000E+00 -0.17610754905E+03  0.36593901128E+04  0.36551500829E+04 0.  0.
        4    1    3    3  502    0 -0.14158318463E+03 -0.85851917519E+03  0.15209595549E+04  0.17522615538E+04  0.12699999809E+01 0. -1.
       -4    1    3    3    0  502  0.14158318463E+03  0.85851917519E+03 -0.16970671040E+04  0.19071285590E+04  0.12699999809E+01 0.  1.
</event>
<event>
 5   0  0.3365378E-07  0.3601894E+04  0.7818609E-02  0.8090058E-01
        1   -1    0    0  501    0  0.00000000000E+00  0.00000000000E+00  0.18220278557E+04  0.18220278557E+04  0.50400001928E-02 0.  1.
       -1   -1    0    0    0  501  0.00000000000E+00  0.00000000000E+00 -0.17801104808E+04  0.17801104808E+04  0.50400001928E-02 0. -1.
    10030    2    1    2    0    0  0.00000000000E+00  0.00000000000E+00  0.41917374952E+02  0.36021383365E+04  0.36018944361E+04 0.  0.
        3    1    3    3  502    0 -0.15692963604E+03 -0.39307032911E+03  0.17715856277E+04  0.18214408694E+04  0.10100000352E+00 0.  1.
       -3    1    3    3    0  502  0.15692963604E+03  0.39307032911E+03 -0.17296682528E+04  0.17806974670E+04  0.10100000352E+00 0. -1.
</event>
<event>
 5   0  0.3365378E-07  0.3619680E+04  0.7818609E-02  0.8085999E-01
       -1   -1    0    0    0  501  0.00000000000E+00  0.00000000000E+00  0.11745787967E+04  0.11745787967E+04  0.50400001928E-02 0.  1.
        1   -1    0    0  501    0  0.00000000000E+00  0.00000000000E+00 -0.27886768408E+04  0.27886768408E+04  0.50400001928E-02 0. -1.
    10030    2    1    2    0    0  0.00000000000E+00  0.00000000000E+00 -0.16140980441E+04  0.39632556375E+04  0.36196799240E+04 0.  0.
        3    1    3    3  502    0  0.13055634656E+04 -0.62917670498E+03 -0.19939942370E+04  0.24650298814E+04  0.10100000352E+00 0. -1.
       -3    1    3    3    0  502 -0.13055634656E+04  0.62917670498E+03  0.37989619288E+03  0.14982257561E+04  0.10100000352E+00 0.  1.
</event>
<event>
 5   0  0.1031659E-06  0.3607442E+04  0.7818609E-02  0.8088789E-01
        2   -1    0    0  501    0  0.00000000000E+00  0.00000000000E+00  0.24645415569E+04  0.24645415569E+04  0.25500000920E-02 0. -1.
       -2   -1    0    0    0  501  0.00000000000E+00  0.00000000000E+00 -0.13200870986E+04  0.13200870986E+04  0.25500000920E-02 0.  1.
    10030    2    1    2    0    0  0.00000000000E+00  0.00000000000E+00  0.11444544583E+04  0.37846286555E+04  0.36074420373E+04 0.  0.
        2    1    3    3  502    0  0.13737157218E+04 -0.23220898010E+03  0.17740929997E+04  0.22557530597E+04  0.25500000920E-02 0. -1.
       -2    1    3    3    0  502 -0.13737157218E+04  0.23220898010E+03 -0.62963854138E+03  0.15288755958E+04  0.25500000920E-02 0.  1.
</event>
<event>
 5   0  0.3159875E-07  0.3536824E+04  0.7818609E-02  0.8105118E-01
       -1   -1    0    0    0  501  0.00000000000E+00  0.00000000000E+00  0.22306213721E+04  0.22306213721E+04  0.50400001928E-02 0. -1.
        1   -1    0    0  501    0  0.00000000000E+00  0.00000000000E+00 -0.14019775918E+04  0.14019775918E+04  0.50400001928E-02 0.  1.
    10030    2    1    2    0    0  0.00000000000E+00  0.00000000000E+00  0.82864378029E+03  0.36325989640E+04  0.35368241006E+04 0.  0.
        5    1    3    3  502    0  0.27945856075E+03  0.48137685232E+03 -0.13096540587E+04  0.14230378086E+04  0.46999998093E+01 0.  1.
       -5    1    3    3    0  502 -0.27945856075E+03 -0.48137685232E+03  0.21382978390E+04  0.22095611554E+04  0.46999998093E+01 0. -1.
</event>
<event>
 5   0  0.3159875E-07  0.3860140E+04  0.7818609E-02  0.8033371E-01
       -1   -1    0    0    0  501  0.00000000000E+00  0.00000000000E+00  0.15482096851E+04  0.15482096851E+04  0.50400001928E-02 0. -1.
        1   -1    0    0  501    0  0.00000000000E+00  0.00000000000E+00 -0.24061144526E+04  0.24061144526E+04  0.50400001928E-02 0.  1.
    10030    2    1    2    0    0  0.00000000000E+00  0.00000000000E+00 -0.85790476753E+03  0.39543241377E+04  0.38601397378E+04 0.  0.
        2    1    3    3  502    0  0.14475391498E+03 -0.52271439763E+03 -0.23264388666E+04  0.23888285492E+04  0.25500000920E-02 0.  1.
       -2    1    3    3    0  502 -0.14475391498E+03  0.52271439763E+03  0.14685340991E+04  0.15654955885E+04  0.25500000920E-02 0. -1.
</event>
<event>
 5   0  0.3365378E-07  0.3654868E+04  0.7818609E-02  0.8078038E-01
       -1   -1    0    0    0  501  0.00000000000E+00  0.00000000000E+00  0.11381574973E+04  0.11381574973E+04  0.50400001928E-02 0. -1.
        1   -1    0    0  501    0  0.00000000000E+00  0.00000000000E+00 -0.29341413906E+04  0.29341413906E+04  0.50400001928E-02 0.  1.
    10030    2    1    2    0    0  0.00000000000E+00  0.00000000000E+00 -0.17959838933E+04  0.40722988879E+04  0.36548679986E+04 0.  0.
        3    1    3    3  502    0  0.55397967176E+03  0.15544263906E+03 -0.28305831868E+04  0.28884696776E+04  0.10100000352E+00 0.  1.
       -3    1    3    3    0  502 -0.55397967176E+03 -0.15544263906E+03  0.10345992935E+04  0.11838292103E+04  0.10100000352E+00 0. -1.
</event>
<event>
 5   0  0.1006019E-06  0.3606668E+04  0.7818609E-02  0.8088966E-01
        2   -1    0    0  501    0  0.00000000000E+00  0.00000000000E+00  0.20153064833E+04  0.20153064833E+04  0.25500000920E-02 0. -1.
       -2   -1    0    0    0  501  0.00000000000E+00  0.00000000000E+00 -0.16136569354E+04  0.16136569354E+04  0.25500000920E-02 0.  1.
    10030    2    1    2    0    0  0.00000000000E+00  0.00000000000E+00  0.40164954794E+03  0.36289634187E+04  0.36066678714E+04 0.  0.
        1    1    3    3  502    0 -0.82936184155E+03  0.15727163633E+04  0.50391013594E+03  0.18480268528E+04  0.50400001928E-02 0.  1.
       -1    1    3    3    0  502  0.82936184155E+03 -0.15727163633E+04 -0.10226058800E+03  0.17809365659E+04  0.50400001928E-02 0. -1.
</event>
<event>
 5   0  0.1031659E-06  0.3539305E+04  0.7818609E-02  0.8104538E-01
        2   -1    0    0  501    0  0.00000000000E+00  0.00000000000E+00  0.19011416977E+04  0.19011416977E+04  0.25500000920E-02 0. -1.
       -2   -1    0    0    0  501  0.00000000000E+00  0.00000000000E+00 -0.16472573889E+04  0.16472573889E+04  0.25500000920E-02 0.  1.
    10030    2    1    2    0    0  0.00000000000E+00  0.00000000000E+00  0.25388430882E+03  0.35483990866E+04  0.35393048520E+04 0.  0.
        2    1    3    3  502    0 -0.11087093618E+04  0.80203913717E+03 -0.99806702143E+03  0.16937062926E+04  0.25500000920E-02 0.  1.
       -2    1    3    3    0  502  0.11087093618E+04 -0.80203913717E+03  0.12519513303E+04  0.18546927939E+04  0.25500000920E-02 0. -1.
</event>
<event>
 5   0  0.3365378E-07  0.3454075E+04  0.7818609E-02  0.8124761E-01
        1   -1    0    0  501    0  0.00000000000E+00  0.00000000000E+00  0.15463938851E+04  0.15463938852E+04  0.50400001928E-02 0.  1.
       -1   -1    0    0    0  501  0.00000000000E+00  0.00000000000E+00 -0.19287836391E+04  0.19287836391E+04  0.50400001928E-02 0. -1.
    10030    2    1    2    0    0  0.00000000000E+00  0.00000000000E+00 -0.38238975394E+03  0.34751775242E+04  0.34540754047E+04 0.  0.
        3    1    3    3  502    0 -0.11158634898E+04 -0.12973996788E+04 -0.42555996728E+03  0.17633770301E+04  0.10100000352E+00 0. -1.
       -3    1    3    3    0  502  0.11158634898E+04  0.12973996788E+04  0.43170213334E+02  0.17118004942E+04  0.10100000352E+00 0.  1.
</event>
<event>
 5   0  0.1006019E-06  0.3560106E+04  0.7818609E-02  0.8099691E-01
        2   -1    0    0  501    0  0.00000000000E+00  0.00000000000E+00  0.20651623585E+04  0.20651623585E+04  0.25500000920E-02 0. -1.
       -2   -1    0    0    0  501  0.00000000000E+00  0.00000000000E+00 -0.15343048973E+04  0.15343048973E+04  0.25500000920E-02 0.  1.
    10030    2    1    2    0    0  0.00000000000E+00  0.00000000000E+00  0.53085746124E+03  0.35994672558E+04  0.35601060211E+04 0.  0.
        1    1    3    3  502    0  0.38555899726E+03  0.16081873925E+04  0.93124304552E+03  0.18979294085E+04  0.50400001928E-02 0. -1.
       -1    1    3    3    0  502 -0.38555899726E+03 -0.16081873925E+04 -0.40038558428E+03  0.17015378473E+04  0.50400001928E-02 0.  1.
</event>
<event>
 5   0  0.3242047E-07  0.3445336E+04  0.7818609E-02  0.8126868E-01
       -1   -1    0    0    0  501  0.00000000000E+00  0.00000000000E+00  0.15083071416E+04  0.15083071416E+04  0.50400001928E-02 0.  1.
        1   -1    0    0  501    0  0.00000000000E+00  0.00000000000E+00 -0.19674942984E+04  0.19674942984E+04  0.50400001928E-02 0. -1.
    10030    2    1    2    0    0  0.00000000000E+00  0.00000000000E+00 -0.45918715687E+03  0.34758014400E+04  0.34453363849E+04 0.  0.
        1    1    3    3  502    0  0.19546876428E+02  0.11662793020E+04  0.10492892453E+04  0.15689478675E+04  0.50400001928E-02 0.  1.
       -1    1    3    3    0  502 -0.19546876428E+02 -0.11662793020E+04 -0.15084764022E+04  0.19068535724E+04  0.50400001928E-02 0. -1.
</event>
<event>
 5   0  0.3365378E-07  0.3580868E+04  0.7818609E-02  0.8094888E-01
        1   -1    0    0  501    0  0.00000000000E+00  0.00000000000E+00  0.14066141875E+04  0.14066141875E+04  0.50400001928E-02 0. -1.
       -1   -1    0    0    0  501  0.00000000000E+00  0.00000000000E+00 -0.22789860246E+04  0.22789860246E+04  0.50400001928E-02 0.  1.
    10030    2    1    2    0    0  0.00000000000E+00  0.00000000000E+00 -0.87237183716E+03  0.36856002121E+04  0.35808680933E+04 0.  0.
        3    1    3    3  502    0 -0.52914880541E+01  0.71541144069E+03  0.12531016481E+04  0.14429502001E+04  0.10100000352E+00 0. -1.
       -3    1    3    3    0  502  0.52914880541E+01 -0.71541144069E+03 -0.21254734853E+04  0.22426500120E+04  0.10100000352E+00 0.  1.
</event>
<event>
 5   0  0.9538919E-07  0.3635540E+04  0.7818609E-02  0.8082399E-01
       -2   -1    0    0    0  501  0.00000000000E+00  0.00000000000E+00  0.22941412476E+04  0.22941412476E+04  0.25500000920E-02 0.  1.
        2   -1    0    0  501    0  0.00000000000E+00  0.00000000000E+00 -0.14403155856E+04  0.14403155856E+04  0.25500000920E-02 0. -1.
    10030    2    1    2    0    0  0.00000000000E+00  0.00000000000E+00  0.85382566207E+03  0.37344568332E+04  0.36355397918E+04 0.  0.
        4    1    3    3  502    0 -0.26377702211E+02  0.34850935310E+03 -0.14054757815E+04  0.14482811667E+04  0.12699999809E+01 0. -1.
       -4    1    3    3    0  502  0.26377702211E+02 -0.34850935310E+03  0.22593014436E+04  0.22861756665E+04  0.12699999809E+01 0.  1.
</event>
<event>
 5   0  0.3159875E-07  0.3611586E+04  0.7818609E-02  0.8087843E-01
       -4   -1    0    0    0  501  0.00000000000E+00  0.00000000000E+00  0.23000067293E+04  0.23000070799E+04  0.12699999809E+01 0. -1.
        4   -1    0    0  501    0  0.00000000000E+00  0.00000000000E+00 -0.14177726228E+04  0.14177731916E+04  0.12699999809E+01 0.  1.
    10030    2    1    2    0    0  0.00000000000E+00  0.00000000000E+00  0.88223410645E+03  0.37177802715E+04  0.36115859576E+04 0.  0.
        4    1    3    3  502    0 -0.13150798440E+04 -0.37123606800E+03  0.16563522963E+04  0.21472670436E+04  0.12699999809E+01 0. -1.
       -4    1    3    3    0  502  0.13150798440E+04  0.37123606800E+03 -0.77411818983E+03  0.15705132279E+04  0.12699999809E+01 0.  1.
</event>
<event>
 5   0  0.1006019E-06  0.3667670E+04  0.7818609E-02  0.8075164E-01
       -2   -1    0    0    0  501  0.00000000000E+00  0.00000000000E+00  0.18796859580E+04  0.18796859580E+04  0.25500000920E-02 0.  1.
        2   -1    0    0  501    0  0.00000000000E+00  0.00000000000E+00 -0.17891027245E+04  0.17891027245E+04  0.25500000920E-02 0. -1.
    10030    2    1    2    0    0  0.00000000000E+00  0.00000000000E+00  0.90583233503E+02  0.36687886826E+04  0.36676702517E+04 0.  0.
        1    1    3    3  502    0 -0.84572168898E+03 -0.15917203133E+04  0.38322971207E+03  0.18427381103E+04  0.50400001928E-02 0.  1.
       -1    1    3    3    0  502  0.84572168898E+03  0.15917203133E+04 -0.29264647857E+03  0.18260505722E+04  0.50400001928E-02 0. -1.
</event>
<event>
 5   0  0.9878977E-07  0.3570045E+04  0.7818609E-02  0.8097388E-01
       -2   -1    0    0    0  501  0.00000000000E+00  0.00000000000E+00  0.16659365399E+04  0.16659365399E+04  0.25500000920E-02 0.  1.
        2   -1    0    0  501    0  0.00000000000E+00  0.00000000000E+00 -0.19126215464E+04  0.19126215464E+04  0.25500000920E-02 0. -1.
    10030    2    1    2    0    0  0.00000000000E+00  0.00000000000E+00 -0.24668500653E+03  0.35785580863E+04  0.35700454457E+04 0.  0.
        5    1    3    3  502    0 -0.21728944916E+03 -0.10581274089E+04  0.13011144927E+04  0.16910852526E+04  0.46999998093E+01 0.  1.
       -5    1    3    3    0  502  0.21728944916E+03  0.10581274089E+04 -0.15477994992E+04  0.18874728337E+04  0.46999998093E+01 0. -1.
</event>
<event>
 5   0  0.9538919E-07  0.2830111E+04  0.7818609E-02  0.8293980E-01
       -2   -1    0    0    0  501  0.00000000000E+00  0.00000000000E+00  0.17451347497E+04  0.17451347497E+04  0.25500000920E-02 0.  1.
        2   -1    0    0  501    0  0.00000000000E+00  0.00000000000E+00 -0.11474085992E+04  0.11474085993E+04  0.25500000920E-02 0. -1.
    10030    2    1    2    0    0  0.00000000000E+00  0.00000000000E+00  0.59772615050E+03  0.28925433490E+04  0.28301113891E+04 0.  0.
        4    1    3    3  502    0 -0.87105204750E+03 -0.52971659848E+03 -0.70413636036E+03  0.12390080593E+04  0.12699999809E+01 0. -1.
       -4    1    3    3    0  502  0.87105204750E+03  0.52971659848E+03  0.13018625109E+04  0.16535352897E+04  0.12699999809E+01 0.  1.
</event>
<event>
 5   0  0.3365378E-07  0.3620484E+04  0.7818609E-02  0.8085816E-01
        1   -1    0    0  501    0  0.00000000000E+00  0.00000000000E+00  0.26546691888E+04  0.26546691888E+04  0.50400001928E-02 0. -1.
       -1   -1    0    0    0  501  0.00000000000E+00  0.00000000000E+00 -0.12344196081E+04  0.12344196082E+04  0.50400001928E-02 0.  1.
    10030    2    1    2    0    0  0.00000000000E+00  0.00000000000E+00  0.14202495807E+04  0.38890887970E+04  0.36204837798E+04 0.  0.
        3    1    3    3  502    0  0.48627130157E+03  0.25211100720E+03 -0.11432679492E+04  0.12677071241E+04  0.10100000352E+00 0.  1.
       -3    1    3    3    0  502 -0.48627130157E+03 -0.25211100720E+03  0.25635175299E+04  0.26213816729E+04  0.10100000352E+00 0. -1.
</event>
<event>
 5   0  0.3365378E-07  0.2879540E+04  0.7818609E-02  0.8278991E-01
        1   -1    0    0  501    0  0.00000000000E+00  0.00000000000E+00  0.18043989573E+04  0.18043989573E+04  0.50400001928E-02 0.  1.
       -1   -1    0    0    0  501  0.00000000000E+00  0.00000000000E+00 -0.11488241240E+04  0.11488241240E+04  0.50400001928E-02 0. -1.
    10030    2    1    2    0    0  0.00000000000E+00  0.00000000000E+00  0.65557483331E+03  0.29532230812E+04  0.28795395822E+04 0.  0.
        3    1    3    3  502    0 -0.15194584923E+03  0.14113491801E+04  0.57466045365E+03  0.15314139533E+04  0.10100000352E+00 0. -1.
       -3    1    3    3    0  502  0.15194584923E+03 -0.14113491801E+04  0.80914379665E+02  0.14218091279E+04  0.10100000352E+00 0.  1.
</event>
<event>
 5   0  0.9878336E-07  0.3741801E+04  0.7818609E-02  0.8058761E-01
       -2   -1    0    0    0  501  0.00000000000E+00  0.00000000000E+00  0.17068989236E+04  0.17068989236E+04  0.25500000920E-02 0. -1.
        2   -1    0    0  501    0  0.00000000000E+00  0.00000000000E+00 -0.20506594032E+04  0.20506594032E+04  0.25500000920E-02 0.  1.
    10030    2    1    2    0    0  0.00000000000E+00  0.00000000000E+00 -0.34376047959E+03  0.37575583268E+04  0.37418008113E+04 0.  0.
        3    1    3    3  502    0  0.15741476267E+04  0.16449270207E+02 -0.11871059835E+04  0.19716571597E+04  0.10100000352E+00 0.  1.
       -3    1    3    3    0  502 -0.15741476267E+04 -0.16449270207E+02  0.84334550392E+03  0.17859011670E+04  0.10100000352E+00 0. -1.
</event>
<event>
 5   0  0.9538919E-07  0.3446622E+04  0.7818609E-02  0.8126558E-01
        2   -1    0    0  501    0  0.00000000000E+00  0.00000000000E+00  0.17550874244E+04  0.17550874244E+04  0.25500000920E-02 0.  1.
       -2   -1    0    0    0  501  0.00000000000E+00  0.00000000000E+00 -0.16921101355E+04  0.16921101355E+04  0.25500000920E-02 0. -1.
    10030    2    1    2    0    0  0.00000000000E+00  0.00000000000E+00  0.62977288930E+02  0.34471975599E+04  0.34466222419E+04 0.  0.
        4    1    3    3  502    0  0.16293366294E+04  0.55553822650E+03  0.11174562906E+03  0.17250650050E+04  0.12699999809E+01 0. -1.
       -4    1    3    3    0  502 -0.16293366294E+04 -0.55553822650E+03 -0.48768340133E+02  0.17221325550E+04  0.12699999809E+01 0.  1.
</event>
<event>
 5   0  0.3159875E-07  0.3476849E+04  0.7818609E-02  0.8119298E-01
        1   -1    0    0  501    0  0.00000000000E+00  0.00000000000E+00  0.19678496233E+04  0.19678496233E+04  0.50400001928E-02 0. -1.
       -1   -1    0    0    0  501  0.00000000000E+00  0.00000000000E+00 -0.15357474776E+04  0.15357474776E+04  0.50400001928E-02 0.  1.
    10030    2    1    2    0    0  0.00000000000E+00  0.00000000000E+00  0.43210214566E+03  0.35035971009E+04  0.34768492031E+04 0.  0.
        2    1    3    3  502    0 -0.10877921772E+04 -0.13121613118E+04  0.56082495214E+03  0.17943198589E+04  0.25500000920E-02 0. -1.
       -2    1    3    3    0  502  0.10877921772E+04  0.13121613118E+04 -0.12872280647E+03  0.17092772420E+04  0.25500000920E-02 0.  1.
</event>
<event>
 5   0  0.3242047E-07  0.3586558E+04  0.7818609E-02  0.8093578E-01
        1   -1    0    0  501    0  0.00000000000E+00  0.00000000000E+00  0.14035195001E+04  0.14035195002E+04  0.50400001928E-02 0.  1.
       -1   -1    0    0    0  501  0.00000000000E+00  0.00000000000E+00 -0.22912755557E+04  0.22912755557E+04  0.50400001928E-02 0. -1.
    10030    2    1    2    0    0  0.00000000000E+00  0.00000000000E+00 -0.88775605551E+03  0.36947950558E+04  0.35865581956E+04 0.  0.
        1    1    3    3  502    0 -0.14711023812E+04 -0.88252998044E+03 -0.98199078604E+03  0.19766909941E+04  0.50400001928E-02 0.  1.
       -1    1    3    3    0  502  0.14711023812E+04  0.88252998044E+03  0.94234730528E+02  0.17181040617E+04  0.50400001928E-02 0. -1.
</event>
<event>
 5   0  0.3159875E-07  0.3012446E+04  0.7818609E-02  0.8240186E-01
        1   -1    0    0  501    0  0.00000000000E+00  0.00000000000E+00  0.13379332034E+04  0.13379332034E+04  0.50400001928E-02 0.  1.
       -1   -1    0    0    0  501  0.00000000000E+00  0.00000000000E+00 -0.16956812667E+04  0.16956812667E+04  0.50400001928E-02 0. -1.
    10030    2    1    2    0    0  0.00000000000E+00  0.00000000000E+00 -0.35774806327E+03  0.30336144702E+04  0.30124463608E+04 0.  0.
        2    1    3    3  502    0 -0.11076201483E+04  0.35285122451E+01 -0.12067685382E+04  0.16380247703E+04  0.25500000920E-02 0.  1.
       -2    1    3    3    0  502  0.11076201483E+04 -0.35285122451E+01  0.84902047493E+03  0.13955896998E+04  0.25500000920E-02 0. -1.
</event>
<event>
 5   0  0.9538919E-07  0.3582591E+04  0.7818609E-02  0.8094491E-01
       -2   -1    0    0    0  501  0.00000000000E+00  0.00000000000E+00  0.17785037623E+04  0.17785037623E+04  0.25500000920E-02 0. -1.
        2   -1    0    0  501    0  0.00000000000E+00  0.00000000000E+00 -0.18041788594E+04  0.18041788594E+04  0.25500000920E-02 0.  1.
    10030    2    1    2    0    0  0.00000000000E+00  0.00000000000E+00 -0.25675097045E+02  0.35826826217E+04  0.35825906210E+04 0.  0.
        4    1    3    3  502    0 -0.10693906123E+04 -0.14130289950E+04  0.24887521744E+03  0.17894657608E+04  0.12699999809E+01 0. -1.
       -4    1    3    3    0  502  0.10693906123E+04  0.14130289950E+04 -0.27455031448E+03  0.17932168609E+04  0.12699999809E+01 0.  1.
</event>
<event>
 5   0  0.9538919E-07  0.3332415E+04  0.7818609E-02  0.8154696E-01
        2   -1    0    0  501    0  0.00000000000E+00  0.00000000000E+00  0.18372322536E+04  0.18372322536E+04  0.25500000920E-02 0. -1.
       -2   -1    0    0    0  501  0.00000000000E+00  0.00000000000E+00 -0.15111032085E+04  0.15111032085E+04  0.25500000920E-02 0.  1.
    10030    2    1    2    0    0  0.00000000000E+00  0.00000000000E+00  0.32612904503E+03  0.33483354621E+04  0.33324150721E+04 0.  0.
        4    1    3    3  502    0 -0.62504608079E+03 -0.50917703105E+03  0.16282154194E+04  0.18168739408E+04  0.12699999809E+01 0. -1.
       -4    1    3    3    0  502  0.62504608079E+03  0.50917703105E+03 -0.13020863743E+04  0.15314615213E+04  0.12699999809E+01 0.  1.
</event>
<event>
 5   0  0.9878977E-07  0.3269268E+04  0.7818609E-02  0.8170760E-01
        2   -1    0    0  501    0  0.00000000000E+00  0.00000000000E+00  0.24290918231E+04  0.24290918231E+04  0.25500000920E-02 0.  1.
       -2   -1    0    0    0  501  0.00000000000E+00  0.00000000000E+00 -0.11000111020E+04  0.11000111020E+04  0.25500000920E-02 0. -1.
    10030    2    1    2    0    0  0.00000000000E+00  0.00000000000E+00  0.13290807211E+04  0.35291029251E+04  0.32692677915E+04 0.  0.
        5    1    3    3  502    0  0.27263162132E+03  0.11329366896E+04  0.19020066595E+04  0.22305884798E+04  0.46999998093E+01 0.  1.
       -5    1    3    3    0  502 -0.27263162132E+03 -0.11329366896E+04 -0.57292593844E+03  0.12985144452E+04  0.46999998093E+01 0. -1.
</event>
<event>
 5   0  0.3365378E-07  0.3603224E+04  0.7818609E-02  0.8089754E-01
       -1   -1    0    0    0  501  0.00000000000E+00  0.00000000000E+00  0.15052192353E+04  0.15052192353E+04  0.50400001928E-02 0.  1.
        1   -1    0    0  501    0  0.00000000000E+00  0.00000000000E+00 -0.21563679679E+04  0.21563679680E+04  0.50400001928E-02 0. -1.
    10030    2    1    2    0    0  0.00000000000E+00  0.00000000000E+00 -0.65114873262E+03  0.36615872033E+04  0.36032244137E+04 0.  0.
        3    1    3    3  502    0 -0.14255239456E+04  0.94669635136E+03 -0.89813105729E+03  0.19326127153E+04  0.10100000352E+00 0. -1.
       -3    1    3    3    0  502  0.14255239456E+04 -0.94669635136E+03  0.24698232468E+03  0.17289744880E+04  0.10100000352E+00 0.  1.
</event>
<event>
 5   0  0.3159875E-07  0.3689129E+04  0.7818609E-02  0.8070375E-01
       -1   -1    0    0    0  501  0.00000000000E+00  0.00000000000E+00  0.17142448422E+04  0.17142448422E+04  0.50400001928E-02 0. -1.
        1   -1    0    0  501    0  0.00000000000E+00  0.00000000000E+00 -0.19847914995E+04  0.19847914995E+04  0.50400001928E-02 0.  1.
    10030    2    1    2    0    0  0.00000000000E+00  0.00000000000E+00 -0.27054665727E+03  0.36990363417E+04  0.36891292148E+04 0.  0.
        2    1    3    3  502    0  0.37785230995E+03  0.15494800088E+04 -0.10644538780E+04  0.19174782200E+04  0.25500000920E-02 0.  1.
       -2    1    3    3    0  502 -0.37785230995E+03 -0.15494800088E+04  0.79390722077E+03  0.17815581217E+04  0.25500000920E-02 0. -1.
</event>
<event>
 5   0  0.1006019E-06  0.3494100E+04  0.7818609E-02  0.8115189E-01
       -2   -1    0    0    0  501  0.00000000000E+00  0.00000000000E+00  0.16121137183E+04  0.16121137183E+04  0.25500000920E-02 0.  1.
        2   -1    0    0  501    0  0.00000000000E+00  0.00000000000E+00 -0.18932811857E+04  0.18932811857E+04  0.25500000920E-02 0. -1.
    10030    2    1    2    0    0  0.00000000000E+00  0.00000000000E+00 -0.28116746740E+03  0.35053949039E+04  0.34941004977E+04 0.  0.
        1    1    3    3  502    0  0.12581178438E+04 -0.10930456442E+04 -0.66627683595E+03  0.17948632570E+04  0.50400001928E-02 0. -1.
       -1    1    3    3    0  502 -0.12581178438E+04  0.10930456442E+04  0.38510936855E+03  0.17105316469E+04  0.50400001928E-02 0.  1.
</event>
<event>
 5   0  0.3278988E-07  0.2818461E+04  0.7818609E-02  0.8297560E-01
       -1   -1    0    0    0  501  0.00000000000E+00  0.00000000000E+00  0.13304315694E+04  0.13304315694E+04  0.50400001928E-02 0.  1.
        1   -1    0    0  501    0  0.00000000000E+00  0.00000000000E+00 -0.14926963451E+04  0.14926963451E+04  0.50400001928E-02 0. -1.
    10030    2    1    2    0    0  0.00000000000E+00  0.00000000000E+00 -0.16226477575E+03  0.28231279145E+04  0.28184608147E+04 0.  0.
        4    1    3    3  502    0 -0.10521285895E+04  0.38101021779E+03  0.77689881273E+03  0.13622469427E+04  0.12699999809E+01 0.  1.
       -4    1    3    3    0  502  0.10521285895E+04 -0.38101021779E+03 -0.93916358848E+03  0.14608809718E+04  0.12699999809E+01 0. -1.
</event>
<event>
 5   0  0.9538919E-07  0.3524924E+04  0.7818609E-02  0.8107909E-01
        2   -1    0    0  501    0  0.00000000000E+00  0.00000000000E+00  0.18003940263E+04  0.18003940263E+04  0.25500000920E-02 0. -1.
       -2   -1    0    0    0  501  0.00000000000E+00  0.00000000000E+00 -0.17253291859E+04  0.17253291859E+04  0.25500000920E-02 0.  1.
    10030    2    1    2    0    0  0.00000000000E+00  0.00000000000E+00  0.75064840363E+02  0.35257232122E+04  0.35249240330E+04 0.  0.
        4    1    3    3  502    0  0.86172271107E+03  0.98536194803E+02 -0.14970889866E+04  0.17301885617E+04  0.12699999809E+01 0.  1.
       -4    1    3    3    0  502 -0.86172271107E+03 -0.98536194803E+02  0.15721538269E+04  0.17955346504E+04  0.12699999809E+01 0. -1.
</event>
<event>
 5   0  0.1031659E-06  0.3923837E+04  0.7818609E-02  0.8020090E-01
       -2   -1    0    0    0  501  0.00000000000E+00  0.00000000000E+00  0.16039397892E+04  0.16039397892E+04  0.25500000920E-02 0.  1.
        2   -1    0    0  501    0  0.00000000000E+00  0.00000000000E+00 -0.23997936937E+04  0.23997936937E+04  0.25500000920E-02 0. -1.
    10030    2    1    2    0    0  0.00000000000E+00  0.00000000000E+00 -0.79585390450E+03  0.40037334830E+04  0.39238371992E+04 0.  0.
        2    1    3    3  502    0 -0.73885222008E+03  0.19353339293E+03  0.14460129639E+04  0.16353321587E+04  0.25500000920E-02 0.  1.
       -2    1    3    3    0  502  0.73885222008E+03 -0.19353339293E+03 -0.22418668684E+04  0.23684013243E+04  0.25500000920E-02 0. -1.
</event>
<event>
 5   0  0.3278988E-07  0.3646917E+04  0.7818609E-02  0.8079829E-01
        1   -1    0    0  501    0  0.00000000000E+00  0.00000000000E+00  0.22174083091E+04  0.22174083091E+04  0.50400001928E-02 0. -1.
       -1   -1    0    0    0  501  0.00000000000E+00  0.00000000000E+00 -0.14994986388E+04  0.14994986388E+04  0.50400001928E-02 0.  1.
    10030    2    1    2    0    0  0.00000000000E+00  0.00000000000E+00  0.71790967038E+03  0.37169069479E+04  0.36469169122E+04 0.  0.
        4    1    3    3  502    0 -0.44737601804E+03  0.40759799719E+03  0.21120584479E+04  0.21970602926E+04  0.12699999809E+01 0. -1.
       -4    1    3    3    0  502  0.44737601804E+03 -0.40759799719E+03 -0.13941487776E+04  0.15198466553E+04  0.12699999809E+01 0.  1.
</event>
<event>
 5   0  0.9538919E-07  0.3268368E+04  0.7818609E-02  0.8170991E-01
       -2   -1    0    0    0  501  0.00000000000E+00  0.00000000000E+00  0.14470812924E+04  0.14470812924E+04  0.25500000920E-02 0.  1.
        2   -1    0    0  501    0  0.00000000000E+00  0.00000000000E+00 -0.18454779396E+04  0.18454779396E+04  0.25500000920E-02 0. -1.
    10030    2    1    2    0    0  0.00000000000E+00  0.00000000000E+00 -0.39839664717E+03  0.32925592320E+04  0.32683675448E+04 0.  0.
        4    1    3    3  502    0 -0.44348547093E+03  0.12359670176E+04  0.78076137159E+03  0.15277053917E+04  0.12699999809E+01 0.  1.
       -4    1    3    3    0  502  0.44348547093E+03 -0.12359670176E+04 -0.11791580188E+04  0.17648538403E+04  0.12699999809E+01 0. -1.
</event>
<event>
 5   0  0.3365378E-07  0.2701052E+04  0.7818609E-02  0.8334664E-01
       -1   -1    0    0    0  501  0.00000000000E+00  0.00000000000E+00  0.18803755646E+04  0.18803755646E+04  0.50400001928E-02 0.  1.
        1   -1    0    0  501    0  0.00000000000E+00  0.00000000000E+00 -0.96997682703E+03  0.96997682704E+03  0.50400001928E-02 0. -1.
    10030    2    1    2    0    0  0.00000000000E+00  0.00000000000E+00  0.91039873754E+03  0.28503523916E+04  0.27010521830E+04 0.  0.
        3    1    3    3  502    0  0.10778569695E+04 -0.38060393250E+03 -0.30378148944E+03  0.11827587259E+04  0.10100000352E+00 0. -1.
       -3    1    3    3    0  502 -0.10778569695E+04  0.38060393250E+03  0.12141802270E+04  0.16675936657E+04  0.10100000352E+00 0.  1.
</event>
<event>
 5   0  0.9878977E-07  0.3560401E+04  0.7818609E-02  0.8099623E-01
        2   -1    0    0  501    0  0.00000000000E+00  0.00000000000E+00  0.18387572569E+04  0.18387572569E+04  0.25500000920E-02 0.  1.
       -2   -1    0    0    0  501  0.00000000000E+00  0.00000000000E+00 -0.17235084160E+04  0.17235084160E+04  0.25500000920E-02 0. -1.
    10030    2    1    2    0    0  0.00000000000E+00  0.00000000000E+00  0.11524884094E+03  0.35622656728E+04  0.35604008803E+04 0.  0.
        5    1    3    3  502    0 -0.58955771678E+03  0.13177822855E+04 -0.98453673786E+03  0.17474161301E+04  0.46999998093E+01 0. -1.
       -5    1    3    3    0  502  0.58955771678E+03 -0.13177822855E+04  0.10997855788E+04  0.18148495428E+04  0.46999998093E+01 0.  1.
</event>
<event>
 5   0  0.9878977E-07  0.3271414E+04  0.7818609E-02  0.8170207E-01
       -2   -1    0    0    0  501  0.00000000000E+00  0.00000000000E+00  0.10835308093E+04  0.10835308093E+04  0.25500000920E-02 0.  1.
        2   -1    0    0  501    0  0.00000000000E+00  0.00000000000E+00 -0.24692767946E+04  0.24692767946E+04  0.25500000920E-02 0. -1.
    10030    2    1    2    0    0  0.00000000000E+00  0.00000000000E+00 -0.13857459853E+04  0.35528076040E+04  0.32714140574E+04 0.  0.
        5    1    3    3  502    0 -0.42482752104E+02 -0.10790934496E+04 -0.20270681103E+04  0.22967966107E+04  0.46999998093E+01 0. -1.
       -5    1    3    3    0  502  0.42482752104E+02  0.10790934496E+04  0.64132212494E+03  0.12560109933E+04  0.46999998093E+01 0.  1.
</event>
<event>
 5   0  0.1006019E-06  0.3470857E+04  0.7818609E-02  0.8120731E-01
       -2   -1    0    0    0  501  0.00000000000E+00  0.00000000000E+00  0.13234486108E+04  0.13234486108E+04  0.25500000920E-02 0. -1.
        2   -1    0    0  501    0  0.00000000000E+00  0.00000000000E+00 -0.22756552982E+04  0.22756552982E+04  0.25500000920E-02 0.  1.
    10030    2    1    2    0    0  0.00000000000E+00  0.00000000000E+00 -0.95220668748E+03  0.35991039090E+04  0.34708574405E+04 0.  0.
        1    1    3    3  502    0 -0.14480867837E+02  0.92741520727E+02  0.13208144123E+04  0.13241455346E+04  0.50400001928E-02 0. -1.
       -1    1    3    3    0  502  0.14480867837E+02 -0.92741520727E+02 -0.22730210998E+04  0.22749583744E+04  0.50400001928E-02 0.  1.
</event>
<event>
 5   0  0.3278988E-07  0.3644397E+04  0.7818609E-02  0.8080397E-01
       -1   -1    0    0    0  501  0.00000000000E+00  0.00000000000E+00  0.14081645246E+04  0.14081645246E+04  0.50400001928E-02 0. -1.
        1   -1    0    0  501    0  0.00000000000E+00  0.00000000000E+00 -0.23579683512E+04  0.23579683512E+04  0.50400001928E-02 0.  1.
    10030    2    1    2    0    0  0.00000000000E+00  0.00000000000E+00 -0.94980382664E+03  0.37661328759E+04  0.36443970049E+04 0.  0.
        4    1    3    3  502    0  0.17561542225E+04  0.22651269275E+03 -0.91940976057E+03  0.19951695602E+04  0.12699999809E+01 0.  1.
       -4    1    3    3    0  502 -0.17561542225E+04 -0.22651269275E+03 -0.30394066072E+02  0.17709633156E+04  0.12699999809E+01 0. -1.
</event>
<event>
 5   0  0.3365378E-07  0.3639543E+04  0.7818609E-02  0.8081493E-01
        1   -1    0    0  501    0  0.00000000000E+00  0.00000000000E+00  0.25898315882E+04  0.25898315882E+04  0.50400001928E-02 0. -1.
       -1   -1    0    0    0  501  0.00000000000E+00  0.00000000000E+00 -0.12786811956E+04  0.12786811956E+04  0.50400001928E-02 0.  1.
    10030    2    1    2    0    0  0.00000000000E+00  0.00000000000E+00  0.13111503926E+04  0.38685127838E+04  0.36395433513E+04 0.  0.
        3    1    3    3  502    0  0.61934288214E+03 -0.82362198077E+03  0.22498115322E+04  0.24745889989E+04  0.10100000352E+00 0. -1.
       -3    1    3    3    0  502 -0.61934288214E+03  0.82362198077E+03 -0.93866113957E+03  0.13939237849E+04  0.10100000352E+00 0.  1.
</event>
<event>
 5   0  0.3365378E-07  0.3575217E+04  0.7818609E-02  0.8096192E-01
        1   -1    0    0  501    0  0.00000000000E+00  0.00000000000E+00  0.17263748768E+04  0.17263748768E+04  0.50400001928E-02 0.  1.
       -1   -1    0    0    0  501  0.00000000000E+00  0.00000000000E+00 -0.18510142855E+04  0.18510142856E+04  0.50400001928E-02 0. -1.
    10030    2    1    2    0    0  0.00000000000E+00  0.00000000000E+00 -0.12463940872E+03  0.35773891624E+04  0.35752172293E+04 0.  0.
        3    1    3    3  502    0 -0.79345917305E+02 -0.16399579287E+04  0.64506575550E+03  0.17640486449E+04  0.10100000352E+00 0.  1.
       -3    1    3    3    0  502  0.79345917305E+02  0.16399579287E+04 -0.76970516422E+03  0.18133405175E+04  0.10100000352E+00 0. -1.
</event>
<event>
 5   0  0.9538919E-07  0.3567138E+04  0.7818609E-02  0.8098061E-01
       -2   -1    0    0    0  501  0.00000000000E+00  0.00000000000E+00  0.16370539943E+04  0.16370539943E+04  0.25500000920E-02 0. -1.
        2   -1    0    0  501    0  0.00000000000E+00  0.00000000000E+00 -0.19431970328E+04  0.19431970328E+04  0.25500000920E-02 0.  1.
    10030    2    1    2    0    0  0.00000000000E+00  0.00000000000E+00 -0.30614303852E+03  0.35802510271E+04  0.35671380485E+04 0.  0.
        4    1    3    3  502    0  0.15096693511E+03 -0.12556465028E+04  0.11091993403E+04  0.16821902226E+04  0.12699999809E+01 0. -1.
       -4    1    3    3    0  502 -0.15096693511E+03  0.12556465028E+04 -0.14153423788E+04  0.18980608045E+04  0.12699999809E+01 0.  1.
</event>
<event>
 5   0  0.3159875E-07  0.3612499E+04  0.7818609E-02  0.8087635E-01
        1   -1    0    0  501    0  0.00000000000E+00  0.00000000000E+00  0.27709603433E+04  0.27709603433E+04  0.50400001928E-02 0. -1.
       -1   -1    0    0    0  501  0.00000000000E+00  0.00000000000E+00 -0.11774028435E+04  0.11774028436E+04  0.50400001928E-02 0.  1.
    10030    2    1    2    0    0  0.00000000000E+00  0.00000000000E+00  0.15935574998E+04  0.39483631869E+04  0.36124986298E+04 0.  0.
        5    1    3    3  502    0 -0.12718963393E+04  0.72406630910E+03 -0.36018468007E+03  0.15072317047E+04  0.46999998093E+01 0.  1.
       -5    1    3    3    0  502  0.12718963393E+04 -0.72406630910E+03  0.19537421798E+04  0.24411314822E+04  0.46999998093E+01 0. -1.
</event>
<event>
 5   0  0.3278988E-07  0.3585014E+04  0.7818609E-02  0.8093933E-01
       -1   -1    0    0    0  501  0.00000000000E+00  0.00000000000E+00  0.14069433179E+04  0.14069433179E+04  0.50400001928E-02 0. -1.
        1   -1    0    0  501    0  0.00000000000E+00  0.00000000000E+00 -0.22837318376E+04  0.22837318376E+04  0.50400001928E-02 0.  1.
    10030    2    1    2    0    0  0.00000000000E+00  0.00000000000E+00 -0.87678851973E+03  0.36906751555E+04  0.35850139463E+04 0.  0.
        4    1    3    3  502    0  0.86182103761E+03  0.33835175269E+03 -0.20185137001E+04  0.22207243367E+04  0.12699999809E+01 0.  1.
       -4    1    3    3    0  502 -0.86182103761E+03 -0.33835175269E+03  0.11417251803E+04  0.14699508188E+04  0.12699999809E+01 0. -1.
</event>
<event>
 5   0  0.3159875E-07  0.3602410E+04  0.7818609E-02  0.8089940E-01
       -1   -1    0    0    0  501  0.00000000000E+00  0.00000000000E+00  0.17916160037E+04  0.17916160037E+04  0.50400001928E-02 0. -1.
        1   -1    0    0  501    0  0.00000000000E+00  0.00000000000E+00 -0.18108456455E+04  0.18108456455E+04  0.50400001928E-02 0.  1.
    10030    2    1    2    0    0  0.00000000000E+00  0.00000000000E+00 -0.19229641823E+02  0.36024616492E+04  0.36024103258E+04 0.  0.
        2    1    3    3  502    0  0.63322414528E+03 -0.16468939898E+04  0.35247790574E+03  0.17992980036E+04  0.25500000920E-02 0.  1.
       -2    1    3    3    0  502 -0.63322414528E+03  0.16468939898E+04 -0.37170754757E+03  0.18031636456E+04  0.25500000920E-02 0. -1.
</event>
<event>
 5   0  0.9878336E-07  0.3575745E+04  0.7818609E-02  0.8096070E-01
       -2   -1    0    0    0  501  0.00000000000E+00  0.00000000000E+00  0.18224899587E+04  0.18224899587E+04  0.25500000920E-02 0. -1.
        2   -1    0    0  501    0  0.00000000000E+00  0.00000000000E+00 -0.17539130565E+04  0.17539130565E+04  0.25500000920E-02 0.  1.
    10030    2    1    2    0    0  0.00000000000E+00  0.00000000000E+00  0.68576902170E+02  0.35764030152E+04  0.35757454797E+04 0.  0.
        3    1    3    3  502    0 -0.20412945112E+03 -0.60870325682E+03  0.17032176069E+04  0.18202029322E+04  0.10100000352E+00 0. -1.
       -3    1    3    3    0  502  0.20412945112E+03  0.60870325682E+03 -0.16346407047E+04  0.17562000830E+04  0.10100000352E+00 0.  1.
</event>
<event>
 5   0  0.9538919E-07  0.3650626E+04  0.7818609E-02  0.8078993E-01
        2   -1    0    0  501    0  0.00000000000E+00  0.00000000000E+00  0.32916561612E+04  0.32916561612E+04  0.25500000920E-02 0. -1.
       -2   -1    0    0    0  501  0.00000000000E+00  0.00000000000E+00 -0.10121858033E+04  0.10121858033E+04  0.25500000920E-02 0.  1.
    10030    2    1    2    0    0  0.00000000000E+00  0.00000000000E+00  0.22794703579E+04  0.43038419645E+04  0.36506260481E+04 0.  0.
        4    1    3    3  502    0 -0.11314924013E+04 -0.13561189015E+04  0.16831099133E+04  0.24397118934E+04  0.12699999809E+01 0.  1.
       -4    1    3    3    0  502  0.11314924013E+04  0.13561189015E+04  0.59636044457E+03  0.18641300711E+04  0.12699999809E+01 0. -1.
</event>
<event>
 5   0  0.1006019E-06  0.3555058E+04  0.7818609E-02  0.8100864E-01
       -2   -1    0    0    0  501  0.00000000000E+00  0.00000000000E+00  0.16728216326E+04  0.16728216326E+04  0.25500000920E-02 0. -1.
        2   -1    0    0  501    0  0.00000000000E+00  0.00000000000E+00 -0.18887906629E+04  0.18887906629E+04  0.25500000920E-02 0.  1.
    10030    2    1    2    0    0  0.00000000000E+00  0.00000000000E+00 -0.21596903030E+03  0.35616122955E+04  0.35550583007E+04 0.  0.
        1    1    3    3  502    0 -0.13868517485E+04  0.97233047390E+03  0.43229213613E+03  0.17480448546E+04  0.50400001928E-02 0. -1.
       -1    1    3    3    0  502  0.13868517485E+04 -0.97233047390E+03 -0.64826116643E+03  0.18135674409E+04  0.50400001928E-02 0.  1.
</event>
<event>
 5   0  0.9878336E-07  0.3551488E+04  0.7818609E-02  0.8101695E-01
       -2   -1    0    0    0  501  0.00000000000E+00  0.00000000000E+00  0.16070641452E+04  0.16070641452E+04  0.25500000920E-02 0.  1.
        2   -1    0    0  501    0  0.00000000000E+00  0.00000000000E+00 -0.19621286919E+04  0.19621286919E+04  0.25500000920E-02 0. -1.
    10030    2    1    2    0    0  0.00000000000E+00  0.00000000000E+00 -0.35506454670E+03  0.35691928371E+04  0.35514879525E+04 0.  0.
        3    1    3    3  502    0 -0.71572574503E+03 -0.15993366113E+04 -0.46728489800E+03  0.18134211106E+04  0.10100000352E+00 0. -1.
       -3    1    3    3    0  502  0.71572574503E+03  0.15993366113E+04  0.11222035130E+03  0.17557717265E+04  0.10100000352E+00 0.  1.
</event>
<event>
 5   0  0.3159875E-07  0.3514031E+04  0.7818609E-02  0.8110473E-01
       -1   -1    0    0    0  501  0.00000000000E+00  0.00000000000E+00  0.13058891026E+04  0.13058891026E+04  0.50400001928E-02 0.  1.
        1   -1    0    0  501    0  0.00000000000E+00  0.00000000000E+00 -0.23639854937E+04  0.23639854937E+04  0.50400001928E-02 0. -1.
    10030    2    1    2    0    0  0.00000000000E+00  0.00000000000E+00 -0.10580963911E+04  0.36698745963E+04  0.35140306742E+04 0.  0.
        5    1    3    3  502    0  0.96679439055E+03  0.14599153229E+04 -0.37757559483E+03  0.17912647944E+04  0.46999998093E+01 0.  1.
       -5    1    3    3    0  502 -0.96679439055E+03 -0.14599153229E+04 -0.68052079629E+03  0.18786098019E+04  0.46999998093E+01 0. -1.
</event>
<event>
 5   0  0.3278988E-07  0.3339877E+04  0.7818609E-02  0.8152822E-01
        1   -1    0    0  501    0  0.00000000000E+00  0.00000000000E+00  0.19364909882E+04  0.19364909882E+04  0.50400001928E-02 0. -1.
       -1   -1    0    0    0  501  0.00000000000E+00  0.00000000000E+00 -0.14400760605E+04  0.14400760605E+04  0.50400001928E-02 0.  1.
    10030    2    1    2    0    0  0.00000000000E+00  0.00000000000E+00  0.49641492772E+03  0.33765670487E+04  0.33398768322E+04 0.  0.
        4    1    3    3  502    0  0.10420360492E+04  0.13046058738E+04  0.21860980799E+03  0.16839321468E+04  0.12699999809E+01 0.  1.
       -4    1    3    3    0  502 -0.10420360492E+04 -0.13046058738E+04  0.27780511973E+03  0.16926349020E+04  0.12699999809E+01 0. -1.
</event>
<event>
 5   0  0.3159875E-07  0.2881539E+04  0.7818609E-02  0.8278391E-01
       -1   -1    0    0    0  501  0.00000000000E+00  0.00000000000E+00  0.13114875251E+04  0.13114875251E+04  0.50400001928E-02 0. -1.
        1   -1    0    0  501    0  0.00000000000E+00  0.00000000000E+00 -0.15827958639E+04  0.15827958639E+04  0.50400001928E-02 0.  1.
    10030    2    1    2    0    0  0.00000000000E+00  0.00000000000E+00 -0.27130833879E+03  0.28942833889E+04  0.28815391930E+04 0.  0.
        5    1    3    3  502    0  0.10205174156E+04 -0.42515126364E+03  0.79232888923E+03  0.13601531352E+04  0.46999998093E+01 0. -1.
       -5    1    3    3    0  502 -0.10205174156E+04  0.42515126364E+03 -0.10636372280E+04  0.15341302537E+04  0.46999998093E+01 0.  1.
</event>
<event>
 5   0  0.3242047E-07  0.3458196E+04  0.7818609E-02  0.8123769E-01
       -1   -1    0    0    0  501  0.00000000000E+00  0.00000000000E+00  0.15055855064E+04  0.15055855064E+04  0.50400001928E-02 0. -1.
        1   -1    0    0  501    0  0.00000000000E+00  0.00000000000E+00 -0.19857916459E+04  0.19857916459E+04  0.50400001928E-02 0.  1.
    10030    2    1    2    0    0  0.00000000000E+00  0.00000000000E+00 -0.48020613956E+03  0.34913771523E+04  0.34581955531E+04 0.  0.
        1    1    3    3  502    0  0.29947342282E+03  0.78371153708E+02  0.14773818629E+04  0.15094646527E+04  0.50400001928E-02 0. -1.
       -1    1    3    3    0  502 -0.29947342282E+03 -0.78371153708E+02 -0.19575880025E+04  0.19819124996E+04  0.50400001928E-02 0.  1.
</event>
<event>
 5   0  0.9538919E-07  0.3581106E+04  0.7818609E-02  0.8094833E-01
       -2   -1    0    0    0  501  0.00000000000E+00  0.00000000000E+00  0.13630697908E+04  0.13630697908E+04  0.25500000920E-02 0.  1.
        2   -1    0    0  501    0  0.00000000000E+00  0.00000000000E+00 -0.23521023856E+04  0.23521023857E+04  0.25500000920E-02 0. -1.
    10030    2    1    2    0    0  0.00000000000E+00  0.00000000000E+00 -0.98903259486E+03  0.37151721764E+04  0.35811058106E+04 0.  0.
        4    1    3    3  502    0  0.11379194917E+04  0.44130665062E+03 -0.18537037765E+04  0.22194214637E+04  0.12699999809E+01 0. -1.
       -4    1    3    3    0  502 -0.11379194917E+04 -0.44130665062E+03  0.86467118161E+03  0.14957507128E+04  0.12699999809E+01 0.  1.
</event>
<event>
 5   0  0.1006019E-06  0.3562937E+04  0.7818609E-02  0.8099035E-01
        2   -1    0    0  501    0  0.00000000000E+00  0.00000000000E+00  0.12241108685E+04  0.12241108685E+04  0.25500000920E-02 0.  1.
       -2   -1    0    0    0  501  0.00000000000E+00  0.00000000000E+00 -0.25926002127E+04  0.25926002127E+04  0.25500000920E-02 0. -1.
    10030    2    1    2    0    0  0.00000000000E+00  0.00000000000E+00 -0.13684893442E+04  0.38167110813E+04  0.35629370459E+04 0.  0.
        1    1    3    3  502    0  0.98389798080E+03 -0.14591750983E+04 -0.38818504228E+03  0.18022027719E+04  0.50400001928E-02 0.  1.
       -1    1    3    3    0  502 -0.98389798080E+03  0.14591750983E+04 -0.98030430192E+03  0.20145083094E+04  0.50400001928E-02 0. -1.
</event>
<event>
 5   0  0.9538919E-07  0.3382140E+04  0.7818609E-02  0.8142304E-01
        2   -1    0    0  501    0  0.00000000000E+00  0.00000000000E+00  0.15650167207E+04  0.15650167207E+04  0.25500000920E-02 0. -1.
       -2   -1    0    0    0  501  0.00000000000E+00  0.00000000000E+00 -0.18272759411E+04  0.18272759411E+04  0.25500000920E-02 0.  1.
    10030    2    1    2    0    0  0.00000000000E+00  0.00000000000E+00 -0.26225922044E+03  0.33922926618E+04  0.33821397967E+04 0.  0.
        4    1    3    3  502    0  0.15201453408E+04  0.20534483623E+03 -0.84510031793E+03  0.17513436325E+04  0.12699999809E+01 0.  1.
       -4    1    3    3    0  502 -0.15201453408E+04 -0.20534483623E+03  0.58284109749E+03  0.16409490293E+04  0.12699999809E+01 0. -1.
</event>
<event>
 5   0  0.3365378E-07  0.2956317E+04  0.7818609E-02  0.8256316E-01
       -1   -1    0    0    0  501  0.00000000000E+00  0.00000000000E+00  0.12870929577E+04  0.12870929577E+04  0.50400001928E-02 0. -1.
        1   -1    0    0  501    0  0.00000000000E+00  0.00000000000E+00 -0.16975867824E+04  0.16975867824E+04  0.50400001928E-02 0.  1.
    10030    2    1    2    0    0  0.00000000000E+00  0.00000000000E+00 -0.41049382465E+03  0.29846797401E+04  0.29563166222E+04 0.  0.
        3    1    3    3  502    0  0.12151004390E+04  0.83360430480E+03 -0.32292751496E+03  0.15085249099E+04  0.10100000352E+00 0. -1.
       -3    1    3    3    0  502 -0.12151004390E+04 -0.83360430480E+03 -0.87566309693E+02  0.14761548302E+04  0.10100000352E+00 0.  1.
</event>
<event>
 5   0  0.9878336E-07  0.3585927E+04  0.7818609E-02  0.8093723E-01
        2   -1    0    0  501    0  0.00000000000E+00  0.00000000000E+00  0.23521450522E+04  0.23521450522E+04  0.25500000920E-02 0. -1.
       -2   -1    0    0    0  501  0.00000000000E+00  0.00000000000E+00 -0.13667178251E+04  0.13667178251E+04  0.25500000920E-02 0.  1.
    10030    2    1    2    0    0  0.00000000000E+00  0.00000000000E+00  0.98542722705E+03  0.37188628773E+04  0.35859272553E+04 0.  0.
        3    1    3    3  502    0 -0.17468643415E+04 -0.71431979734E+02  0.80380195878E+02  0.17501710034E+04  0.10100000352E+00 0.  1.
       -3    1    3    3    0  502  0.17468643415E+04  0.71431979734E+02  0.90504703117E+03  0.19686918738E+04  0.10100000352E+00 0. -1.
</event>
<event>
 5   0  0.9878977E-07  0.3481386E+04  0.7818609E-02  0.8118215E-01
       -2   -1    0    0    0  501  0.00000000000E+00  0.00000000000E+00  0.14661421383E+04  0.14661421383E+04  0.25500000920E-02 0.  1.
        2   -1    0    0  501    0  0.00000000000E+00  0.00000000000E+00 -0.20666566629E+04  0.20666566629E+04  0.25500000920E-02 0. -1.
    10030    2    1    2    0    0  0.00000000000E+00  0.00000000000E+00 -0.60051452459E+03  0.35327988011E+04  0.34813861715E+04 0.  0.
        5    1    3    3  502    0  0.15217002969E+04  0.50589534018E+02  0.55592014982E+03  0.16208640897E+04  0.46999998093E+01 0.  1.
       -5    1    3    3    0  502 -0.15217002969E+04 -0.50589534018E+02 -0.11564346744E+04  0.19119347114E+04  0.46999998093E+01 0. -1.
</event>
<event>
 5   0  0.1006019E-06  0.3592617E+04  0.7818609E-02  0.8092185E-01
       -2   -1    0    0    0  501  0.00000000000E+00  0.00000000000E+00  0.14069466164E+04  0.14069466164E+04  0.25500000920E-02 0.  1.
        2   -1    0    0  501    0  0.00000000000E+00  0.00000000000E+00 -0.22934235397E+04  0.22934235397E+04  0.25500000920E-02 0. -1.
    10030    2    1    2    0    0  0.00000000000E+00  0.00000000000E+00 -0.88647692321E+03  0.37003701561E+04  0.35926171459E+04 0.  0.
        1    1    3    3  502    0 -0.10857387951E+04 -0.14048087997E+04 -0.16227876156E+03  0.17828771386E+04  0.50400001928E-02 0.  1.
       -1    1    3    3    0  502  0.10857387951E+04  0.14048087997E+04 -0.72419816165E+03  0.19174930175E+04  0.50400001928E-02 0. -1.
</event>
<event>
 5   0  0.3365378E-07  0.3817758E+04  0.7818609E-02  0.8042355E-01
       -1   -1    0    0    0  501  0.00000000000E+00  0.00000000000E+00  0.20725434266E+04  0.20725434266E+04  0.50400001928E-02 0.  1.
        1   -1    0    0  501    0  0.00000000000E+00  0.00000000000E+00 -0.17581388261E+04  0.17581388261E+04  0.50400001928E-02 0. -1.
    10030    2    1    2    0    0  0.00000000000E+00  0.00000000000E+00  0.31440460055E+03  0.38306822527E+04  0.38177580160E+04 0.  0.
        3    1    3    3  502    0  0.22457944949E+02  0.37033910936E+03  0.20360164526E+04  0.20695454623E+04  0.10100000352E+00 0.  1.
       -3    1    3    3    0  502 -0.22457944949E+02 -0.37033910936E+03 -0.17216118520E+04  0.17611367904E+04  0.10100000352E+00 0. -1.
</event>
<event>
 5   0  0.3278988E-07  0.3617046E+04  0.7818609E-02  0.8086598E-01
        1   -1    0    0  501    0  0.00000000000E+00  0.00000000000E+00  0.18276538317E+04  0.18276538317E+04  0.50400001928E-02 0. -1.
       -1   -1    0    0    0  501  0.00000000000E+00  0.00000000000E+00 -0.17895927439E+04  0.17895927439E+04  0.50400001928E-02 0.  1.
    10030    2    1    2    0    0  0.00000000000E+00  0.00000000000E+00  0.38061087813E+02  0.36172465756E+04  0.36170463285E+04 0.  0.
        4    1    3    3  502    0  0.12566349704E+03 -0.32903462041E+03 -0.17549614944E+04  0.17899571379E+04  0.12699999809E+01 0.  1.
       -4    1    3    3    0  502 -0.12566349704E+03  0.32903462041E+03  0.17930225822E+04  0.18272894377E+04  0.12699999809E+01 0. -1.
</event>
<event>
 5   0  0.3365378E-07  0.3579666E+04  0.7818609E-02  0.8095165E-01
        1   -1    0    0  501    0  0.00000000000E+00  0.00000000000E+00  0.19466699953E+04  0.19466699953E+04  0.50400001928E-02 0. -1.
       -1   -1    0    0    0  501  0.00000000000E+00  0.00000000000E+00 -0.16456316437E+04  0.16456316437E+04  0.50400001928E-02 0.  1.
    10030    2    1    2    0    0  0.00000000000E+00  0.00000000000E+00  0.30103835154E+03  0.35923016390E+04  0.35796657633E+04 0.  0.
        3    1    3    3  502    0 -0.70771557370E+02 -0.12577454273E+04 -0.11254127870E+04  0.16892264871E+04  0.10100000352E+00 0.  1.
       -3    1    3    3    0  502  0.70771557370E+02  0.12577454273E+04  0.14264511386E+04  0.19030751520E+04  0.10100000352E+00 0. -1.
</event>
<event>
 5   0  0.9538919E-07  0.3435450E+04  0.7818609E-02  0.8129260E-01
       -2   -1    0    0    0  501  0.00000000000E+00  0.00000000000E+00  0.14997527582E+04  0.14997527582E+04  0.25500000920E-02 0.  1.
        2   -1    0    0  501    0  0.00000000000E+00  0.00000000000E+00 -0.19673767452E+04  0.19673767452E+04  0.25500000920E-02 0. -1.
    10030    2    1    2    0    0  0.00000000000E+00  0.00000000000E+00 -0.46762398702E+03  0.34671295033E+04  0.34354497231E+04 0.  0.
        4    1    3    3  502    0 -0.88388032573E+03 -0.93085432554E+03  0.91813498158E+03  0.15781975994E+04  0.12699999809E+01 0.  1.
       -4    1    3    3    0  502  0.88388032573E+03  0.93085432554E+03 -0.13857589686E+04  0.18889319039E+04  0.12699999809E+01 0. -1.
</event>
<event>
 5   0  0.9878977E-07  0.3362617E+04  0.7818609E-02  0.8147143E-01
        2   -1    0    0  501    0  0.00000000000E+00  0.00000000000E+00  0.18640680633E+04  0.18640680633E+04  0.25500000920E-02 0.  1.
       -2   -1    0    0    0  501  0.00000000000E+00  0.00000000000E+00 -0.15164669416E+04  0.15164669416E+04  0.25500000920E-02 0. -1.
    10030    2    1    2    0    0  0.00000000000E+00  0.00000000000E+00  0.34760112173E+03  0.33805350049E+04  0.33626165972E+04 0.  0.
        5    1    3    3  502    0  0.14131585308E+04  0.28002252043E+03 -0.69762046385E+03  0.16006642517E+04  0.46999998093E+01 0.  1.
       -5    1    3    3    0  502 -0.14131585308E+04 -0.28002252043E+03  0.10452215856E+04  0.17798707532E+04  0.46999998093E+01 0. -1.
</event>
<event>
 5   0  0.1031659E-06  0.3625100E+04  0.7818609E-02  0.8084766E-01
       -2   -1    0    0    0  501  0.00000000000E+00  0.00000000000E+00  0.16531296207E+04  0.16531296207E+04  0.25500000920E-02 0.  1.
        2   -1    0    0  501    0  0.00000000000E+00  0.00000000000E+00 -0.19873438891E+04  0.19873438891E+04  0.25500000920E-02 0. -1.
    10030    2    1    2    0    0  0.00000000000E+00  0.00000000000E+00 -0.33421426841E+03  0.36404735098E+04  0.36250997502E+04 0.  0.
        2    1    3    3  502    0 -0.55126995843E+02 -0.18112746703E+04 -0.12716241368E+03  0.18165696233E+04  0.25500000920E-02 0. -1.
       -2    1    3    3    0  502  0.55126995843E+02  0.18112746703E+04 -0.20705185473E+03  0.18239038865E+04  0.25500000920E-02 0.  1.
</event>
<event>
 5   0  0.9878336E-07  0.3647939E+04  0.7818609E-02  0.8079598E-01
       -2   -1    0    0    0  501  0.00000000000E+00  0.00000000000E+00  0.14451791787E+04  0.14451791787E+04  0.25500000920E-02 0.  1.
        2   -1    0    0  501    0  0.00000000000E+00  0.00000000000E+00 -0.23020432352E+04  0.23020432352E+04  0.25500000920E-02 0. -1.
    10030    2    1    2    0    0  0.00000000000E+00  0.00000000000E+00 -0.85686405652E+03  0.37472224139E+04  0.36479391179E+04 0.  0.
        3    1    3    3  502    0 -0.10037931714E+03  0.93735171206E+03  0.11755261975E+04  0.15068397694E+04  0.10100000352E+00 0.  1.
       -3    1    3    3    0  502  0.10037931714E+03 -0.93735171206E+03 -0.20323902540E+04  0.22403826446E+04  0.10100000352E+00 0. -1.
</event>
<event>
 5   0  0.1031659E-06  0.3676542E+04  0.7818609E-02  0.8073180E-01
       -2   -1    0    0    0  501  0.00000000000E+00  0.00000000000E+00  0.15888724721E+04  0.15888724721E+04  0.25500000920E-02 0.  1.
        2   -1    0    0  501    0  0.00000000000E+00  0.00000000000E+00 -0.21268164628E+04  0.21268164628E+04  0.25500000920E-02 0. -1.
    10030    2    1    2    0    0  0.00000000000E+00  0.00000000000E+00 -0.53794399075E+03  0.37156889349E+04  0.36765419247E+04 0.  0.
        2    1    3    3  502    0  0.40347047714E+02  0.17160050836E+04  0.39601489055E+03  0.17615700738E+04  0.25500000920E-02 0.  1.
       -2    1    3    3    0  502 -0.40347047714E+02 -0.17160050836E+04 -0.93395888130E+03  0.19541188611E+04  0.25500000920E-02 0. -1.
</event>
<event>
 5   0  0.9878336E-07  0.3608805E+04  0.7818609E-02  0.8088478E-01
       -2   -1    0    0    0  501  0.00000000000E+00  0.00000000000E+00  0.14332167657E+04  0.14332167657E+04  0.25500000920E-02 0.  1.
        2   -1    0    0  501    0  0.00000000000E+00  0.00000000000E+00 -0.22717212284E+04  0.22717212284E+04  0.25500000920E-02 0. -1.
    10030    2    1    2    0    0  0.00000000000E+00  0.00000000000E+00 -0.83850446267E+03  0.37049379941E+04  0.36088053157E+04 0.  0.
        3    1    3    3  502    0 -0.17862311572E+04  0.11482114097E+03 -0.18500021596E+03  0.17994528978E+04  0.10100000352E+00 0.  1.
       -3    1    3    3    0  502  0.17862311572E+04 -0.11482114097E+03 -0.65350424670E+03  0.19054850963E+04  0.10100000352E+00 0. -1.
</event>
<event>
 5   0  0.9878336E-07  0.3610854E+04  0.7818609E-02  0.8088010E-01
        2   -1    0    0  501    0  0.00000000000E+00  0.00000000000E+00  0.29216872144E+04  0.29216872144E+04  0.25500000920E-02 0.  1.
       -2   -1    0    0    0  501  0.00000000000E+00  0.00000000000E+00 -0.11156453743E+04  0.11156453743E+04  0.25500000920E-02 0. -1.
    10030    2    1    2    0    0  0.00000000000E+00  0.00000000000E+00  0.18060418402E+04  0.40373325887E+04  0.36108540961E+04 0.  0.
        3    1    3    3  502    0 -0.15383276598E+03 -0.12143325840E+04 -0.58086697078E+03  0.13548706921E+04  0.10100000352E+00 0. -1.
       -3    1    3    3    0  502  0.15383276598E+03  0.12143325840E+04  0.23869088109E+04  0.26824618965E+04  0.10100000352E+00 0.  1.
</event>
<event>
 5   0  0.9538919E-07  0.3621276E+04  0.7818609E-02  0.8085635E-01
        2   -1    0    0  501    0  0.00000000000E+00  0.00000000000E+00  0.22736055587E+04  0.22736055587E+04  0.25500000920E-02 0. -1.
       -2   -1    0    0    0  501  0.00000000000E+00  0.00000000000E+00 -0.14419433226E+04  0.14419433226E+04  0.25500000920E-02 0.  1.
    10030    2    1    2    0    0  0.00000000000E+00  0.00000000000E+00  0.83166223608E+03  0.37155488813E+04  0.36212762135E+04 0.  0.
        4    1    3    3  502    0  0.17423614683E+04 -0.22930645715E+03  0.86307300841E+03  0.19578819086E+04  0.12699999809E+01 0. -1.
       -4    1    3    3    0  502 -0.17423614683E+04  0.22930645715E+03 -0.31410772332E+02  0.17576669727E+04  0.12699999809E+01 0.  1.
</event>
<event>
 5   0  0.3159875E-07  0.3542890E+04  0.7818609E-02  0.8103700E-01
        1   -1    0    0  501    0  0.00000000000E+00  0.00000000000E+00  0.11676410025E+04  0.11676410025E+04  0.50400001928E-02 0.  1.
       -1   -1    0    0    0  501  0.00000000000E+00  0.00000000000E+00 -0.26874845194E+04  0.26874845194E+04  0.50400001928E-02 0. -1.
    10030    2    1    2    0    0  0.00000000000E+00  0.00000000000E+00 -0.15198435169E+04  0.38551255219E+04  0.35428898478E+04 0.  0.
        5    1    3    3  502    0  0.11806182627E+04 -0.33268359689E+03 -0.21506259036E+04  0.24758335415E+04  0.46999998093E+01 0. -1.
       -5    1    3    3    0  502 -0.11806182627E+04  0.33268359689E+03  0.63078238668E+03  0.13792919804E+04  0.46999998093E+01 0.  1.
</event>
<event>
 5   0  0.3159875E-07  0.3523876E+04  0.7818609E-02  0.8108155E-01
        1   -1    0    0  501    0  0.00000000000E+00  0.00000000000E+00  0.27540046999E+04  0.27540046999E+04  0.50400001928E-02 0. -1.
       -1   -1    0    0    0  501  0.00000000000E+00  0.00000000000E+00 -0.11272403233E+04  0.11272403233E+04  0.50400001928E-02 0.  1.
    10030    2    1    2    0    0  0.00000000000E+00  0.00000000000E+00  0.16267643766E+04  0.38812450232E+04  0.35238757914E+04 0.  0.
        2    1    3    3  502    0 -0.70244668360E+03  0.11895146256E+04 -0.39116803146E+03  0.14357537451E+04  0.25500000920E-02 0.  1.
       -2    1    3    3    0  502  0.70244668360E+03 -0.11895146256E+04  0.20179324080E+04  0.24454912781E+04  0.25500000920E-02 0. -1.
</event>
<event>
 5   0  0.3159875E-07  0.3390577E+04  0.7818609E-02  0.8140223E-01
        1   -1    0    0  501    0  0.00000000000E+00  0.00000000000E+00  0.16404089084E+04  0.16404089084E+04  0.50400001928E-02 0.  1.
       -1   -1    0    0    0  501  0.00000000000E+00  0.00000000000E+00 -0.17520035869E+04  0.17520035869E+04  0.50400001928E-02 0. -1.
    10030    2    1    2    0    0  0.00000000000E+00  0.00000000000E+00 -0.11159467848E+03  0.33924124952E+04  0.33905765241E+04 0.  0.
        2    1    3    3  502    0  0.73324534576E+03 -0.14367738278E+04 -0.57764905290E+03  0.17133727550E+04  0.25500000920E-02 0. -1.
       -2    1    3    3    0  502 -0.73324534576E+03  0.14367738278E+04  0.46605437442E+03  0.16790397402E+04  0.25500000920E-02 0.  1.
</event>
<event>
 5   0  0.3365378E-07  0.3618685E+04  0.7818609E-02  0.8086225E-01
       -1   -1    0    0    0  501  0.00000000000E+00  0.00000000000E+00  0.13338890093E+04  0.13338890093E+04  0.50400001928E-02 0. -1.
        1   -1    0    0  501    0  0.00000000000E+00  0.00000000000E+00 -0.24542673450E+04  0.24542673450E+04  0.50400001928E-02 0.  1.
    10030    2    1    2    0    0  0.00000000000E+00  0.00000000000E+00 -0.11203783357E+04  0.37881563542E+04  0.36186849751E+04 0.  0.
        3    1    3    3  502    0 -0.18011126401E+04 -0.12748585661E+03 -0.43873477826E+03  0.18581570445E+04  0.10100000352E+00 0. -1.
       -3    1    3    3    0  502  0.18011126401E+04  0.12748585661E+03 -0.68164355745E+03  0.19299993098E+04  0.10100000352E+00 0.  1.
</event>
<event>
 5   0  0.1006019E-06  0.3586376E+04  0.7818609E-02  0.8093619E-01
       -2   -1    0    0    0  501  0.00000000000E+00  0.00000000000E+00  0.16448675564E+04  0.16448675564E+04  0.25500000920E-02 0.  1.
        2   -1    0    0  501    0  0.00000000000E+00  0.00000000000E+00 -0.19548832668E+04  0.19548832668E+04  0.25500000920E-02 0. -1.
    10030    2    1    2    0    0  0.00000000000E+00  0.00000000000E+00 -0.31001571037E+03  0.35997508232E+04  0.35863764789E+04 0.  0.
        1    1    3    3  502    0  0.12721962036E+04 -0.10978830672E+04  0.47318042391E+03  0.17457749349E+04  0.50400001928E-02 0.  1.
       -1    1    3    3    0  502 -0.12721962036E+04  0.10978830672E+04 -0.78319613429E+03  0.18539758883E+04  0.50400001928E-02 0. -1.
</event>
<event>
 5   0  0.3365378E-07  0.3589331E+04  0.7818609E-02  0.8092940E-01
       -1   -1    0    0    0  501  0.00000000000E+00  0.00000000000E+00  0.19951365762E+04  0.19951365762E+04  0.50400001928E-02 0. -1.
        1   -1    0    0  501    0  0.00000000000E+00  0.00000000000E+00 -0.16143378474E+04  0.16143378474E+04  0.50400001928E-02 0.  1.
    10030    2    1    2    0    0  0.00000000000E+00  0.00000000000E+00  0.38079872875E+03  0.36094744236E+04  0.35893311275E+04 0.  0.
        3    1    3    3  502    0 -0.16493307206E+04 -0.15336435023E+03 -0.50413718888E+03  0.17314637638E+04  0.10100000352E+00 0.  1.
       -3    1    3    3    0  502  0.16493307206E+04  0.15336435023E+03  0.88493591763E+03  0.18780106598E+04  0.10100000352E+00 0. -1.
</event>
<event>
 5   0  0.9878336E-07  0.3554948E+04  0.7818609E-02  0.8100890E-01
       -2   -1    0    0    0  501  0.00000000000E+00  0.00000000000E+00  0.17927262303E+04  0.17927262303E+04  0.25500000920E-02 0.  1.
        2   -1    0    0  501    0  0.00000000000E+00  0.00000000000E+00 -0.17623512473E+04  0.17623512473E+04  0.25500000920E-02 0. -1.
    10030    2    1    2    0    0  0.00000000000E+00  0.00000000000E+00  0.30374982995E+02  0.35550774775E+04  0.35549477115E+04 0.  0.
        3    1    3    3  502    0  0.13471251787E+04 -0.30303172741E+02  0.11744315865E+04  0.17874434511E+04  0.10100000352E+00 0.  1.
       -3    1    3    3    0  502 -0.13471251787E+04  0.30303172741E+02 -0.11440566035E+04  0.17676340264E+04  0.10100000352E+00 0. -1.
</event>
<event>
 5   0  0.3242047E-07  0.3597368E+04  0.7818609E-02  0.8091095E-01
       -1   -1    0    0    0  501  0.00000000000E+00  0.00000000000E+00  0.14006399389E+04  0.14006399389E+04  0.50400001928E-02 0.  1.
        1   -1    0    0  501    0  0.00000000000E+00  0.00000000000E+00 -0.23098464999E+04  0.23098464999E+04  0.50400001928E-02 0. -1.
    10030    2    1    2    0    0  0.00000000000E+00  0.00000000000E+00 -0.90920656098E+03  0.37104864388E+04  0.35973675156E+04 0.  0.
        1    1    3    3  502    0  0.98361674488E+03  0.13838528032E+04  0.15796800790E+03  0.17051405729E+04  0.50400001928E-02 0.  1.
       -1    1    3    3    0  502 -0.98361674488E+03 -0.13838528032E+04 -0.10671745689E+04  0.20053458660E+04  0.50400001928E-02 0. -1.
</event>
<event>
 5   0  0.9538919E-07  0.3561712E+04  0.7818609E-02  0.8099319E-01
       -2   -1    0    0    0  501  0.00000000000E+00  0.00000000000E+00  0.13037081344E+04  0.13037081344E+04  0.25500000920E-02 0.  1.
        2   -1    0    0  501    0  0.00000000000E+00  0.00000000000E+00 -0.24326362779E+04  0.24326362779E+04  0.25500000920E-02 0. -1.
    10030    2    1    2    0    0  0.00000000000E+00  0.00000000000E+00 -0.11289281435E+04  0.37363444123E+04  0.35617117815E+04 0.  0.
        4    1    3    3  502    0  0.81531960985E+03 -0.67453654428E+03  0.93814189429E+03  0.14141631598E+04  0.12699999809E+01 0.  1.
       -4    1    3    3    0  502 -0.81531960985E+03  0.67453654428E+03 -0.20670700378E+04  0.23221812526E+04  0.12699999809E+01 0. -1.
</event>
<event>
 5   0  0.9538919E-07  0.3653958E+04  0.7818609E-02  0.8078243E-01
        2   -1    0    0  501    0  0.00000000000E+00  0.00000000000E+00  0.16480173530E+04  0.16480173530E+04  0.25500000920E-02 0. -1.
       -2   -1    0    0    0  501  0.00000000000E+00  0.00000000000E+00 -0.20253745844E+04  0.20253745844E+04  0.25500000920E-02 0.  1.
    10030    2    1    2    0    0  0.00000000000E+00  0.00000000000E+00 -0.37735723134E+03  0.36733919374E+04  0.36539581068E+04 0.  0.
        4    1    3    3  502    0  0.79069303520E+03 -0.20017120295E+03 -0.18321782782E+04  0.20055280707E+04  0.12699999809E+01 0.  1.
       -4    1    3    3    0  502 -0.79069303520E+03  0.20017120295E+03  0.14548210469E+04  0.16678638667E+04  0.12699999809E+01 0. -1.
</event>
<event>
 5   0  0.3159875E-07  0.3603141E+04  0.7818609E-02  0.8089773E-01
        1   -1    0    0  501    0  0.00000000000E+00  0.00000000000E+00  0.16548087136E+04  0.16548087137E+04  0.50400001928E-02 0. -1.
       -1   -1    0    0    0  501  0.00000000000E+00  0.00000000000E+00 -0.19613484138E+04  0.19613484138E+04  0.50400001928E-02 0.  1.
    10030    2    1    2    0    0  0.00000000000E+00  0.00000000000E+00 -0.30653970018E+03  0.36161571275E+04  0.36031410995E+04 0.  0.
        5    1    3    3  502    0  0.34975594962E+03 -0.17484385065E+04 -0.41162534015E+03  0.18299792201E+04  0.46999998093E+01 0. -1.
       -5    1    3    3    0  502 -0.34975594962E+03  0.17484385065E+04  0.10508563996E+03  0.17861779074E+04  0.46999998093E+01 0.  1.
</event>
<event>
 5   0  0.3365378E-07  0.3570650E+04  0.7818609E-02  0.8097248E-01
        1   -1    0    0  501    0  0.00000000000E+00  0.00000000000E+00  0.11676013200E+04  0.11676013200E+04  0.50400001928E-02 0. -1.
       -1   -1    0    0    0  501  0.00000000000E+00  0.00000000000E+00 -0.27298569464E+04  0.27298569464E+04  0.50400001928E-02 0.  1.
    10030    2    1    2    0    0  0.00000000000E+00  0.00000000000E+00 -0.15622556264E+04  0.38974582664E+04  0.35706495622E+04 0.  0.
        3    1    3    3  502    0  0.41400010123E+02  0.15465732824E+04 -0.17536170015E+04  0.23385413139E+04  0.10100000352E+00 0.  1.
       -3    1    3    3    0  502 -0.41400010123E+02 -0.15465732824E+04  0.19136137515E+03  0.15589169525E+04  0.10100000352E+00 0. -1.
</event>
<event>
 5   0  0.3159875E-07  0.3593339E+04  0.7818609E-02  0.8092019E-01
        1   -1    0    0  501    0  0.00000000000E+00  0.00000000000E+00  0.12323328041E+04  0.12323328042E+04  0.50400001928E-02 0.  1.
       -1   -1    0    0    0  501  0.00000000000E+00  0.00000000000E+00 -0.26194394098E+04  0.26194394098E+04  0.50400001928E-02 0. -1.
    10030    2    1    2    0    0  0.00000000000E+00  0.00000000000E+00 -0.13871066056E+04  0.38517722139E+04  0.35933389003E+04 0.  0.
        2    1    3    3  502    0  0.21405095369E+03 -0.43229862504E+03  0.11616184250E+04  0.12577985838E+04  0.25500000920E-02 0.  1.
       -2    1    3    3    0  502 -0.21405095369E+03  0.43229862504E+03 -0.25487250306E+04  0.25939736301E+04  0.25500000920E-02 0. -1.
</event>
<event>
 5   0  0.9538919E-07  0.3601027E+04  0.7818609E-02  0.8090256E-01
        2   -1    0    0  501    0  0.00000000000E+00  0.00000000000E+00  0.23941296017E+04  0.23941296017E+04  0.25500000920E-02 0.  1.
       -2   -1    0    0    0  501  0.00000000000E+00  0.00000000000E+00 -0.13540824754E+04  0.13540824754E+04  0.25500000920E-02 0. -1.
    10030    2    1    2    0    0  0.00000000000E+00  0.00000000000E+00  0.10400471263E+04  0.37482120772E+04  0.36010270411E+04 0.  0.
        4    1    3    3  502    0  0.11492020428E+04  0.70408073401E+02  0.19608809229E+04  0.22739125398E+04  0.12699999809E+01 0.  1.
       -4    1    3    3    0  502 -0.11492020428E+04 -0.70408073401E+02 -0.92083379662E+03  0.14742995374E+04  0.12699999809E+01 0. -1.
</event>
<event>
 5   0  0.3365378E-07  0.3637447E+04  0.7818609E-02  0.8081967E-01
       -1   -1    0    0    0  501  0.00000000000E+00  0.00000000000E+00  0.14348795583E+04  0.14348795583E+04  0.50400001928E-02 0. -1.
        1   -1    0    0  501    0  0.00000000000E+00  0.00000000000E+00 -0.23052499257E+04  0.23052499257E+04  0.50400001928E-02 0.  1.
    10030    2    1    2    0    0  0.00000000000E+00  0.00000000000E+00 -0.87037036746E+03  0.37401294840E+04  0.36374474540E+04 0.  0.
        3    1    3    3  502    0  0.76966489333E+02 -0.17579676786E+04 -0.90792664207E+03  0.19800770179E+04  0.10100000352E+00 0.  1.
       -3    1    3    3    0  502 -0.76966489333E+02  0.17579676786E+04  0.37556274616E+02  0.17600524661E+04  0.10100000352E+00 0. -1.
</event>
<event>
 5   0  0.1031659E-06  0.3611019E+04  0.7818609E-02  0.8087972E-01
       -2   -1    0    0    0  501  0.00000000000E+00  0.00000000000E+00  0.17257836454E+04  0.17257836454E+04  0.25500000920E-02 0.  1.
        2   -1    0    0  501    0  0.00000000000E+00  0.00000000000E+00 -0.18889186345E+04  0.18889186345E+04  0.25500000920E-02 0. -1.
    10030    2    1    2    0    0  0.00000000000E+00  0.00000000000E+00 -0.16313498915E+03  0.36147022799E+04  0.36110191840E+04 0.  0.
        2    1    3    3  502    0 -0.61741598910E+03  0.10580131692E+04 -0.14092952977E+04  0.18672727722E+04  0.25500000920E-02 0. -1.
       -2    1    3    3    0  502  0.61741598910E+03 -0.10580131692E+04  0.12461603085E+04  0.17474295077E+04  0.25500000920E-02 0.  1.
</event>
<event>
 5   0  0.9538919E-07  0.3556568E+04  0.7818609E-02  0.8100513E-01
        2   -1    0    0  501    0  0.00000000000E+00  0.00000000000E+00  0.91953732050E+03  0.91953732051E+03  0.25500000920E-02 0. -1.
       -2   -1    0    0    0  501  0.00000000000E+00  0.00000000000E+00 -0.34390062475E+04  0.34390062475E+04  0.25500000920E-02 0.  1.
    10030    2    1    2    0    0  0.00000000000E+00  0.00000000000E+00 -0.25194689270E+04  0.43585435681E+04  0.35565683405E+04 0.  0.
        4    1    3    3  502    0 -0.13894376957E+04  0.10807754735E+04 -0.15689865149E+04  0.23580358418E+04  0.12699999809E+01 0. -1.
       -4    1    3    3    0  502  0.13894376957E+04 -0.10807754735E+04 -0.95048241214E+03  0.20005077263E+04  0.12699999809E+01 0.  1.
</event>
<event>
 5   0  0.3159875E-07  0.3499768E+04  0.7818609E-02  0.8113845E-01
       -1   -1    0    0    0  501  0.00000000000E+00  0.00000000000E+00  0.18166686735E+04  0.18166686735E+04  0.50400001928E-02 0. -1.
        1   -1    0    0  501    0  0.00000000000E+00  0.00000000000E+00 -0.16855542769E+04  0.16855542770E+04  0.50400001928E-02 0.  1.
    10030    2    1    2    0    0  0.00000000000E+00  0.00000000000E+00  0.13111439659E+03  0.35022229505E+04  0.34997677937E+04 0.  0.
        5    1    3    3  502    0  0.58722123143E+03  0.13722998902E+04 -0.84833907322E+03  0.17168975032E+04  0.46999998093E+01 0.  1.
       -5    1    3    3    0  502 -0.58722123143E+03 -0.13722998902E+04  0.97945346981E+03  0.17853254473E+04  0.46999998093E+01 0. -1.
</event>
<event>
 5   0  0.3159875E-07  0.3608199E+04  0.7818609E-02  0.8088616E-01
        1   -1    0    0  501    0  0.00000000000E+00  0.00000000000E+00  0.18406858387E+04  0.18406858387E+04  0.50400001928E-02 0.  1.
       -1   -1    0    0    0  501  0.00000000000E+00  0.00000000000E+00 -0.17682402519E+04  0.17682402519E+04  0.50400001928E-02 0. -1.
    10030    2    1    2    0    0  0.00000000000E+00  0.00000000000E+00  0.72445586798E+02  0.36089260906E+04  0.36081988810E+04 0.  0.
        2    1    3    3  502    0 -0.42584163461E+03 -0.95683336890E+03 -0.14330537323E+04  0.17749687865E+04  0.25500000920E-02 0. -1.
       -2    1    3    3    0  502  0.42584163461E+03  0.95683336890E+03  0.15054993191E+04  0.18339573041E+04  0.25500000920E-02 0.  1.
</event>
<event>
 5   0  0.1031659E-06  0.3417698E+04  0.7818609E-02  0.8133576E-01
        2   -1    0    0  501    0  0.00000000000E+00  0.00000000000E+00  0.23684697592E+04  0.23684697592E+04  0.25500000920E-02 0. -1.
       -2   -1    0    0    0  501  0.00000000000E+00  0.00000000000E+00 -0.12329331590E+04  0.12329331590E+04  0.25500000920E-02 0.  1.
    10030    2    1    2    0    0  0.00000000000E+00  0.00000000000E+00  0.11355366002E+04  0.36014029182E+04  0.34176979985E+04 0.  0.
        2    1    3    3  502    0 -0.12163730577E+04 -0.86101252811E+03  0.14489328839E+04  0.20785361414E+04  0.25500000920E-02 0. -1.
       -2    1    3    3    0  502  0.12163730577E+04  0.86101252811E+03 -0.31339628366E+03  0.15228667768E+04  0.25500000920E-02 0.  1.
</event>
<event>
 5   0  0.9878336E-07  0.3629636E+04  0.7818609E-02  0.8083737E-01
        2   -1    0    0  501    0  0.00000000000E+00  0.00000000000E+00  0.20871266684E+04  0.20871266684E+04  0.25500000920E-02 0.  1.
       -2   -1    0    0    0  501  0.00000000000E+00  0.00000000000E+00 -0.15780377240E+04  0.15780377240E+04  0.25500000920E-02 0. -1.
    10030    2    1    2    0    0  0.00000000000E+00  0.00000000000E+00  0.50908894442E+03  0.36651643925E+04  0.36296361347E+04 0.  0.
        3    1    3    3  502    0 -0.37405404443E+03 -0.96969239020E+02  0.20451031940E+04  0.20812896352E+04  0.10100000352E+00 0.  1.
       -3    1    3    3    0  502  0.37405404443E+03  0.96969239020E+02 -0.15360142496E+04  0.15838747572E+04  0.10100000352E+00 0. -1.
</event>
<event>
 5   0  0.9878977E-07  0.3613997E+04  0.7818609E-02  0.8087293E-01
        2   -1    0    0  501    0  0.00000000000E+00  0.00000000000E+00  0.13895362168E+04  0.13895362168E+04  0.25500000920E-02 0.  1.
       -2   -1    0    0    0  501  0.00000000000E+00  0.00000000000E+00 -0.23498804670E+04  0.23498804670E+04  0.25500000920E-02 0. -1.
    10030    2    1    2    0    0  0.00000000000E+00  0.00000000000E+00 -0.96034425013E+03  0.37394166838E+04  0.36139972408E+04 0.  0.
        5    1    3    3  502    0  0.13408979718E+04  0.11292727238E+04 -0.26837618031E+02  0.17532845186E+04  0.46999998093E+01 0.  1.
       -5    1    3    3    0  502 -0.13408979718E+04 -0.11292727238E+04 -0.93350663210E+03  0.19861321652E+04  0.46999998093E+01 0. -1.
</event>
<event>
 5   0  0.3159875E-07  0.3600155E+04  0.7818609E-02  0.8090456E-01
       -1   -1    0    0    0  501  0.00000000000E+00  0.00000000000E+00  0.19322772014E+04  0.19322772014E+04  0.50400001928E-02 0.  1.
        1   -1    0    0  501    0  0.00000000000E+00  0.00000000000E+00 -0.16769220080E+04  0.16769220080E+04  0.50400001928E-02 0. -1.
    10030    2    1    2    0    0  0.00000000000E+00  0.00000000000E+00  0.25535519342E+03  0.36091992094E+04  0.36001545326E+04 0.  0.
        2    1    3    3  502    0  0.11405768419E+04  0.12193862307E+04 -0.54666366734E+03  0.17568891476E+04  0.25500000920E-02 0. -1.
       -2    1    3    3    0  502 -0.11405768419E+04 -0.12193862307E+04  0.80201886076E+03  0.18523100618E+04  0.25500000920E-02 0.  1.
</event>
<event>
 5   0  0.1031659E-06  0.3600882E+04  0.7818609E-02  0.8090290E-01
       -2   -1    0    0    0  501  0.00000000000E+00  0.00000000000E+00  0.30879889286E+04  0.30879889286E+04  0.25500000920E-02 0.  1.
        2   -1    0    0  501    0  0.00000000000E+00  0.00000000000E+00 -0.10497409000E+04  0.10497409000E+04  0.25500000920E-02 0. -1.
    10030    2    1    2    0    0  0.00000000000E+00  0.00000000000E+00  0.20382480286E+04  0.41377298286E+04  0.36008822680E+04 0.  0.
        2    1    3    3  502    0 -0.13899281373E+04 -0.45072578084E+03  0.22278716910E+04  0.26642946961E+04  0.25500000920E-02 0.  1.
       -2    1    3    3    0  502  0.13899281373E+04  0.45072578084E+03 -0.18962366238E+03  0.14734351325E+04  0.25500000920E-02 0. -1.
</event>
<event>
 5   0  0.3159875E-07  0.3581447E+04  0.7818609E-02  0.8094755E-01
        1   -1    0    0  501    0  0.00000000000E+00  0.00000000000E+00  0.22745015304E+04  0.22745015304E+04  0.50400001928E-02 0.  1.
       -1   -1    0    0    0  501  0.00000000000E+00  0.00000000000E+00 -0.14098432804E+04  0.14098432804E+04  0.50400001928E-02 0. -1.
    10030    2    1    2    0    0  0.00000000000E+00  0.00000000000E+00  0.86465825008E+03  0.36843448108E+04  0.35814470254E+04 0.  0.
        2    1    3    3  502    0 -0.55766522089E+03 -0.14486239626E+04  0.13508358385E+04  0.20577316020E+04  0.25500000920E-02 0. -1.
       -2    1    3    3    0  502  0.55766522089E+03  0.14486239626E+04 -0.48617758840E+03  0.16266132088E+04  0.25500000920E-02 0.  1.
</event>
<event>
 5   0  0.9878977E-07  0.3554357E+04  0.7818609E-02  0.8101027E-01
       -2   -1    0    0    0  501  0.00000000000E+00  0.00000000000E+00  0.14303745891E+04  0.14303745892E+04  0.25500000920E-02 0. -1.
        2   -1    0    0  501    0  0.00000000000E+00  0.00000000000E+00 -0.22080678186E+04  0.22080678186E+04  0.25500000920E-02 0.  1.
    10030    2    1    2    0    0  0.00000000000E+00  0.00000000000E+00 -0.77769322949E+03  0.36384424078E+04  0.35543573815E+04 0.  0.
        5    1    3    3  502    0  0.58739881757E+03 -0.96430195706E+03 -0.17936926685E+04  0.21194978448E+04  0.46999998093E+01 0.  1.
       -5    1    3    3    0  502 -0.58739881757E+03  0.96430195706E+03  0.10159994390E+04  0.15189445630E+04  0.46999998093E+01 0. -1.
</event>
<event>
 5   0  0.3242047E-07  0.3638714E+04  0.7818609E-02  0.8081681E-01
       -1   -1    0    0    0  501  0.00000000000E+00  0.00000000000E+00  0.21038680867E+04  0.21038680867E+04  0.50400001928E-02 0. -1.
        1   -1    0    0  501    0  0.00000000000E+00  0.00000000000E+00 -0.15733208499E+04  0.15733208499E+04  0.50400001928E-02 0.  1.
    10030    2    1    2    0    0  0.00000000000E+00  0.00000000000E+00  0.53054723682E+03  0.36771889366E+04  0.36387137982E+04 0.  0.
        1    1    3    3  502    0 -0.14530849201E+04 -0.10829955332E+04  0.42735786701E+03  0.18619800903E+04  0.50400001928E-02 0.  1.
       -1    1    3    3    0  502  0.14530849201E+04  0.10829955332E+04  0.10318936981E+03  0.18152088464E+04  0.50400001928E-02 0. -1.
</event>
<event>
 5   0  0.3278988E-07  0.3643257E+04  0.7818609E-02  0.8080654E-01
       -1   -1    0    0    0  501  0.00000000000E+00  0.00000000000E+00  0.22366093120E+04  0.22366093120E+04  0.50400001928E-02 0.  1.
        1   -1    0    0  501    0  0.00000000000E+00  0.00000000000E+00 -0.14836436558E+04  0.14836436558E+04  0.50400001928E-02 0. -1.
    10030    2    1    2    0    0  0.00000000000E+00  0.00000000000E+00  0.75296565624E+03  0.37202529678E+04  0.36432574525E+04 0.  0.
        4    1    3    3  502    0  0.34498548523E+03 -0.15480478184E+04 -0.53847950509E+03  0.16749414388E+04  0.12699999809E+01 0. -1.
       -4    1    3    3    0  502 -0.34498548523E+03  0.15480478184E+04  0.12914451613E+04  0.20453115290E+04  0.12699999809E+01 0.  1.
</event>
<event>
 5   0  0.3242047E-07  0.3600285E+04  0.7818609E-02  0.8090426E-01
        1   -1    0    0  501    0  0.00000000000E+00  0.00000000000E+00  0.20570469415E+04  0.20570469415E+04  0.50400001928E-02 0. -1.
       -1   -1    0    0    0  501  0.00000000000E+00  0.00000000000E+00 -0.15753228213E+04  0.15753228213E+04  0.50400001928E-02 0.  1.
    10030    2    1    2    0    0  0.00000000000E+00  0.00000000000E+00  0.48172412020E+03  0.36323697629E+04  0.36002849841E+04 0.  0.
        1    1    3    3  502    0  0.76911334491E+02  0.15375781361E+04 -0.70043210212E+03  0.16913506460E+04  0.50400001928E-02 0.  1.
       -1    1    3    3    0  502 -0.76911334491E+02 -0.15375781361E+04  0.11821562223E+04  0.19410191169E+04  0.50400001928E-02 0. -1.
</event>
<event>
 5   0  0.9878977E-07  0.3616638E+04  0.7818609E-02  0.8086691E-01
        2   -1    0    0  501    0  0.00000000000E+00  0.00000000000E+00  0.18885569959E+04  0.18885569959E+04  0.25500000920E-02 0. -1.
       -2   -1    0    0    0  501  0.00000000000E+00  0.00000000000E+00 -0.17314900063E+04  0.17314900063E+04  0.25500000920E-02 0.  1.
    10030    2    1    2    0    0  0.00000000000E+00  0.00000000000E+00  0.15706698963E+03  0.36200470023E+04  0.36166379774E+04 0.  0.
        5    1    3    3  502    0  0.99899895507E+03 -0.40149304989E+03 -0.13756951763E+04  0.17469272708E+04  0.46999998093E+01 0.  1.
       -5    1    3    3    0  502 -0.99899895507E+03  0.40149304989E+03  0.15327621659E+04  0.18731197315E+04  0.46999998093E+01 0. -1.
</event>
<event>
 5   0  0.3159875E-07  0.3593022E+04  0.7818609E-02  0.8092092E-01
       -1   -1    0    0    0  501  0.00000000000E+00  0.00000000000E+00  0.21804096139E+04  0.21804096140E+04  0.50400001928E-02 0.  1.
        1   -1    0    0  501    0  0.00000000000E+00  0.00000000000E+00 -0.14802042964E+04  0.14802042964E+04  0.50400001928E-02 0. -1.
    10030    2    1    2    0    0  0.00000000000E+00  0.00000000000E+00  0.70020531752E+03  0.36606139104E+04  0.35930219474E+04 0.  0.
        5    1    3    3  502    0  0.41476796596E+03 -0.15012371414E+04 -0.56210919059E+03  0.16558183029E+04  0.46999998093E+01 0. -1.
       -5    1    3    3    0  502 -0.41476796596E+03  0.15012371414E+04  0.12623145081E+04  0.20047956074E+04  0.46999998093E+01 0.  1.
</event>
<event>
 5   0  0.3365378E-07  0.3611710E+04  0.7818609E-02  0.8087815E-01
        1   -1    0    0  501    0  0.00000000000E+00  0.00000000000E+00  0.23352297492E+04  0.23352297492E+04  0.50400001928E-02 0.  1.
       -1   -1    0    0    0  501  0.00000000000E+00  0.00000000000E+00 -0.13964848896E+04  0.13964848897E+04  0.50400001928E-02 0. -1.
    10030    2    1    2    0    0  0.00000000000E+00  0.00000000000E+00  0.93874485954E+03  0.37317146388E+04  0.36117104306E+04 0.  0.
        3    1    3    3  502    0 -0.13890127224E+04  0.16270204218E+03 -0.71107903380E+03  0.15689046179E+04  0.10100000352E+00 0. -1.
       -3    1    3    3    0  502  0.13890127224E+04 -0.16270204218E+03  0.16498238933E+04  0.21628100210E+04  0.10100000352E+00 0.  1.
</event>
<event>
 5   0  0.1006019E-06  0.3632765E+04  0.7818609E-02  0.8083027E-01
       -2   -1    0    0    0  501  0.00000000000E+00  0.00000000000E+00  0.20647448816E+04  0.20647448816E+04  0.25500000920E-02 0. -1.
        2   -1    0    0  501    0  0.00000000000E+00  0.00000000000E+00 -0.15978947392E+04  0.15978947392E+04  0.25500000920E-02 0.  1.
    10030    2    1    2    0    0  0.00000000000E+00  0.00000000000E+00  0.46685014245E+03  0.36626396208E+04  0.36327647785E+04 0.  0.
        1    1    3    3  502    0  0.16945918923E+04  0.12183830169E+03 -0.41432138413E+03  0.17487562616E+04  0.50400001928E-02 0.  1.
       -1    1    3    3    0  502 -0.16945918923E+04 -0.12183830169E+03  0.88117152657E+03  0.19138833592E+04  0.50400001928E-02 0. -1.
</event>
<event>
 5   0  0.3365378E-07  0.3402329E+04  0.7818609E-02  0.8137335E-01
       -1   -1    0    0    0  501  0.00000000000E+00  0.00000000000E+00  0.11981304544E+04  0.11981304544E+04  0.50400001928E-02 0.  1.
        1   -1    0    0  501    0  0.00000000000E+00  0.00000000000E+00 -0.24153975627E+04  0.24153975627E+04  0.50400001928E-02 0. -1.
    10030    2    1    2    0    0  0.00000000000E+00  0.00000000000E+00 -0.12172671082E+04  0.36135280171E+04  0.34023294252E+04 0.  0.
        3    1    3    3  502    0 -0.61282213240E+03 -0.13195646931E+04 -0.15449229914E+04  0.21221661116E+04  0.10100000352E+00 0. -1.
       -3    1    3    3    0  502  0.61282213240E+03  0.13195646931E+04  0.32765588323E+03  0.14913619056E+04  0.10100000352E+00 0.  1.
</event>
<event>
 5   0  0.9878336E-07  0.3295176E+04  0.7818609E-02  0.8164124E-01
        2   -1    0    0  501    0  0.00000000000E+00  0.00000000000E+00  0.21946452160E+04  0.21946452160E+04  0.25500000920E-02 0. -1.
       -2   -1    0    0    0  501  0.00000000000E+00  0.00000000000E+00 -0.12368950733E+04  0.12368950733E+04  0.25500000920E-02 0.  1.
    10030    2    1    2    0    0  0.00000000000E+00  0.00000000000E+00  0.95775014261E+03  0.34315402893E+04  0.32951757800E+04 0.  0.
        3    1    3    3  502    0  0.54474033810E+03 -0.72381997232E+03  0.19120120891E+04  0.21157617133E+04  0.10100000352E+00 0. -1.
       -3    1    3    3    0  502 -0.54474033810E+03  0.72381997232E+03 -0.95426194652E+03  0.13157785760E+04  0.10100000352E+00 0.  1.
</event>
<event>
 5   0  0.3242047E-07  0.3559822E+04  0.7818609E-02  0.8099757E-01
        1   -1    0    0  501    0  0.00000000000E+00  0.00000000000E+00  0.17398922025E+04  0.17398922025E+04  0.50400001928E-02 0.  1.
       -1   -1    0    0    0  501  0.00000000000E+00  0.00000000000E+00 -0.18208500637E+04  0.18208500637E+04  0.50400001928E-02 0. -1.
    10030    2    1    2    0    0  0.00000000000E+00  0.00000000000E+00 -0.80957861156E+02  0.35607422662E+04  0.35598218089E+04 0.  0.
        1    1    3    3  502    0 -0.84810797372E+03  0.10995025043E+04 -0.11542702985E+04  0.18056945517E+04  0.50400001928E-02 0. -1.
       -1    1    3    3    0  502  0.84810797372E+03 -0.10995025043E+04  0.10733124374E+04  0.17550477145E+04  0.50400001928E-02 0.  1.
</event>
<event>
 5   0  0.3242047E-07  0.3590153E+04  0.7818609E-02  0.8092751E-01
        1   -1    0    0  501    0  0.00000000000E+00  0.00000000000E+00  0.19556312322E+04  0.19556312322E+04  0.50400001928E-02 0. -1.
       -1   -1    0    0    0  501  0.00000000000E+00  0.00000000000E+00 -0.16477033944E+04  0.16477033944E+04  0.50400001928E-02 0.  1.
    10030    2    1    2    0    0  0.00000000000E+00  0.00000000000E+00  0.30792783778E+03  0.36033346266E+04  0.35901533223E+04 0.  0.
        1    1    3    3  502    0  0.66821577974E+03 -0.34849718692E+03  0.17891594016E+04  0.19414051566E+04  0.50400001928E-02 0. -1.
       -1    1    3    3    0  502 -0.66821577974E+03  0.34849718692E+03 -0.14812315638E+04  0.16619294700E+04  0.50400001928E-02 0.  1.
</event>
<event>
 5   0  0.1006019E-06  0.3280725E+04  0.7818609E-02  0.8167817E-01
        2   -1    0    0  501    0  0.00000000000E+00  0.00000000000E+00  0.20108775979E+04  0.20108775979E+04  0.25500000920E-02 0. -1.
       -2   -1    0    0    0  501  0.00000000000E+00  0.00000000000E+00 -0.13381170645E+04  0.13381170645E+04  0.25500000920E-02 0.  1.
    10030    2    1    2    0    0  0.00000000000E+00  0.00000000000E+00  0.67276053338E+03  0.33489946624E+04  0.32807253030E+04 0.  0.
        1    1    3    3  502    0  0.84191267011E+03  0.54149038723E+03 -0.99018512416E+03  0.14080111376E+04  0.50400001928E-02 0.  1.
       -1    1    3    3    0  502 -0.84191267011E+03 -0.54149038723E+03  0.16629456575E+04  0.19409835248E+04  0.50400001928E-02 0. -1.
</event>
<event>
 5   0  0.3365378E-07  0.3620744E+04  0.7818609E-02  0.8085757E-01
       -1   -1    0    0    0  501  0.00000000000E+00  0.00000000000E+00  0.20613500149E+04  0.20613500149E+04  0.50400001928E-02 0.  1.
        1   -1    0    0  501    0  0.00000000000E+00  0.00000000000E+00 -0.15899511970E+04  0.15899511970E+04  0.50400001928E-02 0. -1.
    10030    2    1    2    0    0  0.00000000000E+00  0.00000000000E+00  0.47139881788E+03  0.36513012119E+04  0.36207435278E+04 0.  0.
        3    1    3    3  502    0  0.16603858768E+04  0.66411048176E+03 -0.48676846340E+02  0.17889363984E+04  0.10100000352E+00 0. -1.
       -3    1    3    3    0  502 -0.16603858768E+04 -0.66411048176E+03  0.52007566422E+03  0.18623648135E+04  0.10100000352E+00 0.  1.
</event>
<event>
 5   0  0.3242047E-07  0.3570594E+04  0.7818609E-02  0.8097261E-01
        1   -1    0    0  501    0  0.00000000000E+00  0.00000000000E+00  0.20604732885E+04  0.20604732885E+04  0.50400001928E-02 0.  1.
       -1   -1    0    0    0  501  0.00000000000E+00  0.00000000000E+00 -0.15468703334E+04  0.15468703334E+04  0.50400001928E-02 0. -1.
    10030    2    1    2    0    0  0.00000000000E+00  0.00000000000E+00  0.51360295510E+03  0.36073436220E+04  0.35705937898E+04 0.  0.
        1    1    3    3  502    0  0.11995634646E+04 -0.96410279420E+03 -0.65740889004E+03  0.16735092328E+04  0.50400001928E-02 0. -1.
       -1    1    3    3    0  502 -0.11995634646E+04  0.96410279420E+03  0.11710118451E+04  0.19338343892E+04  0.50400001928E-02 0.  1.
</event>
<event>
 5   0  0.9878336E-07  0.3639517E+04  0.7818609E-02  0.8081499E-01
        2   -1    0    0  501    0  0.00000000000E+00  0.00000000000E+00  0.20544019973E+04  0.20544019973E+04  0.25500000920E-02 0.  1.
       -2   -1    0    0    0  501  0.00000000000E+00  0.00000000000E+00 -0.16119145366E+04  0.16119145366E+04  0.25500000920E-02 0. -1.
    10030    2    1    2    0    0  0.00000000000E+00  0.00000000000E+00  0.44248746075E+03  0.36663165339E+04  0.36395166951E+04 0.  0.
        3    1    3    3  502    0  0.24600904524E+03 -0.12797534821E+04  0.15007267362E+04  0.19875789726E+04  0.10100000352E+00 0.  1.
       -3    1    3    3    0  502 -0.24600904524E+03  0.12797534821E+04 -0.10582392754E+04  0.16787375613E+04  0.10100000352E+00 0. -1.
</event>
<event>
 5   0  0.9878977E-07  0.3618912E+04  0.7818609E-02  0.8086173E-01
       -2   -1    0    0    0  501  0.00000000000E+00  0.00000000000E+00  0.18884269939E+04  0.18884269940E+04  0.25500000920E-02 0.  1.
        2   -1    0    0  501    0  0.00000000000E+00  0.00000000000E+00 -0.17337874098E+04  0.17337874098E+04  0.25500000920E-02 0. -1.
    10030    2    1    2    0    0  0.00000000000E+00  0.00000000000E+00  0.15463958417E+03  0.36222144037E+04  0.36189119616E+04 0.  0.
        5    1    3    3  502    0 -0.17540338557E+04  0.14990098821E+03  0.49603607875E+03  0.18289830384E+04  0.46999998093E+01 0.  1.
       -5    1    3    3    0  502  0.17540338557E+04 -0.14990098821E+03 -0.34139649459E+03  0.17932313654E+04  0.46999998093E+01 0. -1.
</event>
<event>
 5   0  0.9538919E-07  0.3574834E+04  0.7818609E-02  0.8096281E-01
       -2   -1    0    0    0  501  0.00000000000E+00  0.00000000000E+00  0.13638977318E+04  0.13638977318E+04  0.25500000920E-02 0. -1.
        2   -1    0    0  501    0  0.00000000000E+00  0.00000000000E+00 -0.23424485638E+04  0.23424485638E+04  0.25500000920E-02 0.  1.
    10030    2    1    2    0    0  0.00000000000E+00  0.00000000000E+00 -0.97855083203E+03  0.37063462956E+04  0.35748344202E+04 0.  0.
        4    1    3    3  502    0 -0.90505248461E+03  0.11797779472E+04 -0.15176641349E+04  0.21246886934E+04  0.12699999809E+01 0.  1.
       -4    1    3    3    0  502  0.90505248461E+03 -0.11797779472E+04  0.53911330282E+03  0.15816576023E+04  0.12699999809E+01 0. -1.
</event>
<event>
 5   0  0.1031659E-06  0.3552667E+04  0.7818609E-02  0.8101421E-01
        2   -1    0    0  501    0  0.00000000000E+00  0.00000000000E+00  0.21840963479E+04  0.21840963479E+04  0.25500000920E-02 0.  1.
       -2   -1    0    0    0  501  0.00000000000E+00  0.00000000000E+00 -0.14446982905E+04  0.14446982905E+04  0.25500000920E-02 0. -1.
    10030    2    1    2    0    0  0.00000000000E+00  0.00000000000E+00  0.73939805735E+03  0.36287946384E+04  0.35526667506E+04 0.  0.
        2    1    3    3  502    0  0.10382084014E+04  0.25244703717E+03  0.18191753838E+04  0.21097405690E+04  0.25500000920E-02 0.  1.
       -2    1    3    3    0  502 -0.10382084014E+04 -0.25244703717E+03 -0.10797773264E+04  0.15190540695E+04  0.25500000920E-02 0. -1.
</event>
<event>
 5   0  0.9878336E-07  0.3687469E+04  0.7818609E-02  0.8070745E-01
        2   -1    0    0  501    0  0.00000000000E+00  0.00000000000E+00  0.21782327452E+04  0.21782327452E+04  0.25500000920E-02 0. -1.
       -2   -1    0    0    0  501  0.00000000000E+00  0.00000000000E+00 -0.15606030508E+04  0.15606030508E+04  0.25500000920E-02 0.  1.
    10030    2    1    2    0    0  0.00000000000E+00  0.00000000000E+00  0.61762969436E+03  0.37388357960E+04  0.36874688704E+04 0.  0.
        3    1    3    3  502    0 -0.15036026961E+04  0.10107420121E+04  0.65553770230E+03  0.19266941045E+04  0.10100000352E+00 0.  1.
       -3    1    3    3    0  502  0.15036026961E+04 -0.10107420121E+04 -0.37908007943E+02  0.18121416915E+04  0.10100000352E+00 0. -1.
</event>
<event>
 5   0  0.3159875E-07  0.3484917E+04  0.7818609E-02  0.8117374E-01
        1   -1    0    0  501    0  0.00000000000E+00  0.00000000000E+00  0.15640031488E+04  0.15640031488E+04  0.50400001928E-02 0. -1.
       -1   -1    0    0    0  501  0.00000000000E+00  0.00000000000E+00 -0.19412756470E+04  0.19412756470E+04  0.50400001928E-02 0.  1.
    10030    2    1    2    0    0  0.00000000000E+00  0.00000000000E+00 -0.37727249812E+03  0.35052787958E+04  0.34849167707E+04 0.  0.
        2    1    3    3  502    0  0.10167781255E+04 -0.80445066452E+03  0.98228870937E+03  0.16266129647E+04  0.25500000920E-02 0. -1.
       -2    1    3    3    0  502 -0.10167781255E+04  0.80445066452E+03 -0.13595612075E+04  0.18786658312E+04  0.25500000920E-02 0.  1.
</event>
<event>
 5   0  0.1006019E-06  0.3620464E+04  0.7818609E-02  0.8085820E-01
       -2   -1    0    0    0  501  0.00000000000E+00  0.00000000000E+00  0.17345109380E+04  0.17345109380E+04  0.25500000920E-02 0. -1.
        2   -1    0    0  501    0  0.00000000000E+00  0.00000000000E+00 -0.18892592232E+04  0.18892592232E+04  0.25500000920E-02 0.  1.
    10030    2    1    2    0    0  0.00000000000E+00  0.00000000000E+00 -0.15474828525E+03  0.36237701612E+04  0.36204644936E+04 0.  0.
        1    1    3    3  502    0 -0.28505947687E+03 -0.55171448065E+03 -0.17793069317E+04  0.18845638569E+04  0.50400001928E-02 0.  1.
       -1    1    3    3    0  502  0.28505947687E+03  0.55171448065E+03  0.16245586464E+04  0.17392063044E+04  0.50400001928E-02 0. -1.
</event>
<event>
 5   0  0.3365378E-07  0.2887821E+04  0.7818609E-02  0.8276510E-01
       -1   -1    0    0    0  501  0.00000000000E+00  0.00000000000E+00  0.17919431647E+04  0.17919431647E+04  0.50400001928E-02 0. -1.
        1   -1    0    0  501    0  0.00000000000E+00  0.00000000000E+00 -0.11634728484E+04  0.11634728485E+04  0.50400001928E-02 0.  1.
    10030    2    1    2    0    0  0.00000000000E+00  0.00000000000E+00  0.62847031621E+03  0.29554160131E+04  0.28878207826E+04 0.  0.
        3    1    3    3  502    0 -0.81740027199E+03 -0.93633361411E+03  0.10662919527E+04  0.16376331641E+04  0.10100000352E+00 0. -1.
       -3    1    3    3    0  502  0.81740027199E+03  0.93633361411E+03 -0.43782163650E+03  0.13177828490E+04  0.10100000352E+00 0.  1.
</event>
<event>
 5   0  0.3365378E-07  0.3593649E+04  0.7818609E-02  0.8091948E-01
        1   -1    0    0  501    0  0.00000000000E+00  0.00000000000E+00  0.12403138282E+04  0.12403138283E+04  0.50400001928E-02 0.  1.
       -1   -1    0    0    0  501  0.00000000000E+00  0.00000000000E+00 -0.26030329264E+04  0.26030329264E+04  0.50400001928E-02 0. -1.
    10030    2    1    2    0    0  0.00000000000E+00  0.00000000000E+00 -0.13627190981E+04  0.38433467546E+04  0.35936486940E+04 0.  0.
        3    1    3    3  502    0 -0.59357909515E+03  0.45214405609E+02 -0.24945032845E+04  0.25645520332E+04  0.10100000352E+00 0. -1.
       -3    1    3    3    0  502  0.59357909515E+03 -0.45214405609E+02  0.11317841864E+04  0.12787947214E+04  0.10100000352E+00 0.  1.
</event>
<event>
 5   0  0.3278988E-07  0.3821256E+04  0.7818609E-02  0.8041609E-01
       -1   -1    0    0    0  501  0.00000000000E+00  0.00000000000E+00  0.16037041063E+04  0.16037041063E+04  0.50400001928E-02 0. -1.
        1   -1    0    0  501    0  0.00000000000E+00  0.00000000000E+00 -0.22762923274E+04  0.22762923275E+04  0.50400001928E-02 0.  1.
    10030    2    1    2    0    0  0.00000000000E+00  0.00000000000E+00 -0.67258822119E+03  0.38799964337E+04  0.38212559991E+04 0.  0.
        4    1    3    3  502    0  0.13564560673E+04 -0.46583324249E+03 -0.16180475941E+04  0.21621871570E+04  0.12699999809E+01 0.  1.
       -4    1    3    3    0  502 -0.13564560673E+04  0.46583324249E+03  0.94545937291E+03  0.17178092767E+04  0.12699999809E+01 0. -1.
</event>
<event>
 5   0  0.9538919E-07  0.3491519E+04  0.7818609E-02  0.8115803E-01
       -2   -1    0    0    0  501  0.00000000000E+00  0.00000000000E+00  0.16215387299E+04  0.16215387299E+04  0.25500000920E-02 0. -1.
        2   -1    0    0  501    0  0.00000000000E+00  0.00000000000E+00 -0.18794968089E+04  0.18794968089E+04  0.25500000920E-02 0.  1.
    10030    2    1    2    0    0  0.00000000000E+00  0.00000000000E+00 -0.25795807904E+03  0.35010355388E+04  0.34915193646E+04 0.  0.
        4    1    3    3  502    0 -0.13529317981E+04  0.76920047076E+03 -0.92207181215E+03  0.18089532482E+04  0.12699999809E+01 0.  1.
       -4    1    3    3    0  502  0.13529317981E+04 -0.76920047076E+03  0.66411373311E+03  0.16920822906E+04  0.12699999809E+01 0. -1.
</event>
<event>
 5   0  0.3365378E-07  0.3555135E+04  0.7818609E-02  0.8100847E-01
       -1   -1    0    0    0  501  0.00000000000E+00  0.00000000000E+00  0.21132143489E+04  0.21132143489E+04  0.50400001928E-02 0.  1.
        1   -1    0    0  501    0  0.00000000000E+00  0.00000000000E+00 -0.14952320360E+04  0.14952320360E+04  0.50400001928E-02 0. -1.
    10030    2    1    2    0    0  0.00000000000E+00  0.00000000000E+00  0.61798231287E+03  0.36084463849E+04  0.35551347617E+04 0.  0.
        3    1    3    3  502    0  0.13099245620E+03 -0.75979842443E+02  0.21066553188E+04  0.21120910498E+04  0.10100000352E+00 0.  1.
       -3    1    3    3    0  502 -0.13099245620E+03  0.75979842443E+02 -0.14886730060E+04  0.14963553351E+04  0.10100000352E+00 0. -1.
</event>
<event>
 5   0  0.9878977E-07  0.3595560E+04  0.7818609E-02  0.8091509E-01
        2   -1    0    0  501    0  0.00000000000E+00  0.00000000000E+00  0.29648441796E+04  0.29648441796E+04  0.25500000920E-02 0. -1.
       -2   -1    0    0    0  501  0.00000000000E+00  0.00000000000E+00 -0.10901122065E+04  0.10901122065E+04  0.25500000920E-02 0.  1.
    10030    2    1    2    0    0  0.00000000000E+00  0.00000000000E+00  0.18747319731E+04  0.40549563861E+04  0.35955599456E+04 0.  0.
        5    1    3    3  502    0  0.16027419390E+04 -0.14497010724E+03  0.33607619496E+02  0.16096426986E+04  0.46999998093E+01 0.  1.
       -5    1    3    3    0  502 -0.16027419390E+04  0.14497010724E+03  0.18411243536E+04  0.24453136875E+04  0.46999998093E+01 0. -1.
</event>
<event>
 5   0  0.3365378E-07  0.3547100E+04  0.7818609E-02  0.8102718E-01
       -1   -1    0    0    0  501  0.00000000000E+00  0.00000000000E+00  0.25757135728E+04  0.25757135728E+04  0.50400001928E-02 0.  1.
        1   -1    0    0  501    0  0.00000000000E+00  0.00000000000E+00 -0.12212068163E+04  0.12212068163E+04  0.50400001928E-02 0. -1.
    10030    2    1    2    0    0  0.00000000000E+00  0.00000000000E+00  0.13545067564E+04  0.37969203891E+04  0.35470996445E+04 0.  0.
        3    1    3    3  502    0 -0.14569832906E+04  0.33447335471E+03  0.16988303587E+04  0.22628957846E+04  0.10100000352E+00 0.  1.
       -3    1    3    3    0  502  0.14569832906E+04 -0.33447335471E+03 -0.34432360226E+03  0.15340246045E+04  0.10100000352E+00 0. -1.
</event>
<event>
 5   0  0.1006019E-06  0.3597330E+04  0.7818609E-02  0.8091103E-01
        2   -1    0    0  501    0  0.00000000000E+00  0.00000000000E+00  0.26207288848E+04  0.26207288848E+04  0.25500000920E-02 0. -1.
       -2   -1    0    0    0  501  0.00000000000E+00  0.00000000000E+00 -0.12344644372E+04  0.12344644372E+04  0.25500000920E-02 0.  1.
    10030    2    1    2    0    0  0.00000000000E+00  0.00000000000E+00  0.13862644476E+04  0.38551933220E+04  0.35973304590E+04 0.  0.
        1    1    3    3  502    0  0.76332042482E+03 -0.11270514370E+04  0.19531189618E+04  0.23806672786E+04  0.50400001928E-02 0. -1.
       -1    1    3    3    0  502 -0.76332042482E+03  0.11270514370E+04 -0.56685451413E+03  0.14745260434E+04  0.50400001928E-02 0.  1.
</event>
<event>
 5   0  0.3365378E-07  0.3531677E+04  0.7818609E-02  0.8106324E-01
       -1   -1    0    0    0  501  0.00000000000E+00  0.00000000000E+00  0.15766857010E+04  0.15766857010E+04  0.50400001928E-02 0.  1.
        1   -1    0    0  501    0  0.00000000000E+00  0.00000000000E+00 -0.19776833498E+04  0.19776833498E+04  0.50400001928E-02 0. -1.
    10030    2    1    2    0    0  0.00000000000E+00  0.00000000000E+00 -0.40099764887E+03  0.35543690508E+04  0.35316766889E+04 0.  0.
        3    1    3    3  502    0  0.42487387028E+03 -0.70651315028E+03  0.13711066423E+04  0.15998787679E+04  0.10100000352E+00 0.  1.
       -3    1    3    3    0  502 -0.42487387028E+03  0.70651315028E+03 -0.17721042912E+04  0.19544902829E+04  0.10100000352E+00 0. -1.
</event>
<event>
 5   0  0.9878977E-07  0.3564003E+04  0.7818609E-02  0.8098787E-01
        2   -1    0    0  501    0  0.00000000000E+00  0.00000000000E+00  0.17630106058E+04  0.17630106058E+04  0.25500000920E-02 0. -1.
       -2   -1    0    0    0  501  0.00000000000E+00  0.00000000000E+00 -0.18011965381E+04  0.18011965381E+04  0.25500000920E-02 0.  1.
    10030    2    1    2    0    0  0.00000000000E+00  0.00000000000E+00 -0.38185932290E+02  0.35642071439E+04  0.35640025812E+04 0.  0.
        5    1    3    3  502    0  0.53667977973E+03 -0.10750811474E+04 -0.13351023287E+04  0.17962029333E+04  0.46999998093E+01 0.  1.
       -5    1    3    3    0  502 -0.53667977973E+03  0.10750811474E+04  0.12969163964E+04  0.17680042106E+04  0.46999998093E+01 0. -1.
</event>
<event>
 5   0  0.9878336E-07  0.3586661E+04  0.7818609E-02  0.8093554E-01
       -2   -1    0    0    0  501  0.00000000000E+00  0.00000000000E+00  0.16500013858E+04  0.16500013858E+04  0.25500000920E-02 0.  1.
        2   -1    0    0  501    0  0.00000000000E+00  0.00000000000E+00 -0.19491095375E+04  0.19491095375E+04  0.25500000920E-02 0. -1.
    10030    2    1    2    0    0  0.00000000000E+00  0.00000000000E+00 -0.29910815174E+03  0.35991109234E+04  0.35866605293E+04 0.  0.
        3    1    3    3  502    0 -0.11493050757E+04  0.13637210695E+04 -0.33834571559E+03  0.18152452027E+04  0.10100000352E+00 0. -1.
       -3    1    3    3    0  502  0.11493050757E+04 -0.13637210695E+04  0.39237563855E+02  0.17838657206E+04  0.10100000352E+00 0.  1.
</event>
<event>
 5   0  0.9878336E-07  0.3225714E+04  0.7818609E-02  0.8182059E-01
        2   -1    0    0  501    0  0.00000000000E+00  0.00000000000E+00  0.14223404642E+04  0.14223404642E+04  0.25500000920E-02 0.  1.
       -2   -1    0    0    0  501  0.00000000000E+00  0.00000000000E+00 -0.18288918927E+04  0.18288918927E+04  0.25500000920E-02 0. -1.
    10030    2    1    2    0    0  0.00000000000E+00  0.00000000000E+00 -0.40655142848E+03  0.32512323569E+04  0.32257135295E+04 0.  0.
        3    1    3    3  502    0  0.17603429395E+03  0.15994436591E+04 -0.31414062631E+03  0.16394793181E+04  0.10100000352E+00 0. -1.
       -3    1    3    3    0  502 -0.17603429395E+03 -0.15994436591E+04 -0.92410802171E+02  0.16117530387E+04  0.10100000352E+00 0.  1.
</event>
<event>
 5   0  0.3242047E-07  0.3348508E+04  0.7818609E-02  0.8150661E-01
       -1   -1    0    0    0  501  0.00000000000E+00  0.00000000000E+00  0.12535310732E+04  0.12535310732E+04  0.50400001928E-02 0. -1.
        1   -1    0    0  501    0  0.00000000000E+00  0.00000000000E+00 -0.22361837149E+04  0.22361837149E+04  0.50400001928E-02 0.  1.
    10030    2    1    2    0    0  0.00000000000E+00  0.00000000000E+00 -0.98265264164E+03  0.34897147881E+04  0.33485075911E+04 0.  0.
        1    1    3    3  502    0  0.15407475548E+04  0.43747023040E+03  0.16930733064E+02  0.16017396417E+04  0.50400001928E-02 0. -1.
       -1    1    3    3    0  502 -0.15407475548E+04 -0.43747023040E+03 -0.99958337471E+03  0.18879751463E+04  0.50400001928E-02 0.  1.
</event>
<event>
 5   0  0.3278988E-07  0.3251828E+04  0.7818609E-02  0.8175262E-01
       -1   -1    0    0    0  501  0.00000000000E+00  0.00000000000E+00  0.16557979028E+04  0.16557979028E+04  0.50400001928E-02 0. -1.
        1   -1    0    0  501    0  0.00000000000E+00  0.00000000000E+00 -0.15965696006E+04  0.15965696006E+04  0.50400001928E-02 0.  1.
    10030    2    1    2    0    0  0.00000000000E+00  0.00000000000E+00  0.59228302169E+02  0.32523675034E+04  0.32518281605E+04 0.  0.
        4    1    3    3  502    0 -0.15563998041E+04 -0.56705393573E+02 -0.43736706009E+03  0.16176796376E+04  0.12699999809E+01 0.  1.
       -4    1    3    3    0  502  0.15563998041E+04  0.56705393573E+02  0.49659536226E+03  0.16346878658E+04  0.12699999809E+01 0. -1.
</event>
<event>
 5   0  0.3242047E-07  0.3259714E+04  0.7818609E-02  0.8173222E-01
        1   -1    0    0  501    0  0.00000000000E+00  0.00000000000E+00  0.20733095119E+04  0.20733095119E+04  0.50400001928E-02 0.  1.
       -1   -1    0    0    0  501  0.00000000000E+00  0.00000000000E+00 -0.12812532349E+04  0.12812532350E+04  0.50400001928E-02 0. -1.
    10030    2    1    2    0    0  0.00000000000E+00  0.00000000000E+00  0.79205627700E+03  0.33545627469E+04  0.32597144165E+04 0.  0.
        1    1    3    3  502    0 -0.10231311956E+04 -0.94981296445E+03  0.12616281601E+04  0.18816608954E+04  0.50400001928E-02 0. -1.
       -1    1    3    3    0  502  0.10231311956E+04  0.94981296445E+03 -0.46957188305E+03  0.14729018515E+04  0.50400001928E-02 0.  1.
</event>
<event>
 5   0  0.3159875E-07  0.3607906E+04  0.7818609E-02  0.8088683E-01
        3   -1    0    0  501    0  0.00000000000E+00  0.00000000000E+00  0.12608359239E+04  0.12608359280E+04  0.10100000352E+00 0. -1.
       -3   -1    0    0    0  501  0.00000000000E+00  0.00000000000E+00 -0.25810230020E+04  0.25810230040E+04  0.10100000352E+00 0.  1.
    10030    2    1    2    0    0  0.00000000000E+00  0.00000000000E+00 -0.13201870781E+04  0.38418589319E+04  0.36079060592E+04 0.  0.
        5    1    3    3  502    0 -0.10033789161E+04 -0.12547978284E+04  0.21342794670E+03  0.16207592103E+04  0.46999998093E+01 0. -1.
       -5    1    3    3    0  502  0.10033789161E+04  0.12547978284E+04 -0.15336150248E+04  0.22210997216E+04  0.46999998093E+01 0.  1.
</event>
<event>
 5   0  0.3159875E-07  0.3572246E+04  0.7818609E-02  0.8096879E-01
        1   -1    0    0  501    0  0.00000000000E+00  0.00000000000E+00  0.21342910302E+04  0.21342910302E+04  0.50400001928E-02 0.  1.
       -1   -1    0    0    0  501  0.00000000000E+00  0.00000000000E+00 -0.14947518126E+04  0.14947518126E+04  0.50400001928E-02 0. -1.
    10030    2    1    2    0    0  0.00000000000E+00  0.00000000000E+00  0.63953921758E+03  0.36290428429E+04  0.35722460084E+04 0.  0.
        5    1    3    3  502    0 -0.14242375048E+04 -0.28335679133E+03  0.13762414470E+04  0.20007014149E+04  0.46999998093E+01 0.  1.
       -5    1    3    3    0  502  0.14242375048E+04  0.28335679133E+03 -0.73670222939E+03  0.16283414280E+04  0.46999998093E+01 0. -1.
</event>
<event>
 5   0  0.3278988E-07  0.3618534E+04  0.7818609E-02  0.8086259E-01
        1   -1    0    0  501    0  0.00000000000E+00  0.00000000000E+00  0.23323213616E+04  0.23323213616E+04  0.50400001928E-02 0. -1.
       -1   -1    0    0    0  501  0.00000000000E+00  0.00000000000E+00 -0.14035143012E+04  0.14035143012E+04  0.50400001928E-02 0.  1.
    10030    2    1    2    0    0  0.00000000000E+00  0.00000000000E+00  0.92880706038E+03  0.37358356627E+04  0.36185336179E+04 0.  0.
        4    1    3    3  502    0  0.21051234759E+03 -0.17845012817E+04  0.68264315336E+03  0.19221767767E+04  0.12699999809E+01 0.  1.
       -4    1    3    3    0  502 -0.21051234759E+03  0.17845012817E+04  0.24616390701E+03  0.18136588861E+04  0.12699999809E+01 0. -1.
</event>
<event>
 5   0  0.3159875E-07  0.2774282E+04  0.7818609E-02  0.8311298E-01
       -1   -1    0    0    0  501  0.00000000000E+00  0.00000000000E+00  0.14536939214E+04  0.14536939214E+04  0.50400001928E-02 0. -1.
        1   -1    0    0  501    0  0.00000000000E+00  0.00000000000E+00 -0.13236348465E+04  0.13236348465E+04  0.50400001928E-02 0.  1.
    10030    2    1    2    0    0  0.00000000000E+00  0.00000000000E+00  0.13005907493E+03  0.27773287679E+04  0.27742818389E+04 0.  0.
        2    1    3    3  502    0 -0.11507062857E+04 -0.71726109445E+02 -0.70710889935E+03  0.13525060393E+04  0.25500000920E-02 0.  1.
       -2    1    3    3    0  502  0.11507062857E+04  0.71726109445E+02  0.83716797428E+03  0.14248227286E+04  0.25500000920E-02 0. -1.
</event>
<event>
 5   0  0.1031659E-06  0.3596335E+04  0.7818609E-02  0.8091332E-01
       -2   -1    0    0    0  501  0.00000000000E+00  0.00000000000E+00  0.13806697675E+04  0.13806697675E+04  0.25500000920E-02 0. -1.
        2   -1    0    0  501    0  0.00000000000E+00  0.00000000000E+00 -0.23419111447E+04  0.23419111447E+04  0.25500000920E-02 0.  1.
    10030    2    1    2    0    0  0.00000000000E+00  0.00000000000E+00 -0.96124137719E+03  0.37225809122E+04  0.35963347540E+04 0.  0.
        2    1    3    3  502    0 -0.12774295907E+04  0.52130572013E+03 -0.16742801657E+04  0.21695160949E+04  0.25500000920E-02 0.  1.
       -2    1    3    3    0  502  0.12774295907E+04 -0.52130572013E+03  0.71303878847E+03  0.15530648173E+04  0.25500000920E-02 0. -1.
</event>
<event>
 5   0  0.3159875E-07  0.3579310E+04  0.7818609E-02  0.8095247E-01
        1   -1    0    0  501    0  0.00000000000E+00  0.00000000000E+00  0.22319701980E+04  0.22319701981E+04  0.50400001928E-02 0.  1.
       -1   -1    0    0    0  501  0.00000000000E+00  0.00000000000E+00 -0.14349947062E+04  0.14349947062E+04  0.50400001928E-02 0. -1.
    10030    2    1    2    0    0  0.00000000000E+00  0.00000000000E+00  0.79697549185E+03  0.36669649043E+04  0.35793102233E+04 0.  0.
        5    1    3    3  502    0  0.13947952620E+04 -0.92741612536E+02  0.15433463642E+04  0.20823051936E+04  0.46999998093E+01 0.  1.
       -5    1    3    3    0  502 -0.13947952620E+04  0.92741612536E+02 -0.74637087231E+03  0.15846597107E+04  0.46999998093E+01 0. -1.
</event>
<event>
 5   0  0.3365378E-07  0.3584911E+04  0.7818609E-02  0.8093957E-01
        1   -1    0    0  501    0  0.00000000000E+00  0.00000000000E+00  0.31797254069E+04  0.31797254070E+04  0.50400001928E-02 0. -1.
       -1   -1    0    0    0  501  0.00000000000E+00  0.00000000000E+00 -0.10104322382E+04  0.10104322382E+04  0.50400001928E-02 0.  1.
    10030    2    1    2    0    0  0.00000000000E+00  0.00000000000E+00  0.21692931688E+04  0.41901576451E+04  0.35849111898E+04 0.  0.
        3    1    3    3  502    0 -0.14910355709E+04  0.88246347220E+03  0.16215058540E+04  0.23730170876E+04  0.10100000352E+00 0. -1.
       -3    1    3    3    0  502  0.14910355709E+04 -0.88246347220E+03  0.54778731479E+03  0.18171405575E+04  0.10100000352E+00 0.  1.
</event>
<event>
 5   0  0.1031659E-06  0.3335261E+04  0.7818609E-02  0.8153981E-01
        2   -1    0    0  501    0  0.00000000000E+00  0.00000000000E+00  0.23212201834E+04  0.23212201834E+04  0.25500000920E-02 0.  1.
       -2   -1    0    0    0  501  0.00000000000E+00  0.00000000000E+00 -0.11980732612E+04  0.11980732612E+04  0.25500000920E-02 0. -1.
    10030    2    1    2    0    0  0.00000000000E+00  0.00000000000E+00  0.11231469222E+04  0.35192934446E+04  0.33352612103E+04 0.  0.
        2    1    3    3  502    0 -0.11228304504E+04  0.97235041499E+03  0.13615473358E+04  0.20149502966E+04  0.25500000920E-02 0.  1.
       -2    1    3    3    0  502  0.11228304504E+04 -0.97235041499E+03 -0.23840041364E+03  0.15043431481E+04  0.25500000920E-02 0. -1.
</event>
<event>
 5   0  0.3159875E-07  0.3721610E+04  0.7818609E-02  0.8063190E-01
        1   -1    0    0  501    0  0.00000000000E+00  0.00000000000E+00  0.25327481357E+04  0.25327481357E+04  0.50400001928E-02 0. -1.
       -1   -1    0    0    0  501  0.00000000000E+00  0.00000000000E+00 -0.13671298197E+04  0.13671298198E+04  0.50400001928E-02 0.  1.
    10030    2    1    2    0    0  0.00000000000E+00  0.00000000000E+00  0.11656183160E+04  0.38998779555E+04  0.37216101366E+04 0.  0.
        2    1    3    3  502    0 -0.16096315778E+04 -0.81315942420E+02  0.15574522662E+04  0.22412460062E+04  0.25500000920E-02 0. -1.
       -2    1    3    3    0  502  0.16096315778E+04  0.81315942420E+02 -0.39183395021E+03  0.16586319493E+04  0.25500000920E-02 0.  1.
</event>
<event>
 5   0  0.3159875E-07  0.3520936E+04  0.7818609E-02  0.8108846E-01
       -1   -1    0    0    0  501  0.00000000000E+00  0.00000000000E+00  0.13259712105E+04  0.13259712105E+04  0.50400001928E-02 0.  1.
        1   -1    0    0  501    0  0.00000000000E+00  0.00000000000E+00 -0.23373412914E+04  0.23373412914E+04  0.50400001928E-02 0. -1.
    10030    2    1    2    0    0  0.00000000000E+00  0.00000000000E+00 -0.10113700810E+04  0.36633125019E+04  0.35209358196E+04 0.  0.
        5    1    3    3  502    0  0.61402602147E+02  0.80325716268E+03  0.11229341053E+04  0.13820258477E+04  0.46999998093E+01 0.  1.
       -5    1    3    3    0  502 -0.61402602147E+02 -0.80325716268E+03 -0.21343041863E+04  0.22812866542E+04  0.46999998093E+01 0. -1.
</event>
<event>
 5   0  0.1006019E-06  0.3494324E+04  0.7818609E-02  0.8115136E-01
       -2   -1    0    0    0  501  0.00000000000E+00  0.00000000000E+00  0.15769541478E+04  0.15769541479E+04  0.25500000920E-02 0.  1.
        2   -1    0    0  501    0  0.00000000000E+00  0.00000000000E+00 -0.19357413523E+04  0.19357413523E+04  0.25500000920E-02 0. -1.
    10030    2    1    2    0    0  0.00000000000E+00  0.00000000000E+00 -0.35878720442E+03  0.35126955001E+04  0.34943241719E+04 0.  0.
        1    1    3    3  502    0  0.25643486494E+03  0.12063377186E+04 -0.14234645411E+04  0.18834173279E+04  0.50400001928E-02 0. -1.
       -1    1    3    3    0  502 -0.25643486494E+03 -0.12063377186E+04  0.10646773367E+04  0.16292781722E+04  0.50400001928E-02 0.  1.
</event>
<event>
 5   0  0.1031659E-06  0.3642941E+04  0.7818609E-02  0.8080726E-01
        2   -1    0    0  501    0  0.00000000000E+00  0.00000000000E+00  0.14466644649E+04  0.14466644649E+04  0.25500000920E-02 0.  1.
       -2   -1    0    0    0  501  0.00000000000E+00  0.00000000000E+00 -0.22933825613E+04  0.22933825613E+04  0.25500000920E-02 0. -1.
    10030    2    1    2    0    0  0.00000000000E+00  0.00000000000E+00 -0.84671809642E+03  0.37400470262E+04  0.36429411502E+04 0.  0.
        2    1    3    3  502    0 -0.16442508755E+04  0.35203935060E+01  0.38122858114E+03  0.16878710158E+04  0.25500000920E-02 0.  1.
       -2    1    3    3    0  502  0.16442508755E+04 -0.35203935060E+01 -0.12279466776E+04  0.20521760104E+04  0.25500000920E-02 0. -1.
</event>
<event>
 5   0  0.9538919E-07  0.3624688E+04  0.7818609E-02  0.8084860E-01
       -2   -1    0    0    0  501  0.00000000000E+00  0.00000000000E+00  0.14122010962E+04  0.14122010962E+04  0.25500000920E-02 0.  1.
        2   -1    0    0  501    0  0.00000000000E+00  0.00000000000E+00 -0.23258663673E+04  0.23258663673E+04  0.25500000920E-02 0. -1.
    10030    2    1    2    0    0  0.00000000000E+00  0.00000000000E+00 -0.91366527115E+03  0.37380674635E+04  0.36246881430E+04 0.  0.
        4    1    3    3  502    0 -0.44467437621E+03  0.12026096892E+04 -0.17777502489E+04  0.21918948254E+04  0.12699999809E+01 0. -1.
       -4    1    3    3    0  502  0.44467437621E+03 -0.12026096892E+04  0.86408497771E+03  0.15461726381E+04  0.12699999809E+01 0.  1.
</event>
<event>
 5   0  0.9878977E-07  0.3575208E+04  0.7818609E-02  0.8096194E-01
        2   -1    0    0  501    0  0.00000000000E+00  0.00000000000E+00  0.24684240156E+04  0.24684240156E+04  0.25500000920E-02 0. -1.
       -2   -1    0    0    0  501  0.00000000000E+00  0.00000000000E+00 -0.12945624054E+04  0.12945624054E+04  0.25500000920E-02 0.  1.
    10030    2    1    2    0    0  0.00000000000E+00  0.00000000000E+00  0.11738616102E+04  0.37629864211E+04  0.35752084870E+04 0.  0.
        5    1    3    3  502    0  0.11295629284E+04  0.13760074632E+04  0.41657204778E+03  0.18283498869E+04  0.46999998093E+01 0.  1.
       -5    1    3    3    0  502 -0.11295629284E+04 -0.13760074632E+04  0.75728956243E+03  0.19346365342E+04  0.46999998093E+01 0. -1.
</event>
<event>
 5   0  0.9538919E-07  0.3529375E+04  0.7818609E-02  0.8106863E-01
        2   -1    0    0  501    0  0.00000000000E+00  0.00000000000E+00  0.14772090582E+04  0.14772090582E+04  0.25500000920E-02 0. -1.
       -2   -1    0    0    0  501  0.00000000000E+00  0.00000000000E+00 -0.21081123278E+04  0.21081123278E+04  0.25500000920E-02 0.  1.
    10030    2    1    2    0    0  0.00000000000E+00  0.00000000000E+00 -0.63090326957E+03  0.35853213860E+04  0.35293753704E+04 0.  0.
        4    1    3    3  502    0  0.15537731142E+04  0.52418409647E+03 -0.97781578021E+03  0.19092158522E+04  0.12699999809E+01 0.  1.
       -4    1    3    3    0  502 -0.15537731142E+04 -0.52418409647E+03  0.34691251064E+03  0.16761055338E+04  0.12699999809E+01 0. -1.
</event>
<event>
 5   0  0.1006019E-06  0.2705154E+04  0.7818609E-02  0.8333335E-01
       -2   -1    0    0    0  501  0.00000000000E+00  0.00000000000E+00  0.75850978361E+03  0.75850978361E+03  0.25500000920E-02 0. -1.
        2   -1    0    0  501    0  0.00000000000E+00  0.00000000000E+00 -0.24119187477E+04  0.24119187477E+04  0.25500000920E-02 0.  1.
    10030    2    1    2    0    0  0.00000000000E+00  0.00000000000E+00 -0.16534089641E+04  0.31704285313E+04  0.27051535760E+04 0.  0.
        1    1    3    3  502    0 -0.73688977564E+03  0.79912115102E+03  0.11663403594E+03  0.10932541579E+04  0.50400001928E-02 0. -1.
       -1    1    3    3    0  502  0.73688977564E+03 -0.79912115102E+03 -0.17700430000E+04  0.20771743734E+04  0.50400001928E-02 0.  1.
</event>
<event>
 5   0  0.3278988E-07  0.3619028E+04  0.7818609E-02  0.8086147E-01
        1   -1    0    0  501    0  0.00000000000E+00  0.00000000000E+00  0.22851266699E+04  0.22851266699E+04  0.50400001928E-02 0. -1.
       -1   -1    0    0    0  501  0.00000000000E+00  0.00000000000E+00 -0.14328928532E+04  0.14328928532E+04  0.50400001928E-02 0.  1.
    10030    2    1    2    0    0  0.00000000000E+00  0.00000000000E+00  0.85223381663E+03  0.37180195231E+04  0.36190284188E+04 0.  0.
        4    1    3    3  502    0 -0.16145410118E+04 -0.27158238535E+03  0.12178057775E+04  0.20404784231E+04  0.12699999809E+01 0. -1.
       -4    1    3    3    0  502  0.16145410118E+04  0.27158238535E+03 -0.36557196083E+03  0.16775411000E+04  0.12699999809E+01 0.  1.
</event>
<event>
 5   0  0.1031659E-06  0.3583096E+04  0.7818609E-02  0.8094375E-01
        2   -1    0    0  501    0  0.00000000000E+00  0.00000000000E+00  0.21396447491E+04  0.21396447491E+04  0.25500000920E-02 0.  1.
       -2   -1    0    0    0  501  0.00000000000E+00  0.00000000000E+00 -0.15000829423E+04  0.15000829423E+04  0.25500000920E-02 0. -1.
    10030    2    1    2    0    0  0.00000000000E+00  0.00000000000E+00  0.63956180676E+03  0.36397276914E+04  0.35830961978E+04 0.  0.
        2    1    3    3  502    0 -0.41802100991E+03  0.15821358629E+04  0.10605175340E+04  0.19500238186E+04  0.25500000920E-02 0.  1.
       -2    1    3    3    0  502  0.41802100991E+03 -0.15821358629E+04 -0.42095572722E+03  0.16897038728E+04  0.25500000920E-02 0. -1.
</event>
<event>
 5   0  0.9878336E-07  0.3322123E+04  0.7818609E-02  0.8157289E-01
        2   -1    0    0  501    0  0.00000000000E+00  0.00000000000E+00  0.86346826312E+03  0.86346826312E+03  0.25500000920E-02 0. -1.
       -2   -1    0    0    0  501  0.00000000000E+00  0.00000000000E+00 -0.31953993477E+04  0.31953993477E+04  0.25500000920E-02 0.  1.
    10030    2    1    2    0    0  0.00000000000E+00  0.00000000000E+00 -0.23319310846E+04  0.40588676108E+04  0.33221233720E+04 0.  0.
        3    1    3    3  502    0 -0.14580208230E+03 -0.16083990275E+04 -0.16406039372E+04  0.23021266186E+04  0.10100000352E+00 0. -1.
       -3    1    3    3    0  502  0.14580208230E+03  0.16083990275E+04 -0.69132714741E+03  0.17567409923E+04  0.10100000352E+00 0.  1.
</event>
<event>
 5   0  0.9878977E-07  0.3630726E+04  0.7818609E-02  0.8083490E-01
        2   -1    0    0  501    0  0.00000000000E+00  0.00000000000E+00  0.27969092512E+04  0.27969092512E+04  0.25500000920E-02 0.  1.
       -2   -1    0    0    0  501  0.00000000000E+00  0.00000000000E+00 -0.11782800119E+04  0.11782800120E+04  0.25500000920E-02 0. -1.
    10030    2    1    2    0    0  0.00000000000E+00  0.00000000000E+00  0.16186292393E+04  0.39751892632E+04  0.36307256938E+04 0.  0.
        5    1    3    3  502    0  0.11783689740E+03 -0.10756868982E+04 -0.78654999501E+03  0.13377857908E+04  0.46999998093E+01 0. -1.
       -5    1    3    3    0  502 -0.11783689740E+03  0.10756868982E+04  0.24051792343E+04  0.26374034724E+04  0.46999998093E+01 0.  1.
</event>
<event>
 5   0  0.1006019E-06  0.3427081E+04  0.7818609E-02  0.8131292E-01
       -2   -1    0    0    0  501  0.00000000000E+00  0.00000000000E+00  0.17299517912E+04  0.17299517912E+04  0.25500000920E-02 0. -1.
        2   -1    0    0  501    0  0.00000000000E+00  0.00000000000E+00 -0.16972847462E+04  0.16972847462E+04  0.25500000920E-02 0.  1.
    10030    2    1    2    0    0  0.00000000000E+00  0.00000000000E+00  0.32667045030E+02  0.34272365374E+04  0.34270808492E+04 0.  0.
        1    1    3    3  502    0  0.61978960968E+02 -0.95135691487E+03  0.14402308557E+04  0.17271902874E+04  0.50400001928E-02 0. -1.
       -1    1    3    3    0  502 -0.61978960968E+02  0.95135691487E+03 -0.14075638106E+04  0.17000462500E+04  0.50400001928E-02 0.  1.
</event>
<event>
 5   0  0.3242047E-07  0.3621376E+04  0.7818609E-02  0.8085613E-01
       -1   -1    0    0    0  501  0.00000000000E+00  0.00000000000E+00  0.28140686425E+04  0.28140686426E+04  0.50400001928E-02 0.  1.
        1   -1    0    0  501    0  0.00000000000E+00  0.00000000000E+00 -0.11650716091E+04  0.11650716091E+04  0.50400001928E-02 0. -1.
    10030    2    1    2    0    0  0.00000000000E+00  0.00000000000E+00  0.16489970335E+04  0.39791402516E+04  0.36213762475E+04 0.  0.
        1    1    3    3  502    0 -0.74983600220E+03  0.70466853083E+03  0.24615809077E+04  0.26679940656E+04  0.50400001928E-02 0.  1.
       -1    1    3    3    0  502  0.74983600220E+03 -0.70466853083E+03 -0.81258387426E+03  0.13111461861E+04  0.50400001928E-02 0. -1.
</event>
<event>
 5   0  0.1031659E-06  0.3587789E+04  0.7818609E-02  0.8093295E-01
       -2   -1    0    0    0  501  0.00000000000E+00  0.00000000000E+00  0.10442805715E+04  0.10442805715E+04  0.25500000920E-02 0.  1.
        2   -1    0    0  501    0  0.00000000000E+00  0.00000000000E+00 -0.30816021875E+04  0.30816021875E+04  0.25500000920E-02 0. -1.
    10030    2    1    2    0    0  0.00000000000E+00  0.00000000000E+00 -0.20373216160E+04  0.41258827590E+04  0.35877888977E+04 0.  0.
        2    1    3    3  502    0  0.16401475272E+04 -0.68595214689E+03 -0.74304210226E+03  0.19268434873E+04  0.25500000920E-02 0.  1.
       -2    1    3    3    0  502 -0.16401475272E+04  0.68595214689E+03 -0.12942795137E+04  0.21990392717E+04  0.25500000920E-02 0. -1.
</event>
<event>
 5   0  0.3159875E-07  0.3610600E+04  0.7818609E-02  0.8088068E-01
       -1   -1    0    0    0  501  0.00000000000E+00  0.00000000000E+00  0.16084958527E+04  0.16084958527E+04  0.50400001928E-02 0.  1.
        1   -1    0    0  501    0  0.00000000000E+00  0.00000000000E+00 -0.20261834064E+04  0.20261834065E+04  0.50400001928E-02 0. -1.
    10030    2    1    2    0    0  0.00000000000E+00  0.00000000000E+00 -0.41768755375E+03  0.36346792592E+04  0.36105997320E+04 0.  0.
        5    1    3    3  502    0  0.76577945511E+03  0.68858412242E+02 -0.18531156415E+04  0.20062949249E+04  0.46999998093E+01 0. -1.
       -5    1    3    3    0  502 -0.76577945511E+03 -0.68858412242E+02  0.14354280878E+04  0.16283843342E+04  0.46999998093E+01 0.  1.
</event>
<event>
 5   0  0.9878977E-07  0.3601387E+04  0.7818609E-02  0.8090174E-01
       -2   -1    0    0    0  501  0.00000000000E+00  0.00000000000E+00  0.13204327089E+04  0.13204327089E+04  0.25500000920E-02 0.  1.
        2   -1    0    0  501    0  0.00000000000E+00  0.00000000000E+00 -0.24556328205E+04  0.24556328205E+04  0.25500000920E-02 0. -1.
    10030    2    1    2    0    0  0.00000000000E+00  0.00000000000E+00 -0.11352001117E+04  0.37760655294E+04  0.36013874533E+04 0.  0.
        5    1    3    3  502    0  0.78205555060E+03  0.15572291196E+04 -0.10433736899E+04  0.20310647853E+04  0.46999998093E+01 0. -1.
       -5    1    3    3    0  502 -0.78205555060E+03 -0.15572291196E+04 -0.91826421715E+02  0.17450007441E+04  0.46999998093E+01 0.  1.
</event>
<event>
 5   0  0.3278988E-07  0.3590212E+04  0.7818609E-02  0.8092738E-01
       -1   -1    0    0    0  501  0.00000000000E+00  0.00000000000E+00  0.14229801508E+04  0.14229801508E+04  0.50400001928E-02 0.  1.
        1   -1    0    0  501    0  0.00000000000E+00  0.00000000000E+00 -0.22645465285E+04  0.22645465285E+04  0.50400001928E-02 0. -1.
    10030    2    1    2    0    0  0.00000000000E+00  0.00000000000E+00 -0.84156637770E+03  0.36875266793E+04  0.35902115595E+04 0.  0.
        4    1    3    3  502    0  0.17374072662E+04 -0.41905644435E+03 -0.59329669541E+03  0.18831343271E+04  0.12699999809E+01 0.  1.
       -4    1    3    3    0  502 -0.17374072662E+04  0.41905644435E+03 -0.24826968230E+03  0.18043923521E+04  0.12699999809E+01 0. -1.
</event>
<event>
 5   0  0.9538919E-07  0.3635514E+04  0.7818609E-02  0.8082405E-01
       -2   -1    0    0    0  501  0.00000000000E+00  0.00000000000E+00  0.15524023488E+04  0.15524023488E+04  0.25500000920E-02 0.  1.
        2   -1    0    0  501    0  0.00000000000E+00  0.00000000000E+00 -0.21284691026E+04  0.21284691026E+04  0.25500000920E-02 0. -1.
    10030    2    1    2    0    0  0.00000000000E+00  0.00000000000E+00 -0.57606675382E+03  0.36808714514E+04  0.36355139577E+04 0.  0.
        4    1    3    3  502    0  0.95970314347E+03 -0.13756099420E+04  0.42135488475E+03  0.17294144639E+04  0.12699999809E+01 0.  1.
       -4    1    3    3    0  502 -0.95970314347E+03  0.13756099420E+04 -0.99742163857E+03  0.19514569875E+04  0.12699999809E+01 0. -1.
</event>
<event>
 5   0  0.3242047E-07  0.3668867E+04  0.7818609E-02  0.8074896E-01
       -1   -1    0    0    0  501  0.00000000000E+00  0.00000000000E+00  0.22070913237E+04  0.22070913237E+04  0.50400001928E-02 0.  1.
        1   -1    0    0  501    0  0.00000000000E+00  0.00000000000E+00 -0.15246974855E+04  0.15246974855E+04  0.50400001928E-02 0. -1.
    10030    2    1    2    0    0  0.00000000000E+00  0.00000000000E+00  0.68239383813E+03  0.37317888092E+04  0.36688671775E+04 0.  0.
        1    1    3    3  502    0 -0.17598800768E+04 -0.51233388430E+03  0.26588179151E+03  0.18521223018E+04  0.50400001928E-02 0. -1.
       -1    1    3    3    0  502  0.17598800768E+04  0.51233388430E+03  0.41651204662E+03  0.18796665074E+04  0.50400001928E-02 0.  1.
</event>
<event>
 5   0  0.1006019E-06  0.2944256E+04  0.7818609E-02  0.8259831E-01
        2   -1    0    0  501    0  0.00000000000E+00  0.00000000000E+00  0.14379860235E+04  0.14379860235E+04  0.25500000920E-02 0.  1.
       -2   -1    0    0    0  501  0.00000000000E+00  0.00000000000E+00 -0.15070802343E+04  0.15070802343E+04  0.25500000920E-02 0. -1.
    10030    2    1    2    0    0  0.00000000000E+00  0.00000000000E+00 -0.69094210847E+02  0.29450662578E+04  0.29442556364E+04 0.  0.
        1    1    3    3  502    0 -0.16268148417E+03  0.12960072344E+04 -0.71374826286E+03  0.14884678699E+04  0.50400001928E-02 0. -1.
       -1    1    3    3    0  502  0.16268148417E+03 -0.12960072344E+04  0.64465405201E+03  0.14565983879E+04  0.50400001928E-02 0.  1.
</event>
<event>
 5   0  0.3278988E-07  0.3349146E+04  0.7818609E-02  0.8150502E-01
        1   -1    0    0  501    0  0.00000000000E+00  0.00000000000E+00  0.15446190585E+04  0.15446190585E+04  0.50400001928E-02 0. -1.
       -1   -1    0    0    0  501  0.00000000000E+00  0.00000000000E+00 -0.18154599995E+04  0.18154599995E+04  0.50400001928E-02 0.  1.
    10030    2    1    2    0    0  0.00000000000E+00  0.00000000000E+00 -0.27084094098E+03  0.33600790580E+04  0.33491456315E+04 0.  0.
        4    1    3    3  502    0 -0.66999517056E+03  0.10168107674E+04  0.10178515778E+04  0.15870794286E+04  0.12699999809E+01 0. -1.
       -4    1    3    3    0  502  0.66999517056E+03 -0.10168107674E+04 -0.12886925187E+04  0.17729996295E+04  0.12699999809E+01 0.  1.
</event>
<event>
 5   0  0.9878336E-07  0.3172946E+04  0.7818609E-02  0.8195999E-01
        2   -1    0    0  501    0  0.00000000000E+00  0.00000000000E+00  0.33893394812E+04  0.33893394812E+04  0.25500000920E-02 0.  1.
       -2   -1    0    0    0  501  0.00000000000E+00  0.00000000000E+00 -0.74259194571E+03  0.74259194571E+03  0.25500000920E-02 0. -1.
    10030    2    1    2    0    0  0.00000000000E+00  0.00000000000E+00  0.26467475355E+04  0.41319314269E+04  0.31729457606E+04 0.  0.
        3    1    3    3  502    0  0.89973998137E+02  0.10116430694E+04  0.29104914193E+04  0.30826088517E+04  0.10100000352E+00 0.  1.
       -3    1    3    3    0  502 -0.89973998137E+02 -0.10116430694E+04 -0.26374388389E+03  0.10493225752E+04  0.10100000352E+00 0. -1.
</event>
<event>
 5   0  0.3365378E-07  0.3586186E+04  0.7818609E-02  0.8093663E-01
        1   -1    0    0  501    0  0.00000000000E+00  0.00000000000E+00  0.15622109289E+04  0.15622109289E+04  0.50400001928E-02 0. -1.
       -1   -1    0    0    0  501  0.00000000000E+00  0.00000000000E+00 -0.20580976224E+04  0.20580976224E+04  0.50400001928E-02 0.  1.
    10030    2    1    2    0    0  0.00000000000E+00  0.00000000000E+00 -0.49588669350E+03  0.36203085512E+04  0.35861860511E+04 0.  0.
        3    1    3    3  502    0  0.14229323742E+04 -0.10218417193E+04 -0.63405550688E+03  0.18630414480E+04  0.10100000352E+00 0.  1.
       -3    1    3    3    0  502 -0.14229323742E+04  0.10218417193E+04  0.13816881338E+03  0.17572671032E+04  0.10100000352E+00 0. -1.
</event>
<event>
 5   0  0.1006019E-06  0.3733241E+04  0.7818609E-02  0.8060635E-01
        2   -1    0    0  501    0  0.00000000000E+00  0.00000000000E+00  0.15814797387E+04  0.15814797387E+04  0.25500000920E-02 0. -1.
       -2   -1    0    0    0  501  0.00000000000E+00  0.00000000000E+00 -0.22031726122E+04  0.22031726122E+04  0.25500000920E-02 0.  1.
    10030    2    1    2    0    0  0.00000000000E+00  0.00000000000E+00 -0.62169287348E+03  0.37846523509E+04  0.37332414050E+04 0.  0.
        1    1    3    3  502    0  0.15881611171E+04 -0.97301140579E+03 -0.18558961974E+03  0.18717506342E+04  0.50400001928E-02 0.  1.
       -1    1    3    3    0  502 -0.15881611171E+04  0.97301140579E+03 -0.43610325374E+03  0.19129017167E+04  0.50400001928E-02 0. -1.
</event>
<event>
 5   0  0.3278988E-07  0.3600874E+04  0.7818609E-02  0.8090292E-01
        1   -1    0    0  501    0  0.00000000000E+00  0.00000000000E+00  0.21699736203E+04  0.21699736203E+04  0.50400001928E-02 0.  1.
       -1   -1    0    0    0  501  0.00000000000E+00  0.00000000000E+00 -0.14938307679E+04  0.14938307679E+04  0.50400001928E-02 0. -1.
    10030    2    1    2    0    0  0.00000000000E+00  0.00000000000E+00  0.67614285237E+03  0.36638043882E+04  0.36008739826E+04 0.  0.
        4    1    3    3  502    0 -0.58309039998E+02 -0.11714115502E+04  0.17279482391E+04  0.20883993138E+04  0.12699999809E+01 0.  1.
       -4    1    3    3    0  502  0.58309039998E+02  0.11714115502E+04 -0.10518053867E+04  0.15754050744E+04  0.12699999809E+01 0. -1.
</event>
<event>
 5   0  0.9878336E-07  0.3636914E+04  0.7818609E-02  0.8082088E-01
        2   -1    0    0  501    0  0.00000000000E+00  0.00000000000E+00  0.14730475987E+04  0.14730475987E+04  0.25500000920E-02 0. -1.
       -2   -1    0    0    0  501  0.00000000000E+00  0.00000000000E+00 -0.22448602249E+04  0.22448602249E+04  0.25500000920E-02 0.  1.
    10030    2    1    2    0    0  0.00000000000E+00  0.00000000000E+00 -0.77181262624E+03  0.37179078237E+04  0.36369140566E+04 0.  0.
        3    1    3    3  502    0  0.94681025419E+03 -0.11852383120E+04 -0.14110072873E+04  0.20717579706E+04  0.10100000352E+00 0.  1.
       -3    1    3    3    0  502 -0.94681025419E+03  0.11852383120E+04  0.63919466111E+03  0.16461498530E+04  0.10100000352E+00 0. -1.
</event>
<event>
 5   0  0.3278988E-07  0.3464525E+04  0.7818609E-02  0.8122249E-01
       -1   -1    0    0    0  501  0.00000000000E+00  0.00000000000E+00  0.32369589623E+04  0.32369589624E+04  0.50400001928E-02 0. -1.
        1   -1    0    0  501    0  0.00000000000E+00  0.00000000000E+00 -0.92702247714E+03  0.92702247715E+03  0.50400001928E-02 0.  1.
    10030    2    1    2    0    0  0.00000000000E+00  0.00000000000E+00  0.23099364852E+04  0.41639814395E+04  0.34645252002E+04 0.  0.
        4    1    3    3  502    0 -0.13450513582E+03  0.92694903288E+03 -0.59641655877E+03  0.11104235523E+04  0.12699999809E+01 0.  1.
       -4    1    3    3    0  502  0.13450513582E+03 -0.92694903288E+03  0.29063530440E+04  0.30535578872E+04  0.12699999809E+01 0. -1.
</event>
<event>
 5   0  0.3159875E-07  0.3549614E+04  0.7818609E-02  0.8102132E-01
       -3   -1    0    0    0  501  0.00000000000E+00  0.00000000000E+00  0.13701558343E+04  0.13701558380E+04  0.10100000352E+00 0. -1.
        3   -1    0    0  501    0  0.00000000000E+00  0.00000000000E+00 -0.22989641267E+04  0.22989641289E+04  0.10100000352E+00 0.  1.
    10030    2    1    2    0    0  0.00000000000E+00  0.00000000000E+00 -0.92880829234E+03  0.36691199669E+04  0.35496135688E+04 0.  0.
        5    1    3    3  502    0 -0.14124169161E+04 -0.79345460438E+02  0.64345387351E+03  0.15541146111E+04  0.46999998093E+01 0. -1.
       -5    1    3    3    0  502  0.14124169161E+04  0.79345460438E+02 -0.15722621658E+04  0.21150053558E+04  0.46999998093E+01 0.  1.
</event>
<event>
 5   0  0.3278988E-07  0.3555241E+04  0.7818609E-02  0.8100822E-01
        1   -1    0    0  501    0  0.00000000000E+00  0.00000000000E+00  0.14057965433E+04  0.14057965433E+04  0.50400001928E-02 0. -1.
       -1   -1    0    0    0  501  0.00000000000E+00  0.00000000000E+00 -0.22477891664E+04  0.22477891664E+04  0.50400001928E-02 0.  1.
    10030    2    1    2    0    0  0.00000000000E+00  0.00000000000E+00 -0.84199262312E+03  0.36535857097E+04  0.35552407739E+04 0.  0.
        4    1    3    3  502    0 -0.16477049419E+04  0.12996620303E+03 -0.10933965919E+04  0.19817518789E+04  0.12699999809E+01 0.  1.
       -4    1    3    3    0  502  0.16477049419E+04 -0.12996620303E+03  0.25140396875E+03  0.16718338308E+04  0.12699999809E+01 0. -1.
</event>
<event>
 5   0  0.3159875E-07  0.3611221E+04  0.7818609E-02  0.8087926E-01
       -1   -1    0    0    0  501  0.00000000000E+00  0.00000000000E+00  0.17107100251E+04  0.17107100251E+04  0.50400001928E-02 0.  1.
        1   -1    0    0  501    0  0.00000000000E+00  0.00000000000E+00 -0.19057757207E+04  0.19057757207E+04  0.50400001928E-02 0. -1.
    10030    2    1    2    0    0  0.00000000000E+00  0.00000000000E+00 -0.19506569556E+03  0.36164857459E+04  0.36112211957E+04 0.  0.
        5    1    3    3  502    0  0.31782391023E+03  0.28956361866E+03  0.16586908357E+04  0.17135158317E+04  0.46999998093E+01 0.  1.
       -5    1    3    3    0  502 -0.31782391023E+03 -0.28956361866E+03 -0.18537565312E+04  0.19029699142E+04  0.46999998093E+01 0. -1.
</event>
<event>
 5   0  0.1031659E-06  0.3507581E+04  0.7818609E-02  0.8111996E-01
        2   -1    0    0  501    0  0.00000000000E+00  0.00000000000E+00  0.19028372128E+04  0.19028372128E+04  0.25500000920E-02 0.  1.
       -2   -1    0    0    0  501  0.00000000000E+00  0.00000000000E+00 -0.16164188405E+04  0.16164188405E+04  0.25500000920E-02 0. -1.
    10030    2    1    2    0    0  0.00000000000E+00  0.00000000000E+00  0.28641837236E+03  0.35192560533E+04  0.35075814580E+04 0.  0.
        2    1    3    3  502    0  0.12044673350E+04  0.99347387446E+03 -0.65822979867E+03  0.16944020681E+04  0.25500000920E-02 0. -1.
       -2    1    3    3    0  502 -0.12044673350E+04 -0.99347387446E+03  0.94464817103E+03  0.18248539852E+04  0.25500000920E-02 0.  1.
</event>
<event>
 5   0  0.9538919E-07  0.3547190E+04  0.7818609E-02  0.8102697E-01
       -2   -1    0    0    0  501  0.00000000000E+00  0.00000000000E+00  0.17341513491E+04  0.17341513492E+04  0.25500000920E-02 0. -1.
        2   -1    0    0  501    0  0.00000000000E+00  0.00000000000E+00 -0.18139356856E+04  0.18139356856E+04  0.25500000920E-02 0.  1.
    10030    2    1    2    0    0  0.00000000000E+00  0.00000000000E+00 -0.79784336443E+02  0.35480870347E+04  0.35471898830E+04 0.  0.
        4    1    3    3  502    0  0.13831465299E+04 -0.42113618158E+03 -0.10673751211E+04  0.17971480931E+04  0.12699999809E+01 0. -1.
       -4    1    3    3    0  502 -0.13831465299E+04  0.42113618158E+03  0.98759078464E+03  0.17509389416E+04  0.12699999809E+01 0.  1.
</event>
<event>
 5   0  0.9878977E-07  0.3389495E+04  0.7818609E-02  0.8140489E-01
        2   -1    0    0  501    0  0.00000000000E+00  0.00000000000E+00  0.22699866118E+04  0.22699866118E+04  0.25500000920E-02 0.  1.
       -2   -1    0    0    0  501  0.00000000000E+00  0.00000000000E+00 -0.12652802120E+04  0.12652802120E+04  0.25500000920E-02 0. -1.
    10030    2    1    2    0    0  0.00000000000E+00  0.00000000000E+00  0.10047063998E+04  0.35352668238E+04  0.33894950311E+04 0.  0.
        5    1    3    3  502    0 -0.86785691030E+03  0.13492741479E+04  0.10721354961E+04  0.19295628922E+04  0.46999998093E+01 0.  1.
       -5    1    3    3    0  502  0.86785691030E+03 -0.13492741479E+04 -0.67429096284E+02  0.16057039316E+04  0.46999998093E+01 0. -1.
</event>
<event>
 5   0  0.9878977E-07  0.3672187E+04  0.7818609E-02  0.8074154E-01
       -2   -1    0    0    0  501  0.00000000000E+00  0.00000000000E+00  0.16920337460E+04  0.16920337460E+04  0.25500000920E-02 0.  1.
        2   -1    0    0  501    0  0.00000000000E+00  0.00000000000E+00 -0.19924187194E+04  0.19924187194E+04  0.25500000920E-02 0. -1.
    10030    2    1    2    0    0  0.00000000000E+00  0.00000000000E+00 -0.30038497338E+03  0.36844524654E+04  0.36721872008E+04 0.  0.
        5    1    3    3  502    0  0.14532773145E+03 -0.17934716043E+04 -0.51686773463E+03  0.18721204261E+04  0.46999998093E+01 0. -1.
       -5    1    3    3    0  502 -0.14532773145E+03  0.17934716043E+04  0.21648276126E+03  0.18123320393E+04  0.46999998093E+01 0.  1.
</event>
<event>
 5   0  0.3278988E-07  0.3597116E+04  0.7818609E-02  0.8091153E-01
       -1   -1    0    0    0  501  0.00000000000E+00  0.00000000000E+00  0.33981462084E+04  0.33981462084E+04  0.50400001928E-02 0. -1.
        1   -1    0    0  501    0  0.00000000000E+00  0.00000000000E+00 -0.95193418798E+03  0.95193418799E+03  0.50400001928E-02 0.  1.
    10030    2    1    2    0    0  0.00000000000E+00  0.00000000000E+00  0.24462120204E+04  0.43500803964E+04  0.35971163737E+04 0.  0.
        4    1    3    3  502    0 -0.12235105379E+04 -0.11073769211E+04  0.35816577564E+03  0.16886521304E+04  0.12699999809E+01 0.  1.
       -4    1    3    3    0  502  0.12235105379E+04  0.11073769211E+04  0.20880462447E+04  0.26614282660E+04  0.12699999809E+01 0. -1.
</event>
<event>
 5   0  0.3242047E-07  0.3482075E+04  0.7818609E-02  0.8118051E-01
        1   -1    0    0  501    0  0.00000000000E+00  0.00000000000E+00  0.25252211138E+04  0.25252211138E+04  0.50400001928E-02 0.  1.
       -1   -1    0    0    0  501  0.00000000000E+00  0.00000000000E+00 -0.12003745656E+04  0.12003745657E+04  0.50400001928E-02 0. -1.
    10030    2    1    2    0    0  0.00000000000E+00  0.00000000000E+00  0.13248465481E+04  0.37255956794E+04  0.34820747824E+04 0.  0.
        1    1    3    3  502    0  0.22458430482E+03  0.95434112002E+03 -0.87694822483E+03  0.13153871188E+04  0.50400001928E-02 0. -1.
       -1    1    3    3    0  502 -0.22458430482E+03 -0.95434112002E+03  0.22017947729E+04  0.24102085606E+04  0.50400001928E-02 0.  1.
</event>
<event>
 5   0  0.9878336E-07  0.2720291E+04  0.7818609E-02  0.8328451E-01
        2   -1    0    0  501    0  0.00000000000E+00  0.00000000000E+00  0.12312369368E+04  0.12312369368E+04  0.25500000920E-02 0. -1.
       -2   -1    0    0    0  501  0.00000000000E+00  0.00000000000E+00 -0.15025501739E+04  0.15025501739E+04  0.25500000920E-02 0.  1.
    10030    2    1    2    0    0  0.00000000000E+00  0.00000000000E+00 -0.27131323712E+03  0.27337871107E+04  0.27202906267E+04 0.  0.
        3    1    3    3  502    0  0.35728759625E+03 -0.59059535326E+03  0.10421384200E+04  0.12500039178E+04  0.10100000352E+00 0. -1.
       -3    1    3    3    0  502 -0.35728759625E+03  0.59059535326E+03 -0.13134516572E+04  0.14837831929E+04  0.10100000352E+00 0.  1.
</event>
<event>
 5   0  0.1006019E-06  0.3660813E+04  0.7818609E-02  0.8076702E-01
        2   -1    0    0  501    0  0.00000000000E+00  0.00000000000E+00  0.15652236962E+04  0.15652236962E+04  0.25500000920E-02 0. -1.
       -2   -1    0    0    0  501  0.00000000000E+00  0.00000000000E+00 -0.21405165613E+04  0.21405165613E+04  0.25500000920E-02 0.  1.
    10030    2    1    2    0    0  0.00000000000E+00  0.00000000000E+00 -0.57529286512E+03  0.37057402575E+04  0.36608126113E+04 0.  0.
        1    1    3    3  502    0 -0.59154985930E+03  0.15418025566E+04  0.51153677164E+03  0.17288019633E+04  0.50400001928E-02 0. -1.
       -1    1    3    3    0  502  0.59154985930E+03 -0.15418025566E+04 -0.10868296368E+04  0.19769382942E+04  0.50400001928E-02 0.  1.
</event>
<event>
 5   0  0.9878977E-07  0.3798738E+04  0.7818609E-02  0.8046426E-01
        2   -1    0    0  501    0  0.00000000000E+00  0.00000000000E+00  0.27317169234E+04  0.27317169234E+04  0.25500000920E-02 0.  1.
       -2   -1    0    0    0  501  0.00000000000E+00  0.00000000000E+00 -0.13206352956E+04  0.13206352956E+04  0.25500000920E-02 0. -1.
    10030    2    1    2    0    0  0.00000000000E+00  0.00000000000E+00  0.14110816278E+04  0.40523522190E+04  0.37987375728E+04 0.  0.
        5    1    3    3  502    0  0.84350016158E+02  0.17219095216E+04 -0.14485881934E+03  0.17300559220E+04  0.46999998093E+01 0. -1.
       -5    1    3    3    0  502 -0.84350016158E+02 -0.17219095216E+04  0.15559404472E+04  0.23222962970E+04  0.46999998093E+01 0.  1.
</event>
<event>
 5   0  0.3365378E-07  0.3470532E+04  0.7818609E-02  0.8120809E-01
        1   -1    0    0  501    0  0.00000000000E+00  0.00000000000E+00  0.15527987451E+04  0.15527987451E+04  0.50400001928E-02 0.  1.
       -1   -1    0    0    0  501  0.00000000000E+00  0.00000000000E+00 -0.19391748281E+04  0.19391748281E+04  0.50400001928E-02 0. -1.
    10030    2    1    2    0    0  0.00000000000E+00  0.00000000000E+00 -0.38637608295E+03  0.34919735732E+04  0.34705320858E+04 0.  0.
        3    1    3    3  502    0  0.10727917606E+04 -0.29066486983E+03 -0.15340049092E+04  0.18943440288E+04  0.10100000352E+00 0. -1.
       -3    1    3    3    0  502 -0.10727917606E+04  0.29066486983E+03  0.11476288262E+04  0.15976295444E+04  0.10100000352E+00 0.  1.
</event>
<event>
 5   0  0.1031659E-06  0.3614619E+04  0.7818609E-02  0.8087151E-01
        2   -1    0    0  501    0  0.00000000000E+00  0.00000000000E+00  0.20828977044E+04  0.20828977044E+04  0.25500000920E-02 0. -1.
       -2   -1    0    0    0  501  0.00000000000E+00  0.00000000000E+00 -0.15681839801E+04  0.15681839801E+04  0.25500000920E-02 0.  1.
    10030    2    1    2    0    0  0.00000000000E+00  0.00000000000E+00  0.51471372431E+03  0.36510816845E+04  0.36146185482E+04 0.  0.
        2    1    3    3  502    0 -0.10219557970E+04  0.13606147874E+04 -0.35763688271E+03  0.17388416807E+04  0.25500000920E-02 0.  1.
       -2    1    3    3    0  502  0.10219557970E+04 -0.13606147874E+04  0.87235060702E+03  0.19122400038E+04  0.25500000920E-02 0. -1.
</event>
<event>
 5   0  0.3242047E-07  0.3066800E+04  0.7818609E-02  0.8224909E-01
       -1   -1    0    0    0  501  0.00000000000E+00  0.00000000000E+00  0.95952699561E+03  0.95952699563E+03  0.50400001928E-02 0. -1.
        1   -1    0    0  501    0  0.00000000000E+00  0.00000000000E+00 -0.24504941026E+04  0.24504941026E+04  0.50400001928E-02 0.  1.
    10030    2    1    2    0    0  0.00000000000E+00  0.00000000000E+00 -0.14909671070E+04  0.34100210982E+04  0.30667997940E+04 0.  0.
        1    1    3    3  502    0  0.31868538238E+03  0.11249252667E+03  0.91760114932E+03  0.97785827744E+03  0.50400001928E-02 0. -1.
       -1    1    3    3    0  502 -0.31868538238E+03 -0.11249252667E+03 -0.24085682563E+04  0.24321628208E+04  0.50400001928E-02 0.  1.
</event>
<event>
 5   0  0.9878336E-07  0.3558644E+04  0.7818609E-02  0.8100031E-01
        2   -1    0    0  501    0  0.00000000000E+00  0.00000000000E+00  0.14240990850E+04  0.14240990850E+04  0.25500000920E-02 0.  1.
       -2   -1    0    0    0  501  0.00000000000E+00  0.00000000000E+00 -0.22231503677E+04  0.22231503677E+04  0.25500000920E-02 0. -1.
    10030    2    1    2    0    0  0.00000000000E+00  0.00000000000E+00 -0.79905128270E+03  0.36472494527E+04  0.35586437891E+04 0.  0.
        3    1    3    3  502    0  0.80242684068E+03  0.14389204439E+04 -0.10882739861E+04  0.19745179557E+04  0.10100000352E+00 0. -1.
       -3    1    3    3    0  502 -0.80242684068E+03 -0.14389204439E+04  0.28922270338E+03  0.16727314969E+04  0.10100000352E+00 0.  1.
</event>
<event>
 5   0  0.1031659E-06  0.3209028E+04  0.7818609E-02  0.8186437E-01
        2   -1    0    0  501    0  0.00000000000E+00  0.00000000000E+00  0.16475095018E+04  0.16475095018E+04  0.25500000920E-02 0.  1.
       -2   -1    0    0    0  501  0.00000000000E+00  0.00000000000E+00 -0.15626403949E+04  0.15626403949E+04  0.25500000920E-02 0. -1.
    10030    2    1    2    0    0  0.00000000000E+00  0.00000000000E+00  0.84869106873E+02  0.32101498967E+04  0.32090278269E+04 0.  0.
        2    1    3    3  502    0  0.92636571541E+03  0.98920828945E+03 -0.81680607279E+03  0.15823585684E+04  0.25500000920E-02 0. -1.
       -2    1    3    3    0  502 -0.92636571541E+03 -0.98920828945E+03  0.90167517966E+03  0.16277913282E+04  0.25500000920E-02 0.  1.
</event>
<event>
 5   0  0.3242047E-07  0.3600667E+04  0.7818609E-02  0.8090339E-01
       -1   -1    0    0    0  501  0.00000000000E+00  0.00000000000E+00  0.14585312204E+04  0.14585312204E+04  0.50400001928E-02 0. -1.
        1   -1    0    0  501    0  0.00000000000E+00  0.00000000000E+00 -0.22222357353E+04  0.22222357353E+04  0.50400001928E-02 0.  1.
    10030    2    1    2    0    0  0.00000000000E+00  0.00000000000E+00 -0.76370451494E+03  0.36807669557E+04  0.36006667155E+04 0.  0.
        1    1    3    3  502    0  0.38282852204E+03 -0.16627199704E+04  0.20538762097E+03  0.17185399187E+04  0.50400001928E-02 0.  1.
       -1    1    3    3    0  502 -0.38282852204E+03  0.16627199704E+04 -0.96909213591E+03  0.19622270371E+04  0.50400001928E-02 0. -1.
</event>
<event>
 5   0  0.9878977E-07  0.3619995E+04  0.7818609E-02  0.8085927E-01
       -2   -1    0    0    0  501  0.00000000000E+00  0.00000000000E+00  0.26284002592E+04  0.26284002592E+04  0.25500000920E-02 0. -1.
        2   -1    0    0  501    0  0.00000000000E+00  0.00000000000E+00 -0.12464202384E+04  0.12464202384E+04  0.25500000920E-02 0.  1.
    10030    2    1    2    0    0  0.00000000000E+00  0.00000000000E+00  0.13819800208E+04  0.38748204976E+04  0.36199951810E+04 0.  0.
        5    1    3    3  502    0 -0.27797002351E+03 -0.13342853280E+04  0.19658306395E+04  0.23920904798E+04  0.46999998093E+01 0. -1.
       -5    1    3    3    0  502  0.27797002351E+03  0.13342853280E+04 -0.58385061871E+03  0.14827300177E+04  0.46999998093E+01 0.  1.
</event>
<event>
 5   0  0.1031659E-06  0.3342462E+04  0.7818609E-02  0.8152174E-01
        2   -1    0    0  501    0  0.00000000000E+00  0.00000000000E+00  0.24083098954E+04  0.24083098954E+04  0.25500000920E-02 0.  1.
       -2   -1    0    0    0  501  0.00000000000E+00  0.00000000000E+00 -0.11597397066E+04  0.11597397066E+04  0.25500000920E-02 0. -1.
    10030    2    1    2    0    0  0.00000000000E+00  0.00000000000E+00  0.12485701889E+04  0.35680496020E+04  0.33424617344E+04 0.  0.
        2    1    3    3  502    0 -0.58945789977E+03 -0.14707594864E+04  0.56987381741E+02  0.15855099003E+04  0.25500000920E-02 0. -1.
       -2    1    3    3    0  502  0.58945789977E+03  0.14707594864E+04  0.11915828071E+04  0.19825397017E+04  0.25500000920E-02 0.  1.
</event>
<event>
 5   0  0.9878977E-07  0.3643985E+04  0.7818609E-02  0.8080490E-01
       -2   -1    0    0    0  501  0.00000000000E+00  0.00000000000E+00  0.20737625503E+04  0.20737625503E+04  0.25500000920E-02 0.  1.
        2   -1    0    0  501    0  0.00000000000E+00  0.00000000000E+00 -0.16007896111E+04  0.16007896111E+04  0.25500000920E-02 0. -1.
    10030    2    1    2    0    0  0.00000000000E+00  0.00000000000E+00  0.47297293919E+03  0.36745521614E+04  0.36439854809E+04 0.  0.
        5    1    3    3  502    0 -0.60113015594E+03 -0.17113625282E+04  0.63242288779E+02  0.18149768165E+04  0.46999998093E+01 0.  1.
       -5    1    3    3    0  502  0.60113015594E+03  0.17113625282E+04  0.40973065041E+03  0.18595753449E+04  0.46999998093E+01 0. -1.
</event>
<event>
 5   0  0.3242047E-07  0.3094382E+04  0.7818609E-02  0.8217282E-01
       -1   -1    0    0    0  501  0.00000000000E+00  0.00000000000E+00  0.15895489361E+04  0.15895489362E+04  0.50400001928E-02 0.  1.
        1   -1    0    0  501    0  0.00000000000E+00  0.00000000000E+00 -0.15059614264E+04  0.15059614265E+04  0.50400001928E-02 0. -1.
    10030    2    1    2    0    0  0.00000000000E+00  0.00000000000E+00  0.83587509702E+02  0.30955103626E+04  0.30943816076E+04 0.  0.
        1    1    3    3  502    0 -0.32926735488E+02 -0.96956985077E+02 -0.15025681275E+04  0.15060530551E+04  0.50400001928E-02 0. -1.
       -1    1    3    3    0  502  0.32926735488E+02  0.96956985077E+02  0.15861556372E+04  0.15894573075E+04  0.50400001928E-02 0.  1.
</event>
<event>
 5   0  0.9538919E-07  0.3650233E+04  0.7818609E-02  0.8079081E-01
       -2   -1    0    0    0  501  0.00000000000E+00  0.00000000000E+00  0.22592338592E+04  0.22592338592E+04  0.25500000920E-02 0. -1.
        2   -1    0    0  501    0  0.00000000000E+00  0.00000000000E+00 -0.14744158021E+04  0.14744158021E+04  0.25500000920E-02 0.  1.
    10030    2    1    2    0    0  0.00000000000E+00  0.00000000000E+00  0.78481805707E+03  0.37336496613E+04  0.36502329255E+04 0.  0.
        4    1    3    3  502    0  0.58162518574E+02  0.15004166808E+04  0.14536229450E+04  0.20898933881E+04  0.12699999809E+01 0. -1.
       -4    1    3    3    0  502 -0.58162518574E+02 -0.15004166808E+04 -0.66880488788E+03  0.16437562732E+04  0.12699999809E+01 0.  1.
</event>
<event>
 5   0  0.9878336E-07  0.2892472E+04  0.7818609E-02  0.8275121E-01
        2   -1    0    0  501    0  0.00000000000E+00  0.00000000000E+00  0.11242685526E+04  0.11242685526E+04  0.25500000920E-02 0.  1.
       -2   -1    0    0    0  501  0.00000000000E+00  0.00000000000E+00 -0.18604076989E+04  0.18604076989E+04  0.25500000920E-02 0. -1.
    10030    2    1    2    0    0  0.00000000000E+00  0.00000000000E+00 -0.73613914634E+03  0.29846762515E+04  0.28924715182E+04 0.  0.
        3    1    3    3  502    0  0.10277282670E+03  0.16513466429E+03  0.11107106525E+04  0.11276124667E+04  0.10100000352E+00 0.  1.
       -3    1    3    3    0  502 -0.10277282670E+03 -0.16513466429E+03 -0.18468497988E+04  0.18570637848E+04  0.10100000352E+00 0. -1.
</event>
<event>
 5   0  0.9878977E-07  0.2832096E+04  0.7818609E-02  0.8293372E-01
        2   -1    0    0  501    0  0.00000000000E+00  0.00000000000E+00  0.15603952778E+04  0.15603952778E+04  0.25500000920E-02 0.  1.
       -2   -1    0    0    0  501  0.00000000000E+00  0.00000000000E+00 -0.12850540177E+04  0.12850540177E+04  0.25500000920E-02 0. -1.
    10030    2    1    2    0    0  0.00000000000E+00  0.00000000000E+00  0.27534126014E+03  0.28454492955E+04  0.28320961996E+04 0.  0.
        5    1    3    3  502    0  0.67226066011E+03  0.81269859488E+03  0.10869836038E+04  0.15145853711E+04  0.46999998093E+01 0.  1.
       -5    1    3    3    0  502 -0.67226066011E+03 -0.81269859488E+03 -0.81164234369E+03  0.13308639244E+04  0.46999998093E+01 0. -1.
</event>
<event>
 5   0  0.9878336E-07  0.3650356E+04  0.7818609E-02  0.8079053E-01
       -2   -1    0    0    0  501  0.00000000000E+00  0.00000000000E+00  0.17708498985E+04  0.17708498985E+04  0.25500000920E-02 0.  1.
        2   -1    0    0  501    0  0.00000000000E+00  0.00000000000E+00 -0.18811732658E+04  0.18811732658E+04  0.25500000920E-02 0. -1.
    10030    2    1    2    0    0  0.00000000000E+00  0.00000000000E+00 -0.11032336739E+03  0.36520231643E+04  0.36503564137E+04 0.  0.
        3    1    3    3  502    0 -0.12196271632E+04 -0.11174516229E+04  0.71660932286E+03  0.18026972787E+04  0.10100000352E+00 0.  1.
       -3    1    3    3    0  502  0.12196271632E+04  0.11174516229E+04 -0.82693269025E+03  0.18493258856E+04  0.10100000352E+00 0. -1.
</event>
<event>
 5   0  0.3365378E-07  0.3588974E+04  0.7818609E-02  0.8093022E-01
       -1   -1    0    0    0  501  0.00000000000E+00  0.00000000000E+00  0.16520248633E+04  0.16520248634E+04  0.50400001928E-02 0.  1.
        1   -1    0    0  501    0  0.00000000000E+00  0.00000000000E+00 -0.19492344837E+04  0.19492344837E+04  0.50400001928E-02 0. -1.
    10030    2    1    2    0    0  0.00000000000E+00  0.00000000000E+00 -0.29720962033E+03  0.36012593470E+04  0.35889741328E+04 0.  0.
        3    1    3    3  502    0 -0.16807504226E+04  0.20505958417E+03 -0.74495593710E+03  0.18498461489E+04  0.10100000352E+00 0. -1.
       -3    1    3    3    0  502  0.16807504226E+04 -0.20505958417E+03  0.44774631677E+03  0.17514131981E+04  0.10100000352E+00 0.  1.
</event>
<event>
 5   0  0.3365378E-07  0.3615709E+04  0.7818609E-02  0.8086903E-01
        1   -1    0    0  501    0  0.00000000000E+00  0.00000000000E+00  0.28564936816E+04  0.28564936816E+04  0.50400001928E-02 0. -1.
       -1   -1    0    0    0  501  0.00000000000E+00  0.00000000000E+00 -0.11441782356E+04  0.11441782356E+04  0.50400001928E-02 0.  1.
    10030    2    1    2    0    0  0.00000000000E+00  0.00000000000E+00  0.17123154461E+04  0.40006719172E+04  0.36157090041E+04 0.  0.
        3    1    3    3  502    0 -0.17574480265E+04 -0.23866322684E+02  0.38783904754E+03  0.17998923035E+04  0.10100000352E+00 0.  1.
       -3    1    3    3    0  502  0.17574480265E+04  0.23866322684E+02  0.13244763985E+04  0.22007796136E+04  0.10100000352E+00 0. -1.
</event>
<event>
 5   0  0.9538919E-07  0.3596221E+04  0.7818609E-02  0.8091358E-01
        2   -1    0    0  501    0  0.00000000000E+00  0.00000000000E+00  0.28558246778E+04  0.28558246778E+04  0.25500000920E-02 0. -1.
       -2   -1    0    0    0  501  0.00000000000E+00  0.00000000000E+00 -0.11321430080E+04  0.11321430080E+04  0.25500000920E-02 0.  1.
    10030    2    1    2    0    0  0.00000000000E+00  0.00000000000E+00  0.17236816699E+04  0.39879676858E+04  0.35962213174E+04 0.  0.
        4    1    3    3  502    0 -0.10958548996E+03  0.15020137618E+04  0.19512768513E+04  0.24648604998E+04  0.12699999809E+01 0. -1.
       -4    1    3    3    0  502  0.10958548996E+03 -0.15020137618E+04 -0.22759518142E+03  0.15231071859E+04  0.12699999809E+01 0.  1.
</event>
<event>
 5   0  0.3159875E-07  0.3575389E+04  0.7818609E-02  0.8096153E-01
       -1   -1    0    0    0  501  0.00000000000E+00  0.00000000000E+00  0.15593822243E+04  0.15593822243E+04  0.50400001928E-02 0. -1.
        1   -1    0    0  501    0  0.00000000000E+00  0.00000000000E+00 -0.20494339906E+04  0.20494339906E+04  0.50400001928E-02 0.  1.
    10030    2    1    2    0    0  0.00000000000E+00  0.00000000000E+00 -0.49005176633E+03  0.36088162149E+04  0.35753886138E+04 0.  0.
        5    1    3    3  502    0 -0.18684178326E+03 -0.16486965025E+04  0.42656611425E+03  0.17132106552E+04  0.46999998093E+01 0. -1.
       -5    1    3    3    0  502  0.18684178326E+03  0.16486965025E+04 -0.91661788058E+03  0.18956055598E+04  0.46999998093E+01 0.  1.
</event>
<event>
 5   0  0.3159875E-07  0.3559226E+04  0.7818609E-02  0.8099896E-01
        1   -1    0    0  501    0  0.00000000000E+00  0.00000000000E+00  0.19000052815E+04  0.19000052815E+04  0.50400001928E-02 0.  1.
       -1   -1    0    0    0  501  0.00000000000E+00  0.00000000000E+00 -0.16668491060E+04  0.16668491060E+04  0.50400001928E-02 0. -1.
    10030    2    1    2    0    0  0.00000000000E+00  0.00000000000E+00  0.23315617550E+03  0.35668543875E+04  0.35592258174E+04 0.  0.
        5    1    3    3  502    0  0.79465632072E+03 -0.10083782923E+04  0.13515726823E+04  0.18641556410E+04  0.46999998093E+01 0.  1.
       -5    1    3    3    0  502 -0.79465632072E+03  0.10083782923E+04 -0.11184165068E+04  0.17026987464E+04  0.46999998093E+01 0. -1.
</event>
<event>
 5   0  0.3365378E-07  0.3467963E+04  0.7818609E-02  0.8121425E-01
       -1   -1    0    0    0  501  0.00000000000E+00  0.00000000000E+00  0.20542392474E+04  0.20542392474E+04  0.50400001928E-02 0.  1.
        1   -1    0    0  501    0  0.00000000000E+00  0.00000000000E+00 -0.14636521562E+04  0.14636521562E+04  0.50400001928E-02 0. -1.
    10030    2    1    2    0    0  0.00000000000E+00  0.00000000000E+00  0.59058709125E+03  0.35178914036E+04  0.34679629201E+04 0.  0.
        3    1    3    3  502    0 -0.62690512301E+03 -0.12706386697E+04 -0.71867689047E+03  0.15887193412E+04  0.10100000352E+00 0. -1.
       -3    1    3    3    0  502  0.62690512301E+03  0.12706386697E+04  0.13092639817E+04  0.19291720623E+04  0.10100000352E+00 0.  1.
</event>
<event>
 5   0  0.1006019E-06  0.3660786E+04  0.7818609E-02  0.8076708E-01
        2   -1    0    0  501    0  0.00000000000E+00  0.00000000000E+00  0.22154778125E+04  0.22154778125E+04  0.25500000920E-02 0. -1.
       -2   -1    0    0    0  501  0.00000000000E+00  0.00000000000E+00 -0.15122419344E+04  0.15122419344E+04  0.25500000920E-02 0.  1.
    10030    2    1    2    0    0  0.00000000000E+00  0.00000000000E+00  0.70323587809E+03  0.37277197468E+04  0.36607859553E+04 0.  0.
        1    1    3    3  502    0  0.11749549007E+04 -0.89138716194E+03 -0.75229225757E+03  0.16556067564E+04  0.50400001928E-02 0.  1.
       -1    1    3    3    0  502 -0.11749549007E+04  0.89138716194E+03  0.14555281357E+04  0.20721129904E+04  0.50400001928E-02 0. -1.
</event>
<event>
 5   0  0.3159875E-07  0.3552995E+04  0.7818609E-02  0.8101344E-01
       -1   -1    0    0    0  501  0.00000000000E+00  0.00000000000E+00  0.23188109418E+04  0.23188109418E+04  0.50400001928E-02 0. -1.
        1   -1    0    0  501    0  0.00000000000E+00  0.00000000000E+00 -0.13610178057E+04  0.13610178057E+04  0.50400001928E-02 0.  1.
    10030    2    1    2    0    0  0.00000000000E+00  0.00000000000E+00  0.95779313610E+03  0.36798287474E+04  0.35529947817E+04 0.  0.
        2    1    3    3  502    0  0.22751549030E+03  0.10155828407E+04  0.19700032573E+04  0.22280225848E+04  0.25500000920E-02 0. -1.
       -2    1    3    3    0  502 -0.22751549030E+03 -0.10155828407E+04 -0.10122101212E+04  0.14518061627E+04  0.25500000920E-02 0.  1.
</event>
<event>
 5   0  0.3365378E-07  0.3562662E+04  0.7818609E-02  0.8099098E-01
        1   -1    0    0  501    0  0.00000000000E+00  0.00000000000E+00  0.17060777343E+04  0.17060777343E+04  0.50400001928E-02 0. -1.
       -1   -1    0    0    0  501  0.00000000000E+00  0.00000000000E+00 -0.18599040141E+04  0.18599040141E+04  0.50400001928E-02 0.  1.
    10030    2    1    2    0    0  0.00000000000E+00  0.00000000000E+00 -0.15382627980E+03  0.35659817484E+04  0.35626623901E+04 0.  0.
        3    1    3    3  502    0  0.40261092907E+03 -0.33162040553E+03  0.16279274928E+04  0.17094489128E+04  0.10100000352E+00 0. -1.
       -3    1    3    3    0  502 -0.40261092907E+03  0.33162040553E+03 -0.17817537726E+04  0.18565328356E+04  0.10100000352E+00 0.  1.
</event>
<event>
 5   0  0.3159875E-07  0.4013918E+04  0.7818609E-02  0.8001745E-01
       -1   -1    0    0    0  501  0.00000000000E+00  0.00000000000E+00  0.22653247432E+04  0.22653247433E+04  0.50400001928E-02 0. -1.
        1   -1    0    0  501    0  0.00000000000E+00  0.00000000000E+00 -0.17780604082E+04  0.17780604082E+04  0.50400001928E-02 0.  1.
    10030    2    1    2    0    0  0.00000000000E+00  0.00000000000E+00  0.48726433505E+03  0.40433851515E+04  0.40139179053E+04 0.  0.
        2    1    3    3  502    0 -0.98596765970E+03 -0.31295682541E+03  0.19760863796E+04  0.22304689149E+04  0.25500000920E-02 0. -1.
       -2    1    3    3    0  502  0.98596765970E+03  0.31295682541E+03 -0.14888220446E+04  0.18129162366E+04  0.25500000920E-02 0.  1.
</event>
<event>
 5   0  0.3365378E-07  0.3640803E+04  0.7818609E-02  0.8081209E-01
        1   -1    0    0  501    0  0.00000000000E+00  0.00000000000E+00  0.21504332016E+04  0.21504332016E+04  0.50400001928E-02 0. -1.
       -1   -1    0    0    0  501  0.00000000000E+00  0.00000000000E+00 -0.15410205968E+04  0.15410205968E+04  0.50400001928E-02 0.  1.
    10030    2    1    2    0    0  0.00000000000E+00  0.00000000000E+00  0.60941260485E+03  0.36914537984E+04  0.36408031288E+04 0.  0.
        3    1    3    3  502    0  0.32821430851E+03  0.10705448745E+04 -0.11505561483E+04  0.16054813674E+04  0.10100000352E+00 0.  1.
       -3    1    3    3    0  502 -0.32821430851E+03 -0.10705448745E+04  0.17599687531E+04  0.20859724310E+04  0.10100000352E+00 0. -1.
</event>
<event>
 5   0  0.9878977E-07  0.3661787E+04  0.7818609E-02  0.8076483E-01
       -2   -1    0    0    0  501  0.00000000000E+00  0.00000000000E+00  0.10862322299E+04  0.10862322299E+04  0.25500000920E-02 0.  1.
        2   -1    0    0  501    0  0.00000000000E+00  0.00000000000E+00 -0.30860543823E+04  0.30860543823E+04  0.25500000920E-02 0. -1.
    10030    2    1    2    0    0  0.00000000000E+00  0.00000000000E+00 -0.19998221523E+04  0.41722866122E+04  0.36617873960E+04 0.  0.
        5    1    3    3  502    0 -0.12014319201E+04  0.11470026702E+04 -0.12241849195E+03  0.16655516087E+04  0.46999998093E+01 0.  1.
       -5    1    3    3    0  502  0.12014319201E+04 -0.11470026702E+04 -0.18774036604E+04  0.25067350036E+04  0.46999998093E+01 0. -1.
</event>
<event>
 5   0  0.1006019E-06  0.3778123E+04  0.7818609E-02  0.8050866E-01
       -2   -1    0    0    0  501  0.00000000000E+00  0.00000000000E+00  0.13297288214E+04  0.13297288214E+04  0.25500000920E-02 0. -1.
        2   -1    0    0  501    0  0.00000000000E+00  0.00000000000E+00 -0.26836699459E+04  0.26836699459E+04  0.25500000920E-02 0.  1.
    10030    2    1    2    0    0  0.00000000000E+00  0.00000000000E+00 -0.13539411245E+04  0.40133987673E+04  0.37781229594E+04 0.  0.
        1    1    3    3  502    0  0.16438475738E+04 -0.26299839763E+03 -0.16254028361E+04  0.23266579858E+04  0.50400001928E-02 0.  1.
       -1    1    3    3    0  502 -0.16438475738E+04  0.26299839763E+03  0.27146171155E+03  0.16867407815E+04  0.50400001928E-02 0. -1.
</event>
<event>
 5   0  0.3242047E-07  0.2719871E+04  0.7818609E-02  0.8328586E-01
       -1   -1    0    0    0  501  0.00000000000E+00  0.00000000000E+00  0.10723666791E+04  0.10723666791E+04  0.50400001928E-02 0. -1.
        1   -1    0    0  501    0  0.00000000000E+00  0.00000000000E+00 -0.17246198539E+04  0.17246198539E+04  0.50400001928E-02 0.  1.
    10030    2    1    2    0    0  0.00000000000E+00  0.00000000000E+00 -0.65225317481E+03  0.27969865329E+04  0.27198712215E+04 0.  0.
        1    1    3    3  502    0  0.19639972622E+03  0.50824382277E+03  0.95521070064E+03  0.10996872821E+04  0.50400001928E-02 0. -1.
       -1    1    3    3    0  502 -0.19639972622E+03 -0.50824382277E+03 -0.16074638755E+04  0.16972992508E+04  0.50400001928E-02 0.  1.
</event>
<event>
 5   0  0.1031659E-06  0.3704263E+04  0.7818609E-02  0.8067018E-01
        2   -1    0    0  501    0  0.00000000000E+00  0.00000000000E+00  0.19987930055E+04  0.19987930055E+04  0.25500000920E-02 0.  1.
       -2   -1    0    0    0  501  0.00000000000E+00  0.00000000000E+00 -0.17162311120E+04  0.17162311120E+04  0.25500000920E-02 0. -1.
    10030    2    1    2    0    0  0.00000000000E+00  0.00000000000E+00  0.28256189357E+03  0.37150241175E+04  0.37042628106E+04 0.  0.
        2    1    3    3  502    0  0.99487268541E+03  0.37844275617E+03  0.16614019854E+04  0.19731313025E+04  0.25500000920E-02 0.  1.
       -2    1    3    3    0  502 -0.99487268541E+03 -0.37844275617E+03 -0.13788400919E+04  0.17418928150E+04  0.25500000920E-02 0. -1.
</event>
<event>
 5   0  0.9878977E-07  0.3620617E+04  0.7818609E-02  0.8085785E-01
        2   -1    0    0  501    0  0.00000000000E+00  0.00000000000E+00  0.19754377022E+04  0.19754377023E+04  0.25500000920E-02 0.  1.
       -2   -1    0    0    0  501  0.00000000000E+00  0.00000000000E+00 -0.16589826799E+04  0.16589826799E+04  0.25500000920E-02 0. -1.
    10030    2    1    2    0    0  0.00000000000E+00  0.00000000000E+00  0.31645502237E+03  0.36344203821E+04  0.36206170376E+04 0.  0.
        5    1    3    3  502    0  0.38828262048E+03 -0.10643248715E+04  0.15755751207E+04  0.19406210028E+04  0.46999998093E+01 0.  1.
       -5    1    3    3    0  502 -0.38828262048E+03  0.10643248715E+04 -0.12591200984E+04  0.16937993793E+04  0.46999998093E+01 0. -1.
</event>
<event>
 5   0  0.3159875E-07  0.3359145E+04  0.7818609E-02  0.8148007E-01
       -1   -1    0    0    0  501  0.00000000000E+00  0.00000000000E+00  0.16053081987E+04  0.16053081987E+04  0.50400001928E-02 0. -1.
        1   -1    0    0  501    0  0.00000000000E+00  0.00000000000E+00 -0.17572720022E+04  0.17572720022E+04  0.50400001928E-02 0.  1.
    10030    2    1    2    0    0  0.00000000000E+00  0.00000000000E+00 -0.15196380351E+03  0.33625802010E+04  0.33591446248E+04 0.  0.
        2    1    3    3  502    0  0.58272611540E+03  0.87632758816E+03  0.12343424998E+04  0.16220731100E+04  0.25500000920E-02 0. -1.
       -2    1    3    3    0  502 -0.58272611540E+03 -0.87632758816E+03 -0.13863063033E+04  0.17405070910E+04  0.25500000920E-02 0.  1.
</event>
<event>
 5   0  0.1031659E-06  0.3580228E+04  0.7818609E-02  0.8095036E-01
       -2   -1    0    0    0  501  0.00000000000E+00  0.00000000000E+00  0.13889101249E+04  0.13889101249E+04  0.25500000920E-02 0. -1.
        2   -1    0    0  501    0  0.00000000000E+00  0.00000000000E+00 -0.23072099885E+04  0.23072099885E+04  0.25500000920E-02 0.  1.
    10030    2    1    2    0    0  0.00000000000E+00  0.00000000000E+00 -0.91829986362E+03  0.36961201135E+04  0.35802275422E+04 0.  0.
        2    1    3    3  502    0  0.34559123317E+02  0.86890931109E+03  0.11562074243E+04  0.14467250367E+04  0.25500000920E-02 0. -1.
       -2    1    3    3    0  502 -0.34559123317E+02 -0.86890931109E+03 -0.20745072879E+04  0.22493950768E+04  0.25500000920E-02 0.  1.
</event>
<event>
 5   0  0.9878336E-07  0.3544389E+04  0.7818609E-02  0.8103350E-01
        2   -1    0    0  501    0  0.00000000000E+00  0.00000000000E+00  0.14275627034E+04  0.14275627034E+04  0.25500000920E-02 0. -1.
       -2   -1    0    0    0  501  0.00000000000E+00  0.00000000000E+00 -0.22000250616E+04  0.22000250616E+04  0.25500000920E-02 0.  1.
    10030    2    1    2    0    0  0.00000000000E+00  0.00000000000E+00 -0.77246235818E+03  0.36275877650E+04  0.35443892136E+04 0.  0.
        3    1    3    3  502    0 -0.24876675674E+03  0.14432723292E+04  0.63506688380E+03  0.15963175976E+04  0.10100000352E+00 0. -1.
       -3    1    3    3    0  502  0.24876675674E+03 -0.14432723292E+04 -0.14075292420E+04  0.20312701673E+04  0.10100000352E+00 0.  1.
</event>
<event>
 5   0  0.3159875E-07  0.3616719E+04  0.7818609E-02  0.8086673E-01
        3   -1    0    0  501    0  0.00000000000E+00  0.00000000000E+00  0.30699215155E+04  0.30699215172E+04  0.10100000352E+00 0. -1.
       -3   -1    0    0    0  501  0.00000000000E+00  0.00000000000E+00 -0.10652270212E+04  0.10652270260E+04  0.10100000352E+00 0.  1.
    10030    2    1    2    0    0  0.00000000000E+00  0.00000000000E+00  0.20046944943E+04  0.41351485432E+04  0.36167186038E+04 0.  0.
        3    1    3    3  502    0  0.12682496361E+04 -0.32468394252E+03 -0.42398656407E+03  0.13760964423E+04  0.10100000352E+00 0.  1.
       -3    1    3    3    0  502 -0.12682496361E+04  0.32468394252E+03  0.24286810584E+04  0.27590521009E+04  0.10100000352E+00 0. -1.
</event>
<event>
 5   0  0.3159875E-07  0.3588545E+04  0.7818609E-02  0.8093121E-01
       -1   -1    0    0    0  501  0.00000000000E+00  0.00000000000E+00  0.15667245846E+04  0.15667245846E+04  0.50400001928E-02 0. -1.
        1   -1    0    0  501    0  0.00000000000E+00  0.00000000000E+00 -0.20548690974E+04  0.20548690974E+04  0.50400001928E-02 0.  1.
    10030    2    1    2    0    0  0.00000000000E+00  0.00000000000E+00 -0.48814451285E+03  0.36215936820E+04  0.35885450718E+04 0.  0.
        5    1    3    3  502    0 -0.53895996372E+03  0.16317291314E+04  0.27679525438E+03  0.17405905618E+04  0.46999998093E+01 0. -1.
       -5    1    3    3    0  502  0.53895996372E+03 -0.16317291314E+04 -0.76493976723E+03  0.18810031202E+04  0.46999998093E+01 0.  1.
</event>
<event>
 5   0  0.1006019E-06  0.3654976E+04  0.7818609E-02  0.8078014E-01
       -2   -1    0    0    0  501  0.00000000000E+00  0.00000000000E+00  0.15285652285E+04  0.15285652285E+04  0.25500000920E-02 0. -1.
        2   -1    0    0  501    0  0.00000000000E+00  0.00000000000E+00 -0.21848677400E+04  0.21848677400E+04  0.25500000920E-02 0.  1.
    10030    2    1    2    0    0  0.00000000000E+00  0.00000000000E+00 -0.65630251151E+03  0.37134329685E+04  0.36549762550E+04 0.  0.
        1    1    3    3  502    0 -0.10152923131E+04  0.14291530640E+04 -0.85256141311E+03  0.19493993753E+04  0.50400001928E-02 0. -1.
       -1    1    3    3    0  502  0.10152923131E+04 -0.14291530640E+04  0.19625890160E+03  0.17640335932E+04  0.50400001928E-02 0.  1.
</event>
<event>
 5   0  0.3278988E-07  0.3741036E+04  0.7818609E-02  0.8058928E-01
       -1   -1    0    0    0  501  0.00000000000E+00  0.00000000000E+00  0.26288785848E+04  0.26288785848E+04  0.50400001928E-02 0. -1.
        1   -1    0    0  501    0  0.00000000000E+00  0.00000000000E+00 -0.13309243447E+04  0.13309243447E+04  0.50400001928E-02 0.  1.
    10030    2    1    2    0    0  0.00000000000E+00  0.00000000000E+00  0.12979542401E+04  0.39598029295E+04  0.37410364916E+04 0.  0.
        4    1    3    3  502    0 -0.15202357753E+03  0.18614001616E+04  0.53839197697E+03  0.19436535863E+04  0.12699999809E+01 0.  1.
       -4    1    3    3    0  502  0.15202357753E+03 -0.18614001616E+04  0.75956226310E+03  0.20161493432E+04  0.12699999809E+01 0. -1.
</event>
<event>
 5   0  0.3159875E-07  0.3584088E+04  0.7818609E-02  0.8094146E-01
        1   -1    0    0  501    0  0.00000000000E+00  0.00000000000E+00  0.25774912719E+04  0.25774912719E+04  0.50400001928E-02 0. -1.
       -1   -1    0    0    0  501  0.00000000000E+00  0.00000000000E+00 -0.12459485710E+04  0.12459485711E+04  0.50400001928E-02 0.  1.
    10030    2    1    2    0    0  0.00000000000E+00  0.00000000000E+00  0.13315427008E+04  0.38234398429E+04  0.35840879270E+04 0.  0.
        2    1    3    3  502    0 -0.99159297128E+03 -0.11967402707E+04  0.16175282820E+04  0.22431766848E+04  0.25500000920E-02 0.  1.
       -2    1    3    3    0  502  0.99159297128E+03  0.11967402707E+04 -0.28598558112E+03  0.15802631581E+04  0.25500000920E-02 0. -1.
</event>
<event>
 5   0  0.9538919E-07  0.3611841E+04  0.7818609E-02  0.8087785E-01
        2   -1    0    0  501    0  0.00000000000E+00  0.00000000000E+00  0.18318473346E+04  0.18318473346E+04  0.25500000920E-02 0.  1.
       -2   -1    0    0    0  501  0.00000000000E+00  0.00000000000E+00 -0.17803601921E+04  0.17803601921E+04  0.25500000920E-02 0. -1.
    10030    2    1    2    0    0  0.00000000000E+00  0.00000000000E+00  0.51487142522E+02  0.36122075267E+04  0.36118405682E+04 0.  0.
        4    1    3    3  502    0  0.53999224551E+03  0.17143216415E+04  0.20142058809E+03  0.18086078021E+04  0.12699999809E+01 0.  1.
       -4    1    3    3    0  502 -0.53999224551E+03 -0.17143216415E+04 -0.14993344557E+03  0.18035997246E+04  0.12699999809E+01 0. -1.
</event>
<event>
 5   0  0.1031659E-06  0.3591609E+04  0.7818609E-02  0.8092417E-01
       -2   -1    0    0    0  501  0.00000000000E+00  0.00000000000E+00  0.17160750617E+04  0.17160750617E+04  0.25500000920E-02 0.  1.
        2   -1    0    0  501    0  0.00000000000E+00  0.00000000000E+00 -0.18792376792E+04  0.18792376792E+04  0.25500000920E-02 0. -1.
    10030    2    1    2    0    0  0.00000000000E+00  0.00000000000E+00 -0.16316261751E+03  0.35953127408E+04  0.35916085066E+04 0.  0.
        2    1    3    3  502    0  0.13140345145E+04 -0.11147607579E+04 -0.58760703027E+03  0.18206208487E+04  0.25500000920E-02 0.  1.
       -2    1    3    3    0  502 -0.13140345145E+04  0.11147607579E+04  0.42444441276E+03  0.17746918922E+04  0.25500000920E-02 0. -1.
</event>
<event>
 5   0  0.9878336E-07  0.3619272E+04  0.7818609E-02  0.8086092E-01
        2   -1    0    0  501    0  0.00000000000E+00  0.00000000000E+00  0.23713587253E+04  0.23713587253E+04  0.25500000920E-02 0.  1.
       -2   -1    0    0    0  501  0.00000000000E+00  0.00000000000E+00 -0.13809727138E+04  0.13809727138E+04  0.25500000920E-02 0. -1.
    10030    2    1    2    0    0  0.00000000000E+00  0.00000000000E+00  0.99038601154E+03  0.37523314391E+04  0.36192715810E+04 0.  0.
        3    1    3    3  502    0 -0.64822246170E+03 -0.98196159314E+03 -0.93025069172E+03  0.14999357619E+04  0.10100000352E+00 0. -1.
       -3    1    3    3    0  502  0.64822246170E+03  0.98196159314E+03  0.19206367033E+04  0.22523956771E+04  0.10100000352E+00 0.  1.
</event>
<event>
 5   0  0.3159875E-07  0.3319990E+04  0.7818609E-02  0.8157828E-01
       -1   -1    0    0    0  501  0.00000000000E+00  0.00000000000E+00  0.14051554131E+04  0.14051554131E+04  0.50400001928E-02 0. -1.
        1   -1    0    0  501    0  0.00000000000E+00  0.00000000000E+00 -0.19610518329E+04  0.19610518329E+04  0.50400001928E-02 0.  1.
    10030    2    1    2    0    0  0.00000000000E+00  0.00000000000E+00 -0.55589641983E+03  0.33662072460E+04  0.33199895170E+04 0.  0.
        2    1    3    3  502    0 -0.76310374393E+03  0.88005973156E+03  0.92120371822E+03  0.14850753333E+04  0.25500000920E-02 0. -1.
       -2    1    3    3    0  502  0.76310374393E+03 -0.88005973156E+03 -0.14771001380E+04  0.18811319127E+04  0.25500000920E-02 0.  1.
</event>
<event>
 5   0  0.9538919E-07  0.3608370E+04  0.7818609E-02  0.8088577E-01
        2   -1    0    0  501    0  0.00000000000E+00  0.00000000000E+00  0.10878950357E+04  0.10878950357E+04  0.25500000920E-02 0. -1.
       -2   -1    0    0    0  501  0.00000000000E+00  0.00000000000E+00 -0.29920929618E+04  0.29920929618E+04  0.25500000920E-02 0.  1.
    10030    2    1    2    0    0  0.00000000000E+00  0.00000000000E+00 -0.19041979260E+04  0.40799879975E+04  0.36083697591E+04 0.  0.
        4    1    3    3  502    0  0.37028480905E+03 -0.13359458881E+03  0.10387454538E+04  0.11108339591E+04  0.12699999809E+01 0. -1.
       -4    1    3    3    0  502 -0.37028480905E+03  0.13359458881E+03 -0.29429433798E+04  0.29691540384E+04  0.12699999809E+01 0.  1.
</event>
<event>
 5   0  0.9878336E-07  0.3543914E+04  0.7818609E-02  0.8103461E-01
       -2   -1    0    0    0  501  0.00000000000E+00  0.00000000000E+00  0.15064131682E+04  0.15064131682E+04  0.25500000920E-02 0.  1.
        2   -1    0    0  501    0  0.00000000000E+00  0.00000000000E+00 -0.20843092051E+04  0.20843092051E+04  0.25500000920E-02 0. -1.
    10030    2    1    2    0    0  0.00000000000E+00  0.00000000000E+00 -0.57789603690E+03  0.35907223734E+04  0.35439135617E+04 0.  0.
        3    1    3    3  502    0 -0.49741545832E+02  0.66547338231E+02  0.15044385711E+04  0.15067309627E+04  0.10100000352E+00 0.  1.
       -3    1    3    3    0  502  0.49741545832E+02 -0.66547338231E+02 -0.20823346080E+04  0.20839914106E+04  0.10100000352E+00 0. -1.
</event>
<event>
 5   0  0.3365378E-07  0.3546893E+04  0.7818609E-02  0.8102766E-01
       -1   -1    0    0    0  501  0.00000000000E+00  0.00000000000E+00  0.19244252229E+04  0.19244252229E+04  0.50400001928E-02 0.  1.
        1   -1    0    0  501    0  0.00000000000E+00  0.00000000000E+00 -0.16343124520E+04  0.16343124520E+04  0.50400001928E-02 0. -1.
    10030    2    1    2    0    0  0.00000000000E+00  0.00000000000E+00  0.29011277093E+03  0.35587376750E+04  0.35468927837E+04 0.  0.
        3    1    3    3  502    0  0.11108703026E+04  0.13804688890E+04  0.71429365723E+02  0.17733666702E+04  0.10100000352E+00 0.  1.
       -3    1    3    3    0  502 -0.11108703026E+04 -0.13804688890E+04  0.21868340520E+03  0.17853710047E+04  0.10100000352E+00 0. -1.
</event>
<event>
 5   0  0.9878336E-07  0.3602914E+04  0.7818609E-02  0.8089824E-01
        2   -1    0    0  501    0  0.00000000000E+00  0.00000000000E+00  0.16129730318E+04  0.16129730318E+04  0.25500000920E-02 0. -1.
       -2   -1    0    0    0  501  0.00000000000E+00  0.00000000000E+00 -0.20119667217E+04  0.20119667217E+04  0.25500000920E-02 0.  1.
    10030    2    1    2    0    0  0.00000000000E+00  0.00000000000E+00 -0.39899368994E+03  0.36249397535E+04  0.36029144109E+04 0.  0.
        3    1    3    3  502    0 -0.11915504477E+04  0.81038800608E+03 -0.12871823997E+04  0.19321903970E+04  0.10100000352E+00 0. -1.
       -3    1    3    3    0  502  0.11915504477E+04 -0.81038800608E+03  0.88818870978E+03  0.16927493566E+04  0.10100000352E+00 0.  1.
</event>
<event>
 5   0  0.3159875E-07  0.3649453E+04  0.7818609E-02  0.8079257E-01
       -1   -1    0    0    0  501  0.00000000000E+00  0.00000000000E+00  0.16462212920E+04  0.16462212920E+04  0.50400001928E-02 0. -1.
        1   -1    0    0  501    0  0.00000000000E+00  0.00000000000E+00 -0.20225871428E+04  0.20225871428E+04  0.50400001928E-02 0.  1.
    10030    2    1    2    0    0  0.00000000000E+00  0.00000000000E+00 -0.37636585080E+03  0.36688084348E+04  0.36494525723E+04 0.  0.
        2    1    3    3  502    0  0.28097124341E+03 -0.83571492166E+02 -0.19987618068E+04  0.20201430133E+04  0.25500000920E-02 0.  1.
       -2    1    3    3    0  502 -0.28097124341E+03  0.83571492166E+02  0.16223959560E+04  0.16486654215E+04  0.25500000920E-02 0. -1.
</event>
<event>
 5   0  0.3242047E-07  0.2887791E+04  0.7818609E-02  0.8276519E-01
       -1   -1    0    0    0  501  0.00000000000E+00  0.00000000000E+00  0.16523842275E+04  0.16523842275E+04  0.50400001928E-02 0.  1.
        1   -1    0    0  501    0  0.00000000000E+00  0.00000000000E+00 -0.12617127630E+04  0.12617127630E+04  0.50400001928E-02 0. -1.
    10030    2    1    2    0    0  0.00000000000E+00  0.00000000000E+00  0.39067146452E+03  0.29140969906E+04  0.28877910377E+04 0.  0.
        1    1    3    3  502    0  0.12519226439E+04  0.71363441828E+03  0.10367948925E+03  0.14447608196E+04  0.50400001928E-02 0. -1.
       -1    1    3    3    0  502 -0.12519226439E+04 -0.71363441828E+03  0.28699197527E+03  0.14693361710E+04  0.50400001928E-02 0.  1.
</event>
<event>
 5   0  0.9538919E-07  0.2787292E+04  0.7818609E-02  0.8307225E-01
       -2   -1    0    0    0  501  0.00000000000E+00  0.00000000000E+00  0.89397044908E+03  0.89397044908E+03  0.25500000920E-02 0. -1.
        2   -1    0    0  501    0  0.00000000000E+00  0.00000000000E+00 -0.21726099982E+04  0.21726099982E+04  0.25500000920E-02 0.  1.
    10030    2    1    2    0    0  0.00000000000E+00  0.00000000000E+00 -0.12786395491E+04  0.30665804473E+04  0.27872919731E+04 0.  0.
        4    1    3    3  502    0 -0.42872900947E+03  0.64070204364E+03  0.63802211459E+03  0.10006905135E+04  0.12699999809E+01 0. -1.
       -4    1    3    3    0  502  0.42872900947E+03 -0.64070204364E+03 -0.19166616637E+04  0.20658899337E+04  0.12699999809E+01 0.  1.
</event>
<event>
 5   0  0.9538919E-07  0.3603490E+04  0.7818609E-02  0.8089693E-01
       -2   -1    0    0    0  501  0.00000000000E+00  0.00000000000E+00  0.32440804378E+04  0.32440804378E+04  0.25500000920E-02 0.  1.
        2   -1    0    0  501    0  0.00000000000E+00  0.00000000000E+00 -0.10006797662E+04  0.10006797662E+04  0.25500000920E-02 0. -1.
    10030    2    1    2    0    0  0.00000000000E+00  0.00000000000E+00  0.22434006716E+04  0.42447602040E+04  0.36034903380E+04 0.  0.
        4    1    3    3  502    0  0.15792958320E+04  0.19958768990E+03  0.12754743663E+03  0.15969597780E+04  0.12699999809E+01 0. -1.
       -4    1    3    3    0  502 -0.15792958320E+04 -0.19958768990E+03  0.21158532350E+04  0.26478004260E+04  0.12699999809E+01 0.  1.
</event>
<event>
 5   0  0.9538919E-07  0.3618354E+04  0.7818609E-02  0.8086300E-01
        2   -1    0    0  501    0  0.00000000000E+00  0.00000000000E+00  0.13145560949E+04  0.13145560949E+04  0.25500000920E-02 0.  1.
       -2   -1    0    0    0  501  0.00000000000E+00  0.00000000000E+00 -0.24899058739E+04  0.24899058739E+04  0.25500000920E-02 0. -1.
    10030    2    1    2    0    0  0.00000000000E+00  0.00000000000E+00 -0.11753497790E+04  0.38044619688E+04  0.36183537374E+04 0.  0.
        4    1    3    3  502    0  0.14340156680E+04  0.98987344702E+03 -0.75950290507E+02  0.17441388812E+04  0.12699999809E+01 0. -1.
       -4    1    3    3    0  502 -0.14340156680E+04 -0.98987344702E+03 -0.10993994885E+04  0.20603230876E+04  0.12699999809E+01 0.  1.
</event>
<event>
 5   0  0.3242047E-07  0.3639511E+04  0.7818609E-02  0.8081501E-01
       -1   -1    0    0    0  501  0.00000000000E+00  0.00000000000E+00  0.25954751511E+04  0.25954751511E+04  0.50400001928E-02 0.  1.
        1   -1    0    0  501    0  0.00000000000E+00  0.00000000000E+00 -0.12758781010E+04  0.12758781010E+04  0.50400001928E-02 0. -1.
    10030    2    1    2    0    0  0.00000000000E+00  0.00000000000E+00  0.13195970501E+04  0.38713532521E+04  0.36395109051E+04 0.  0.
        1    1    3    3  502    0  0.22074073035E+03  0.15794684288E+04 -0.27242095932E+03  0.16179184672E+04  0.50400001928E-02 0. -1.
       -1    1    3    3    0  502 -0.22074073035E+03 -0.15794684288E+04  0.15920180094E+04  0.22534347849E+04  0.50400001928E-02 0.  1.
</event>
<event>
 5   0  0.9878336E-07  0.3628950E+04  0.7818609E-02  0.8083892E-01
        2   -1    0    0  501    0  0.00000000000E+00  0.00000000000E+00  0.18033161934E+04  0.18033161934E+04  0.25500000920E-02 0. -1.
       -2   -1    0    0    0  501  0.00000000000E+00  0.00000000000E+00 -0.18257033380E+04  0.18257033380E+04  0.25500000920E-02 0.  1.
    10030    2    1    2    0    0  0.00000000000E+00  0.00000000000E+00 -0.22387144658E+02  0.36290195314E+04  0.36289504785E+04 0.  0.
        3    1    3    3  502    0 -0.98307496151E+02 -0.26650338880E+03 -0.18033303386E+04  0.18255653207E+04  0.10100000352E+00 0.  1.
       -3    1    3    3    0  502  0.98307496151E+02  0.26650338880E+03  0.17809431939E+04  0.18034542107E+04  0.10100000352E+00 0. -1.
</event>
<event>
 5   0  0.1006019E-06  0.3638132E+04  0.7818609E-02  0.8081813E-01
       -2   -1    0    0    0  501  0.00000000000E+00  0.00000000000E+00  0.13834886741E+04  0.13834886741E+04  0.25500000920E-02 0. -1.
        2   -1    0    0  501    0  0.00000000000E+00  0.00000000000E+00 -0.23917804882E+04  0.23917804882E+04  0.25500000920E-02 0.  1.
    10030    2    1    2    0    0  0.00000000000E+00  0.00000000000E+00 -0.10082918141E+04  0.37752691623E+04  0.36381320571E+04 0.  0.
        1    1    3    3  502    0  0.16341515810E+04 -0.60000913784E+03  0.43515779362E+02  0.17413661241E+04  0.50400001928E-02 0. -1.
       -1    1    3    3    0  502 -0.16341515810E+04  0.60000913784E+03 -0.10518075935E+04  0.20339030382E+04  0.50400001928E-02 0.  1.
</event>
<event>
 5   0  0.3159875E-07  0.3633702E+04  0.7818609E-02  0.8082815E-01
        1   -1    0    0  501    0  0.00000000000E+00  0.00000000000E+00  0.18807417128E+04  0.18807417128E+04  0.50400001928E-02 0. -1.
       -1   -1    0    0    0  501  0.00000000000E+00  0.00000000000E+00 -0.17551308817E+04  0.17551308817E+04  0.50400001928E-02 0.  1.
    10030    2    1    2    0    0  0.00000000000E+00  0.00000000000E+00  0.12561083113E+03  0.36358725945E+04  0.36337021675E+04 0.  0.
        2    1    3    3  502    0  0.15760521658E+04  0.87616667146E+01 -0.84157662139E+03  0.17866920288E+04  0.25500000920E-02 0.  1.
       -2    1    3    3    0  502 -0.15760521658E+04 -0.87616667146E+01  0.96718745252E+03  0.18491805657E+04  0.25500000920E-02 0. -1.
</event>
<event>
 5   0  0.3242047E-07  0.3603988E+04  0.7818609E-02  0.8089579E-01
        1   -1    0    0  501    0  0.00000000000E+00  0.00000000000E+00  0.14582872668E+04  0.14582872668E+04  0.50400001928E-02 0. -1.
       -1   -1    0    0    0  501  0.00000000000E+00  0.00000000000E+00 -0.22267102690E+04  0.22267102690E+04  0.50400001928E-02 0.  1.
    10030    2    1    2    0    0  0.00000000000E+00  0.00000000000E+00 -0.76842300225E+03  0.36849975358E+04  0.36039884751E+04 0.  0.
        1    1    3    3  502    0  0.12267466322E+04  0.35895368861E+03 -0.16829706729E+04  0.21133256578E+04  0.50400001928E-02 0.  1.
       -1    1    3    3    0  502 -0.12267466322E+04 -0.35895368861E+03  0.91454767069E+03  0.15716718780E+04  0.50400001928E-02 0. -1.
</event>
<event>
 5   0  0.3159875E-07  0.3635125E+04  0.7818609E-02  0.8082493E-01
       -1   -1    0    0    0  501  0.00000000000E+00  0.00000000000E+00  0.19994917558E+04  0.19994917558E+04  0.50400001928E-02 0.  1.
        1   -1    0    0  501    0  0.00000000000E+00  0.00000000000E+00 -0.16521866714E+04  0.16521866714E+04  0.50400001928E-02 0. -1.
    10030    2    1    2    0    0  0.00000000000E+00  0.00000000000E+00  0.34730508439E+03  0.36516784273E+04  0.36351251030E+04 0.  0.
        2    1    3    3  502    0 -0.44196779191E+03 -0.17412254100E+04 -0.10388834488E+03  0.17994427597E+04  0.25500000920E-02 0.  1.
       -2    1    3    3    0  502  0.44196779191E+03  0.17412254100E+04  0.45119342928E+03  0.18522356675E+04  0.25500000920E-02 0. -1.
</event>
<event>
 5   0  0.9878336E-07  0.3608646E+04  0.7818609E-02  0.8088514E-01
        2   -1    0    0  501    0  0.00000000000E+00  0.00000000000E+00  0.32521471002E+04  0.32521471002E+04  0.25500000920E-02 0. -1.
       -2   -1    0    0    0  501  0.00000000000E+00  0.00000000000E+00 -0.10010558247E+04  0.10010558247E+04  0.25500000920E-02 0.  1.
    10030    2    1    2    0    0  0.00000000000E+00  0.00000000000E+00  0.22510912755E+04  0.42532029250E+04  0.36086456172E+04 0.  0.
        3    1    3    3  502    0  0.10874391652E+04 -0.10745146275E+04 -0.40046690892E+01  0.15287647531E+04  0.10100000352E+00 0.  1.
       -3    1    3    3    0  502 -0.10874391652E+04  0.10745146275E+04  0.22550959446E+04  0.27244381719E+04  0.10100000352E+00 0. -1.
</event>
<event>
 5   0  0.3159875E-07  0.3446301E+04  0.7818609E-02  0.8126635E-01
       -1   -1    0    0    0  501  0.00000000000E+00  0.00000000000E+00  0.20171162591E+04  0.20171162591E+04  0.50400001928E-02 0. -1.
        1   -1    0    0  501    0  0.00000000000E+00  0.00000000000E+00 -0.14720261991E+04  0.14720261991E+04  0.50400001928E-02 0.  1.
    10030    2    1    2    0    0  0.00000000000E+00  0.00000000000E+00  0.54509005996E+03  0.34891424582E+04  0.34463011941E+04 0.  0.
        2    1    3    3  502    0 -0.12776640087E+04  0.89532121709E+03  0.10132285542E+04  0.18602842536E+04  0.25500000920E-02 0. -1.
       -2    1    3    3    0  502  0.12776640087E+04 -0.89532121709E+03 -0.46813849426E+03  0.16288582046E+04  0.25500000920E-02 0.  1.
</event>
<event>
 5   0  0.9538919E-07  0.3674054E+04  0.7818609E-02  0.8073736E-01
        2   -1    0    0  501    0  0.00000000000E+00  0.00000000000E+00  0.19524601562E+04  0.19524601562E+04  0.25500000920E-02 0.  1.
       -2   -1    0    0    0  501  0.00000000000E+00  0.00000000000E+00 -0.17284185705E+04  0.17284185705E+04  0.25500000920E-02 0. -1.
    10030    2    1    2    0    0  0.00000000000E+00  0.00000000000E+00  0.22404158571E+03  0.36808787266E+04  0.36740541052E+04 0.  0.
        4    1    3    3  502    0  0.94347223550E+03  0.11175326581E+04 -0.10016409228E+04  0.17726548599E+04  0.12699999809E+01 0. -1.
       -4    1    3    3    0  502 -0.94347223550E+03 -0.11175326581E+04  0.12256825085E+04  0.19082238668E+04  0.12699999809E+01 0.  1.
</event>
<event>
 5   0  0.3365378E-07  0.3637862E+04  0.7818609E-02  0.8081874E-01
        1   -1    0    0  501    0  0.00000000000E+00  0.00000000000E+00  0.31103648434E+04  0.31103648434E+04  0.50400001928E-02 0. -1.
       -1   -1    0    0    0  501  0.00000000000E+00  0.00000000000E+00 -0.10637046994E+04  0.10637046995E+04  0.50400001928E-02 0.  1.
    10030    2    1    2    0    0  0.00000000000E+00  0.00000000000E+00  0.20466601439E+04  0.41740695429E+04  0.36378618451E+04 0.  0.
        3    1    3    3  502    0  0.11354165420E+04  0.11691849702E+04  0.19500581144E+04  0.25414348070E+04  0.10100000352E+00 0. -1.
       -3    1    3    3    0  502 -0.11354165420E+04 -0.11691849702E+04  0.96602029524E+02  0.16326347359E+04  0.10100000352E+00 0.  1.
</event>
<event>
 5   0  0.3242047E-07  0.3177692E+04  0.7818609E-02  0.8194734E-01
       -1   -1    0    0    0  501  0.00000000000E+00  0.00000000000E+00  0.17603026192E+04  0.17603026192E+04  0.50400001928E-02 0. -1.
        1   -1    0    0  501    0  0.00000000000E+00  0.00000000000E+00 -0.14340895976E+04  0.14340895976E+04  0.50400001928E-02 0.  1.
    10030    2    1    2    0    0  0.00000000000E+00  0.00000000000E+00  0.32621302159E+03  0.31943922168E+04  0.31776920398E+04 0.  0.
        1    1    3    3  502    0  0.14093950642E+04 -0.73020788412E+03  0.93216499716E+02  0.15900589035E+04  0.50400001928E-02 0. -1.
       -1    1    3    3    0  502 -0.14093950642E+04  0.73020788412E+03  0.23299652187E+03  0.16043333133E+04  0.50400001928E-02 0.  1.
</event>
<event>
 5   0  0.9538919E-07  0.3657830E+04  0.7818609E-02  0.8077372E-01
        2   -1    0    0  501    0  0.00000000000E+00  0.00000000000E+00  0.13180671128E+04  0.13180671128E+04  0.25500000920E-02 0.  1.
       -2   -1    0    0    0  501  0.00000000000E+00  0.00000000000E+00 -0.25377544005E+04  0.25377544005E+04  0.25500000920E-02 0. -1.
    10030    2    1    2    0    0  0.00000000000E+00  0.00000000000E+00 -0.12196872877E+04  0.38558215134E+04  0.36578302945E+04 0.  0.
        4    1    3    3  502    0  0.68323380477E+03 -0.44155274010E+03 -0.23365400590E+04  0.24741055585E+04  0.12699999809E+01 0. -1.
       -4    1    3    3    0  502 -0.68323380477E+03  0.44155274010E+03  0.11168527713E+04  0.13817159549E+04  0.12699999809E+01 0.  1.
</event>
<event>
 5   0  0.9878977E-07  0.3588553E+04  0.7818609E-02  0.8093119E-01
        2   -1    0    0  501    0  0.00000000000E+00  0.00000000000E+00  0.17912665833E+04  0.17912665833E+04  0.25500000920E-02 0. -1.
       -2   -1    0    0    0  501  0.00000000000E+00  0.00000000000E+00 -0.17972910884E+04  0.17972910884E+04  0.25500000920E-02 0.  1.
    10030    2    1    2    0    0  0.00000000000E+00  0.00000000000E+00 -0.60245051238E+01  0.35885576717E+04  0.35885526147E+04 0.  0.
        5    1    3    3  502    0 -0.13979650032E+02  0.17932165858E+04  0.56856210817E+02  0.17941783281E+04  0.46999998093E+01 0.  1.
       -5    1    3    3    0  502  0.13979650032E+02 -0.17932165858E+04 -0.62880715940E+02  0.17943793436E+04  0.46999998093E+01 0. -1.
</event>
<event>
 5   0  0.3159875E-07  0.3252390E+04  0.7818609E-02  0.8175116E-01
        1   -1    0    0  501    0  0.00000000000E+00  0.00000000000E+00  0.17611186229E+04  0.17611186229E+04  0.50400001928E-02 0.  1.
       -1   -1    0    0    0  501  0.00000000000E+00  0.00000000000E+00 -0.15016082847E+04  0.15016082847E+04  0.50400001928E-02 0. -1.
    10030    2    1    2    0    0  0.00000000000E+00  0.00000000000E+00  0.25951033816E+03  0.32627269076E+04  0.32523900839E+04 0.  0.
        2    1    3    3  502    0 -0.25452262238E+03  0.11994964538E+04 -0.94178607434E+03  0.15461353491E+04  0.25500000920E-02 0. -1.
       -2    1    3    3    0  502  0.25452262238E+03 -0.11994964538E+04  0.12012964125E+04  0.17165915585E+04  0.25500000920E-02 0.  1.
</event>
<event>
 5   0  0.3278988E-07  0.3392759E+04  0.7818609E-02  0.8139686E-01
       -1   -1    0    0    0  501  0.00000000000E+00  0.00000000000E+00  0.11753348567E+04  0.11753348567E+04  0.50400001928E-02 0. -1.
        1   -1    0    0  501    0  0.00000000000E+00  0.00000000000E+00 -0.24484117963E+04  0.24484117963E+04  0.50400001928E-02 0.  1.
    10030    2    1    2    0    0  0.00000000000E+00  0.00000000000E+00 -0.12730769396E+04  0.36237466530E+04  0.33927591885E+04 0.  0.
        4    1    3    3  502    0 -0.12417356015E+04 -0.31301210366E+03 -0.18248579860E+04  0.22293479233E+04  0.12699999809E+01 0.  1.
       -4    1    3    3    0  502  0.12417356015E+04  0.31301210366E+03  0.55178104646E+03  0.13943987297E+04  0.12699999809E+01 0. -1.
</event>
<event>
 5   0  0.3242047E-07  0.3629671E+04  0.7818609E-02  0.8083729E-01
        1   -1    0    0  501    0  0.00000000000E+00  0.00000000000E+00  0.24556815793E+04  0.24556815793E+04  0.50400001928E-02 0. -1.
       -1   -1    0    0    0  501  0.00000000000E+00  0.00000000000E+00 -0.13412275332E+04  0.13412275332E+04  0.50400001928E-02 0.  1.
    10030    2    1    2    0    0  0.00000000000E+00  0.00000000000E+00  0.11144540461E+04  0.37969091126E+04  0.36296709201E+04 0.  0.
        1    1    3    3  502    0  0.12699760002E+04  0.25780864164E+03  0.18863287486E+04  0.22885673432E+04  0.50400001928E-02 0. -1.
       -1    1    3    3    0  502 -0.12699760002E+04 -0.25780864164E+03 -0.77187470251E+03  0.15083417693E+04  0.50400001928E-02 0.  1.
</event>
<event>
 5   0  0.3159875E-07  0.3584940E+04  0.7818609E-02  0.8093950E-01
       -1   -1    0    0    0  501  0.00000000000E+00  0.00000000000E+00  0.16753377073E+04  0.16753377073E+04  0.50400001928E-02 0. -1.
        1   -1    0    0  501    0  0.00000000000E+00  0.00000000000E+00 -0.19177913594E+04  0.19177913594E+04  0.50400001928E-02 0.  1.
    10030    2    1    2    0    0  0.00000000000E+00  0.00000000000E+00 -0.24245365204E+03  0.35931290667E+04  0.35849397089E+04 0.  0.
        5    1    3    3  502    0 -0.20834364557E+03  0.17445888278E+04 -0.47690200325E+03  0.18205644354E+04  0.46999998093E+01 0.  1.
       -5    1    3    3    0  502  0.20834364557E+03 -0.17445888278E+04  0.23444835120E+03  0.17725646313E+04  0.46999998093E+01 0. -1.
</event>
<event>
 5   0  0.3365378E-07  0.3576688E+04  0.7818609E-02  0.8095852E-01
       -1   -1    0    0    0  501  0.00000000000E+00  0.00000000000E+00  0.16140926130E+04  0.16140926130E+04  0.50400001928E-02 0. -1.
        1   -1    0    0  501    0  0.00000000000E+00  0.00000000000E+00 -0.19814071924E+04  0.19814071924E+04  0.50400001928E-02 0.  1.
    10030    2    1    2    0    0  0.00000000000E+00  0.00000000000E+00 -0.36731457937E+03  0.35954998054E+04  0.35766882517E+04 0.  0.
        3    1    3    3  502    0 -0.45609004634E+03 -0.53627444710E+03 -0.18362520027E+04  0.19665782060E+04  0.10100000352E+00 0.  1.
       -3    1    3    3    0  502  0.45609004634E+03  0.53627444710E+03  0.14689374233E+04  0.16289215993E+04  0.10100000352E+00 0. -1.
</event>
<event>
 5   0  0.1006019E-06  0.3598292E+04  0.7818609E-02  0.8090883E-01
        2   -1    0    0  501    0  0.00000000000E+00  0.00000000000E+00  0.25724537548E+04  0.25724537548E+04  0.25500000920E-02 0. -1.
       -2   -1    0    0    0  501  0.00000000000E+00  0.00000000000E+00 -0.12583032560E+04  0.12583032560E+04  0.25500000920E-02 0.  1.
    10030    2    1    2    0    0  0.00000000000E+00  0.00000000000E+00  0.13141504988E+04  0.38307570108E+04  0.35982923370E+04 0.  0.
        1    1    3    3  502    0 -0.44053720994E+03  0.17429124325E+04  0.73317884831E+03  0.19414860299E+04  0.50400001928E-02 0.  1.
       -1    1    3    3    0  502  0.44053720994E+03 -0.17429124325E+04  0.58097165047E+03  0.18892709809E+04  0.50400001928E-02 0. -1.
</event>
<event>
 5   0  0.3159875E-07  0.3353528E+04  0.7818609E-02  0.8149407E-01
        1   -1    0    0  501    0  0.00000000000E+00  0.00000000000E+00  0.21398398441E+04  0.21398398441E+04  0.50400001928E-02 0. -1.
       -1   -1    0    0    0  501  0.00000000000E+00  0.00000000000E+00 -0.13139009514E+04  0.13139009514E+04  0.50400001928E-02 0.  1.
    10030    2    1    2    0    0  0.00000000000E+00  0.00000000000E+00  0.82593889273E+03  0.34537407956E+04  0.33535280569E+04 0.  0.
        5    1    3    3  502    0  0.67761947029E+03 -0.15259649139E+04  0.57178008250E+03  0.17648488938E+04  0.46999998093E+01 0. -1.
       -5    1    3    3    0  502 -0.67761947029E+03  0.15259649139E+04  0.25415881023E+03  0.16888919018E+04  0.46999998093E+01 0.  1.
</event>
<event>
 5   0  0.3242047E-07  0.3595868E+04  0.7818609E-02  0.8091439E-01
       -1   -1    0    0    0  501  0.00000000000E+00  0.00000000000E+00  0.14415647087E+04  0.14415647087E+04  0.50400001928E-02 0. -1.
        1   -1    0    0  501    0  0.00000000000E+00  0.00000000000E+00 -0.22424017171E+04  0.22424017171E+04  0.50400001928E-02 0.  1.
    10030    2    1    2    0    0  0.00000000000E+00  0.00000000000E+00 -0.80083700845E+03  0.36839664258E+04  0.35958682835E+04 0.  0.
        1    1    3    3  502    0 -0.93303450900E+03  0.46414859610E+03 -0.19014348233E+04  0.21682808171E+04  0.50400001928E-02 0.  1.
       -1    1    3    3    0  502  0.93303450900E+03 -0.46414859610E+03  0.11005978149E+04  0.15156856087E+04  0.50400001928E-02 0. -1.
</event>
<event>
 5   0  0.3365378E-07  0.3803581E+04  0.7818609E-02  0.8045387E-01
       -1   -1    0    0    0  501  0.00000000000E+00  0.00000000000E+00  0.14065994945E+04  0.14065994945E+04  0.50400001928E-02 0.  1.
        1   -1    0    0  501    0  0.00000000000E+00  0.00000000000E+00 -0.25713127734E+04  0.25713127734E+04  0.50400001928E-02 0. -1.
    10030    2    1    2    0    0  0.00000000000E+00  0.00000000000E+00 -0.11647132790E+04  0.39779122679E+04  0.38035810744E+04 0.  0.
        3    1    3    3  502    0  0.18892474952E+04 -0.14461717479E+03 -0.41166774176E+03  0.19389792586E+04  0.10100000352E+00 0. -1.
       -3    1    3    3    0  502 -0.18892474952E+04  0.14461717479E+03 -0.75304553720E+03  0.20389330094E+04  0.10100000352E+00 0.  1.
</event>
<event>
 5   0  0.3278988E-07  0.3594797E+04  0.7818609E-02  0.8091685E-01
        1   -1    0    0  501    0  0.00000000000E+00  0.00000000000E+00  0.19510028507E+04  0.19510028507E+04  0.50400001928E-02 0.  1.
       -1   -1    0    0    0  501  0.00000000000E+00  0.00000000000E+00 -0.16558873647E+04  0.16558873647E+04  0.50400001928E-02 0. -1.
    10030    2    1    2    0    0  0.00000000000E+00  0.00000000000E+00  0.29511548602E+03  0.36068902154E+04  0.35947967781E+04 0.  0.
        4    1    3    3  502    0  0.13862616915E+04 -0.73466266834E+03  0.10275422204E+04  0.18754453714E+04  0.12699999809E+01 0.  1.
       -4    1    3    3    0  502 -0.13862616915E+04  0.73466266834E+03 -0.73242673441E+03  0.17314448440E+04  0.12699999809E+01 0. -1.
</event>
<event>
 5   0  0.3365378E-07  0.3602129E+04  0.7818609E-02  0.8090004E-01
       -1   -1    0    0    0  501  0.00000000000E+00  0.00000000000E+00  0.21037001070E+04  0.21037001070E+04  0.50400001928E-02 0. -1.
        1   -1    0    0  501    0  0.00000000000E+00  0.00000000000E+00 -0.15419654805E+04  0.15419654806E+04  0.50400001928E-02 0.  1.
    10030    2    1    2    0    0  0.00000000000E+00  0.00000000000E+00  0.56173462645E+03  0.36456655876E+04  0.36021287853E+04 0.  0.
        3    1    3    3  502    0  0.17523458624E+04  0.41565424749E+03  0.26197457603E+03  0.18199217466E+04  0.10100000352E+00 0. -1.
       -3    1    3    3    0  502 -0.17523458624E+04 -0.41565424749E+03  0.29976005042E+03  0.18257438410E+04  0.10100000352E+00 0.  1.
</event>
<event>
 5   0  0.1006019E-06  0.3611757E+04  0.7818609E-02  0.8087804E-01
       -2   -1    0    0    0  501  0.00000000000E+00  0.00000000000E+00  0.17824140737E+04  0.17824140737E+04  0.25500000920E-02 0.  1.
        2   -1    0    0  501    0  0.00000000000E+00  0.00000000000E+00 -0.18296518858E+04  0.18296518858E+04  0.25500000920E-02 0. -1.
    10030    2    1    2    0    0  0.00000000000E+00  0.00000000000E+00 -0.47237812067E+02  0.36120659595E+04  0.36117570633E+04 0.  0.
        1    1    3    3  502    0  0.14818870347E+03 -0.10891881905E+04  0.14093003626E+04  0.17872935736E+04  0.50400001928E-02 0.  1.
       -1    1    3    3    0  502 -0.14818870347E+03  0.10891881905E+04 -0.14565381746E+04  0.18247723859E+04  0.50400001928E-02 0. -1.
</event>
<event>
 5   0  0.9878336E-07  0.3123374E+04  0.7818609E-02  0.8209352E-01
        2   -1    0    0  501    0  0.00000000000E+00  0.00000000000E+00  0.16303849050E+04  0.16303849050E+04  0.25500000920E-02 0.  1.
       -2   -1    0    0    0  501  0.00000000000E+00  0.00000000000E+00 -0.14958836415E+04  0.14958836415E+04  0.25500000920E-02 0. -1.
    10030    2    1    2    0    0  0.00000000000E+00  0.00000000000E+00  0.13450126351E+03  0.31262685465E+04  0.31233738866E+04 0.  0.
        3    1    3    3  502    0  0.82061354467E+03 -0.12338310479E+04  0.56078006148E+03  0.15843673602E+04  0.10100000352E+00 0. -1.
       -3    1    3    3    0  502 -0.82061354467E+03  0.12338310479E+04 -0.42627879797E+03  0.15419011863E+04  0.10100000352E+00 0.  1.
</event>
<event>
 5   0  0.3365378E-07  0.3571946E+04  0.7818609E-02  0.8096948E-01
       -1   -1    0    0    0  501  0.00000000000E+00  0.00000000000E+00  0.14444800636E+04  0.14444800636E+04  0.50400001928E-02 0. -1.
        1   -1    0    0  501    0  0.00000000000E+00  0.00000000000E+00 -0.22081988790E+04  0.22081988790E+04  0.50400001928E-02 0.  1.
    10030    2    1    2    0    0  0.00000000000E+00  0.00000000000E+00 -0.76371881540E+03  0.36526789426E+04  0.35719458323E+04 0.  0.
        3    1    3    3  502    0 -0.44072635297E+03 -0.14100497868E+04  0.64442709908E+03  0.16117587957E+04  0.10100000352E+00 0. -1.
       -3    1    3    3    0  502  0.44072635297E+03  0.14100497868E+04 -0.14081459145E+04  0.20409201469E+04  0.10100000352E+00 0.  1.
</event>
<event>
 5   0  0.3159875E-07  0.3549500E+04  0.7818609E-02  0.8102158E-01
       -4   -1    0    0    0  501  0.00000000000E+00  0.00000000000E+00  0.19894729546E+04  0.19894733600E+04  0.12699999809E+01 0.  1.
        4   -1    0    0  501    0  0.00000000000E+00  0.00000000000E+00 -0.15832013428E+04  0.15832018522E+04  0.12699999809E+01 0. -1.
    10030    2    1    2    0    0  0.00000000000E+00  0.00000000000E+00  0.40627161179E+03  0.35726752122E+04  0.35495001830E+04 0.  0.
        1    1    3    3  502    0  0.10514612493E+04 -0.92145879787E+03 -0.89719930377E+03  0.16612115054E+04  0.50400001928E-02 0. -1.
       -1    1    3    3    0  502 -0.10514612493E+04  0.92145879787E+03  0.13034709156E+04  0.19114637068E+04  0.50400001928E-02 0.  1.
</event>
<event>
 5   0  0.3278988E-07  0.3600823E+04  0.7818609E-02  0.8090303E-01
        1   -1    0    0  501    0  0.00000000000E+00  0.00000000000E+00  0.13775016122E+04  0.13775016122E+04  0.50400001928E-02 0. -1.
       -1   -1    0    0    0  501  0.00000000000E+00  0.00000000000E+00 -0.23531593981E+04  0.23531593981E+04  0.50400001928E-02 0.  1.
    10030    2    1    2    0    0  0.00000000000E+00  0.00000000000E+00 -0.97565778588E+03  0.37306610103E+04  0.36008226086E+04 0.  0.
        4    1    3    3  502    0 -0.52144045286E+03 -0.15889489152E+04  0.20316854093E+03  0.16846180190E+04  0.12699999809E+01 0. -1.
       -4    1    3    3    0  502  0.52144045286E+03  0.15889489152E+04 -0.11788263268E+04  0.20460429914E+04  0.12699999809E+01 0.  1.
</event>
<event>
 5   0  0.3159875E-07  0.3581528E+04  0.7818609E-02  0.8094736E-01
        1   -1    0    0  501    0  0.00000000000E+00  0.00000000000E+00  0.18497164271E+04  0.18497164271E+04  0.50400001928E-02 0.  1.
       -1   -1    0    0    0  501  0.00000000000E+00  0.00000000000E+00 -0.17336908175E+04  0.17336908175E+04  0.50400001928E-02 0. -1.
    10030    2    1    2    0    0  0.00000000000E+00  0.00000000000E+00  0.11602560961E+03  0.35834072447E+04  0.35815283803E+04 0.  0.
        2    1    3    3  502    0 -0.11051294192E+04  0.38416585154E+03  0.14144311839E+04  0.18356225125E+04  0.25500000920E-02 0.  1.
       -2    1    3    3    0  502  0.11051294192E+04 -0.38416585154E+03 -0.12984055743E+04  0.17477847321E+04  0.25500000920E-02 0. -1.
</event>
<event>
 5   0  0.3242047E-07  0.3631902E+04  0.7818609E-02  0.8083223E-01
        1   -1    0    0  501    0  0.00000000000E+00  0.00000000000E+00  0.22760817261E+04  0.22760817261E+04  0.50400001928E-02 0. -1.
       -1   -1    0    0    0  501  0.00000000000E+00  0.00000000000E+00 -0.14488400605E+04  0.14488400605E+04  0.50400001928E-02 0.  1.
    10030    2    1    2    0    0  0.00000000000E+00  0.00000000000E+00  0.82724166560E+03  0.37249217867E+04  0.36319021935E+04 0.  0.
        1    1    3    3  502    0 -0.15096211642E+04  0.97555464766E+03  0.14811717912E+03  0.18034970554E+04  0.50400001928E-02 0.  1.
       -1    1    3    3    0  502  0.15096211642E+04 -0.97555464766E+03  0.67912448648E+03  0.19214247313E+04  0.50400001928E-02 0. -1.
</event>
<event>
 5   0  0.3159875E-07  0.3604116E+04  0.7818609E-02  0.8089550E-01
       -1   -1    0    0    0  501  0.00000000000E+00  0.00000000000E+00  0.22161870553E+04  0.22161870554E+04  0.50400001928E-02 0. -1.
        1   -1    0    0  501    0  0.00000000000E+00  0.00000000000E+00 -0.14653153143E+04  0.14653153143E+04  0.50400001928E-02 0.  1.
    10030    2    1    2    0    0  0.00000000000E+00  0.00000000000E+00  0.75087174106E+03  0.36815023696E+04  0.36041158869E+04 0.  0.
        5    1    3    3  502    0  0.75375543379E+03  0.15946255911E+04 -0.18354208595E+01  0.17638036990E+04  0.46999998093E+01 0.  1.
       -5    1    3    3    0  502 -0.75375543379E+03 -0.15946255911E+04  0.75270716192E+03  0.19176986707E+04  0.46999998093E+01 0. -1.
</event>
<event>
 5   0  0.9878977E-07  0.3572555E+04  0.7818609E-02  0.8096807E-01
        2   -1    0    0  501    0  0.00000000000E+00  0.00000000000E+00  0.23474212790E+04  0.23474212790E+04  0.25500000920E-02 0. -1.
       -2   -1    0    0    0  501  0.00000000000E+00  0.00000000000E+00 -0.13592731218E+04  0.13592731218E+04  0.25500000920E-02 0.  1.
    10030    2    1    2    0    0  0.00000000000E+00  0.00000000000E+00  0.98814815716E+03  0.37066944008E+04  0.35725546323E+04 0.  0.
        5    1    3    3  502    0 -0.47430237617E+03 -0.11077770173E+04 -0.87400664767E+03  0.14886377579E+04  0.46999998093E+01 0.  1.
       -5    1    3    3    0  502  0.47430237617E+03  0.11077770173E+04  0.18621548048E+04  0.22180566429E+04  0.46999998093E+01 0. -1.
</event>
<event>
 5   0  0.9538919E-07  0.3603277E+04  0.7818609E-02  0.8089741E-01
        2   -1    0    0  501    0  0.00000000000E+00  0.00000000000E+00  0.16902620129E+04  0.16902620129E+04  0.25500000920E-02 0. -1.
       -2   -1    0    0    0  501  0.00000000000E+00  0.00000000000E+00 -0.19203540297E+04  0.19203540297E+04  0.25500000920E-02 0.  1.
    10030    2    1    2    0    0  0.00000000000E+00  0.00000000000E+00 -0.23009201687E+03  0.36106160426E+04  0.36032771016E+04 0.  0.
        4    1    3    3  502    0 -0.14990615987E+04  0.72854373889E+03  0.57040732857E+03  0.17616264614E+04  0.12699999809E+01 0. -1.
       -4    1    3    3    0  502  0.14990615987E+04 -0.72854373889E+03 -0.80049934545E+03  0.18489895812E+04  0.12699999809E+01 0.  1.
</event>
<event>
 5   0  0.3159875E-07  0.3539079E+04  0.7818609E-02  0.8104591E-01
        1   -1    0    0  501    0  0.00000000000E+00  0.00000000000E+00  0.24479400994E+04  0.24479400994E+04  0.50400001928E-02 0.  1.
       -1   -1    0    0    0  501  0.00000000000E+00  0.00000000000E+00 -0.12791451070E+04  0.12791451070E+04  0.50400001928E-02 0. -1.
    10030    2    1    2    0    0  0.00000000000E+00  0.00000000000E+00  0.11687949924E+04  0.37270852064E+04  0.35390793155E+04 0.  0.
        5    1    3    3  502    0 -0.91897021832E+03 -0.13818882428E+04  0.12311273592E+04  0.20663538038E+04  0.46999998093E+01 0.  1.
       -5    1    3    3    0  502  0.91897021832E+03  0.13818882428E+04 -0.62332366819E+02  0.16607314026E+04  0.46999998093E+01 0. -1.
</event>
<event>
 5   0  0.1006019E-06  0.2807893E+04  0.7818609E-02  0.8300822E-01
       -2   -1    0    0    0  501  0.00000000000E+00  0.00000000000E+00  0.11124733406E+04  0.11124733406E+04  0.25500000920E-02 0.  1.
        2   -1    0    0  501    0  0.00000000000E+00  0.00000000000E+00 -0.17717866814E+04  0.17717866814E+04  0.25500000920E-02 0. -1.
    10030    2    1    2    0    0  0.00000000000E+00  0.00000000000E+00 -0.65931334085E+03  0.28842600220E+04  0.28078927674E+04 0.  0.
        1    1    3    3  502    0  0.75486267311E+02 -0.58598794904E+03 -0.16378663611E+04  0.17411738195E+04  0.50400001928E-02 0. -1.
       -1    1    3    3    0  502 -0.75486267311E+02  0.58598794904E+03  0.97855302021E+03  0.11430862025E+04  0.50400001928E-02 0.  1.
</event>
<event>
 5   0  0.9538919E-07  0.3624597E+04  0.7818609E-02  0.8084881E-01
        2   -1    0    0  501    0  0.00000000000E+00  0.00000000000E+00  0.20249879342E+04  0.20249879342E+04  0.25500000920E-02 0. -1.
       -2   -1    0    0    0  501  0.00000000000E+00  0.00000000000E+00 -0.16219485478E+04  0.16219485478E+04  0.25500000920E-02 0.  1.
    10030    2    1    2    0    0  0.00000000000E+00  0.00000000000E+00  0.40303938638E+03  0.36469364820E+04  0.36245972130E+04 0.  0.
        4    1    3    3  502    0  0.40419197056E+03  0.73217464239E+03  0.18192142251E+04  0.20022469542E+04  0.12699999809E+01 0. -1.
       -4    1    3    3    0  502 -0.40419197056E+03 -0.73217464239E+03 -0.14161748387E+04  0.16446895278E+04  0.12699999809E+01 0.  1.
</event>
<event>
 5   0  0.9538919E-07  0.3583409E+04  0.7818609E-02  0.8094303E-01
       -2   -1    0    0    0  501  0.00000000000E+00  0.00000000000E+00  0.12831207122E+04  0.12831207122E+04  0.25500000920E-02 0.  1.
        2   -1    0    0  501    0  0.00000000000E+00  0.00000000000E+00 -0.25018735637E+04  0.25018735637E+04  0.25500000920E-02 0. -1.
    10030    2    1    2    0    0  0.00000000000E+00  0.00000000000E+00 -0.12187528515E+04  0.37849942759E+04  0.35834094318E+04 0.  0.
        4    1    3    3  502    0  0.38546985545E+03 -0.17497263376E+04 -0.60023447349E+03  0.18895534663E+04  0.12699999809E+01 0.  1.
       -4    1    3    3    0  502 -0.38546985545E+03  0.17497263376E+04 -0.61851837806E+03  0.18954408096E+04  0.12699999809E+01 0. -1.
</event>
<event>
 5   0  0.3242047E-07  0.3715243E+04  0.7818609E-02  0.8064592E-01
        1   -1    0    0  501    0  0.00000000000E+00  0.00000000000E+00  0.19147234508E+04  0.19147234508E+04  0.50400001928E-02 0. -1.
       -1   -1    0    0    0  501  0.00000000000E+00  0.00000000000E+00 -0.18022225033E+04  0.18022225033E+04  0.50400001928E-02 0.  1.
    10030    2    1    2    0    0  0.00000000000E+00  0.00000000000E+00  0.11250094747E+03  0.37169459541E+04  0.37152430287E+04 0.  0.
        1    1    3    3  502    0  0.16039048663E+03 -0.14805911494E+03  0.19018483465E+04  0.19143337595E+04  0.50400001928E-02 0. -1.
       -1    1    3    3    0  502 -0.16039048663E+03  0.14805911494E+03 -0.17893473990E+04  0.18026121946E+04  0.50400001928E-02 0.  1.
</event>
<event>
 5   0  0.3159875E-07  0.3599914E+04  0.7818609E-02  0.8090511E-01
       -1   -1    0    0    0  501  0.00000000000E+00  0.00000000000E+00  0.17866369839E+04  0.17866369839E+04  0.50400001928E-02 0.  1.
        1   -1    0    0  501    0  0.00000000000E+00  0.00000000000E+00 -0.18133763838E+04  0.18133763839E+04  0.50400001928E-02 0. -1.
    10030    2    1    2    0    0  0.00000000000E+00  0.00000000000E+00 -0.26739399909E+02  0.36000133678E+04  0.35999140619E+04 0.  0.
        5    1    3    3  502    0 -0.25663328294E+03  0.15649251178E+04 -0.86484603844E+03  0.18063310955E+04  0.46999998093E+01 0. -1.
       -5    1    3    3    0  502  0.25663328294E+03 -0.15649251178E+04  0.83810663853E+03  0.17936822723E+04  0.46999998093E+01 0.  1.
</event>
<event>
 5   0  0.3365378E-07  0.3630893E+04  0.7818609E-02  0.8083452E-01
        1   -1    0    0  501    0  0.00000000000E+00  0.00000000000E+00  0.22422110877E+04  0.22422110877E+04  0.50400001928E-02 0.  1.
       -1   -1    0    0    0  501  0.00000000000E+00  0.00000000000E+00 -0.14699089607E+04  0.14699089607E+04  0.50400001928E-02 0. -1.
    10030    2    1    2    0    0  0.00000000000E+00  0.00000000000E+00  0.77230212704E+03  0.37121200484E+04  0.36308930965E+04 0.  0.
        3    1    3    3  502    0 -0.27665805224E+03 -0.59558390277E+02  0.22195218892E+04  0.22374906272E+04  0.10100000352E+00 0.  1.
       -3    1    3    3    0  502  0.27665805224E+03  0.59558390277E+02 -0.14472197622E+04  0.14746294212E+04  0.10100000352E+00 0. -1.
</event>
<event>
 5   0  0.9538919E-07  0.3629792E+04  0.7818609E-02  0.8083701E-01
        2   -1    0    0  501    0  0.00000000000E+00  0.00000000000E+00  0.18265634898E+04  0.18265634898E+04  0.25500000920E-02 0.  1.
       -2   -1    0    0    0  501  0.00000000000E+00  0.00000000000E+00 -0.18033028232E+04  0.18033028232E+04  0.25500000920E-02 0. -1.
    10030    2    1    2    0    0  0.00000000000E+00  0.00000000000E+00  0.23260666596E+02  0.36298663131E+04  0.36297917836E+04 0.  0.
        4    1    3    3  502    0  0.11717446412E+04  0.44104077893E+03  0.13255610415E+04  0.18233529994E+04  0.12699999809E+01 0.  1.
       -4    1    3    3    0  502 -0.11717446412E+04 -0.44104077893E+03 -0.13023003749E+04  0.18065133136E+04  0.12699999809E+01 0. -1.
</event>
<event>
 5   0  0.3278988E-07  0.3558558E+04  0.7818609E-02  0.8100051E-01
       -1   -1    0    0    0  501  0.00000000000E+00  0.00000000000E+00  0.21328656184E+04  0.21328656184E+04  0.50400001928E-02 0.  1.
        1   -1    0    0  501    0  0.00000000000E+00  0.00000000000E+00 -0.14843102751E+04  0.14843102751E+04  0.50400001928E-02 0. -1.
    10030    2    1    2    0    0  0.00000000000E+00  0.00000000000E+00  0.64855534329E+03  0.36171758936E+04  0.35585583333E+04 0.  0.
        4    1    3    3  502    0 -0.16470594961E+03  0.38040022654E+03 -0.14345425997E+04  0.14932335603E+04  0.12699999809E+01 0. -1.
       -4    1    3    3    0  502  0.16470594961E+03 -0.38040022654E+03  0.20830979430E+04  0.21239423333E+04  0.12699999809E+01 0.  1.
</event>
<event>
 5   0  0.1006019E-06  0.3207385E+04  0.7818609E-02  0.8186869E-01
        2   -1    0    0  501    0  0.00000000000E+00  0.00000000000E+00  0.21376653834E+04  0.21376653834E+04  0.25500000920E-02 0.  1.
       -2   -1    0    0    0  501  0.00000000000E+00  0.00000000000E+00 -0.12031024211E+04  0.12031024211E+04  0.25500000920E-02 0. -1.
    10030    2    1    2    0    0  0.00000000000E+00  0.00000000000E+00  0.93456296230E+03  0.33407678046E+04  0.32073854763E+04 0.  0.
        1    1    3    3  502    0  0.16913642263E+03  0.31445400007E+03 -0.11611748390E+04  0.12148314510E+04  0.50400001928E-02 0. -1.
       -1    1    3    3    0  502 -0.16913642263E+03 -0.31445400007E+03  0.20957378013E+04  0.21259363536E+04  0.50400001928E-02 0.  1.
</event>
<event>
 5   0  0.3159875E-07  0.3896132E+04  0.7818609E-02  0.8025834E-01
       -1   -1    0    0    0  501  0.00000000000E+00  0.00000000000E+00  0.15539805671E+04  0.15539805671E+04  0.50400001928E-02 0.  1.
        1   -1    0    0  501    0  0.00000000000E+00  0.00000000000E+00 -0.24420908978E+04  0.24420908978E+04  0.50400001928E-02 0. -1.
    10030    2    1    2    0    0  0.00000000000E+00  0.00000000000E+00 -0.88811033064E+03  0.39960714649E+04  0.38961323378E+04 0.  0.
        5    1    3    3  502    0  0.11884786677E+04  0.28247723892E+02 -0.20269040297E+04  0.23498173361E+04  0.46999998093E+01 0. -1.
       -5    1    3    3    0  502 -0.11884786677E+04 -0.28247723892E+02  0.11387936991E+04  0.16462541288E+04  0.46999998093E+01 0.  1.
</event>
<event>
 5   0  0.9878336E-07  0.4034855E+04  0.7818609E-02  0.7997552E-01
        2   -1    0    0  501    0  0.00000000000E+00  0.00000000000E+00  0.20684054886E+04  0.20684054886E+04  0.25500000920E-02 0. -1.
       -2   -1    0    0    0  501  0.00000000000E+00  0.00000000000E+00 -0.19677056219E+04  0.19677056219E+04  0.25500000920E-02 0.  1.
    10030    2    1    2    0    0  0.00000000000E+00  0.00000000000E+00  0.10069986665E+03  0.40361111105E+04  0.40348546979E+04 0.  0.
        3    1    3    3  502    0 -0.63482765358E+03  0.13452798021E+03 -0.18604567002E+04  0.19703814531E+04  0.10100000352E+00 0.  1.
       -3    1    3    3    0  502  0.63482765358E+03 -0.13452798021E+03  0.19611565669E+04  0.20657296573E+04  0.10100000352E+00 0. -1.
</event>
<event>
 5   0  0.1006019E-06  0.3892188E+04  0.7818609E-02  0.8026656E-01
       -2   -1    0    0    0  501  0.00000000000E+00  0.00000000000E+00  0.14113928564E+04  0.14113928564E+04  0.25500000920E-02 0. -1.
        2   -1    0    0  501    0  0.00000000000E+00  0.00000000000E+00 -0.26833643520E+04  0.26833643520E+04  0.25500000920E-02 0.  1.
    10030    2    1    2    0    0  0.00000000000E+00  0.00000000000E+00 -0.12719714956E+04  0.40947572085E+04  0.38921877024E+04 0.  0.
        1    1    3    3  502    0  0.30837179389E+03  0.85956082470E+03 -0.24439562754E+04  0.26089960235E+04  0.50400001928E-02 0.  1.
       -1    1    3    3    0  502 -0.30837179389E+03 -0.85956082470E+03  0.11719847798E+04  0.14857611850E+04  0.50400001928E-02 0. -1.
</event>
<event>
 5   0  0.3159875E-07  0.3144369E+04  0.7818609E-02  0.8203666E-01
        1   -1    0    0  501    0  0.00000000000E+00  0.00000000000E+00  0.14654228355E+04  0.14654228355E+04  0.50400001928E-02 0.  1.
       -1   -1    0    0    0  501  0.00000000000E+00  0.00000000000E+00 -0.16867236609E+04  0.16867236609E+04  0.50400001928E-02 0. -1.
    10030    2    1    2    0    0  0.00000000000E+00  0.00000000000E+00 -0.22130082535E+03  0.31521464964E+04  0.31443685343E+04 0.  0.
        5    1    3    3  502    0 -0.64672003875E+03  0.36114971670E+03 -0.15008270104E+04  0.16736725282E+04  0.46999998093E+01 0. -1.
       -5    1    3    3    0  502  0.64672003875E+03 -0.36114971670E+03  0.12795261851E+04  0.14784739682E+04  0.46999998093E+01 0.  1.
</event>
<event>
 5   0  0.3159875E-07  0.3530106E+04  0.7818609E-02  0.8106692E-01
        1   -1    0    0  501    0  0.00000000000E+00  0.00000000000E+00  0.17836397432E+04  0.17836397433E+04  0.50400001928E-02 0. -1.
       -1   -1    0    0    0  501  0.00000000000E+00  0.00000000000E+00 -0.17466601476E+04  0.17466601476E+04  0.50400001928E-02 0.  1.
    10030    2    1    2    0    0  0.00000000000E+00  0.00000000000E+00  0.36979595613E+02  0.35302998909E+04  0.35301062065E+04 0.  0.
        2    1    3    3  502    0 -0.12399018656E+04  0.26074379881E+03 -0.12104260663E+04  0.17522771547E+04  0.25500000920E-02 0.  1.
       -2    1    3    3    0  502  0.12399018656E+04 -0.26074379881E+03  0.12474056619E+04  0.17780227362E+04  0.25500000920E-02 0. -1.
</event>
<event>
 5   0  0.1031659E-06  0.3591665E+04  0.7818609E-02  0.8092404E-01
        2   -1    0    0  501    0  0.00000000000E+00  0.00000000000E+00  0.26161582895E+04  0.26161582895E+04  0.25500000920E-02 0. -1.
       -2   -1    0    0    0  501  0.00000000000E+00  0.00000000000E+00 -0.12327291778E+04  0.12327291778E+04  0.25500000920E-02 0.  1.
    10030    2    1    2    0    0  0.00000000000E+00  0.00000000000E+00  0.13834291117E+04  0.38488874673E+04  0.35916651610E+04 0.  0.
        2    1    3    3  502    0  0.25320232914E+03 -0.17121971705E+03 -0.12046490652E+04  0.12428221840E+04  0.25500000920E-02 0.  1.
       -2    1    3    3    0  502 -0.25320232914E+03  0.17121971705E+03  0.25880781768E+04  0.26060652832E+04  0.25500000920E-02 0. -1.
</event>
<event>
 5   0  0.1031659E-06  0.3605221E+04  0.7818609E-02  0.8089297E-01
        2   -1    0    0  501    0  0.00000000000E+00  0.00000000000E+00  0.22707225838E+04  0.22707225838E+04  0.25500000920E-02 0. -1.
       -2   -1    0    0    0  501  0.00000000000E+00  0.00000000000E+00 -0.14310000584E+04  0.14310000584E+04  0.25500000920E-02 0.  1.
    10030    2    1    2    0    0  0.00000000000E+00  0.00000000000E+00  0.83972252542E+03  0.37017226423E+04  0.36052207423E+04 0.  0.
        2    1    3    3  502    0 -0.62280181595E+03 -0.14335177604E+04 -0.50225856455E+03  0.16416817405E+04  0.25500000920E-02 0.  1.
       -2    1    3    3    0  502  0.62280181595E+03  0.14335177604E+04  0.13419810900E+04  0.20600409018E+04  0.25500000920E-02 0. -1.
</event>
<event>
 5   0  0.3365378E-07  0.3400484E+04  0.7818609E-02  0.8137788E-01
        1   -1    0    0  501    0  0.00000000000E+00  0.00000000000E+00  0.15774869881E+04  0.15774869881E+04  0.50400001928E-02 0. -1.
       -1   -1    0    0    0  501  0.00000000000E+00  0.00000000000E+00 -0.18325493178E+04  0.18325493178E+04  0.50400001928E-02 0.  1.
    10030    2    1    2    0    0  0.00000000000E+00  0.00000000000E+00 -0.25506232969E+03  0.34100363059E+04  0.34004839090E+04 0.  0.
        3    1    3    3  502    0  0.21352888283E+03 -0.74510972193E+03  0.13900075382E+04  0.15915099899E+04  0.10100000352E+00 0. -1.
       -3    1    3    3    0  502 -0.21352888283E+03  0.74510972193E+03 -0.16450698679E+04  0.18185263160E+04  0.10100000352E+00 0.  1.
</event>
<event>
 5   0  0.3159875E-07  0.3004689E+04  0.7818609E-02  0.8242393E-01
        1   -1    0    0  501    0  0.00000000000E+00  0.00000000000E+00  0.13650229551E+04  0.13650229552E+04  0.50400001928E-02 0. -1.
       -1   -1    0    0    0  501  0.00000000000E+00  0.00000000000E+00 -0.16534802775E+04  0.16534802775E+04  0.50400001928E-02 0.  1.
    10030    2    1    2    0    0  0.00000000000E+00  0.00000000000E+00 -0.28845732238E+03  0.30185032327E+04  0.30046886925E+04 0.  0.
        2    1    3    3  502    0 -0.13931033565E+04 -0.39073755832E+03  0.26213790186E+03  0.14704179953E+04  0.25500000920E-02 0.  1.
       -2    1    3    3    0  502  0.13931033565E+04  0.39073755832E+03 -0.55059522424E+03  0.15480852374E+04  0.25500000920E-02 0. -1.
</event>
<event>
 5   0  0.1006019E-06  0.3351215E+04  0.7818609E-02  0.8149985E-01
        2   -1    0    0  501    0  0.00000000000E+00  0.00000000000E+00  0.19336749685E+04  0.19336749685E+04  0.25500000920E-02 0. -1.
       -2   -1    0    0    0  501  0.00000000000E+00  0.00000000000E+00 -0.14519814429E+04  0.14519814429E+04  0.25500000920E-02 0.  1.
    10030    2    1    2    0    0  0.00000000000E+00  0.00000000000E+00  0.48169352562E+03  0.33856564115E+04  0.33512148072E+04 0.  0.
        1    1    3    3  502    0 -0.12717462226E+04  0.90892581731E+03  0.85051844457E+03  0.17795691109E+04  0.50400001928E-02 0. -1.
       -1    1    3    3    0  502  0.12717462226E+04 -0.90892581731E+03 -0.36882491894E+03  0.16060873005E+04  0.50400001928E-02 0.  1.
</event>
<event>
 5   0  0.3278988E-07  0.3644497E+04  0.7818609E-02  0.8080374E-01
       -1   -1    0    0    0  501  0.00000000000E+00  0.00000000000E+00  0.25879087307E+04  0.25879087307E+04  0.50400001928E-02 0.  1.
        1   -1    0    0  501    0  0.00000000000E+00  0.00000000000E+00 -0.12831169463E+04  0.12831169463E+04  0.50400001928E-02 0. -1.
    10030    2    1    2    0    0  0.00000000000E+00  0.00000000000E+00  0.13047917844E+04  0.38710256770E+04  0.36444969737E+04 0.  0.
        4    1    3    3  502    0  0.63342039443E+03  0.15999526218E+04  0.15528715673E+02  0.17208464609E+04  0.12699999809E+01 0. -1.
       -4    1    3    3    0  502 -0.63342039443E+03 -0.15999526218E+04  0.12892630688E+04  0.21501792161E+04  0.12699999809E+01 0.  1.
</event>
<event>
 5   0  0.1006019E-06  0.3670494E+04  0.7818609E-02  0.8074532E-01
       -2   -1    0    0    0  501  0.00000000000E+00  0.00000000000E+00  0.13140311541E+04  0.13140311541E+04  0.25500000920E-02 0.  1.
        2   -1    0    0  501    0  0.00000000000E+00  0.00000000000E+00 -0.25632054194E+04  0.25632054194E+04  0.25500000920E-02 0. -1.
    10030    2    1    2    0    0  0.00000000000E+00  0.00000000000E+00 -0.12491742652E+04  0.38772365735E+04  0.36704941223E+04 0.  0.
        1    1    3    3  502    0  0.13748929365E+04 -0.90836355961E+03 -0.14779757900E+04  0.22135644059E+04  0.50400001928E-02 0.  1.
       -1    1    3    3    0  502 -0.13748929365E+04  0.90836355961E+03  0.22880152481E+03  0.16636721675E+04  0.50400001928E-02 0. -1.
</event>
<event>
 5   0  0.3242047E-07  0.3613876E+04  0.7818609E-02  0.8087321E-01
       -1   -1    0    0    0  501  0.00000000000E+00  0.00000000000E+00  0.25852985851E+04  0.25852985851E+04  0.50400001928E-02 0. -1.
        1   -1    0    0  501    0  0.00000000000E+00  0.00000000000E+00 -0.12629201097E+04  0.12629201097E+04  0.50400001928E-02 0.  1.
    10030    2    1    2    0    0  0.00000000000E+00  0.00000000000E+00  0.13223784754E+04  0.38482186948E+04  0.36138763524E+04 0.  0.
        1    1    3    3  502    0 -0.22053200106E+03  0.89477194789E+03 -0.99387418411E+03  0.13553734157E+04  0.50400001928E-02 0.  1.
       -1    1    3    3    0  502  0.22053200106E+03 -0.89477194789E+03  0.23162526596E+04  0.24928452790E+04  0.50400001928E-02 0. -1.
</event>
<event>
 5   0  0.9538919E-07  0.3606945E+04  0.7818609E-02  0.8088903E-01
       -2   -1    0    0    0  501  0.00000000000E+00  0.00000000000E+00  0.24071180799E+04  0.24071180799E+04  0.25500000920E-02 0. -1.
        2   -1    0    0  501    0  0.00000000000E+00  0.00000000000E+00 -0.13512065561E+04  0.13512065561E+04  0.25500000920E-02 0.  1.
    10030    2    1    2    0    0  0.00000000000E+00  0.00000000000E+00  0.10559115238E+04  0.37583246360E+04  0.36069453730E+04 0.  0.
        4    1    3    3  502    0  0.74990893075E+03 -0.30342465669E+03  0.22074602504E+04  0.23510236699E+04  0.12699999809E+01 0. -1.
       -4    1    3    3    0  502 -0.74990893075E+03  0.30342465669E+03 -0.11515487265E+04  0.14073009661E+04  0.12699999809E+01 0.  1.
</event>
<event>
 5   0  0.3159875E-07  0.3632492E+04  0.7818609E-02  0.8083089E-01
       -3   -1    0    0    0  501  0.00000000000E+00  0.00000000000E+00  0.12895500989E+04  0.12895501028E+04  0.10100000352E+00 0.  1.
        3   -1    0    0  501    0  0.00000000000E+00  0.00000000000E+00 -0.25580624210E+04  0.25580624230E+04  0.10100000352E+00 0. -1.
    10030    2    1    2    0    0  0.00000000000E+00  0.00000000000E+00 -0.12685123222E+04  0.38476125258E+04  0.36324920698E+04 0.  0.
        5    1    3    3  502    0  0.10030836722E+04 -0.13731512216E+04 -0.13100080912E+04  0.21465936783E+04  0.46999998093E+01 0. -1.
       -5    1    3    3    0  502 -0.10030836722E+04  0.13731512216E+04  0.41495769002E+02  0.17010188475E+04  0.46999998093E+01 0.  1.
</event>
<event>
 5   0  0.9878336E-07  0.3564426E+04  0.7818609E-02  0.8098689E-01
        2   -1    0    0  501    0  0.00000000000E+00  0.00000000000E+00  0.15338178954E+04  0.15338178954E+04  0.25500000920E-02 0.  1.
       -2   -1    0    0    0  501  0.00000000000E+00  0.00000000000E+00 -0.20708341414E+04  0.20708341414E+04  0.25500000920E-02 0. -1.
    10030    2    1    2    0    0  0.00000000000E+00  0.00000000000E+00 -0.53701624591E+03  0.36046520368E+04  0.35644256000E+04 0.  0.
        3    1    3    3  502    0  0.21445181575E+03  0.16078226991E+04  0.47820079051E+03  0.16910823218E+04  0.10100000352E+00 0.  1.
       -3    1    3    3    0  502 -0.21445181575E+03 -0.16078226991E+04 -0.10152170364E+04  0.19135697150E+04  0.10100000352E+00 0. -1.
</event>
<event>
 5   0  0.1031659E-06  0.3485723E+04  0.7818609E-02  0.8117182E-01
       -2   -1    0    0    0  501  0.00000000000E+00  0.00000000000E+00  0.14808785677E+04  0.14808785677E+04  0.25500000920E-02 0.  1.
        2   -1    0    0  501    0  0.00000000000E+00  0.00000000000E+00 -0.20511921883E+04  0.20511921883E+04  0.25500000920E-02 0. -1.
    10030    2    1    2    0    0  0.00000000000E+00  0.00000000000E+00 -0.57031362064E+03  0.35320707560E+04  0.34857231960E+04 0.  0.
        2    1    3    3  502    0 -0.15307003451E+03 -0.12501121160E+04 -0.15058975729E+04  0.19631449866E+04  0.25500000920E-02 0. -1.
       -2    1    3    3    0  502  0.15307003451E+03  0.12501121160E+04  0.93558395229E+03  0.15689257694E+04  0.25500000920E-02 0.  1.
</event>
<event>
 5   0  0.1006019E-06  0.3629369E+04  0.7818609E-02  0.8083797E-01
       -2   -1    0    0    0  501  0.00000000000E+00  0.00000000000E+00  0.22281774246E+04  0.22281774246E+04  0.25500000920E-02 0.  1.
        2   -1    0    0  501    0  0.00000000000E+00  0.00000000000E+00 -0.14779256172E+04  0.14779256172E+04  0.25500000920E-02 0. -1.
    10030    2    1    2    0    0  0.00000000000E+00  0.00000000000E+00  0.75025180739E+03  0.37061030419E+04  0.36293693643E+04 0.  0.
        1    1    3    3  502    0  0.14812852692E+03 -0.71542018592E+03 -0.13211119730E+04  0.15096704766E+04  0.50400001928E-02 0. -1.
       -1    1    3    3    0  502 -0.14812852692E+03  0.71542018592E+03  0.20713637804E+04  0.21964325652E+04  0.50400001928E-02 0.  1.
</event>
<event>
 5   0  0.3278988E-07  0.3623277E+04  0.7818609E-02  0.8085180E-01
       -1   -1    0    0    0  501  0.00000000000E+00  0.00000000000E+00  0.20570812313E+04  0.20570812313E+04  0.50400001928E-02 0. -1.
        1   -1    0    0  501    0  0.00000000000E+00  0.00000000000E+00 -0.15954814170E+04  0.15954814170E+04  0.50400001928E-02 0.  1.
    10030    2    1    2    0    0  0.00000000000E+00  0.00000000000E+00  0.46159981425E+03  0.36525626483E+04  0.36232774543E+04 0.  0.
        4    1    3    3  502    0  0.13631066657E+04  0.26685002968E+03 -0.94168480309E+03  0.16781062546E+04  0.12699999809E+01 0.  1.
       -4    1    3    3    0  502 -0.13631066657E+04 -0.26685002968E+03  0.14032846173E+04  0.19744563937E+04  0.12699999809E+01 0. -1.
</event>
<event>
 5   0  0.1031659E-06  0.3466036E+04  0.7818609E-02  0.8121886E-01
       -2   -1    0    0    0  501  0.00000000000E+00  0.00000000000E+00  0.13326055668E+04  0.13326055668E+04  0.25500000920E-02 0.  1.
        2   -1    0    0  501    0  0.00000000000E+00  0.00000000000E+00 -0.22537441222E+04  0.22537441222E+04  0.25500000920E-02 0. -1.
    10030    2    1    2    0    0  0.00000000000E+00  0.00000000000E+00 -0.92113855542E+03  0.35863496890E+04  0.34660363318E+04 0.  0.
        2    1    3    3  502    0 -0.15885024514E+04  0.58118835811E+03 -0.70341475339E+02  0.16929465050E+04  0.25500000920E-02 0.  1.
       -2    1    3    3    0  502  0.15885024514E+04 -0.58118835811E+03 -0.85079708009E+03  0.18934031840E+04  0.25500000920E-02 0. -1.
</event>
<event>
 5   0  0.3159875E-07  0.3397557E+04  0.7818609E-02  0.8138506E-01
        1   -1    0    0  501    0  0.00000000000E+00  0.00000000000E+00  0.98094645227E+03  0.98094645228E+03  0.50400001928E-02 0. -1.
       -1   -1    0    0    0  501  0.00000000000E+00  0.00000000000E+00 -0.29419027367E+04  0.29419027367E+04  0.50400001928E-02 0.  1.
    10030    2    1    2    0    0  0.00000000000E+00  0.00000000000E+00 -0.19609562844E+04  0.39228491890E+04  0.33975573888E+04 0.  0.
        5    1    3    3  502    0  0.11574764145E+04 -0.10094030104E+04 -0.18188074213E+04  0.23804891542E+04  0.46999998093E+01 0. -1.
       -5    1    3    3    0  502 -0.11574764145E+04  0.10094030104E+04 -0.14214886314E+03  0.15423600348E+04  0.46999998093E+01 0.  1.
</event>
<event>
 5   0  0.3278988E-07  0.4000579E+04  0.7818609E-02  0.8004430E-01
       -1   -1    0    0    0  501  0.00000000000E+00  0.00000000000E+00  0.14487966934E+04  0.14487966934E+04  0.50400001928E-02 0.  1.
        1   -1    0    0  501    0  0.00000000000E+00  0.00000000000E+00 -0.27617113256E+04  0.27617113256E+04  0.50400001928E-02 0. -1.
    10030    2    1    2    0    0  0.00000000000E+00  0.00000000000E+00 -0.13129146322E+04  0.42105080191E+04  0.40005790765E+04 0.  0.
        4    1    3    3  502    0  0.15910837557E+04 -0.45135747206E+03  0.52769851770E+03  0.17360122188E+04  0.12699999809E+01 0.  1.
       -4    1    3    3    0  502 -0.15910837557E+04  0.45135747206E+03 -0.18406131499E+04  0.24744958003E+04  0.12699999809E+01 0. -1.
</event>
<event>
 5   0  0.3159875E-07  0.3428701E+04  0.7818609E-02  0.8130898E-01
       -1   -1    0    0    0  501  0.00000000000E+00  0.00000000000E+00  0.26988880186E+04  0.26988880186E+04  0.50400001928E-02 0. -1.
        1   -1    0    0  501    0  0.00000000000E+00  0.00000000000E+00 -0.10889662498E+04  0.10889662498E+04  0.50400001928E-02 0.  1.
    10030    2    1    2    0    0  0.00000000000E+00  0.00000000000E+00  0.16099217688E+04  0.37878542684E+04  0.34287011910E+04 0.  0.
        2    1    3    3  502    0  0.28377155507E+03  0.47322778892E+03  0.25981040327E+04  0.26560525975E+04  0.25500000920E-02 0. -1.
       -2    1    3    3    0  502 -0.28377155507E+03 -0.47322778892E+03 -0.98818226391E+03  0.11318016710E+04  0.25500000920E-02 0.  1.
</event>
<event>
 5   0  0.3159875E-07  0.3599862E+04  0.7818609E-02  0.8090523E-01
        1   -1    0    0  501    0  0.00000000000E+00  0.00000000000E+00  0.16848919576E+04  0.16848919576E+04  0.50400001928E-02 0. -1.
       -1   -1    0    0    0  501  0.00000000000E+00  0.00000000000E+00 -0.19228247032E+04  0.19228247032E+04  0.50400001928E-02 0.  1.
    10030    2    1    2    0    0  0.00000000000E+00  0.00000000000E+00 -0.23793274558E+03  0.36077166609E+04  0.35998621520E+04 0.  0.
        5    1    3    3  502    0  0.16395035380E+04  0.67215619401E+03 -0.43582704464E+03  0.18247556283E+04  0.46999998093E+01 0. -1.
       -5    1    3    3    0  502 -0.16395035380E+04 -0.67215619401E+03  0.19789429905E+03  0.17829610326E+04  0.46999998093E+01 0.  1.
</event>
<event>
 5   0  0.9878336E-07  0.3567308E+04  0.7818609E-02  0.8098021E-01
        2   -1    0    0  501    0  0.00000000000E+00  0.00000000000E+00  0.20907914837E+04  0.20907914837E+04  0.25500000920E-02 0. -1.
       -2   -1    0    0    0  501  0.00000000000E+00  0.00000000000E+00 -0.15216351150E+04  0.15216351150E+04  0.25500000920E-02 0.  1.
    10030    2    1    2    0    0  0.00000000000E+00  0.00000000000E+00  0.56915636868E+03  0.36124265987E+04  0.35673080830E+04 0.  0.
        3    1    3    3  502    0  0.11878369373E+03 -0.12978809450E+02  0.20867338387E+04  0.20901521809E+04  0.10100000352E+00 0. -1.
       -3    1    3    3    0  502 -0.11878369373E+03  0.12978809450E+02 -0.15175774700E+04  0.15222744178E+04  0.10100000352E+00 0.  1.
</event>
<event>
 5   0  0.9538919E-07  0.3535056E+04  0.7818609E-02  0.8105532E-01
       -2   -1    0    0    0  501  0.00000000000E+00  0.00000000000E+00  0.11382331021E+04  0.11382331021E+04  0.25500000920E-02 0.  1.
        2   -1    0    0  501    0  0.00000000000E+00  0.00000000000E+00 -0.27447406070E+04  0.27447406070E+04  0.25500000920E-02 0. -1.
    10030    2    1    2    0    0  0.00000000000E+00  0.00000000000E+00 -0.16065075049E+04  0.38829737090E+04  0.35350556518E+04 0.  0.
        4    1    3    3  502    0 -0.26863094648E+03  0.10045265637E+04  0.76672413197E+03  0.12919379668E+04  0.12699999809E+01 0.  1.
       -4    1    3    3    0  502  0.26863094648E+03 -0.10045265637E+04 -0.23732316369E+04  0.25910357423E+04  0.12699999809E+01 0. -1.
</event>
<event>
 5   0  0.9878336E-07  0.3602899E+04  0.7818609E-02  0.8089828E-01
        2   -1    0    0  501    0  0.00000000000E+00  0.00000000000E+00  0.23747247788E+04  0.23747247788E+04  0.25500000920E-02 0.  1.
       -2   -1    0    0    0  501  0.00000000000E+00  0.00000000000E+00 -0.13665671947E+04  0.13665671947E+04  0.25500000920E-02 0. -1.
    10030    2    1    2    0    0  0.00000000000E+00  0.00000000000E+00  0.10081575841E+04  0.37412919735E+04  0.36028993764E+04 0.  0.
        3    1    3    3  502    0  0.10951327833E+04  0.68298203657E+03 -0.80095311733E+03  0.15189819557E+04  0.10100000352E+00 0. -1.
       -3    1    3    3    0  502 -0.10951327833E+04 -0.68298203657E+03  0.18091107014E+04  0.22223100178E+04  0.10100000352E+00 0.  1.
</event>
<event>
 5   0  0.3159875E-07  0.3593480E+04  0.7818609E-02  0.8091987E-01
       -1   -1    0    0    0  501  0.00000000000E+00  0.00000000000E+00  0.15351646220E+04  0.15351646220E+04  0.50400001928E-02 0. -1.
        1   -1    0    0  501    0  0.00000000000E+00  0.00000000000E+00 -0.21028854291E+04  0.21028854291E+04  0.50400001928E-02 0.  1.
    10030    2    1    2    0    0  0.00000000000E+00  0.00000000000E+00 -0.56772080716E+03  0.36380500511E+04  0.35934803825E+04 0.  0.
        2    1    3    3  502    0  0.73310813026E+03 -0.13645292865E+04 -0.12055850818E+04  0.19628609462E+04  0.25500000920E-02 0.  1.
       -2    1    3    3    0  502 -0.73310813026E+03  0.13645292865E+04  0.63786427464E+03  0.16751891049E+04  0.25500000920E-02 0. -1.
</event>
<event>
 5   0  0.3159875E-07  0.3576714E+04  0.7818609E-02  0.8095847E-01
       -1   -1    0    0    0  501  0.00000000000E+00  0.00000000000E+00  0.12105714711E+04  0.12105714711E+04  0.50400001928E-02 0.  1.
        1   -1    0    0  501    0  0.00000000000E+00  0.00000000000E+00 -0.26419099633E+04  0.26419099633E+04  0.50400001928E-02 0. -1.
    10030    2    1    2    0    0  0.00000000000E+00  0.00000000000E+00 -0.14313384922E+04  0.38524814345E+04  0.35767140400E+04 0.  0.
        2    1    3    3  502    0  0.12899283017E+04 -0.11510295053E+04 -0.12085966014E+04  0.21093813526E+04  0.25500000920E-02 0.  1.
       -2    1    3    3    0  502 -0.12899283017E+04  0.11510295053E+04 -0.22274189080E+03  0.17431000819E+04  0.25500000920E-02 0. -1.
</event>
<event>
 5   0  0.3159875E-07  0.3619763E+04  0.7818609E-02  0.8085980E-01
        3   -1    0    0  501    0  0.00000000000E+00  0.00000000000E+00  0.13422915603E+04  0.13422915641E+04  0.10100000352E+00 0.  1.
       -3   -1    0    0    0  501  0.00000000000E+00  0.00000000000E+00 -0.24403572341E+04  0.24403572362E+04  0.10100000352E+00 0. -1.
    10030    2    1    2    0    0  0.00000000000E+00  0.00000000000E+00 -0.10980656738E+04  0.37826488003E+04  0.36197629374E+04 0.  0.
        5    1    3    3  502    0  0.58327024782E+03  0.17067638948E+04 -0.70543978890E+03  0.19367277972E+04  0.46999998093E+01 0. -1.
       -5    1    3    3    0  502 -0.58327024782E+03 -0.17067638948E+04 -0.39262588492E+03  0.18459210032E+04  0.46999998093E+01 0.  1.
</event>
<event>
 5   0  0.3278988E-07  0.3621024E+04  0.7818609E-02  0.8085693E-01
        1   -1    0    0  501    0  0.00000000000E+00  0.00000000000E+00  0.14784934624E+04  0.14784934624E+04  0.50400001928E-02 0.  1.
       -1   -1    0    0    0  501  0.00000000000E+00  0.00000000000E+00 -0.22170902050E+04  0.22170902050E+04  0.50400001928E-02 0. -1.
    10030    2    1    2    0    0  0.00000000000E+00  0.00000000000E+00 -0.73859674255E+03  0.36955836674E+04  0.36210238186E+04 0.  0.
        4    1    3    3  502    0 -0.95385072177E+03  0.10461817981E+04 -0.15210857358E+04  0.20779872432E+04  0.12699999809E+01 0. -1.
       -4    1    3    3    0  502  0.95385072177E+03 -0.10461817981E+04  0.78248899326E+03  0.16175964242E+04  0.12699999809E+01 0.  1.
</event>
<event>
 5   0  0.3365378E-07  0.3515023E+04  0.7818609E-02  0.8110239E-01
        1   -1    0    0  501    0  0.00000000000E+00  0.00000000000E+00  0.26130884174E+04  0.26130884174E+04  0.50400001928E-02 0. -1.
       -1   -1    0    0    0  501  0.00000000000E+00  0.00000000000E+00 -0.11820674439E+04  0.11820674439E+04  0.50400001928E-02 0.  1.
    10030    2    1    2    0    0  0.00000000000E+00  0.00000000000E+00  0.14310209735E+04  0.37951558613E+04  0.35150230418E+04 0.  0.
        3    1    3    3  502    0  0.13519364259E+04  0.31761001824E+03 -0.44747709859E+03  0.14590558548E+04  0.10100000352E+00 0. -1.
       -3    1    3    3    0  502 -0.13519364259E+04 -0.31761001824E+03  0.18784980721E+04  0.23361000065E+04  0.10100000352E+00 0.  1.
</event>
<event>
 5   0  0.9538919E-07  0.3124413E+04  0.7818609E-02  0.8209070E-01
        2   -1    0    0  501    0  0.00000000000E+00  0.00000000000E+00  0.19051088172E+04  0.19051088172E+04  0.25500000920E-02 0.  1.
       -2   -1    0    0    0  501  0.00000000000E+00  0.00000000000E+00 -0.12810237422E+04  0.12810237422E+04  0.25500000920E-02 0. -1.
    10030    2    1    2    0    0  0.00000000000E+00  0.00000000000E+00  0.62408507506E+03  0.31861325594E+04  0.31244133058E+04 0.  0.
        4    1    3    3  502    0 -0.11158139393E+04  0.85055998191E+03 -0.38854765507E+03  0.14558378767E+04  0.12699999809E+01 0. -1.
       -4    1    3    3    0  502  0.11158139393E+04 -0.85055998191E+03  0.10126327301E+04  0.17302946827E+04  0.12699999809E+01 0.  1.
</event>
<event>
 5   0  0.9878977E-07  0.3597454E+04  0.7818609E-02  0.8091075E-01
       -2   -1    0    0    0  501  0.00000000000E+00  0.00000000000E+00  0.16536790849E+04  0.16536790849E+04  0.25500000920E-02 0. -1.
        2   -1    0    0  501    0  0.00000000000E+00  0.00000000000E+00 -0.19564974526E+04  0.19564974526E+04  0.25500000920E-02 0.  1.
    10030    2    1    2    0    0  0.00000000000E+00  0.00000000000E+00 -0.30281836773E+03  0.36101765375E+04  0.35974540536E+04 0.  0.
        5    1    3    3  502    0  0.17052922561E+04  0.19090006251E+03  0.38987977009E+03  0.17596854371E+04  0.46999998093E+01 0.  1.
       -5    1    3    3    0  502 -0.17052922561E+04 -0.19090006251E+03 -0.69269813781E+03  0.18504911004E+04  0.46999998093E+01 0. -1.
</event>
<event>
 5   0  0.3159875E-07  0.3574208E+04  0.7818609E-02  0.8096425E-01
       -1   -1    0    0    0  501  0.00000000000E+00  0.00000000000E+00  0.13179267837E+04  0.13179267837E+04  0.50400001928E-02 0.  1.
        1   -1    0    0  501    0  0.00000000000E+00  0.00000000000E+00 -0.24233068516E+04  0.24233068516E+04  0.50400001928E-02 0. -1.
    10030    2    1    2    0    0  0.00000000000E+00  0.00000000000E+00 -0.11053800679E+04  0.37412336353E+04  0.35742081668E+04 0.  0.
        5    1    3    3  502    0  0.32637171646E+03  0.38797392212E+03 -0.23464447366E+04  0.24005972702E+04  0.46999998093E+01 0. -1.
       -5    1    3    3    0  502 -0.32637171646E+03 -0.38797392212E+03  0.12410646688E+04  0.13406363652E+04  0.46999998093E+01 0.  1.
</event>
<event>
 5   0  0.1006019E-06  0.3442165E+04  0.7818609E-02  0.8127634E-01
       -2   -1    0    0    0  501  0.00000000000E+00  0.00000000000E+00  0.15769540468E+04  0.15769540468E+04  0.25500000920E-02 0. -1.
        2   -1    0    0  501    0  0.00000000000E+00  0.00000000000E+00 -0.18783839193E+04  0.18783839193E+04  0.25500000920E-02 0.  1.
    10030    2    1    2    0    0  0.00000000000E+00  0.00000000000E+00 -0.30142987248E+03  0.34553379661E+04  0.34421650878E+04 0.  0.
        1    1    3    3  502    0 -0.15532955118E+04  0.17201208575E+03  0.57302270277E+03  0.16645330043E+04  0.50400001928E-02 0. -1.
       -1    1    3    3    0  502  0.15532955118E+04 -0.17201208575E+03 -0.87445257525E+03  0.17908049617E+04  0.50400001928E-02 0.  1.
</event>
<event>
 5   0  0.1031659E-06  0.3054201E+04  0.7818609E-02  0.8228421E-01
       -2   -1    0    0    0  501  0.00000000000E+00  0.00000000000E+00  0.92091596570E+03  0.92091596571E+03  0.25500000920E-02 0. -1.
        2   -1    0    0  501    0  0.00000000000E+00  0.00000000000E+00 -0.25323003778E+04  0.25323003778E+04  0.25500000920E-02 0.  1.
    10030    2    1    2    0    0  0.00000000000E+00  0.00000000000E+00 -0.16113844121E+04  0.34532163435E+04  0.30542009416E+04 0.  0.
        2    1    3    3  502    0 -0.60926196107E+03 -0.92712155390E+03  0.38082849669E+03  0.11729385563E+04  0.25500000920E-02 0. -1.
       -2    1    3    3    0  502  0.60926196107E+03  0.92712155390E+03 -0.19922129088E+04  0.22802777872E+04  0.25500000920E-02 0.  1.
</event>
<event>
 5   0  0.1031659E-06  0.3498164E+04  0.7818609E-02  0.8114225E-01
        2   -1    0    0  501    0  0.00000000000E+00  0.00000000000E+00  0.19549959448E+04  0.19549959448E+04  0.25500000920E-02 0.  1.
       -2   -1    0    0    0  501  0.00000000000E+00  0.00000000000E+00 -0.15648567040E+04  0.15648567041E+04  0.25500000920E-02 0. -1.
    10030    2    1    2    0    0  0.00000000000E+00  0.00000000000E+00  0.39013924078E+03  0.35198526489E+04  0.34981643819E+04 0.  0.
        2    1    3    3  502    0 -0.14757435137E+03  0.16260413799E+04 -0.43611513508E+03  0.16899660261E+04  0.25500000920E-02 0. -1.
       -2    1    3    3    0  502  0.14757435137E+03 -0.16260413799E+04  0.82625437586E+03  0.18298866227E+04  0.25500000920E-02 0.  1.
</event>
<event>
 5   0  0.3278988E-07  0.2931943E+04  0.7818609E-02  0.8263436E-01
        1   -1    0    0  501    0  0.00000000000E+00  0.00000000000E+00  0.12692421972E+04  0.12692421973E+04  0.50400001928E-02 0.  1.
       -1   -1    0    0    0  501  0.00000000000E+00  0.00000000000E+00 -0.16931934237E+04  0.16931934238E+04  0.50400001928E-02 0. -1.
    10030    2    1    2    0    0  0.00000000000E+00  0.00000000000E+00 -0.42395122650E+03  0.29624356210E+04  0.29319430701E+04 0.  0.
        4    1    3    3  502    0  0.97229261105E+03  0.40664564848E+03  0.81762028333E+03  0.13338733619E+04  0.12699999809E+01 0.  1.
       -4    1    3    3    0  502 -0.97229261105E+03 -0.40664564848E+03 -0.12415715098E+04  0.16285622591E+04  0.12699999809E+01 0. -1.
</event>
<event>
 5   0  0.3242047E-07  0.3625827E+04  0.7818609E-02  0.8084601E-01
       -1   -1    0    0    0  501  0.00000000000E+00  0.00000000000E+00  0.23913587728E+04  0.23913587728E+04  0.50400001928E-02 0. -1.
        1   -1    0    0  501    0  0.00000000000E+00  0.00000000000E+00 -0.13743884065E+04  0.13743884065E+04  0.50400001928E-02 0.  1.
    10030    2    1    2    0    0  0.00000000000E+00  0.00000000000E+00  0.10169703663E+04  0.37657471792E+04  0.36258272286E+04 0.  0.
        1    1    3    3  502    0  0.73522122782E+03  0.93828176978E+03 -0.91014364620E+03  0.14997614444E+04  0.50400001928E-02 0.  1.
       -1    1    3    3    0  502 -0.73522122782E+03 -0.93828176978E+03  0.19271140125E+04  0.22659857349E+04  0.50400001928E-02 0. -1.
</event>
<event>
 5   0  0.9878977E-07  0.3581328E+04  0.7818609E-02  0.8094782E-01
        2   -1    0    0  501    0  0.00000000000E+00  0.00000000000E+00  0.22406204024E+04  0.22406204024E+04  0.25500000920E-02 0.  1.
       -2   -1    0    0    0  501  0.00000000000E+00  0.00000000000E+00 -0.14310672230E+04  0.14310672230E+04  0.25500000920E-02 0. -1.
    10030    2    1    2    0    0  0.00000000000E+00  0.00000000000E+00  0.80955317947E+03  0.36716876254E+04  0.35813284781E+04 0.  0.
        5    1    3    3  502    0  0.12955133752E+04 -0.88023863123E+03 -0.48503935591E+03  0.16396524693E+04  0.46999998093E+01 0. -1.
       -5    1    3    3    0  502 -0.12955133752E+04  0.88023863123E+03  0.12945925354E+04  0.20320351562E+04  0.46999998093E+01 0.  1.
</event>
<event>
 5   0  0.3159875E-07  0.3538564E+04  0.7818609E-02  0.8104711E-01
        1   -1    0    0  501    0  0.00000000000E+00  0.00000000000E+00  0.20800920202E+04  0.20800920202E+04  0.50400001928E-02 0.  1.
       -1   -1    0    0    0  501  0.00000000000E+00  0.00000000000E+00 -0.15049133961E+04  0.15049133962E+04  0.50400001928E-02 0. -1.
    10030    2    1    2    0    0  0.00000000000E+00  0.00000000000E+00  0.57517862406E+03  0.35850054164E+04  0.35385637462E+04 0.  0.
        5    1    3    3  502    0  0.80783080772E+03 -0.34082383612E+03  0.18445030858E+04  0.20422941082E+04  0.46999998093E+01 0.  1.
       -5    1    3    3    0  502 -0.80783080772E+03  0.34082383612E+03 -0.12693244617E+04  0.15427113081E+04  0.46999998093E+01 0. -1.
</event>
<event>
 5   0  0.1031659E-06  0.3531144E+04  0.7818609E-02  0.8106449E-01
        2   -1    0    0  501    0  0.00000000000E+00  0.00000000000E+00  0.23008290899E+04  0.23008290899E+04  0.25500000920E-02 0. -1.
       -2   -1    0    0    0  501  0.00000000000E+00  0.00000000000E+00 -0.13548355946E+04  0.13548355946E+04  0.25500000920E-02 0.  1.
    10030    2    1    2    0    0  0.00000000000E+00  0.00000000000E+00  0.94599349527E+03  0.36556646845E+04  0.35311443743E+04 0.  0.
        2    1    3    3  502    0 -0.28674320742E+03  0.15124388610E+04  0.13680969036E+04  0.20594616076E+04  0.25500000920E-02 0. -1.
       -2    1    3    3    0  502  0.28674320742E+03 -0.15124388610E+04 -0.42210340834E+03  0.15962030769E+04  0.25500000920E-02 0.  1.
</event>
<event>
 5   0  0.9538919E-07  0.3611052E+04  0.7818609E-02  0.8087965E-01
        2   -1    0    0  501    0  0.00000000000E+00  0.00000000000E+00  0.22341904814E+04  0.22341904814E+04  0.25500000920E-02 0. -1.
       -2   -1    0    0    0  501  0.00000000000E+00  0.00000000000E+00 -0.14591075677E+04  0.14591075677E+04  0.25500000920E-02 0.  1.
    10030    2    1    2    0    0  0.00000000000E+00  0.00000000000E+00  0.77508291374E+03  0.36932980491E+04  0.36110520567E+04 0.  0.
        4    1    3    3  502    0  0.80816595874E+03 -0.76023310645E+03 -0.10692724619E+04  0.15409191425E+04  0.12699999809E+01 0.  1.
       -4    1    3    3    0  502 -0.80816595874E+03  0.76023310645E+03  0.18443553757E+04  0.21523789066E+04  0.12699999809E+01 0. -1.
</event>
<event>
 5   0  0.3278988E-07  0.3354661E+04  0.7818609E-02  0.8149124E-01
        1   -1    0    0  501    0  0.00000000000E+00  0.00000000000E+00  0.27062400101E+04  0.27062400101E+04  0.50400001928E-02 0.  1.
       -1   -1    0    0    0  501  0.00000000000E+00  0.00000000000E+00 -0.10396115442E+04  0.10396115442E+04  0.50400001928E-02 0. -1.
    10030    2    1    2    0    0  0.00000000000E+00  0.00000000000E+00  0.16666284659E+04  0.37458515543E+04  0.33546614470E+04 0.  0.
        4    1    3    3  502    0 -0.11980386524E+04  0.46077460563E+03  0.20389577067E+04  0.24093484581E+04  0.12699999809E+01 0.  1.
       -4    1    3    3    0  502  0.11980386524E+04 -0.46077460563E+03 -0.37232924084E+03  0.13365030962E+04  0.12699999809E+01 0. -1.
</event>
<event>
 5   0  0.9878977E-07  0.3619074E+04  0.7818609E-02  0.8086137E-01
       -2   -1    0    0    0  501  0.00000000000E+00  0.00000000000E+00  0.15397279670E+04  0.15397279670E+04  0.25500000920E-02 0.  1.
        2   -1    0    0  501    0  0.00000000000E+00  0.00000000000E+00 -0.21266245660E+04  0.21266245660E+04  0.25500000920E-02 0. -1.
    10030    2    1    2    0    0  0.00000000000E+00  0.00000000000E+00 -0.58689659893E+03  0.36663525330E+04  0.36190735387E+04 0.  0.
        5    1    3    3  502    0 -0.12459057115E+04 -0.62259293866E+03  0.87684794982E+03  0.16458394291E+04  0.46999998093E+01 0.  1.
       -5    1    3    3    0  502  0.12459057115E+04  0.62259293866E+03 -0.14637445487E+04  0.20205131039E+04  0.46999998093E+01 0. -1.
</event>
<event>
 5   0  0.9878336E-07  0.3642797E+04  0.7818609E-02  0.8080758E-01
       -2   -1    0    0    0  501  0.00000000000E+00  0.00000000000E+00  0.25464256910E+04  0.25464256910E+04  0.25500000920E-02 0.  1.
        2   -1    0    0  501    0  0.00000000000E+00  0.00000000000E+00 -0.13028032543E+04  0.13028032543E+04  0.25500000920E-02 0. -1.
    10030    2    1    2    0    0  0.00000000000E+00  0.00000000000E+00  0.12436224367E+04  0.38492289453E+04  0.36427965505E+04 0.  0.
        3    1    3    3  502    0  0.10337576717E+04  0.14630695712E+03 -0.95522242285E+03  0.14151008928E+04  0.10100000352E+00 0. -1.
       -3    1    3    3    0  502 -0.10337576717E+04 -0.14630695712E+03  0.21988448596E+04  0.24341280525E+04  0.10100000352E+00 0.  1.
</event>
<event>
 5   0  0.9538919E-07  0.3280848E+04  0.7818609E-02  0.8167786E-01
       -2   -1    0    0    0  501  0.00000000000E+00  0.00000000000E+00  0.12683921107E+04  0.12683921107E+04  0.25500000920E-02 0. -1.
        2   -1    0    0  501    0  0.00000000000E+00  0.00000000000E+00 -0.21215763730E+04  0.21215763730E+04  0.25500000920E-02 0.  1.
    10030    2    1    2    0    0  0.00000000000E+00  0.00000000000E+00 -0.85318426225E+03  0.33899684837E+04  0.32808478988E+04 0.  0.
        4    1    3    3  502    0 -0.82765477348E+03  0.59145472242E+03 -0.17563128884E+04  0.20296471830E+04  0.12699999809E+01 0.  1.
       -4    1    3    3    0  502  0.82765477348E+03 -0.59145472242E+03  0.90312862615E+03  0.13603213007E+04  0.12699999809E+01 0. -1.
</event>
<event>
 5   0  0.3159875E-07  0.3676683E+04  0.7818609E-02  0.8073149E-01
       -1   -1    0    0    0  501  0.00000000000E+00  0.00000000000E+00  0.27813308549E+04  0.27813308549E+04  0.50400001928E-02 0. -1.
        1   -1    0    0  501    0  0.00000000000E+00  0.00000000000E+00 -0.12150656469E+04  0.12150656469E+04  0.50400001928E-02 0.  1.
    10030    2    1    2    0    0  0.00000000000E+00  0.00000000000E+00  0.15662652080E+04  0.39963965018E+04  0.36766830565E+04 0.  0.
        2    1    3    3  502    0  0.10950309636E+04  0.14759693406E+04  0.83077640945E+03  0.20168707812E+04  0.25500000920E-02 0.  1.
       -2    1    3    3    0  502 -0.10950309636E+04 -0.14759693406E+04  0.73548879854E+03  0.19795257206E+04  0.25500000920E-02 0. -1.
</event>
<event>
 5   0  0.9878977E-07  0.3640779E+04  0.7818609E-02  0.8081214E-01
       -2   -1    0    0    0  501  0.00000000000E+00  0.00000000000E+00  0.14575255633E+04  0.14575255633E+04  0.25500000920E-02 0.  1.
        2   -1    0    0  501    0  0.00000000000E+00  0.00000000000E+00 -0.22735912757E+04  0.22735912757E+04  0.25500000920E-02 0. -1.
    10030    2    1    2    0    0  0.00000000000E+00  0.00000000000E+00 -0.81606571238E+03  0.37311168390E+04  0.36407787105E+04 0.  0.
        5    1    3    3  502    0 -0.15826792526E+04 -0.35480268752E+03  0.43893436335E+03  0.16803106941E+04  0.46999998093E+01 0.  1.
       -5    1    3    3    0  502  0.15826792526E+04  0.35480268752E+03 -0.12550000757E+04  0.20508061448E+04  0.46999998093E+01 0. -1.
</event>
<event>
 5   0  0.3159875E-07  0.3631964E+04  0.7818609E-02  0.8083209E-01
       -1   -1    0    0    0  501  0.00000000000E+00  0.00000000000E+00  0.23406430005E+04  0.23406430005E+04  0.50400001928E-02 0. -1.
        1   -1    0    0  501    0  0.00000000000E+00  0.00000000000E+00 -0.14089246980E+04  0.14089246980E+04  0.50400001928E-02 0.  1.
    10030    2    1    2    0    0  0.00000000000E+00  0.00000000000E+00  0.93171830251E+03  0.37495676986E+04  0.36319635090E+04 0.  0.
        5    1    3    3  502    0  0.19923730535E+02  0.13867074079E+04  0.16761740791E+04  0.21755312049E+04  0.46999998093E+01 0. -1.
       -5    1    3    3    0  502 -0.19923730535E+02 -0.13867074079E+04 -0.74445577655E+03  0.15740364937E+04  0.46999998093E+01 0.  1.
</event>
<event>
 5   0  0.9538919E-07  0.3652513E+04  0.7818609E-02  0.8078568E-01
        2   -1    0    0  501    0  0.00000000000E+00  0.00000000000E+00  0.20790398557E+04  0.20790398557E+04  0.25500000920E-02 0.  1.
       -2   -1    0    0    0  501  0.00000000000E+00  0.00000000000E+00 -0.16042084810E+04  0.16042084810E+04  0.25500000920E-02 0. -1.
    10030    2    1    2    0    0  0.00000000000E+00  0.00000000000E+00  0.47483137466E+03  0.36832483366E+04  0.36525133094E+04 0.  0.
        4    1    3    3  502    0 -0.16226483344E+04  0.53256500013E+03 -0.41502060453E+03  0.17575143845E+04  0.12699999809E+01 0. -1.
       -4    1    3    3    0  502  0.16226483344E+04 -0.53256500013E+03  0.88985197919E+03  0.19257339521E+04  0.12699999809E+01 0.  1.
</event>
<event>
 5   0  0.3242047E-07  0.3611121E+04  0.7818609E-02  0.8087949E-01
        1   -1    0    0  501    0  0.00000000000E+00  0.00000000000E+00  0.24904959389E+04  0.24904959389E+04  0.50400001928E-02 0.  1.
       -1   -1    0    0    0  501  0.00000000000E+00  0.00000000000E+00 -0.13089957204E+04  0.13089957204E+04  0.50400001928E-02 0. -1.
    10030    2    1    2    0    0  0.00000000000E+00  0.00000000000E+00  0.11815002185E+04  0.37994916593E+04  0.36111208929E+04 0.  0.
        1    1    3    3  502    0 -0.48289086290E+03  0.12661709311E+04  0.18461701777E+04  0.22901346549E+04  0.50400001928E-02 0. -1.
       -1    1    3    3    0  502  0.48289086290E+03 -0.12661709311E+04 -0.66466995920E+03  0.15093570045E+04  0.50400001928E-02 0.  1.
</event>
<event>
 5   0  0.9878977E-07  0.3639619E+04  0.7818609E-02  0.8081476E-01
       -2   -1    0    0    0  501  0.00000000000E+00  0.00000000000E+00  0.18240479694E+04  0.18240479694E+04  0.25500000920E-02 0. -1.
        2   -1    0    0  501    0  0.00000000000E+00  0.00000000000E+00 -0.18155812527E+04  0.18155812527E+04  0.25500000920E-02 0.  1.
    10030    2    1    2    0    0  0.00000000000E+00  0.00000000000E+00  0.84667166666E+01  0.36396292221E+04  0.36396193742E+04 0.  0.
        5    1    3    3  502    0  0.13563740013E+04  0.52208618511E+03 -0.10909229234E+04  0.18172669950E+04  0.46999998093E+01 0.  1.
       -5    1    3    3    0  502 -0.13563740013E+04 -0.52208618511E+03  0.10993896401E+04  0.18223622272E+04  0.46999998093E+01 0. -1.
</event>
<event>
 5   0  0.3159875E-07  0.3498275E+04  0.7818609E-02  0.8114199E-01
        1   -1    0    0  501    0  0.00000000000E+00  0.00000000000E+00  0.16811146254E+04  0.16811146254E+04  0.50400001928E-02 0.  1.
       -1   -1    0    0    0  501  0.00000000000E+00  0.00000000000E+00 -0.18199126075E+04  0.18199126075E+04  0.50400001928E-02 0. -1.
    10030    2    1    2    0    0  0.00000000000E+00  0.00000000000E+00 -0.13879798209E+03  0.35010272328E+04  0.34982748327E+04 0.  0.
        5    1    3    3  502    0  0.23976739507E+03 -0.47090916639E+03  0.15993107997E+04  0.16843577324E+04  0.46999998093E+01 0.  1.
       -5    1    3    3    0  502 -0.23976739507E+03  0.47090916639E+03 -0.17381087817E+04  0.18166695005E+04  0.46999998093E+01 0. -1.
</event>
<event>
 5   0  0.3159875E-07  0.3726372E+04  0.7818609E-02  0.8062142E-01
       -1   -1    0    0    0  501  0.00000000000E+00  0.00000000000E+00  0.21216751850E+04  0.21216751850E+04  0.50400001928E-02 0. -1.
        1   -1    0    0  501    0  0.00000000000E+00  0.00000000000E+00 -0.16361891886E+04  0.16361891887E+04  0.50400001928E-02 0.  1.
    10030    2    1    2    0    0  0.00000000000E+00  0.00000000000E+00  0.48548599632E+03  0.37578643736E+04  0.37263719618E+04 0.  0.
        5    1    3    3  502    0 -0.12327896589E+04 -0.12915349203E+04  0.77979143900E+03  0.19483145464E+04  0.46999998093E+01 0. -1.
       -5    1    3    3    0  502  0.12327896589E+04  0.12915349203E+04 -0.29430544268E+03  0.18095498272E+04  0.46999998093E+01 0.  1.
</event>
<event>
 5   0  0.9878977E-07  0.3563160E+04  0.7818609E-02  0.8098983E-01
        2   -1    0    0  501    0  0.00000000000E+00  0.00000000000E+00  0.17265012449E+04  0.17265012449E+04  0.25500000920E-02 0. -1.
       -2   -1    0    0    0  501  0.00000000000E+00  0.00000000000E+00 -0.18384158026E+04  0.18384158026E+04  0.25500000920E-02 0.  1.
    10030    2    1    2    0    0  0.00000000000E+00  0.00000000000E+00 -0.11191455770E+03  0.35649170475E+04  0.35631599301E+04 0.  0.
        5    1    3    3  502    0 -0.15714940193E+04  0.78134369249E+03 -0.36256176423E+03  0.17920838544E+04  0.46999998093E+01 0. -1.
       -5    1    3    3    0  502  0.15714940193E+04 -0.78134369249E+03  0.25064720653E+03  0.17728331931E+04  0.46999998093E+01 0.  1.
</event>
<event>
 5   0  0.3242047E-07  0.3383788E+04  0.7818609E-02  0.8141897E-01
       -1   -1    0    0    0  501  0.00000000000E+00  0.00000000000E+00  0.84326919452E+03  0.84326919453E+03  0.50400001928E-02 0.  1.
        1   -1    0    0  501    0  0.00000000000E+00  0.00000000000E+00 -0.33945327529E+04  0.33945327529E+04  0.50400001928E-02 0. -1.
    10030    2    1    2    0    0  0.00000000000E+00  0.00000000000E+00 -0.25512635584E+04  0.42378019474E+04  0.33837877595E+04 0.  0.
        1    1    3    3  502    0 -0.54997411546E+03  0.73577673142E+02 -0.32773395239E+04  0.33239794760E+04  0.50400001928E-02 0. -1.
       -1    1    3    3    0  502  0.54997411546E+03 -0.73577673142E+02  0.72607596551E+03  0.91382247148E+03  0.50400001928E-02 0.  1.
</event>
<event>
 5   0  0.3278988E-07  0.3688184E+04  0.7818609E-02  0.8070586E-01
        1   -1    0    0  501    0  0.00000000000E+00  0.00000000000E+00  0.26008099224E+04  0.26008099224E+04  0.50400001928E-02 0. -1.
       -1   -1    0    0    0  501  0.00000000000E+00  0.00000000000E+00 -0.13075444707E+04  0.13075444707E+04  0.50400001928E-02 0.  1.
    10030    2    1    2    0    0  0.00000000000E+00  0.00000000000E+00  0.12932654517E+04  0.39083543931E+04  0.36881836361E+04 0.  0.
        4    1    3    3  502    0 -0.14678304723E+04 -0.51517904182E+02 -0.53505577160E+03  0.15631591991E+04  0.12699999809E+01 0.  1.
       -4    1    3    3    0  502  0.14678304723E+04  0.51517904182E+02  0.18283212233E+04  0.23451951941E+04  0.12699999809E+01 0. -1.
</event>
<event>
 5   0  0.3159875E-07  0.3584716E+04  0.7818609E-02  0.8094002E-01
       -1   -1    0    0    0  501  0.00000000000E+00  0.00000000000E+00  0.14302277172E+04  0.14302277172E+04  0.50400001928E-02 0. -1.
        1   -1    0    0  501    0  0.00000000000E+00  0.00000000000E+00 -0.22461782703E+04  0.22461782703E+04  0.50400001928E-02 0.  1.
    10030    2    1    2    0    0  0.00000000000E+00  0.00000000000E+00 -0.81595055311E+03  0.36764059875E+04  0.35847155647E+04 0.  0.
        5    1    3    3  502    0  0.79037236718E+03  0.11344338943E+03  0.12377394314E+04  0.14729490390E+04  0.46999998093E+01 0. -1.
       -5    1    3    3    0  502 -0.79037236718E+03 -0.11344338943E+03 -0.20536899845E+04  0.22034569485E+04  0.46999998093E+01 0.  1.
</event>
<event>
 5   0  0.3278988E-07  0.3585500E+04  0.7818609E-02  0.8093821E-01
        1   -1    0    0  501    0  0.00000000000E+00  0.00000000000E+00  0.16736314144E+04  0.16736314144E+04  0.50400001928E-02 0.  1.
       -1   -1    0    0    0  501  0.00000000000E+00  0.00000000000E+00 -0.19203465221E+04  0.19203465221E+04  0.50400001928E-02 0. -1.
    10030    2    1    2    0    0  0.00000000000E+00  0.00000000000E+00 -0.24671510768E+03  0.35939779365E+04  0.35854998346E+04 0.  0.
        4    1    3    3  502    0  0.90305857732E+03 -0.13604596624E+04  0.61838230360E+03  0.17460708958E+04  0.12699999809E+01 0.  1.
       -4    1    3    3    0  502 -0.90305857732E+03  0.13604596624E+04 -0.86509741128E+03  0.18479070407E+04  0.12699999809E+01 0. -1.
</event>
<event>
 5   0  0.3278988E-07  0.3572769E+04  0.7818609E-02  0.8096758E-01
        1   -1    0    0  501    0  0.00000000000E+00  0.00000000000E+00  0.29087320203E+04  0.29087320203E+04  0.50400001928E-02 0.  1.
       -1   -1    0    0    0  501  0.00000000000E+00  0.00000000000E+00 -0.10971000432E+04  0.10971000432E+04  0.50400001928E-02 0. -1.
    10030    2    1    2    0    0  0.00000000000E+00  0.00000000000E+00  0.18116319771E+04  0.40058320636E+04  0.35727692482E+04 0.  0.
        4    1    3    3  502    0 -0.51132117319E+03 -0.10954139596E+04 -0.56881761507E+03  0.13360150363E+04  0.12699999809E+01 0. -1.
       -4    1    3    3    0  502  0.51132117319E+03  0.10954139596E+04  0.23804495922E+04  0.26698170273E+04  0.12699999809E+01 0.  1.
</event>
<event>
 5   0  0.3278988E-07  0.3538861E+04  0.7818609E-02  0.8104642E-01
        1   -1    0    0  501    0  0.00000000000E+00  0.00000000000E+00  0.18133066655E+04  0.18133066656E+04  0.50400001928E-02 0. -1.
       -1   -1    0    0    0  501  0.00000000000E+00  0.00000000000E+00 -0.17266161446E+04  0.17266161446E+04  0.50400001928E-02 0.  1.
    10030    2    1    2    0    0  0.00000000000E+00  0.00000000000E+00  0.86690520945E+02  0.35399228102E+04  0.35388611523E+04 0.  0.
        4    1    3    3  502    0 -0.41636738540E+03  0.17911068218E+03 -0.16675597754E+04  0.17280623986E+04  0.12699999809E+01 0.  1.
       -4    1    3    3    0  502  0.41636738540E+03 -0.17911068218E+03  0.17542502963E+04  0.18118604116E+04  0.12699999809E+01 0. -1.
</event>
<event>
 5   0  0.3365378E-07  0.3585884E+04  0.7818609E-02  0.8093733E-01
       -1   -1    0    0    0  501  0.00000000000E+00  0.00000000000E+00  0.15483204796E+04  0.15483204796E+04  0.50400001928E-02 0. -1.
        1   -1    0    0  501    0  0.00000000000E+00  0.00000000000E+00 -0.20762117890E+04  0.20762117890E+04  0.50400001928E-02 0.  1.
    10030    2    1    2    0    0  0.00000000000E+00  0.00000000000E+00 -0.52789130938E+03  0.36245322686E+04  0.35858841213E+04 0.  0.
        3    1    3    3  502    0  0.31604449497E+03  0.17495654396E+04 -0.29545697371E+02  0.17781271913E+04  0.10100000352E+00 0. -1.
       -3    1    3    3    0  502 -0.31604449497E+03 -0.17495654396E+04 -0.49834561201E+03  0.18464050773E+04  0.10100000352E+00 0.  1.
</event>
<event>
 5   0  0.1031659E-06  0.3098478E+04  0.7818609E-02  0.8216156E-01
       -2   -1    0    0    0  501  0.00000000000E+00  0.00000000000E+00  0.15426313192E+04  0.15426313192E+04  0.25500000920E-02 0.  1.
        2   -1    0    0  501    0  0.00000000000E+00  0.00000000000E+00 -0.15558754256E+04  0.15558754256E+04  0.25500000920E-02 0. -1.
    10030    2    1    2    0    0  0.00000000000E+00  0.00000000000E+00 -0.13244106441E+02  0.30985067448E+04  0.30984784397E+04 0.  0.
        2    1    3    3  502    0  0.95368105090E+03 -0.83570535796E+03 -0.89670387108E+03  0.15530578948E+04  0.25500000920E-02 0. -1.
       -2    1    3    3    0  502 -0.95368105090E+03  0.83570535796E+03  0.88345976464E+03  0.15454488500E+04  0.25500000920E-02 0.  1.
</event>
<event>
 5   0  0.3242047E-07  0.3425736E+04  0.7818609E-02  0.8131619E-01
        1   -1    0    0  501    0  0.00000000000E+00  0.00000000000E+00  0.10993488790E+04  0.10993488790E+04  0.50400001928E-02 0.  1.
       -1   -1    0    0    0  501  0.00000000000E+00  0.00000000000E+00 -0.26687773600E+04  0.26687773600E+04  0.50400001928E-02 0. -1.
    10030    2    1    2    0    0  0.00000000000E+00  0.00000000000E+00 -0.15694284810E+04  0.37681262390E+04  0.34257363582E+04 0.  0.
        1    1    3    3  502    0  0.70392769468E+02  0.16635483366E+04 -0.12268450498E+04  0.20682110594E+04  0.50400001928E-02 0. -1.
       -1    1    3    3    0  502 -0.70392769468E+02 -0.16635483366E+04 -0.34258343119E+03  0.16999151795E+04  0.50400001928E-02 0.  1.
</event>
<event>
 5   0  0.3242047E-07  0.3531645E+04  0.7818609E-02  0.8106331E-01
       -1   -1    0    0    0  501  0.00000000000E+00  0.00000000000E+00  0.15794857437E+04  0.15794857437E+04  0.50400001928E-02 0. -1.
        1   -1    0    0  501    0  0.00000000000E+00  0.00000000000E+00 -0.19741419983E+04  0.19741419983E+04  0.50400001928E-02 0.  1.
    10030    2    1    2    0    0  0.00000000000E+00  0.00000000000E+00 -0.39465625453E+03  0.35536277420E+04  0.35316450231E+04 0.  0.
        1    1    3    3  502    0  0.91613098698E+03  0.18306726492E+03 -0.17050941910E+04  0.19442622788E+04  0.50400001928E-02 0.  1.
       -1    1    3    3    0  502 -0.91613098698E+03 -0.18306726492E+03  0.13104379364E+04  0.16093654632E+04  0.50400001928E-02 0. -1.
</event>
<event>
 5   0  0.9878977E-07  0.3615902E+04  0.7818609E-02  0.8086859E-01
        2   -1    0    0  501    0  0.00000000000E+00  0.00000000000E+00  0.19798820036E+04  0.19798820036E+04  0.25500000920E-02 0. -1.
       -2   -1    0    0    0  501  0.00000000000E+00  0.00000000000E+00 -0.16509503916E+04  0.16509503916E+04  0.25500000920E-02 0.  1.
    10030    2    1    2    0    0  0.00000000000E+00  0.00000000000E+00  0.32893161196E+03  0.36308323952E+04  0.36159020834E+04 0.  0.
        5    1    3    3  502    0  0.82828973181E+03  0.26919236899E+03 -0.14264170686E+04  0.16712917624E+04  0.46999998093E+01 0.  1.
       -5    1    3    3    0  502 -0.82828973181E+03 -0.26919236899E+03  0.17553486805E+04  0.19595406328E+04  0.46999998093E+01 0. -1.
</event>
<event>
 5   0  0.3159875E-07  0.3618801E+04  0.7818609E-02  0.8086199E-01
        1   -1    0    0  501    0  0.00000000000E+00  0.00000000000E+00  0.17428053459E+04  0.17428053459E+04  0.50400001928E-02 0.  1.
       -1   -1    0    0    0  501  0.00000000000E+00  0.00000000000E+00 -0.18785406987E+04  0.18785406987E+04  0.50400001928E-02 0. -1.
    10030    2    1    2    0    0  0.00000000000E+00  0.00000000000E+00 -0.13573535282E+03  0.36213460446E+04  0.36188013331E+04 0.  0.
        2    1    3    3  502    0 -0.14379235422E+03 -0.17963536850E+04 -0.23036403262E+03  0.18167637134E+04  0.25500000920E-02 0.  1.
       -2    1    3    3    0  502  0.14379235422E+03  0.17963536850E+04  0.94628679801E+02  0.18045823312E+04  0.25500000920E-02 0. -1.
</event>
<event>
 5   0  0.3159875E-07  0.3610434E+04  0.7818609E-02  0.8088106E-01
       -1   -1    0    0    0  501  0.00000000000E+00  0.00000000000E+00  0.13781079396E+04  0.13781079396E+04  0.50400001928E-02 0. -1.
        1   -1    0    0  501    0  0.00000000000E+00  0.00000000000E+00 -0.23646973888E+04  0.23646973888E+04  0.50400001928E-02 0.  1.
    10030    2    1    2    0    0  0.00000000000E+00  0.00000000000E+00 -0.98658944918E+03  0.37428053284E+04  0.36104339053E+04 0.  0.
        5    1    3    3  502    0  0.34992577881E+03  0.12594119243E+04 -0.17840219399E+04  0.22116335180E+04  0.46999998093E+01 0.  1.
       -5    1    3    3    0  502 -0.34992577881E+03 -0.12594119243E+04  0.79743249076E+03  0.15311718104E+04  0.46999998093E+01 0. -1.
</event>
<event>
 5   0  0.3278988E-07  0.3601791E+04  0.7818609E-02  0.8090082E-01
        1   -1    0    0  501    0  0.00000000000E+00  0.00000000000E+00  0.29966654088E+04  0.29966654089E+04  0.50400001928E-02 0.  1.
       -1   -1    0    0    0  501  0.00000000000E+00  0.00000000000E+00 -0.10822779615E+04  0.10822779615E+04  0.50400001928E-02 0. -1.
    10030    2    1    2    0    0  0.00000000000E+00  0.00000000000E+00  0.19143874474E+04  0.40789433703E+04  0.36017911821E+04 0.  0.
        4    1    3    3  502    0 -0.35083213780E+03 -0.14183030928E+04  0.21495555262E+04  0.25990878064E+04  0.12699999809E+01 0.  1.
       -4    1    3    3    0  502  0.35083213780E+03  0.14183030928E+04 -0.23516807884E+03  0.14798555640E+04  0.12699999809E+01 0. -1.
</event>
<event>
 5   0  0.3278988E-07  0.3497496E+04  0.7818609E-02  0.8114384E-01
       -1   -1    0    0    0  501  0.00000000000E+00  0.00000000000E+00  0.13224499219E+04  0.13224499219E+04  0.50400001928E-02 0. -1.
        1   -1    0    0  501    0  0.00000000000E+00  0.00000000000E+00 -0.23124651873E+04  0.23124651873E+04  0.50400001928E-02 0.  1.
    10030    2    1    2    0    0  0.00000000000E+00  0.00000000000E+00 -0.99001526537E+03  0.36349151091E+04  0.34974959078E+04 0.  0.
        4    1    3    3  502    0  0.58146519493E+02  0.75976079689E+03  0.11408440164E+04  0.13719125952E+04  0.12699999809E+01 0. -1.
       -4    1    3    3    0  502 -0.58146519493E+02 -0.75976079689E+03 -0.21308592818E+04  0.22630025139E+04  0.12699999809E+01 0.  1.
</event>
<event>
 5   0  0.9538919E-07  0.3590070E+04  0.7818609E-02  0.8092770E-01
       -2   -1    0    0    0  501  0.00000000000E+00  0.00000000000E+00  0.16185565253E+04  0.16185565253E+04  0.25500000920E-02 0.  1.
        2   -1    0    0  501    0  0.00000000000E+00  0.00000000000E+00 -0.19907553315E+04  0.19907553315E+04  0.25500000920E-02 0. -1.
    10030    2    1    2    0    0  0.00000000000E+00  0.00000000000E+00 -0.37219880620E+03  0.36093118569E+04  0.35900696552E+04 0.  0.
        4    1    3    3  502    0 -0.16583346934E+04  0.42392909003E+03  0.35750061579E+03  0.17485989054E+04  0.12699999809E+01 0.  1.
       -4    1    3    3    0  502  0.16583346934E+04 -0.42392909003E+03 -0.72969942199E+03  0.18607129515E+04  0.12699999809E+01 0. -1.
</event>
<event>
 5   0  0.3365378E-07  0.3578912E+04  0.7818609E-02  0.8095339E-01
       -1   -1    0    0    0  501  0.00000000000E+00  0.00000000000E+00  0.14533530451E+04  0.14533530451E+04  0.50400001928E-02 0. -1.
        1   -1    0    0  501    0  0.00000000000E+00  0.00000000000E+00 -0.22032864405E+04  0.22032864405E+04  0.50400001928E-02 0.  1.
    10030    2    1    2    0    0  0.00000000000E+00  0.00000000000E+00 -0.74993339539E+03  0.36566394857E+04  0.35789121574E+04 0.  0.
        3    1    3    3  502    0  0.85286002630E+03 -0.12254582270E+04 -0.13828153678E+04  0.20350175533E+04  0.10100000352E+00 0.  1.
       -3    1    3    3    0  502 -0.85286002630E+03  0.12254582270E+04  0.63288197236E+03  0.16216219324E+04  0.10100000352E+00 0. -1.
</event>
<event>
 5   0  0.1031659E-06  0.3439444E+04  0.7818609E-02  0.8128293E-01
       -2   -1    0    0    0  501  0.00000000000E+00  0.00000000000E+00  0.18613897742E+04  0.18613897742E+04  0.25500000920E-02 0. -1.
        2   -1    0    0  501    0  0.00000000000E+00  0.00000000000E+00 -0.15888360183E+04  0.15888360183E+04  0.25500000920E-02 0.  1.
    10030    2    1    2    0    0  0.00000000000E+00  0.00000000000E+00  0.27255375591E+03  0.34502257926E+04  0.34394436279E+04 0.  0.
        2    1    3    3  502    0 -0.97013021750E+03  0.12303822251E+04  0.84733609820E+03  0.17812836726E+04  0.25500000920E-02 0.  1.
       -2    1    3    3    0  502  0.97013021750E+03 -0.12303822251E+04 -0.57478234230E+03  0.16689421200E+04  0.25500000920E-02 0. -1.
</event>
<event>
 5   0  0.9878977E-07  0.3613131E+04  0.7818609E-02  0.8087490E-01
       -2   -1    0    0    0  501  0.00000000000E+00  0.00000000000E+00  0.30137739419E+04  0.30137739419E+04  0.25500000920E-02 0.  1.
        2   -1    0    0  501    0  0.00000000000E+00  0.00000000000E+00 -0.10829211773E+04  0.10829211773E+04  0.25500000920E-02 0. -1.
    10030    2    1    2    0    0  0.00000000000E+00  0.00000000000E+00  0.19308527646E+04  0.40966951191E+04  0.36131313982E+04 0.  0.
        5    1    3    3  502    0 -0.10245504637E+04  0.14738116897E+04  0.73352180501E+03  0.19390463836E+04  0.46999998093E+01 0. -1.
       -5    1    3    3    0  502  0.10245504637E+04 -0.14738116897E+04  0.11973309596E+04  0.21576487356E+04  0.46999998093E+01 0.  1.
</event>
<event>
 5   0  0.9878336E-07  0.3571145E+04  0.7818609E-02  0.8097133E-01
        2   -1    0    0  501    0  0.00000000000E+00  0.00000000000E+00  0.94118153626E+03  0.94118153627E+03  0.25500000920E-02 0.  1.
       -2   -1    0    0    0  501  0.00000000000E+00  0.00000000000E+00 -0.33875182980E+04  0.33875182980E+04  0.25500000920E-02 0. -1.
    10030    2    1    2    0    0  0.00000000000E+00  0.00000000000E+00 -0.24463367617E+04  0.43286998343E+04  0.35711452929E+04 0.  0.
        3    1    3    3  502    0 -0.29414178555E+03 -0.17390197521E+04 -0.88559323154E+03  0.19735715011E+04  0.10100000352E+00 0. -1.
       -3    1    3    3    0  502  0.29414178555E+03  0.17390197521E+04 -0.15607435302E+04  0.23551283331E+04  0.10100000352E+00 0.  1.
</event>
<event>
 5   0  0.3159875E-07  0.3639493E+04  0.7818609E-02  0.8081505E-01
       -1   -1    0    0    0  501  0.00000000000E+00  0.00000000000E+00  0.28478678199E+04  0.28478678199E+04  0.50400001928E-02 0. -1.
        1   -1    0    0  501    0  0.00000000000E+00  0.00000000000E+00 -0.11627920757E+04  0.11627920757E+04  0.50400001928E-02 0.  1.
    10030    2    1    2    0    0  0.00000000000E+00  0.00000000000E+00  0.16850757442E+04  0.40106598956E+04  0.36394934447E+04 0.  0.
        2    1    3    3  502    0  0.14655810882E+04  0.92122173952E+03  0.22414892773E+03  0.17455142971E+04  0.25500000920E-02 0.  1.
       -2    1    3    3    0  502 -0.14655810882E+04 -0.92122173952E+03  0.14609268165E+04  0.22651455985E+04  0.25500000920E-02 0. -1.
</event>
<event>
 5   0  0.9878336E-07  0.3453314E+04  0.7818609E-02  0.8124944E-01
        2   -1    0    0  501    0  0.00000000000E+00  0.00000000000E+00  0.24200172780E+04  0.24200172780E+04  0.25500000920E-02 0. -1.
       -2   -1    0    0    0  501  0.00000000000E+00  0.00000000000E+00 -0.12319518696E+04  0.12319518697E+04  0.25500000920E-02 0.  1.
    10030    2    1    2    0    0  0.00000000000E+00  0.00000000000E+00  0.11880654084E+04  0.36519691477E+04  0.34533142401E+04 0.  0.
        3    1    3    3  502    0 -0.30790824592E+03 -0.10090500296E+04 -0.85147609729E+03  0.13557289569E+04  0.10100000352E+00 0.  1.
       -3    1    3    3    0  502  0.30790824592E+03  0.10090500296E+04  0.20395415057E+04  0.22962401908E+04  0.10100000352E+00 0. -1.
</event>
<event>
 5   0  0.3159875E-07  0.2626016E+04  0.7818609E-02  0.8359418E-01
       -1   -1    0    0    0  501  0.00000000000E+00  0.00000000000E+00  0.19154560555E+04  0.19154560555E+04  0.50400001928E-02 0.  1.
        1   -1    0    0  501    0  0.00000000000E+00  0.00000000000E+00 -0.90004146373E+03  0.90004146375E+03  0.50400001928E-02 0. -1.
    10030    2    1    2    0    0  0.00000000000E+00  0.00000000000E+00  0.10154145918E+04  0.28154975193E+04  0.26260158963E+04 0.  0.
        5    1    3    3  502    0 -0.12134223109E+04 -0.10826411905E+03  0.10327931732E+04  0.15971219905E+04  0.46999998093E+01 0. -1.
       -5    1    3    3    0  502  0.12134223109E+04  0.10826411905E+03 -0.17378581377E+02  0.12183755288E+04  0.46999998093E+01 0.  1.
</event>
<event>
 5   0  0.3365378E-07  0.3638693E+04  0.7818609E-02  0.8081686E-01
       -1   -1    0    0    0  501  0.00000000000E+00  0.00000000000E+00  0.15860782125E+04  0.15860782125E+04  0.50400001928E-02 0.  1.
        1   -1    0    0  501    0  0.00000000000E+00  0.00000000000E+00 -0.20869225340E+04  0.20869225340E+04  0.50400001928E-02 0. -1.
    10030    2    1    2    0    0  0.00000000000E+00  0.00000000000E+00 -0.50084432144E+03  0.36730007465E+04  0.36386933712E+04 0.  0.
        3    1    3    3  502    0 -0.25096244874E+01  0.78393238249E+03 -0.19076891965E+04  0.20624825718E+04  0.10100000352E+00 0. -1.
       -3    1    3    3    0  502  0.25096244874E+01 -0.78393238249E+03  0.14068448750E+04  0.16105181747E+04  0.10100000352E+00 0.  1.
</event>
<event>
 5   0  0.3242047E-07  0.3540764E+04  0.7818609E-02  0.8104197E-01
       -1   -1    0    0    0  501  0.00000000000E+00  0.00000000000E+00  0.10108513076E+04  0.10108513076E+04  0.50400001928E-02 0.  1.
        1   -1    0    0  501    0  0.00000000000E+00  0.00000000000E+00 -0.31006072061E+04  0.31006072061E+04  0.50400001928E-02 0. -1.
    10030    2    1    2    0    0  0.00000000000E+00  0.00000000000E+00 -0.20897558985E+04  0.41114585137E+04  0.35407642388E+04 0.  0.
        1    1    3    3  502    0 -0.82769724969E+03  0.11128491775E+04 -0.23225628929E+04  0.27051459148E+04  0.50400001928E-02 0. -1.
       -1    1    3    3    0  502  0.82769724969E+03 -0.11128491775E+04  0.23280699439E+03  0.14063125989E+04  0.50400001928E-02 0.  1.
</event>
<event>
 5   0  0.9538919E-07  0.3619791E+04  0.7818609E-02  0.8085973E-01
       -2   -1    0    0    0  501  0.00000000000E+00  0.00000000000E+00  0.20479479556E+04  0.20479479557E+04  0.25500000920E-02 0. -1.
        2   -1    0    0  501    0  0.00000000000E+00  0.00000000000E+00 -0.15995140530E+04  0.15995140530E+04  0.25500000920E-02 0.  1.
    10030    2    1    2    0    0  0.00000000000E+00  0.00000000000E+00  0.44843390266E+03  0.36474620086E+04  0.36197908972E+04 0.  0.
        4    1    3    3  502    0  0.10942787871E+04 -0.10410886469E+04  0.12290401681E+04  0.19472680818E+04  0.12699999809E+01 0. -1.
       -4    1    3    3    0  502 -0.10942787871E+04  0.10410886469E+04 -0.78060626549E+03  0.17001939269E+04  0.12699999809E+01 0.  1.
</event>
<event>
 5   0  0.3278988E-07  0.3669134E+04  0.7818609E-02  0.8074837E-01
        1   -1    0    0  501    0  0.00000000000E+00  0.00000000000E+00  0.18819854608E+04  0.18819854608E+04  0.50400001928E-02 0. -1.
       -1   -1    0    0    0  501  0.00000000000E+00  0.00000000000E+00 -0.17883436173E+04  0.17883436173E+04  0.50400001928E-02 0.  1.
    10030    2    1    2    0    0  0.00000000000E+00  0.00000000000E+00  0.93641843538E+02  0.36703290781E+04  0.36691343320E+04 0.  0.
        4    1    3    3  502    0  0.10077325969E+04 -0.13717428270E+04 -0.63782264635E+03  0.18176970901E+04  0.12699999809E+01 0.  1.
       -4    1    3    3    0  502 -0.10077325969E+04  0.13717428270E+04  0.73146448989E+03  0.18526319880E+04  0.12699999809E+01 0. -1.
</event>
<event>
 5   0  0.9878977E-07  0.3497507E+04  0.7818609E-02  0.8114381E-01
       -2   -1    0    0    0  501  0.00000000000E+00  0.00000000000E+00  0.31786102069E+04  0.31786102069E+04  0.25500000920E-02 0.  1.
        2   -1    0    0  501    0  0.00000000000E+00  0.00000000000E+00 -0.96209939474E+03  0.96209939475E+03  0.25500000920E-02 0. -1.
    10030    2    1    2    0    0  0.00000000000E+00  0.00000000000E+00  0.22165108121E+04  0.41407096016E+04  0.34975070871E+04 0.  0.
        5    1    3    3  502    0  0.16249964206E+04  0.52269937643E+03  0.15579654352E+04  0.23110833806E+04  0.46999998093E+01 0.  1.
       -5    1    3    3    0  502 -0.16249964206E+04 -0.52269937643E+03  0.65854537692E+03  0.18296262210E+04  0.46999998093E+01 0. -1.
</event>
<event>
 5   0  0.3159875E-07  0.3546144E+04  0.7818609E-02  0.8102941E-01
        1   -1    0    0  501    0  0.00000000000E+00  0.00000000000E+00  0.15762480695E+04  0.15762480695E+04  0.50400001928E-02 0.  1.
       -1   -1    0    0    0  501  0.00000000000E+00  0.00000000000E+00 -0.19944729286E+04  0.19944729286E+04  0.50400001928E-02 0. -1.
    10030    2    1    2    0    0  0.00000000000E+00  0.00000000000E+00 -0.41822485909E+03  0.35707209981E+04  0.35461438795E+04 0.  0.
        5    1    3    3  502    0 -0.10845120069E+04 -0.64639897347E+03  0.10444107277E+04  0.16385401381E+04  0.46999998093E+01 0.  1.
       -5    1    3    3    0  502  0.10845120069E+04  0.64639897347E+03 -0.14626355868E+04  0.19321808600E+04  0.46999998093E+01 0. -1.
</event>
<event>
 5   0  0.1031659E-06  0.3645770E+04  0.7818609E-02  0.8080087E-01
        2   -1    0    0  501    0  0.00000000000E+00  0.00000000000E+00  0.24197874111E+04  0.24197874111E+04  0.25500000920E-02 0. -1.
       -2   -1    0    0    0  501  0.00000000000E+00  0.00000000000E+00 -0.13732236145E+04  0.13732236145E+04  0.25500000920E-02 0.  1.
    10030    2    1    2    0    0  0.00000000000E+00  0.00000000000E+00  0.10465637966E+04  0.37930110257E+04  0.36457697213E+04 0.  0.
        2    1    3    3  502    0  0.47106489894E+03  0.57851022759E+03  0.22536842617E+04  0.23739563968E+04  0.25500000920E-02 0. -1.
       -2    1    3    3    0  502 -0.47106489894E+03 -0.57851022759E+03 -0.12071204651E+04  0.14190546289E+04  0.25500000920E-02 0.  1.
</event>
<event>
 5   0  0.9538919E-07  0.3597255E+04  0.7818609E-02  0.8091121E-01
       -2   -1    0    0    0  501  0.00000000000E+00  0.00000000000E+00  0.29613900496E+04  0.29613900496E+04  0.25500000920E-02 0. -1.
        2   -1    0    0  501    0  0.00000000000E+00  0.00000000000E+00 -0.10924131944E+04  0.10924131944E+04  0.25500000920E-02 0.  1.
    10030    2    1    2    0    0  0.00000000000E+00  0.00000000000E+00  0.18689768552E+04  0.40538032440E+04  0.35972553781E+04 0.  0.
        4    1    3    3  502    0 -0.15908186174E+04  0.24766654311E+03  0.30833242929E+02  0.16102778927E+04  0.12699999809E+01 0.  1.
       -4    1    3    3    0  502  0.15908186174E+04 -0.24766654311E+03  0.18381436123E+04  0.24435253513E+04  0.12699999809E+01 0. -1.
</event>
<event>
 5   0  0.1031659E-06  0.3535130E+04  0.7818609E-02  0.8105515E-01
       -2   -1    0    0    0  501  0.00000000000E+00  0.00000000000E+00  0.13645742429E+04  0.13645742429E+04  0.25500000920E-02 0.  1.
        2   -1    0    0  501    0  0.00000000000E+00  0.00000000000E+00 -0.22895681577E+04  0.22895681577E+04  0.25500000920E-02 0. -1.
    10030    2    1    2    0    0  0.00000000000E+00  0.00000000000E+00 -0.92499391474E+03  0.36541424006E+04  0.35351298338E+04 0.  0.
        2    1    3    3  502    0  0.14752639418E+04  0.97304944555E+03 -0.42889385521E+03  0.18185650553E+04  0.25500000920E-02 0.  1.
       -2    1    3    3    0  502 -0.14752639418E+04 -0.97304944555E+03 -0.49610005953E+03  0.18355773453E+04  0.25500000920E-02 0. -1.
</event>
<event>
 5   0  0.3278988E-07  0.3651273E+04  0.7818609E-02  0.8078847E-01
       -1   -1    0    0    0  501  0.00000000000E+00  0.00000000000E+00  0.17015181423E+04  0.17015181423E+04  0.50400001928E-02 0. -1.
        1   -1    0    0  501    0  0.00000000000E+00  0.00000000000E+00 -0.19588088366E+04  0.19588088366E+04  0.50400001928E-02 0.  1.
    10030    2    1    2    0    0  0.00000000000E+00  0.00000000000E+00 -0.25729069426E+03  0.36603269789E+04  0.36512730782E+04 0.  0.
        4    1    3    3  502    0 -0.14844677198E+04 -0.66901590398E+03  0.69906566823E+03  0.17719822551E+04  0.12699999809E+01 0.  1.
       -4    1    3    3    0  502  0.14844677198E+04  0.66901590398E+03 -0.95635636249E+03  0.18883447238E+04  0.12699999809E+01 0. -1.
</event>
<event>
 5   0  0.9878977E-07  0.3520083E+04  0.7818609E-02  0.8109047E-01
       -2   -1    0    0    0  501  0.00000000000E+00  0.00000000000E+00  0.16085855449E+04  0.16085855449E+04  0.25500000920E-02 0. -1.
        2   -1    0    0  501    0  0.00000000000E+00  0.00000000000E+00 -0.19257573331E+04  0.19257573331E+04  0.25500000920E-02 0.  1.
    10030    2    1    2    0    0  0.00000000000E+00  0.00000000000E+00 -0.31717178821E+03  0.35343428780E+04  0.35200826178E+04 0.  0.
        5    1    3    3  502    0  0.12704887884E+04 -0.82967883082E+03 -0.10539465242E+04  0.18475210661E+04  0.46999998093E+01 0.  1.
       -5    1    3    3    0  502 -0.12704887884E+04  0.82967883082E+03  0.73677473601E+03  0.16868218119E+04  0.46999998093E+01 0. -1.
</event>
<event>
 5   0  0.3159875E-07  0.3614471E+04  0.7818609E-02  0.8087185E-01
        1   -1    0    0  501    0  0.00000000000E+00  0.00000000000E+00  0.11774962512E+04  0.11774962513E+04  0.50400001928E-02 0.  1.
       -1   -1    0    0    0  501  0.00000000000E+00  0.00000000000E+00 -0.27737668746E+04  0.27737668746E+04  0.50400001928E-02 0. -1.
    10030    2    1    2    0    0  0.00000000000E+00  0.00000000000E+00 -0.15962706234E+04  0.39512631259E+04  0.36144709692E+04 0.  0.
        2    1    3    3  502    0 -0.34756606561E+03 -0.13329893794E+03  0.11351319899E+04  0.11946109874E+04  0.25500000920E-02 0.  1.
       -2    1    3    3    0  502  0.34756606561E+03  0.13329893794E+03 -0.27314026133E+04  0.27566521385E+04  0.25500000920E-02 0. -1.
</event>
<event>
 5   0  0.3242047E-07  0.3459407E+04  0.7818609E-02  0.8123478E-01
        1   -1    0    0  501    0  0.00000000000E+00  0.00000000000E+00  0.26295606414E+04  0.26295606414E+04  0.50400001928E-02 0. -1.
       -1   -1    0    0    0  501  0.00000000000E+00  0.00000000000E+00 -0.11377850001E+04  0.11377850001E+04  0.50400001928E-02 0.  1.
    10030    2    1    2    0    0  0.00000000000E+00  0.00000000000E+00  0.14917756413E+04  0.37673456415E+04  0.34594072641E+04 0.  0.
        1    1    3    3  502    0  0.10339648649E+04 -0.10915269729E+04  0.16772088931E+04  0.22524529175E+04  0.50400001928E-02 0. -1.
       -1    1    3    3    0  502 -0.10339648649E+04  0.10915269729E+04 -0.18543325174E+03  0.15148927241E+04  0.50400001928E-02 0.  1.
</event>
<event>
 5   0  0.3159875E-07  0.3606803E+04  0.7818609E-02  0.8088935E-01
        1   -1    0    0  501    0  0.00000000000E+00  0.00000000000E+00  0.20572253097E+04  0.20572253097E+04  0.50400001928E-02 0.  1.
       -1   -1    0    0    0  501  0.00000000000E+00  0.00000000000E+00 -0.15808945007E+04  0.15808945007E+04  0.50400001928E-02 0. -1.
    10030    2    1    2    0    0  0.00000000000E+00  0.00000000000E+00  0.47633080907E+03  0.36381198104E+04  0.36068025612E+04 0.  0.
        5    1    3    3  502    0  0.11246952393E+04 -0.13249354481E+04 -0.24751382297E+03  0.17554710210E+04  0.46999998093E+01 0. -1.
       -5    1    3    3    0  502 -0.11246952393E+04  0.13249354481E+04  0.72384463203E+03  0.18826487894E+04  0.46999998093E+01 0.  1.
</event>
<event>
 5   0  0.3278988E-07  0.3590369E+04  0.7818609E-02  0.8092701E-01
        1   -1    0    0  501    0  0.00000000000E+00  0.00000000000E+00  0.12543994679E+04  0.12543994679E+04  0.50400001928E-02 0.  1.
       -1   -1    0    0    0  501  0.00000000000E+00  0.00000000000E+00 -0.25691075777E+04  0.25691075777E+04  0.50400001928E-02 0. -1.
    10030    2    1    2    0    0  0.00000000000E+00  0.00000000000E+00 -0.13147081098E+04  0.38235070455E+04  0.35903688826E+04 0.  0.
        4    1    3    3  502    0 -0.88954952650E+03 -0.15465954899E+04 -0.44589125040E+03  0.18390423022E+04  0.12699999809E+01 0.  1.
       -4    1    3    3    0  502  0.88954952650E+03  0.15465954899E+04 -0.86881685940E+03  0.19844647433E+04  0.12699999809E+01 0. -1.
</event>
<event>
 5   0  0.1006019E-06  0.3571645E+04  0.7818609E-02  0.8097018E-01
       -2   -1    0    0    0  501  0.00000000000E+00  0.00000000000E+00  0.16406691074E+04  0.16406691074E+04  0.25500000920E-02 0.  1.
        2   -1    0    0  501    0  0.00000000000E+00  0.00000000000E+00 -0.19438177771E+04  0.19438177771E+04  0.25500000920E-02 0. -1.
    10030    2    1    2    0    0  0.00000000000E+00  0.00000000000E+00 -0.30314866979E+03  0.35844868845E+04  0.35716448744E+04 0.  0.
        1    1    3    3  502    0 -0.26183322997E+03 -0.12739165060E+04  0.10766486222E+04  0.16883696752E+04  0.50400001928E-02 0.  1.
       -1    1    3    3    0  502  0.26183322997E+03  0.12739165060E+04 -0.13797972920E+04  0.18961172093E+04  0.50400001928E-02 0. -1.
</event>
<event>
 5   0  0.3242047E-07  0.3190985E+04  0.7818609E-02  0.8191202E-01
        1   -1    0    0  501    0  0.00000000000E+00  0.00000000000E+00  0.22119104386E+04  0.22119104386E+04  0.50400001928E-02 0. -1.
       -1   -1    0    0    0  501  0.00000000000E+00  0.00000000000E+00 -0.11508587123E+04  0.11508587124E+04  0.50400001928E-02 0.  1.
    10030    2    1    2    0    0  0.00000000000E+00  0.00000000000E+00  0.10610517263E+04  0.33627691510E+04  0.31909850512E+04 0.  0.
        1    1    3    3  502    0 -0.17477150262E+03  0.64976773691E+03  0.20550758523E+04  0.21624245533E+04  0.50400001928E-02 0. -1.
       -1    1    3    3    0  502  0.17477150262E+03 -0.64976773691E+03 -0.99402412601E+03  0.12003445977E+04  0.50400001928E-02 0.  1.
</event>
<event>
 5   0  0.9878336E-07  0.2898542E+04  0.7818609E-02  0.8273311E-01
        2   -1    0    0  501    0  0.00000000000E+00  0.00000000000E+00  0.20635698666E+04  0.20635698666E+04  0.25500000920E-02 0. -1.
       -2   -1    0    0    0  501  0.00000000000E+00  0.00000000000E+00 -0.10178414005E+04  0.10178414005E+04  0.25500000920E-02 0.  1.
    10030    2    1    2    0    0  0.00000000000E+00  0.00000000000E+00  0.10457284661E+04  0.30814112671E+04  0.28985422840E+04 0.  0.
        3    1    3    3  502    0  0.14387145603E+04 -0.32798195503E+01  0.33727511958E+03  0.14777228629E+04  0.10100000352E+00 0.  1.
       -3    1    3    3    0  502 -0.14387145603E+04  0.32798195503E+01  0.70845334652E+03  0.16036884041E+04  0.10100000352E+00 0. -1.
</event>
<event>
 5   0  0.1006019E-06  0.3511236E+04  0.7818609E-02  0.8111132E-01
        2   -1    0    0  501    0  0.00000000000E+00  0.00000000000E+00  0.25051091413E+04  0.25051091413E+04  0.25500000920E-02 0.  1.
       -2   -1    0    0    0  501  0.00000000000E+00  0.00000000000E+00 -0.12303633916E+04  0.12303633916E+04  0.25500000920E-02 0. -1.
    10030    2    1    2    0    0  0.00000000000E+00  0.00000000000E+00  0.12747457497E+04  0.37354725329E+04  0.35112360100E+04 0.  0.
        1    1    3    3  502    0  0.69504992393E+03 -0.21841585032E+03  0.23366896708E+04  0.24476352870E+04  0.50400001928E-02 0.  1.
       -1    1    3    3    0  502 -0.69504992393E+03  0.21841585032E+03 -0.10619439211E+04  0.12878372459E+04  0.50400001928E-02 0. -1.
</event>
<event>
 5   0  0.1006019E-06  0.3704198E+04  0.7818609E-02  0.8067032E-01
       -2   -1    0    0    0  501  0.00000000000E+00  0.00000000000E+00  0.19925876821E+04  0.19925876821E+04  0.25500000920E-02 0.  1.
        2   -1    0    0  501    0  0.00000000000E+00  0.00000000000E+00 -0.17215155033E+04  0.17215155033E+04  0.25500000920E-02 0. -1.
    10030    2    1    2    0    0  0.00000000000E+00  0.00000000000E+00  0.27107217882E+03  0.37141031854E+04  0.37041979356E+04 0.  0.
        1    1    3    3  502    0 -0.16795607063E+04 -0.77676789773E+03  0.21306071352E+03  0.18627096931E+04  0.50400001928E-02 0. -1.
       -1    1    3    3    0  502  0.16795607063E+04  0.77676789773E+03  0.58011465297E+02  0.18513934923E+04  0.50400001928E-02 0.  1.
</event>
<event>
 5   0  0.9878977E-07  0.3633531E+04  0.7818609E-02  0.8082854E-01
        2   -1    0    0  501    0  0.00000000000E+00  0.00000000000E+00  0.93524786966E+03  0.93524786966E+03  0.25500000920E-02 0. -1.
       -2   -1    0    0    0  501  0.00000000000E+00  0.00000000000E+00 -0.35291575457E+04  0.35291575457E+04  0.25500000920E-02 0.  1.
    10030    2    1    2    0    0  0.00000000000E+00  0.00000000000E+00 -0.25939096760E+04  0.44644054154E+04  0.36335311070E+04 0.  0.
        5    1    3    3  502    0  0.16016251996E+04 -0.82935946578E+03 -0.10289625863E+04  0.20764937991E+04  0.46999998093E+01 0. -1.
       -5    1    3    3    0  502 -0.16016251996E+04  0.82935946578E+03 -0.15649470898E+04  0.23879116163E+04  0.46999998093E+01 0.  1.
</event>
<event>
 5   0  0.3159875E-07  0.3522901E+04  0.7818609E-02  0.8108384E-01
        1   -1    0    0  501    0  0.00000000000E+00  0.00000000000E+00  0.21346001687E+04  0.21346001687E+04  0.50400001928E-02 0.  1.
       -1   -1    0    0    0  501  0.00000000000E+00  0.00000000000E+00 -0.14535312646E+04  0.14535312646E+04  0.50400001928E-02 0. -1.
    10030    2    1    2    0    0  0.00000000000E+00  0.00000000000E+00  0.68106890411E+03  0.35881314333E+04  0.35229011242E+04 0.  0.
        5    1    3    3  502    0 -0.12030390393E+04 -0.31053215689E+03  0.16122335925E+04  0.20354489424E+04  0.46999998093E+01 0.  1.
       -5    1    3    3    0  502  0.12030390393E+04  0.31053215689E+03 -0.93116468838E+03  0.15526824909E+04  0.46999998093E+01 0. -1.
</event>
<event>
 5   0  0.9878336E-07  0.3575700E+04  0.7818609E-02  0.8096081E-01
       -2   -1    0    0    0  501  0.00000000000E+00  0.00000000000E+00  0.25391720454E+04  0.25391720454E+04  0.25500000920E-02 0. -1.
        2   -1    0    0  501    0  0.00000000000E+00  0.00000000000E+00 -0.12588386574E+04  0.12588386574E+04  0.25500000920E-02 0.  1.
    10030    2    1    2    0    0  0.00000000000E+00  0.00000000000E+00  0.12803333880E+04  0.37980107028E+04  0.35757001712E+04 0.  0.
        3    1    3    3  502    0  0.33679961699E+03  0.17275217243E+04  0.97376774256E+03  0.20114643712E+04  0.10100000352E+00 0.  1.
       -3    1    3    3    0  502 -0.33679961699E+03 -0.17275217243E+04  0.30656564545E+03  0.17865463316E+04  0.10100000352E+00 0. -1.
</event>
<event>
 5   0  0.3159875E-07  0.3604059E+04  0.7818609E-02  0.8089563E-01
       -1   -1    0    0    0  501  0.00000000000E+00  0.00000000000E+00  0.28544247681E+04  0.28544247681E+04  0.50400001928E-02 0.  1.
        1   -1    0    0  501    0  0.00000000000E+00  0.00000000000E+00 -0.11376407659E+04  0.11376407659E+04  0.50400001928E-02 0. -1.
    10030    2    1    2    0    0  0.00000000000E+00  0.00000000000E+00  0.17167840022E+04  0.39920655340E+04  0.36040588116E+04 0.  0.
        2    1    3    3  502    0 -0.39930348262E+03 -0.14840106281E+04 -0.18397220029E+03  0.15477650294E+04  0.25500000920E-02 0. -1.
       -2    1    3    3    0  502  0.39930348262E+03  0.14840106281E+04  0.19007562025E+04  0.24443005046E+04  0.25500000920E-02 0.  1.
</event>
<event>
 5   0  0.3242047E-07  0.3602407E+04  0.7818609E-02  0.8089941E-01
       -1   -1    0    0    0  501  0.00000000000E+00  0.00000000000E+00  0.25807848819E+04  0.25807848819E+04  0.50400001928E-02 0. -1.
        1   -1    0    0  501    0  0.00000000000E+00  0.00000000000E+00 -0.12571115356E+04  0.12571115356E+04  0.50400001928E-02 0.  1.
    10030    2    1    2    0    0  0.00000000000E+00  0.00000000000E+00  0.13236733463E+04  0.38378964175E+04  0.36024072206E+04 0.  0.
        1    1    3    3  502    0 -0.33544851387E+01  0.89752947950E+03 -0.10019028547E+04  0.13451318706E+04  0.50400001928E-02 0.  1.
       -1    1    3    3    0  502  0.33544851387E+01 -0.89752947950E+03  0.23255762010E+04  0.24927645468E+04  0.50400001928E-02 0. -1.
</event>
<event>
 5   0  0.3365378E-07  0.3556455E+04  0.7818609E-02  0.8100540E-01
        1   -1    0    0  501    0  0.00000000000E+00  0.00000000000E+00  0.23133359439E+04  0.23133359439E+04  0.50400001928E-02 0. -1.
       -1   -1    0    0    0  501  0.00000000000E+00  0.00000000000E+00 -0.13668972130E+04  0.13668972130E+04  0.50400001928E-02 0.  1.
    10030    2    1    2    0    0  0.00000000000E+00  0.00000000000E+00  0.94643873091E+03  0.36802331569E+04  0.35564546697E+04 0.  0.
        3    1    3    3  502    0 -0.16620677118E+04  0.62969041518E+03  0.53095870248E+03  0.18549652966E+04  0.10100000352E+00 0.  1.
       -3    1    3    3    0  502  0.16620677118E+04 -0.62969041518E+03  0.41548002842E+03  0.18252678603E+04  0.10100000352E+00 0. -1.
</event>
<event>
 5   0  0.3365378E-07  0.3518889E+04  0.7818609E-02  0.8109328E-01
        1   -1    0    0  501    0  0.00000000000E+00  0.00000000000E+00  0.17399191879E+04  0.17399191879E+04  0.50400001928E-02 0.  1.
       -1   -1    0    0    0  501  0.00000000000E+00  0.00000000000E+00 -0.17791888460E+04  0.17791888460E+04  0.50400001928E-02 0. -1.
    10030    2    1    2    0    0  0.00000000000E+00  0.00000000000E+00 -0.39269658084E+02  0.35191080339E+04  0.35188889224E+04 0.  0.
        3    1    3    3  502    0  0.44829526914E+03 -0.11967027008E+04 -0.12290813746E+04  0.17730502074E+04  0.10100000352E+00 0. -1.
       -3    1    3    3    0  502 -0.44829526914E+03  0.11967027008E+04  0.11898117165E+04  0.17460578265E+04  0.10100000352E+00 0.  1.
</event>
<event>
 5   0  0.1031659E-06  0.3427754E+04  0.7818609E-02  0.8131128E-01
        2   -1    0    0  501    0  0.00000000000E+00  0.00000000000E+00  0.24396487241E+04  0.24396487241E+04  0.25500000920E-02 0. -1.
       -2   -1    0    0    0  501  0.00000000000E+00  0.00000000000E+00 -0.12040154223E+04  0.12040154223E+04  0.25500000920E-02 0.  1.
    10030    2    1    2    0    0  0.00000000000E+00  0.00000000000E+00  0.12356333017E+04  0.36436641464E+04  0.34277541854E+04 0.  0.
        2    1    3    3  502    0  0.14112173515E+03  0.54379652016E+03  0.23389870478E+04  0.24055125045E+04  0.25500000920E-02 0. -1.
       -2    1    3    3    0  502 -0.14112173515E+03 -0.54379652016E+03 -0.11033537460E+04  0.12381516419E+04  0.25500000920E-02 0.  1.
</event>
<event>
 5   0  0.3159875E-07  0.3618950E+04  0.7818609E-02  0.8086165E-01
        1   -1    0    0  501    0  0.00000000000E+00  0.00000000000E+00  0.21252261226E+04  0.21252261226E+04  0.50400001928E-02 0. -1.
       -1   -1    0    0    0  501  0.00000000000E+00  0.00000000000E+00 -0.15406362136E+04  0.15406362136E+04  0.50400001928E-02 0.  1.
    10030    2    1    2    0    0  0.00000000000E+00  0.00000000000E+00  0.58458990900E+03  0.36658623362E+04  0.36189503045E+04 0.  0.
        5    1    3    3  502    0  0.33288836078E+03  0.13437561180E+04  0.14725958427E+04  0.20211520901E+04  0.46999998093E+01 0. -1.
       -5    1    3    3    0  502 -0.33288836078E+03 -0.13437561180E+04 -0.88800593372E+03  0.16447102461E+04  0.46999998093E+01 0.  1.
</event>
<event>
 5   0  0.9878977E-07  0.3553682E+04  0.7818609E-02  0.8101185E-01
        2   -1    0    0  501    0  0.00000000000E+00  0.00000000000E+00  0.19128002263E+04  0.19128002263E+04  0.25500000920E-02 0. -1.
       -2   -1    0    0    0  501  0.00000000000E+00  0.00000000000E+00 -0.16505455722E+04  0.16505455722E+04  0.25500000920E-02 0.  1.
    10030    2    1    2    0    0  0.00000000000E+00  0.00000000000E+00  0.26225465407E+03  0.35633457986E+04  0.35536820027E+04 0.  0.
        5    1    3    3  502    0  0.10843395601E+04 -0.57129944050E+03 -0.11588260485E+04  0.16867350809E+04  0.46999998093E+01 0.  1.
       -5    1    3    3    0  502 -0.10843395601E+04  0.57129944050E+03  0.14210807026E+04  0.18766107177E+04  0.46999998093E+01 0. -1.
</event>
<event>
 5   0  0.3159875E-07  0.3594740E+04  0.7818609E-02  0.8091698E-01
       -1   -1    0    0    0  501  0.00000000000E+00  0.00000000000E+00  0.24622085474E+04  0.24622085474E+04  0.50400001928E-02 0. -1.
        1   -1    0    0  501    0  0.00000000000E+00  0.00000000000E+00 -0.13120494950E+04  0.13120494950E+04  0.50400001928E-02 0.  1.
    10030    2    1    2    0    0  0.00000000000E+00  0.00000000000E+00  0.11501590525E+04  0.37742580424E+04  0.35947403140E+04 0.  0.
        2    1    3    3  502    0 -0.72371131169E+03  0.19782794922E+02 -0.11521866227E+04  0.13607657533E+04  0.25500000920E-02 0.  1.
       -2    1    3    3    0  502  0.72371131169E+03 -0.19782794922E+02  0.23023456752E+04  0.24134922892E+04  0.25500000920E-02 0. -1.
</event>
<event>
 5   0  0.3159875E-07  0.3606172E+04  0.7818609E-02  0.8089079E-01
       -1   -1    0    0    0  501  0.00000000000E+00  0.00000000000E+00  0.14053552254E+04  0.14053552254E+04  0.50400001928E-02 0.  1.
        1   -1    0    0  501    0  0.00000000000E+00  0.00000000000E+00 -0.23133786049E+04  0.23133786049E+04  0.50400001928E-02 0. -1.
    10030    2    1    2    0    0  0.00000000000E+00  0.00000000000E+00 -0.90802337953E+03  0.37187338303E+04  0.36061717712E+04 0.  0.
        2    1    3    3  502    0  0.64972545504E+02 -0.78088788988E+03  0.12205953860E+04  0.14504690360E+04  0.25500000920E-02 0.  1.
       -2    1    3    3    0  502 -0.64972545504E+02  0.78088788988E+03 -0.21286187655E+04  0.22682647943E+04  0.25500000920E-02 0. -1.
</event>
<event>
 5   0  0.3242047E-07  0.3483890E+04  0.7818609E-02  0.8117618E-01
       -1   -1    0    0    0  501  0.00000000000E+00  0.00000000000E+00  0.11908738603E+04  0.11908738603E+04  0.50400001928E-02 0.  1.
        1   -1    0    0  501    0  0.00000000000E+00  0.00000000000E+00 -0.25480218106E+04  0.25480218107E+04  0.50400001928E-02 0. -1.
    10030    2    1    2    0    0  0.00000000000E+00  0.00000000000E+00 -0.13571479503E+04  0.37388956710E+04  0.34838901073E+04 0.  0.
        1    1    3    3  502    0 -0.42613569392E+03  0.21556111570E+03 -0.24763974941E+04  0.25220235473E+04  0.50400001928E-02 0. -1.
       -1    1    3    3    0  502  0.42613569392E+03 -0.21556111570E+03  0.11192495438E+04  0.12168721237E+04  0.50400001928E-02 0.  1.
</event>
<event>
 5   0  0.3159875E-07  0.3566893E+04  0.7818609E-02  0.8098118E-01
        1   -1    0    0  501    0  0.00000000000E+00  0.00000000000E+00  0.12734553767E+04  0.12734553767E+04  0.50400001928E-02 0. -1.
       -1   -1    0    0    0  501  0.00000000000E+00  0.00000000000E+00 -0.24976778934E+04  0.24976778935E+04  0.50400001928E-02 0.  1.
    10030    2    1    2    0    0  0.00000000000E+00  0.00000000000E+00 -0.12242225168E+04  0.37711332701E+04  0.35668929575E+04 0.  0.
        2    1    3    3  502    0 -0.10538249407E+04  0.13550171033E+04 -0.11236142467E+04  0.20516157855E+04  0.25500000920E-02 0.  1.
       -2    1    3    3    0  502  0.10538249407E+04 -0.13550171033E+04 -0.10060827009E+03  0.17195174846E+04  0.25500000920E-02 0. -1.
</event>
<event>
 5   0  0.1006019E-06  0.3663721E+04  0.7818609E-02  0.8076050E-01
       -2   -1    0    0    0  501  0.00000000000E+00  0.00000000000E+00  0.16359835055E+04  0.16359835055E+04  0.25500000920E-02 0.  1.
        2   -1    0    0  501    0  0.00000000000E+00  0.00000000000E+00 -0.20511899827E+04  0.20511899827E+04  0.25500000920E-02 0. -1.
    10030    2    1    2    0    0  0.00000000000E+00  0.00000000000E+00 -0.41520647724E+03  0.36871734883E+04  0.36637210475E+04 0.  0.
        1    1    3    3  502    0 -0.12173070173E+04  0.19766895323E+03  0.11556168066E+04  0.16900768010E+04  0.50400001928E-02 0.  1.
       -1    1    3    3    0  502  0.12173070173E+04 -0.19766895323E+03 -0.15708232838E+04  0.19970966873E+04  0.50400001928E-02 0. -1.
</event>
<event>
 5   0  0.1006019E-06  0.3487176E+04  0.7818609E-02  0.8116836E-01
       -2   -1    0    0    0  501  0.00000000000E+00  0.00000000000E+00  0.11489573303E+04  0.11489573303E+04  0.25500000920E-02 0. -1.
        2   -1    0    0  501    0  0.00000000000E+00  0.00000000000E+00 -0.26459637058E+04  0.26459637058E+04  0.25500000920E-02 0.  1.
    10030    2    1    2    0    0  0.00000000000E+00  0.00000000000E+00 -0.14970063755E+04  0.37949210360E+04  0.34871761615E+04 0.  0.
        1    1    3    3  502    0  0.10169845602E+04 -0.10536544518E+03 -0.22854965654E+04  0.25037679652E+04  0.50400001928E-02 0.  1.
       -1    1    3    3    0  502 -0.10169845602E+04  0.10536544518E+03  0.78849018994E+03  0.12911530708E+04  0.50400001928E-02 0. -1.
</event>
<event>
 5   0  0.3278988E-07  0.3686382E+04  0.7818609E-02  0.8070987E-01
       -1   -1    0    0    0  501  0.00000000000E+00  0.00000000000E+00  0.24352033013E+04  0.24352033013E+04  0.50400001928E-02 0. -1.
        1   -1    0    0  501    0  0.00000000000E+00  0.00000000000E+00 -0.13951001871E+04  0.13951001871E+04  0.50400001928E-02 0.  1.
    10030    2    1    2    0    0  0.00000000000E+00  0.00000000000E+00  0.10401031142E+04  0.38303034885E+04  0.36863817390E+04 0.  0.
        4    1    3    3  502    0  0.13799422291E+04  0.17339939835E+03 -0.73673473269E+03  0.15738766109E+04  0.12699999809E+01 0.  1.
       -4    1    3    3    0  502 -0.13799422291E+04 -0.17339939835E+03  0.17768378469E+04  0.22564268776E+04  0.12699999809E+01 0. -1.
</event>
<event>
 5   0  0.9878977E-07  0.3632283E+04  0.7818609E-02  0.8083137E-01
        2   -1    0    0  501    0  0.00000000000E+00  0.00000000000E+00  0.24997717304E+04  0.24997717304E+04  0.25500000920E-02 0.  1.
       -2   -1    0    0    0  501  0.00000000000E+00  0.00000000000E+00 -0.13194685805E+04  0.13194685805E+04  0.25500000920E-02 0. -1.
    10030    2    1    2    0    0  0.00000000000E+00  0.00000000000E+00  0.11803031498E+04  0.38192403109E+04  0.36322831700E+04 0.  0.
        5    1    3    3  502    0 -0.13643130540E+04  0.63335421285E+03 -0.48000647605E+03  0.15788970756E+04  0.46999998093E+01 0. -1.
       -5    1    3    3    0  502  0.13643130540E+04 -0.63335421285E+03  0.16603096259E+04  0.22403432353E+04  0.46999998093E+01 0.  1.
</event>
<event>
 5   0  0.3159875E-07  0.3653116E+04  0.7818609E-02  0.8078432E-01
        1   -1    0    0  501    0  0.00000000000E+00  0.00000000000E+00  0.19860886006E+04  0.19860886006E+04  0.50400001928E-02 0.  1.
       -1   -1    0    0    0  501  0.00000000000E+00  0.00000000000E+00 -0.16798411836E+04  0.16798411836E+04  0.50400001928E-02 0. -1.
    10030    2    1    2    0    0  0.00000000000E+00  0.00000000000E+00  0.30624741696E+03  0.36659297842E+04  0.36531156158E+04 0.  0.
        5    1    3    3  502    0 -0.72316676020E+03 -0.73486211471E+03 -0.13599113488E+04  0.17065677418E+04  0.46999998093E+01 0. -1.
       -5    1    3    3    0  502  0.72316676020E+03  0.73486211471E+03  0.16661587657E+04  0.19593620424E+04  0.46999998093E+01 0.  1.
</event>
<event>
 5   0  0.3159875E-07  0.3549637E+04  0.7818609E-02  0.8102126E-01
        1   -1    0    0  501    0  0.00000000000E+00  0.00000000000E+00  0.13460383815E+04  0.13460383816E+04  0.50400001928E-02 0. -1.
       -1   -1    0    0    0  501  0.00000000000E+00  0.00000000000E+00 -0.23401863680E+04  0.23401863680E+04  0.50400001928E-02 0.  1.
    10030    2    1    2    0    0  0.00000000000E+00  0.00000000000E+00 -0.99414798646E+03  0.36862247496E+04  0.35496369794E+04 0.  0.
        2    1    3    3  502    0 -0.22453978548E+03  0.11836056725E+03  0.13270921850E+04  0.13511480329E+04  0.25500000920E-02 0. -1.
       -2    1    3    3    0  502  0.22453978548E+03 -0.11836056725E+03 -0.23212401715E+04  0.23350767167E+04  0.25500000920E-02 0.  1.
</event>
<event>
 5   0  0.9878977E-07  0.3559385E+04  0.7818609E-02  0.8099859E-01
        2   -1    0    0  501    0  0.00000000000E+00  0.00000000000E+00  0.20351773276E+04  0.20351773276E+04  0.25500000920E-02 0.  1.
       -2   -1    0    0    0  501  0.00000000000E+00  0.00000000000E+00 -0.15562793819E+04  0.15562793819E+04  0.25500000920E-02 0. -1.
    10030    2    1    2    0    0  0.00000000000E+00  0.00000000000E+00  0.47889794570E+03  0.35914567096E+04  0.35593845050E+04 0.  0.
        5    1    3    3  502    0 -0.15848991273E+04  0.12694226619E+03  0.10461924464E+04  0.19033024740E+04  0.46999998093E+01 0. -1.
       -5    1    3    3    0  502  0.15848991273E+04 -0.12694226619E+03 -0.56729450070E+03  0.16881542356E+04  0.46999998093E+01 0.  1.
</event>
<event>
 5   0  0.1006019E-06  0.3576919E+04  0.7818609E-02  0.8095799E-01
        2   -1    0    0  501    0  0.00000000000E+00  0.00000000000E+00  0.18694191080E+04  0.18694191080E+04  0.25500000920E-02 0.  1.
       -2   -1    0    0    0  501  0.00000000000E+00  0.00000000000E+00 -0.17110063602E+04  0.17110063602E+04  0.25500000920E-02 0. -1.
    10030    2    1    2    0    0  0.00000000000E+00  0.00000000000E+00  0.15841274780E+03  0.35804254683E+04  0.35769193358E+04 0.  0.
        1    1    3    3  502    0 -0.16969740579E+04 -0.55235257171E+03 -0.38269932823E+02  0.17850150992E+04  0.50400001928E-02 0. -1.
       -1    1    3    3    0  502  0.16969740579E+04  0.55235257171E+03  0.19668268063E+03  0.17954103691E+04  0.50400001928E-02 0.  1.
</event>
<event>
 5   0  0.3159875E-07  0.3609479E+04  0.7818609E-02  0.8088324E-01
       -1   -1    0    0    0  501  0.00000000000E+00  0.00000000000E+00  0.25880776648E+04  0.25880776648E+04  0.50400001928E-02 0. -1.
        1   -1    0    0  501    0  0.00000000000E+00  0.00000000000E+00 -0.12584957913E+04  0.12584957913E+04  0.50400001928E-02 0.  1.
    10030    2    1    2    0    0  0.00000000000E+00  0.00000000000E+00  0.13295818735E+04  0.38465734561E+04  0.36094791030E+04 0.  0.
        2    1    3    3  502    0 -0.18007680132E+04 -0.16676039843E+02  0.53851125336E+03  0.18796377038E+04  0.25500000920E-02 0.  1.
       -2    1    3    3    0  502  0.18007680132E+04  0.16676039843E+02  0.79107062014E+03  0.19669357523E+04  0.25500000920E-02 0. -1.
</event>
<event>
 5   0  0.3159875E-07  0.3664138E+04  0.7818609E-02  0.8075956E-01
       -3   -1    0    0    0  501  0.00000000000E+00  0.00000000000E+00  0.23606907518E+04  0.23606907540E+04  0.10100000352E+00 0.  1.
        3   -1    0    0  501    0  0.00000000000E+00  0.00000000000E+00 -0.14218199056E+04  0.14218199092E+04  0.10100000352E+00 0. -1.
    10030    2    1    2    0    0  0.00000000000E+00  0.00000000000E+00  0.93887084620E+03  0.37825106631E+04  0.36641381594E+04 0.  0.
        4    1    3    3  502    0 -0.16059823724E+04  0.38534710244E+03  0.12880243674E+04  0.20944402961E+04  0.12699999809E+01 0.  1.
       -4    1    3    3    0  502  0.16059823724E+04 -0.38534710244E+03 -0.34915352117E+03  0.16880703671E+04  0.12699999809E+01 0. -1.
</event>
<event>
 5   0  0.3159875E-07  0.3492163E+04  0.7818609E-02  0.8115650E-01
       -1   -1    0    0    0  501  0.00000000000E+00  0.00000000000E+00  0.23493098996E+04  0.23493098996E+04  0.50400001928E-02 0. -1.
        1   -1    0    0  501    0  0.00000000000E+00  0.00000000000E+00 -0.12977433421E+04  0.12977433421E+04  0.50400001928E-02 0.  1.
    10030    2    1    2    0    0  0.00000000000E+00  0.00000000000E+00  0.10515665575E+04  0.36470532416E+04  0.34921633871E+04 0.  0.
        5    1    3    3  502    0 -0.14553727655E+04  0.77291774470E+03 -0.77114948820E+02  0.16496910413E+04  0.46999998093E+01 0.  1.
       -5    1    3    3    0  502  0.14553727655E+04 -0.77291774470E+03  0.11286815063E+04  0.19973622003E+04  0.46999998093E+01 0. -1.
</event>
<event>
 5   0  0.3365378E-07  0.3548061E+04  0.7818609E-02  0.8102494E-01
       -1   -1    0    0    0  501  0.00000000000E+00  0.00000000000E+00  0.17194759216E+04  0.17194759216E+04  0.50400001928E-02 0. -1.
        1   -1    0    0  501    0  0.00000000000E+00  0.00000000000E+00 -0.18303162808E+04  0.18303162808E+04  0.50400001928E-02 0.  1.
    10030    2    1    2    0    0  0.00000000000E+00  0.00000000000E+00 -0.11084035927E+03  0.35497922024E+04  0.35480613150E+04 0.  0.
        3    1    3    3  502    0  0.11650529558E+04 -0.99190693324E+03  0.84276886400E+03  0.17468506296E+04  0.10100000352E+00 0. -1.
       -3    1    3    3    0  502 -0.11650529558E+04  0.99190693324E+03 -0.95360922327E+03  0.18029415728E+04  0.10100000352E+00 0.  1.
</event>
<event>
 5   0  0.3159875E-07  0.3586539E+04  0.7818609E-02  0.8093582E-01
       -1   -1    0    0    0  501  0.00000000000E+00  0.00000000000E+00  0.18177670303E+04  0.18177670303E+04  0.50400001928E-02 0.  1.
        1   -1    0    0  501    0  0.00000000000E+00  0.00000000000E+00 -0.17691023389E+04  0.17691023389E+04  0.50400001928E-02 0. -1.
    10030    2    1    2    0    0  0.00000000000E+00  0.00000000000E+00  0.48664691422E+02  0.35868693692E+04  0.35865392260E+04 0.  0.
        5    1    3    3  502    0 -0.12015178994E+04 -0.11686172313E+04 -0.61328600121E+03  0.17847838259E+04  0.46999998093E+01 0. -1.
       -5    1    3    3    0  502  0.12015178994E+04  0.11686172313E+04  0.66195069263E+03  0.18020855433E+04  0.46999998093E+01 0.  1.
</event>
<event>
 5   0  0.3278988E-07  0.2612715E+04  0.7818609E-02  0.8363895E-01
       -1   -1    0    0    0  501  0.00000000000E+00  0.00000000000E+00  0.83421271474E+03  0.83421271476E+03  0.50400001928E-02 0. -1.
        1   -1    0    0  501    0  0.00000000000E+00  0.00000000000E+00 -0.20457254444E+04  0.20457254444E+04  0.50400001928E-02 0.  1.
    10030    2    1    2    0    0  0.00000000000E+00  0.00000000000E+00 -0.12115127297E+04  0.28799381592E+04  0.26127151981E+04 0.  0.
        4    1    3    3  502    0  0.25016061682E+03  0.76827343760E+02  0.80502401773E+03  0.84649161660E+03  0.12699999809E+01 0. -1.
       -4    1    3    3    0  502 -0.25016061682E+03 -0.76827343760E+02 -0.20165367474E+04  0.20334465426E+04  0.12699999809E+01 0.  1.
</event>
<event>
 5   0  0.3159875E-07  0.3471877E+04  0.7818609E-02  0.8120487E-01
        1   -1    0    0  501    0  0.00000000000E+00  0.00000000000E+00  0.11469192379E+04  0.11469192379E+04  0.50400001928E-02 0. -1.
       -1   -1    0    0    0  501  0.00000000000E+00  0.00000000000E+00 -0.26274578965E+04  0.26274578965E+04  0.50400001928E-02 0.  1.
    10030    2    1    2    0    0  0.00000000000E+00  0.00000000000E+00 -0.14805386586E+04  0.37743771343E+04  0.34718767306E+04 0.  0.
        5    1    3    3  502    0 -0.58523796025E+03  0.15267390824E+04 -0.13741914744E+04  0.21358511170E+04  0.46999998093E+01 0.  1.
       -5    1    3    3    0  502  0.58523796025E+03 -0.15267390824E+04 -0.10634718422E+03  0.16385260173E+04  0.46999998093E+01 0. -1.
</event>
<event>
 5   0  0.9538919E-07  0.3623418E+04  0.7818609E-02  0.8085148E-01
        2   -1    0    0  501    0  0.00000000000E+00  0.00000000000E+00  0.23285743034E+04  0.23285743034E+04  0.25500000920E-02 0.  1.
       -2   -1    0    0    0  501  0.00000000000E+00  0.00000000000E+00 -0.14095706981E+04  0.14095706981E+04  0.25500000920E-02 0. -1.
    10030    2    1    2    0    0  0.00000000000E+00  0.00000000000E+00  0.91900360532E+03  0.37381450015E+04  0.36234183343E+04 0.  0.
        4    1    3    3  502    0  0.33552648724E+03  0.17451562512E+04  0.96010719228E+02  0.17797100988E+04  0.12699999809E+01 0. -1.
       -4    1    3    3    0  502 -0.33552648724E+03 -0.17451562512E+04  0.82299288609E+03  0.19584349027E+04  0.12699999809E+01 0.  1.
</event>
<event>
 5   0  0.3159875E-07  0.3580460E+04  0.7818609E-02  0.8094982E-01
       -1   -1    0    0    0  501  0.00000000000E+00  0.00000000000E+00  0.10525600273E+04  0.10525600274E+04  0.50400001928E-02 0. -1.
        1   -1    0    0  501    0  0.00000000000E+00  0.00000000000E+00 -0.30448849788E+04  0.30448849788E+04  0.50400001928E-02 0.  1.
    10030    2    1    2    0    0  0.00000000000E+00  0.00000000000E+00 -0.19923249514E+04  0.40974450061E+04  0.35804604266E+04 0.  0.
        5    1    3    3  502    0 -0.83763665477E+03 -0.15728331362E+04 -0.11925943247E+04  0.21442347243E+04  0.46999998093E+01 0.  1.
       -5    1    3    3    0  502  0.83763665477E+03  0.15728331362E+04 -0.79973062673E+03  0.19532102818E+04  0.46999998093E+01 0. -1.
</event>
<event>
 5   0  0.9878336E-07  0.3605454E+04  0.7818609E-02  0.8089244E-01
        2   -1    0    0  501    0  0.00000000000E+00  0.00000000000E+00  0.17464133815E+04  0.17464133815E+04  0.25500000920E-02 0.  1.
       -2   -1    0    0    0  501  0.00000000000E+00  0.00000000000E+00 -0.18608563501E+04  0.18608563501E+04  0.25500000920E-02 0. -1.
    10030    2    1    2    0    0  0.00000000000E+00  0.00000000000E+00 -0.11444296861E+03  0.36072697315E+04  0.36054538858E+04 0.  0.
        3    1    3    3  502    0 -0.17428241344E+04 -0.15263609433E+03 -0.49228607102E+03  0.18174375716E+04  0.10100000352E+00 0. -1.
       -3    1    3    3    0  502  0.17428241344E+04  0.15263609433E+03  0.37784310240E+03  0.17898321600E+04  0.10100000352E+00 0.  1.
</event>
<event>
 5   0  0.9878336E-07  0.3647617E+04  0.7818609E-02  0.8079671E-01
        2   -1    0    0  501    0  0.00000000000E+00  0.00000000000E+00  0.24627704807E+04  0.24627704807E+04  0.25500000920E-02 0.  1.
       -2   -1    0    0    0  501  0.00000000000E+00  0.00000000000E+00 -0.13506240798E+04  0.13506240798E+04  0.25500000920E-02 0. -1.
    10030    2    1    2    0    0  0.00000000000E+00  0.00000000000E+00  0.11121464009E+04  0.38133945605E+04  0.36476168188E+04 0.  0.
        3    1    3    3  502    0  0.14274031420E+04  0.11321481860E+04  0.46836851126E+03  0.18811189004E+04  0.10100000352E+00 0.  1.
       -3    1    3    3    0  502 -0.14274031420E+04 -0.11321481860E+04  0.64377788960E+03  0.19322756600E+04  0.10100000352E+00 0. -1.
</event>
<event>
 5   0  0.3159875E-07  0.3562010E+04  0.7818609E-02  0.8099250E-01
       -1   -1    0    0    0  501  0.00000000000E+00  0.00000000000E+00  0.10797548957E+04  0.10797548958E+04  0.50400001928E-02 0. -1.
        1   -1    0    0  501    0  0.00000000000E+00  0.00000000000E+00 -0.29376835071E+04  0.29376835071E+04  0.50400001928E-02 0.  1.
    10030    2    1    2    0    0  0.00000000000E+00  0.00000000000E+00 -0.18579286113E+04  0.40174384028E+04  0.35620096288E+04 0.  0.
        2    1    3    3  502    0  0.11935356854E+04 -0.70641637130E+03 -0.21891532030E+04  0.25915137021E+04  0.25500000920E-02 0.  1.
       -2    1    3    3    0  502 -0.11935356854E+04  0.70641637130E+03  0.33122459170E+03  0.14259247007E+04  0.25500000920E-02 0. -1.
</event>
<event>
 5   0  0.9878977E-07  0.3663042E+04  0.7818609E-02  0.8076202E-01
        2   -1    0    0  501    0  0.00000000000E+00  0.00000000000E+00  0.12119007181E+04  0.12119007181E+04  0.25500000920E-02 0.  1.
       -2   -1    0    0    0  501  0.00000000000E+00  0.00000000000E+00 -0.27679405397E+04  0.27679405397E+04  0.25500000920E-02 0. -1.
    10030    2    1    2    0    0  0.00000000000E+00  0.00000000000E+00 -0.15560398216E+04  0.39798412578E+04  0.36630419751E+04 0.  0.
        5    1    3    3  502    0  0.68828983725E+03  0.16580338452E+04 -0.38383695597E+03  0.18358028300E+04  0.46999998093E+01 0.  1.
       -5    1    3    3    0  502 -0.68828983725E+03 -0.16580338452E+04 -0.11722028656E+04  0.21440384278E+04  0.46999998093E+01 0. -1.
</event>
<event>
 5   0  0.3159875E-07  0.2805996E+04  0.7818609E-02  0.8301409E-01
       -1   -1    0    0    0  501  0.00000000000E+00  0.00000000000E+00  0.96906585708E+03  0.96906585710E+03  0.50400001928E-02 0. -1.
        1   -1    0    0  501    0  0.00000000000E+00  0.00000000000E+00 -0.20312384838E+04  0.20312384838E+04  0.50400001928E-02 0.  1.
    10030    2    1    2    0    0  0.00000000000E+00  0.00000000000E+00 -0.10621726267E+04  0.30003043409E+04  0.28059963380E+04 0.  0.
        5    1    3    3  502    0 -0.70865361283E+03 -0.25377080064E+03 -0.17970464528E+04  0.19483294397E+04  0.46999998093E+01 0.  1.
       -5    1    3    3    0  502  0.70865361283E+03  0.25377080064E+03  0.73487382613E+03  0.10519749011E+04  0.46999998093E+01 0. -1.
</event>
<event>
 5   0  0.3159875E-07  0.3550022E+04  0.7818609E-02  0.8102037E-01
        1   -1    0    0  501    0  0.00000000000E+00  0.00000000000E+00  0.26070193425E+04  0.26070193425E+04  0.50400001928E-02 0. -1.
       -1   -1    0    0    0  501  0.00000000000E+00  0.00000000000E+00 -0.12085309341E+04  0.12085309341E+04  0.50400001928E-02 0.  1.
    10030    2    1    2    0    0  0.00000000000E+00  0.00000000000E+00  0.13984884084E+04  0.38155502766E+04  0.35500217020E+04 0.  0.
        2    1    3    3  502    0 -0.12569299833E+04  0.10923659850E+04  0.13596338182E+04  0.21498233760E+04  0.25500000920E-02 0. -1.
       -2    1    3    3    0  502  0.12569299833E+04 -0.10923659850E+04  0.38854590162E+02  0.16657269006E+04  0.25500000920E-02 0.  1.
</event>
<event>
 5   0  0.9878977E-07  0.3553146E+04  0.7818609E-02  0.8101309E-01
        2   -1    0    0  501    0  0.00000000000E+00  0.00000000000E+00  0.26222810335E+04  0.26222810335E+04  0.25500000920E-02 0. -1.
       -2   -1    0    0    0  501  0.00000000000E+00  0.00000000000E+00 -0.12036132537E+04  0.12036132537E+04  0.25500000920E-02 0.  1.
    10030    2    1    2    0    0  0.00000000000E+00  0.00000000000E+00  0.14186677797E+04  0.38258942872E+04  0.35531463279E+04 0.  0.
        5    1    3    3  502    0  0.20948562395E+03  0.12201467814E+04  0.20813284898E+04  0.24216921289E+04  0.46999998093E+01 0. -1.
       -5    1    3    3    0  502 -0.20948562395E+03 -0.12201467814E+04 -0.66266071008E+03  0.14042021583E+04  0.46999998093E+01 0.  1.
</event>
<event>
 5   0  0.1006019E-06  0.3577284E+04  0.7818609E-02  0.8095715E-01
       -2   -1    0    0    0  501  0.00000000000E+00  0.00000000000E+00  0.16064714739E+04  0.16064714739E+04  0.25500000920E-02 0. -1.
        2   -1    0    0  501    0  0.00000000000E+00  0.00000000000E+00 -0.19914706775E+04  0.19914706776E+04  0.25500000920E-02 0.  1.
    10030    2    1    2    0    0  0.00000000000E+00  0.00000000000E+00 -0.38499920360E+03  0.35979421515E+04  0.35772843525E+04 0.  0.
        1    1    3    3  502    0 -0.59859659831E+03  0.79689831816E+03 -0.16862955016E+04  0.19588152888E+04  0.50400001928E-02 0.  1.
       -1    1    3    3    0  502  0.59859659831E+03 -0.79689831816E+03  0.13012962980E+04  0.16391268627E+04  0.50400001928E-02 0. -1.
</event>
<event>
 5   0  0.3159875E-07  0.3639020E+04  0.7818609E-02  0.8081612E-01
        1   -1    0    0  501    0  0.00000000000E+00  0.00000000000E+00  0.12675328947E+04  0.12675328947E+04  0.50400001928E-02 0.  1.
       -1   -1    0    0    0  501  0.00000000000E+00  0.00000000000E+00 -0.26118588445E+04  0.26118588445E+04  0.50400001928E-02 0. -1.
    10030    2    1    2    0    0  0.00000000000E+00  0.00000000000E+00 -0.13443259498E+04  0.38793917392E+04  0.36390201987E+04 0.  0.
        2    1    3    3  502    0 -0.14541318213E+04  0.28907190401E+03  0.45228646243E+03  0.15500403103E+04  0.25500000920E-02 0.  1.
       -2    1    3    3    0  502  0.14541318213E+04 -0.28907190401E+03 -0.17966124122E+04  0.23293514289E+04  0.25500000920E-02 0. -1.
</event>
<event>
 5   0  0.1006019E-06  0.3601315E+04  0.7818609E-02  0.8090190E-01
        2   -1    0    0  501    0  0.00000000000E+00  0.00000000000E+00  0.30998036847E+04  0.30998036847E+04  0.25500000920E-02 0. -1.
       -2   -1    0    0    0  501  0.00000000000E+00  0.00000000000E+00 -0.10459913758E+04  0.10459913758E+04  0.25500000920E-02 0.  1.
    10030    2    1    2    0    0  0.00000000000E+00  0.00000000000E+00  0.20538123089E+04  0.41457950605E+04  0.36013152714E+04 0.  0.
        1    1    3    3  502    0 -0.11006017276E+04  0.93726542521E+03 -0.20898924174E+03  0.14606392927E+04  0.50400001928E-02 0.  1.
       -1    1    3    3    0  502  0.11006017276E+04 -0.93726542521E+03  0.22628015506E+04  0.26851557678E+04  0.50400001928E-02 0. -1.
</event>
<event>
 5   0  0.3278988E-07  0.3618376E+04  0.7818609E-02  0.8086295E-01
        1   -1    0    0  501    0  0.00000000000E+00  0.00000000000E+00  0.15913686034E+04  0.15913686034E+04  0.50400001928E-02 0. -1.
       -1   -1    0    0    0  501  0.00000000000E+00  0.00000000000E+00 -0.20568217422E+04  0.20568217422E+04  0.50400001928E-02 0.  1.
    10030    2    1    2    0    0  0.00000000000E+00  0.00000000000E+00 -0.46545313886E+03  0.36481903456E+04  0.36183761791E+04 0.  0.
        4    1    3    3  502    0 -0.27429354239E+03 -0.16244470594E+04  0.52116081355E+03  0.17279107045E+04  0.12699999809E+01 0. -1.
       -4    1    3    3    0  502  0.27429354239E+03  0.16244470594E+04 -0.98661395241E+03  0.19202796411E+04  0.12699999809E+01 0.  1.
</event>
<event>
 5   0  0.9878336E-07  0.2772293E+04  0.7818609E-02  0.8311922E-01
       -2   -1    0    0    0  501  0.00000000000E+00  0.00000000000E+00  0.99226867654E+03  0.99226867654E+03  0.25500000920E-02 0.  1.
        2   -1    0    0  501    0  0.00000000000E+00  0.00000000000E+00 -0.19363724559E+04  0.19363724559E+04  0.25500000920E-02 0. -1.
    10030    2    1    2    0    0  0.00000000000E+00  0.00000000000E+00 -0.94410377937E+03  0.29286411325E+04  0.27722927220E+04 0.  0.
        3    1    3    3  502    0  0.31340017750E+03 -0.99134255374E+03  0.49639493056E+03  0.11521231130E+04  0.10100000352E+00 0. -1.
       -3    1    3    3    0  502 -0.31340017750E+03  0.99134255374E+03 -0.14404987099E+04  0.17765180195E+04  0.10100000352E+00 0.  1.
</event>
<event>
 5   0  0.3278988E-07  0.3670078E+04  0.7818609E-02  0.8074625E-01
        1   -1    0    0  501    0  0.00000000000E+00  0.00000000000E+00  0.20998186340E+04  0.20998186340E+04  0.50400001928E-02 0.  1.
       -1   -1    0    0    0  501  0.00000000000E+00  0.00000000000E+00 -0.16036471691E+04  0.16036471691E+04  0.50400001928E-02 0. -1.
    10030    2    1    2    0    0  0.00000000000E+00  0.00000000000E+00  0.49617146485E+03  0.37034658031E+04  0.36700780417E+04 0.  0.
        4    1    3    3  502    0 -0.14380430538E+04  0.16548716729E+03 -0.89000994755E+03  0.16992566453E+04  0.12699999809E+01 0.  1.
       -4    1    3    3    0  502  0.14380430538E+04 -0.16548716729E+03  0.13861814124E+04  0.20042091578E+04  0.12699999809E+01 0. -1.
</event>
<event>
 5   0  0.9878336E-07  0.3544177E+04  0.7818609E-02  0.8103400E-01
        2   -1    0    0  501    0  0.00000000000E+00  0.00000000000E+00  0.23601697095E+04  0.23601697095E+04  0.25500000920E-02 0.  1.
       -2   -1    0    0    0  501  0.00000000000E+00  0.00000000000E+00 -0.13305385522E+04  0.13305385522E+04  0.25500000920E-02 0. -1.
    10030    2    1    2    0    0  0.00000000000E+00  0.00000000000E+00  0.10296311573E+04  0.36907082617E+04  0.35441765127E+04 0.  0.
        3    1    3    3  502    0  0.11673679671E+04  0.24469291994E+03  0.18796022354E+04  0.22261013385E+04  0.10100000352E+00 0.  1.
       -3    1    3    3    0  502 -0.11673679671E+04 -0.24469291994E+03 -0.84997107813E+03  0.14646069232E+04  0.10100000352E+00 0. -1.
</event>
<event>
 5   0  0.9538919E-07  0.3598091E+04  0.7818609E-02  0.8090929E-01
        2   -1    0    0  501    0  0.00000000000E+00  0.00000000000E+00  0.17046482777E+04  0.17046482777E+04  0.25500000920E-02 0. -1.
       -2   -1    0    0    0  501  0.00000000000E+00  0.00000000000E+00 -0.18986696873E+04  0.18986696873E+04  0.25500000920E-02 0.  1.
    10030    2    1    2    0    0  0.00000000000E+00  0.00000000000E+00 -0.19402140961E+03  0.36033179649E+04  0.35980906116E+04 0.  0.
        4    1    3    3  502    0 -0.92061041718E+03 -0.68705649240E+03  0.12895556818E+04  0.17269990253E+04  0.12699999809E+01 0. -1.
       -4    1    3    3    0  502  0.92061041718E+03  0.68705649240E+03 -0.14835770915E+04  0.18763189396E+04  0.12699999809E+01 0.  1.
</event>
<event>
 5   0  0.1031659E-06  0.3621173E+04  0.7818609E-02  0.8085659E-01
       -2   -1    0    0    0  501  0.00000000000E+00  0.00000000000E+00  0.11958357853E+04  0.11958357853E+04  0.25500000920E-02 0. -1.
        2   -1    0    0  501    0  0.00000000000E+00  0.00000000000E+00 -0.27413660523E+04  0.27413660523E+04  0.25500000920E-02 0.  1.
    10030    2    1    2    0    0  0.00000000000E+00  0.00000000000E+00 -0.15455302671E+04  0.39372018376E+04  0.36211730839E+04 0.  0.
        2    1    3    3  502    0  0.18015541023E+04 -0.52297821859E+02 -0.58478524873E+03  0.18948102894E+04  0.25500000920E-02 0. -1.
       -2    1    3    3    0  502 -0.18015541023E+04  0.52297821859E+02 -0.96074501832E+03  0.20423915482E+04  0.25500000920E-02 0.  1.
</event>
<event>
 5   0  0.1031659E-06  0.3595938E+04  0.7818609E-02  0.8091423E-01
        2   -1    0    0  501    0  0.00000000000E+00  0.00000000000E+00  0.23198915281E+04  0.23198915281E+04  0.25500000920E-02 0.  1.
       -2   -1    0    0    0  501  0.00000000000E+00  0.00000000000E+00 -0.13934671859E+04  0.13934671859E+04  0.25500000920E-02 0. -1.
    10030    2    1    2    0    0  0.00000000000E+00  0.00000000000E+00  0.92642434221E+03  0.37133587140E+04  0.35959381081E+04 0.  0.
        2    1    3    3  502    0 -0.44156149463E+03 -0.15622842092E+04  0.12610894915E+04  0.20557371450E+04  0.25500000920E-02 0. -1.
       -2    1    3    3    0  502  0.44156149463E+03  0.15622842092E+04 -0.33466514926E+03  0.16576215690E+04  0.25500000920E-02 0.  1.
</event>
<event>
 5   0  0.3278988E-07  0.3544033E+04  0.7818609E-02  0.8103433E-01
       -1   -1    0    0    0  501  0.00000000000E+00  0.00000000000E+00  0.21716022579E+04  0.21716022579E+04  0.50400001928E-02 0.  1.
        1   -1    0    0  501    0  0.00000000000E+00  0.00000000000E+00 -0.14459563480E+04  0.14459563480E+04  0.50400001928E-02 0. -1.
    10030    2    1    2    0    0  0.00000000000E+00  0.00000000000E+00  0.72564590991E+03  0.36175586059E+04  0.35440327708E+04 0.  0.
        4    1    3    3  502    0  0.11868984100E+04  0.71755212795E+03 -0.76297819283E+03  0.15829549039E+04  0.12699999809E+01 0. -1.
       -4    1    3    3    0  502 -0.11868984100E+04 -0.71755212795E+03  0.14886241027E+04  0.20346037020E+04  0.12699999809E+01 0.  1.
</event>
<event>
 5   0  0.1031659E-06  0.3617279E+04  0.7818609E-02  0.8086545E-01
       -2   -1    0    0    0  501  0.00000000000E+00  0.00000000000E+00  0.18091611567E+04  0.18091611567E+04  0.25500000920E-02 0. -1.
        2   -1    0    0  501    0  0.00000000000E+00  0.00000000000E+00 -0.18081175531E+04  0.18081175531E+04  0.25500000920E-02 0.  1.
    10030    2    1    2    0    0  0.00000000000E+00  0.00000000000E+00  0.10436035664E+01  0.36172787098E+04  0.36172785592E+04 0.  0.
        2    1    3    3  502    0 -0.37480216610E+03  0.47479140482E+03  0.17050078662E+04  0.18091311079E+04  0.25500000920E-02 0. -1.
       -2    1    3    3    0  502  0.37480216610E+03 -0.47479140482E+03 -0.17039642626E+04  0.18081476019E+04  0.25500000920E-02 0.  1.
</event>
<event>
 5   0  0.9878977E-07  0.3593996E+04  0.7818609E-02  0.8091868E-01
       -2   -1    0    0    0  501  0.00000000000E+00  0.00000000000E+00  0.14667215734E+04  0.14667215734E+04  0.25500000920E-02 0.  1.
        2   -1    0    0  501    0  0.00000000000E+00  0.00000000000E+00 -0.22016458818E+04  0.22016458818E+04  0.25500000920E-02 0. -1.
    10030    2    1    2    0    0  0.00000000000E+00  0.00000000000E+00 -0.73492430841E+03  0.36683674551E+04  0.35939958329E+04 0.  0.
        5    1    3    3  502    0 -0.94079569223E+03 -0.72578688905E+03 -0.17434370837E+04  0.21098478849E+04  0.46999998093E+01 0. -1.
       -5    1    3    3    0  502  0.94079569223E+03  0.72578688905E+03  0.10085127753E+04  0.15585195702E+04  0.46999998093E+01 0.  1.
</event>
<event>
 5   0  0.9878977E-07  0.3564349E+04  0.7818609E-02  0.8098707E-01
        2   -1    0    0  501    0  0.00000000000E+00  0.00000000000E+00  0.23270791025E+04  0.23270791025E+04  0.25500000920E-02 0.  1.
       -2   -1    0    0    0  501  0.00000000000E+00  0.00000000000E+00 -0.13648637055E+04  0.13648637055E+04  0.25500000920E-02 0. -1.
    10030    2    1    2    0    0  0.00000000000E+00  0.00000000000E+00  0.96221539703E+03  0.36919428080E+04  0.35643489206E+04 0.  0.
        5    1    3    3  502    0  0.13421812593E+04 -0.16180076812E+03 -0.72170834882E+03  0.15324865586E+04  0.46999998093E+01 0. -1.
       -5    1    3    3    0  502 -0.13421812593E+04  0.16180076812E+03  0.16839237459E+04  0.21594562495E+04  0.46999998093E+01 0.  1.
</event>
<event>
 5   0  0.9878336E-07  0.3615748E+04  0.7818609E-02  0.8086894E-01
       -2   -1    0    0    0  501  0.00000000000E+00  0.00000000000E+00  0.21956641350E+04  0.21956641350E+04  0.25500000920E-02 0.  1.
        2   -1    0    0  501    0  0.00000000000E+00  0.00000000000E+00 -0.14885739057E+04  0.14885739057E+04  0.25500000920E-02 0. -1.
    10030    2    1    2    0    0  0.00000000000E+00  0.00000000000E+00  0.70709022928E+03  0.36842380408E+04  0.36157479653E+04 0.  0.
        3    1    3    3  502    0 -0.24904583647E+03  0.48582746288E+03  0.21096635266E+04  0.21791586353E+04  0.10100000352E+00 0.  1.
       -3    1    3    3    0  502  0.24904583647E+03 -0.48582746288E+03 -0.14025732973E+04  0.15050794055E+04  0.10100000352E+00 0. -1.
</event>
<event>
 5   0  0.3159875E-07  0.3589520E+04  0.7818609E-02  0.8092896E-01
        1   -1    0    0  501    0  0.00000000000E+00  0.00000000000E+00  0.21245838689E+04  0.21245838689E+04  0.50400001928E-02 0. -1.
       -1   -1    0    0    0  501  0.00000000000E+00  0.00000000000E+00 -0.15161389021E+04  0.15161389021E+04  0.50400001928E-02 0.  1.
    10030    2    1    2    0    0  0.00000000000E+00  0.00000000000E+00  0.60844496685E+03  0.36407227710E+04  0.35895204439E+04 0.  0.
        5    1    3    3  502    0  0.91161472471E+03 -0.48162647832E+03  0.17942375275E+04  0.20693757189E+04  0.46999998093E+01 0. -1.
       -5    1    3    3    0  502 -0.91161472471E+03  0.48162647832E+03 -0.11857925607E+04  0.15713470520E+04  0.46999998093E+01 0.  1.
</event>
<event>
 5   0  0.3242047E-07  0.3326514E+04  0.7818609E-02  0.8156182E-01
        1   -1    0    0  501    0  0.00000000000E+00  0.00000000000E+00  0.20956502384E+04  0.20956502384E+04  0.50400001928E-02 0.  1.
       -1   -1    0    0    0  501  0.00000000000E+00  0.00000000000E+00 -0.13200789072E+04  0.13200789072E+04  0.50400001928E-02 0. -1.
    10030    2    1    2    0    0  0.00000000000E+00  0.00000000000E+00  0.77557133116E+03  0.34157291456E+04  0.33265138969E+04 0.  0.
        1    1    3    3  502    0 -0.95897809014E+03 -0.50849736700E+03  0.16818287836E+04  0.20016884390E+04  0.50400001928E-02 0.  1.
       -1    1    3    3    0  502  0.95897809014E+03  0.50849736700E+03 -0.90625745245E+03  0.14140407065E+04  0.50400001928E-02 0. -1.
</event>
<event>
 5   0  0.9878336E-07  0.3412058E+04  0.7818609E-02  0.8134953E-01
        2   -1    0    0  501    0  0.00000000000E+00  0.00000000000E+00  0.24272414540E+04  0.24272414540E+04  0.25500000920E-02 0.  1.
       -2   -1    0    0    0  501  0.00000000000E+00  0.00000000000E+00 -0.11991124168E+04  0.11991124168E+04  0.25500000920E-02 0. -1.
    10030    2    1    2    0    0  0.00000000000E+00  0.00000000000E+00  0.12281290372E+04  0.36263538707E+04  0.34120582445E+04 0.  0.
        3    1    3    3  502    0  0.11071572429E+04 -0.83719424959E+03 -0.44012055503E+03  0.14561584684E+04  0.10100000352E+00 0. -1.
       -3    1    3    3    0  502 -0.11071572429E+04  0.83719424959E+03  0.16682495922E+04  0.21701954023E+04  0.10100000352E+00 0.  1.
</event>
<event>
 5   0  0.3159875E-07  0.3642529E+04  0.7818609E-02  0.8080819E-01
       -1   -1    0    0    0  501  0.00000000000E+00  0.00000000000E+00  0.14377873809E+04  0.14377873810E+04  0.50400001928E-02 0. -1.
        1   -1    0    0  501    0  0.00000000000E+00  0.00000000000E+00 -0.23070202646E+04  0.23070202646E+04  0.50400001928E-02 0.  1.
    10030    2    1    2    0    0  0.00000000000E+00  0.00000000000E+00 -0.86923288367E+03  0.37448076456E+04  0.36425291346E+04 0.  0.
        2    1    3    3  502    0  0.11898978861E+04 -0.12146873354E+04  0.23614685093E+03  0.17167083729E+04  0.25500000920E-02 0. -1.
       -2    1    3    3    0  502 -0.11898978861E+04  0.12146873354E+04 -0.11053797346E+04  0.20280992727E+04  0.25500000920E-02 0.  1.
</event>
<event>
 5   0  0.9538919E-07  0.3594264E+04  0.7818609E-02  0.8091807E-01
       -2   -1    0    0    0  501  0.00000000000E+00  0.00000000000E+00  0.20017967738E+04  0.20017967738E+04  0.25500000920E-02 0. -1.
        2   -1    0    0  501    0  0.00000000000E+00  0.00000000000E+00 -0.16133918622E+04  0.16133918622E+04  0.25500000920E-02 0.  1.
    10030    2    1    2    0    0  0.00000000000E+00  0.00000000000E+00  0.38840491153E+03  0.36151886360E+04  0.35942635544E+04 0.  0.
        4    1    3    3  502    0 -0.49834910458E+03 -0.17157669908E+04 -0.50348536978E+00  0.17866757017E+04  0.12699999809E+01 0. -1.
       -4    1    3    3    0  502  0.49834910458E+03  0.17157669908E+04  0.38890839690E+03  0.18285129343E+04  0.12699999809E+01 0.  1.
</event>
<event>
 5   0  0.3278988E-07  0.3570415E+04  0.7818609E-02  0.8097302E-01
        1   -1    0    0  501    0  0.00000000000E+00  0.00000000000E+00  0.11985192567E+04  0.11985192567E+04  0.50400001928E-02 0.  1.
       -1   -1    0    0    0  501  0.00000000000E+00  0.00000000000E+00 -0.26590859905E+04  0.26590859905E+04  0.50400001928E-02 0. -1.
    10030    2    1    2    0    0  0.00000000000E+00  0.00000000000E+00 -0.14605667338E+04  0.38576052472E+04  0.35704149702E+04 0.  0.
        4    1    3    3  502    0 -0.10319165494E+03 -0.14950994252E+04 -0.17783583736E+04  0.23256248465E+04  0.12699999809E+01 0. -1.
       -4    1    3    3    0  502  0.10319165494E+03  0.14950994252E+04  0.31779163978E+03  0.15319804007E+04  0.12699999809E+01 0.  1.
</event>
<event>
 5   0  0.9538919E-07  0.3582481E+04  0.7818609E-02  0.8094516E-01
        2   -1    0    0  501    0  0.00000000000E+00  0.00000000000E+00  0.87558599072E+03  0.87558599072E+03  0.25500000920E-02 0.  1.
       -2   -1    0    0    0  501  0.00000000000E+00  0.00000000000E+00 -0.36644521365E+04  0.36644521365E+04  0.25500000920E-02 0. -1.
    10030    2    1    2    0    0  0.00000000000E+00  0.00000000000E+00 -0.27888661458E+04  0.45400381272E+04  0.35824812376E+04 0.  0.
        4    1    3    3  502    0  0.15398222553E+04  0.84558758692E+03 -0.95093561230E+03  0.19975863177E+04  0.12699999809E+01 0. -1.
       -4    1    3    3    0  502 -0.15398222553E+04 -0.84558758692E+03 -0.18379305335E+04  0.25424518095E+04  0.12699999809E+01 0.  1.
</event>
<event>
 5   0  0.1006019E-06  0.3273874E+04  0.7818609E-02  0.8169575E-01
       -2   -1    0    0    0  501  0.00000000000E+00  0.00000000000E+00  0.11597969866E+04  0.11597969866E+04  0.25500000920E-02 0.  1.
        2   -1    0    0  501    0  0.00000000000E+00  0.00000000000E+00 -0.23103727641E+04  0.23103727641E+04  0.25500000920E-02 0. -1.
    10030    2    1    2    0    0  0.00000000000E+00  0.00000000000E+00 -0.11505757775E+04  0.34701697507E+04  0.32738743835E+04 0.  0.
        1    1    3    3  502    0  0.17291420586E+03  0.15452738727E+04 -0.11176226962E+04  0.19149023879E+04  0.50400001928E-02 0. -1.
       -1    1    3    3    0  502 -0.17291420586E+03 -0.15452738727E+04 -0.32953081370E+02  0.15552673628E+04  0.50400001928E-02 0.  1.
</event>
<event>
 5   0  0.1031659E-06  0.3614719E+04  0.7818609E-02  0.8087129E-01
        2   -1    0    0  501    0  0.00000000000E+00  0.00000000000E+00  0.11694730914E+04  0.11694730914E+04  0.25500000920E-02 0.  1.
       -2   -1    0    0    0  501  0.00000000000E+00  0.00000000000E+00 -0.27931789510E+04  0.27931789510E+04  0.25500000920E-02 0. -1.
    10030    2    1    2    0    0  0.00000000000E+00  0.00000000000E+00 -0.16237058596E+04  0.39626520425E+04  0.36147185909E+04 0.  0.
        2    1    3    3  502    0  0.15217058870E+04 -0.85709020660E+03 -0.13217647847E+04  0.21902635857E+04  0.25500000920E-02 0. -1.
       -2    1    3    3    0  502 -0.15217058870E+04  0.85709020660E+03 -0.30194107488E+03  0.17723884567E+04  0.25500000920E-02 0.  1.
</event>
<event>
 5   0  0.3365378E-07  0.3009054E+04  0.7818609E-02  0.8241150E-01
        1   -1    0    0  501    0  0.00000000000E+00  0.00000000000E+00  0.16753688241E+04  0.16753688241E+04  0.50400001928E-02 0.  1.
       -1   -1    0    0    0  501  0.00000000000E+00  0.00000000000E+00 -0.13511060718E+04  0.13511060718E+04  0.50400001928E-02 0. -1.
    10030    2    1    2    0    0  0.00000000000E+00  0.00000000000E+00  0.32426275235E+03  0.30264748959E+04  0.30090536657E+04 0.  0.
        3    1    3    3  502    0 -0.14428376531E+04 -0.41911689564E+03  0.83181599733E+02  0.15047786064E+04  0.10100000352E+00 0. -1.
       -3    1    3    3    0  502  0.14428376531E+04  0.41911689564E+03  0.24108115262E+03  0.15216962896E+04  0.10100000352E+00 0.  1.
</event>
<event>
 5   0  0.3242047E-07  0.3568882E+04  0.7818609E-02  0.8097657E-01
        1   -1    0    0  501    0  0.00000000000E+00  0.00000000000E+00  0.15781871572E+04  0.15781871572E+04  0.50400001928E-02 0.  1.
       -1   -1    0    0    0  501  0.00000000000E+00  0.00000000000E+00 -0.20176497409E+04  0.20176497409E+04  0.50400001928E-02 0. -1.
    10030    2    1    2    0    0  0.00000000000E+00  0.00000000000E+00 -0.43946258372E+03  0.35958368981E+04  0.35688815664E+04 0.  0.
        1    1    3    3  502    0 -0.20518524650E+03  0.31714093441E+03  0.15374448440E+04  0.15831664493E+04  0.50400001928E-02 0.  1.
       -1    1    3    3    0  502  0.20518524650E+03 -0.31714093441E+03 -0.19769074277E+04  0.20126704488E+04  0.50400001928E-02 0. -1.
</event>
<event>
 5   0  0.3159875E-07  0.3627188E+04  0.7818609E-02  0.8084292E-01
       -1   -1    0    0    0  501  0.00000000000E+00  0.00000000000E+00  0.21481817753E+04  0.21481817753E+04  0.50400001928E-02 0. -1.
        1   -1    0    0  501    0  0.00000000000E+00  0.00000000000E+00 -0.15311193836E+04  0.15311193836E+04  0.50400001928E-02 0.  1.
    10030    2    1    2    0    0  0.00000000000E+00  0.00000000000E+00  0.61706239174E+03  0.36793011590E+04  0.36271877568E+04 0.  0.
        2    1    3    3  502    0  0.31537516504E+03 -0.17741662876E+04  0.10065949927E+03  0.18047880334E+04  0.25500000920E-02 0. -1.
       -2    1    3    3    0  502 -0.31537516504E+03  0.17741662876E+04  0.51640289247E+03  0.18745131256E+04  0.25500000920E-02 0.  1.
</event>
<event>
 5   0  0.1031659E-06  0.3624900E+04  0.7818609E-02  0.8084812E-01
        2   -1    0    0  501    0  0.00000000000E+00  0.00000000000E+00  0.24500638247E+04  0.24500638247E+04  0.25500000920E-02 0.  1.
       -2   -1    0    0    0  501  0.00000000000E+00  0.00000000000E+00 -0.13407710665E+04  0.13407710665E+04  0.25500000920E-02 0. -1.
    10030    2    1    2    0    0  0.00000000000E+00  0.00000000000E+00  0.11092927582E+04  0.37908348912E+04  0.36248998260E+04 0.  0.
        2    1    3    3  502    0 -0.60500013339E+03  0.35127264639E+03  0.23031761855E+04  0.24070808409E+04  0.25500000920E-02 0.  1.
       -2    1    3    3    0  502  0.60500013339E+03 -0.35127264639E+03 -0.11938834273E+04  0.13837540502E+04  0.25500000920E-02 0. -1.
</event>
<event>
 5   0  0.9878977E-07  0.3557573E+04  0.7818609E-02  0.8100280E-01
        2   -1    0    0  501    0  0.00000000000E+00  0.00000000000E+00  0.17036341811E+04  0.17036341811E+04  0.25500000920E-02 0. -1.
       -2   -1    0    0    0  501  0.00000000000E+00  0.00000000000E+00 -0.18572540692E+04  0.18572540692E+04  0.25500000920E-02 0.  1.
    10030    2    1    2    0    0  0.00000000000E+00  0.00000000000E+00 -0.15361988807E+03  0.35608882503E+04  0.35575730577E+04 0.  0.
        5    1    3    3  502    0  0.69635779455E+03  0.65131548321E+03  0.14262329537E+04  0.17156015169E+04  0.46999998093E+01 0. -1.
       -5    1    3    3    0  502 -0.69635779455E+03 -0.65131548321E+03 -0.15798528418E+04  0.18452867334E+04  0.46999998093E+01 0.  1.
</event>
<event>
 5   0  0.3242047E-07  0.3588878E+04  0.7818609E-02  0.8093044E-01
        1   -1    0    0  501    0  0.00000000000E+00  0.00000000000E+00  0.10873842430E+04  0.10873842430E+04  0.50400001928E-02 0.  1.
       -1   -1    0    0    0  501  0.00000000000E+00  0.00000000000E+00 -0.29612458694E+04  0.29612458694E+04  0.50400001928E-02 0. -1.
    10030    2    1    2    0    0  0.00000000000E+00  0.00000000000E+00 -0.18738616264E+04  0.40486301125E+04  0.35888784310E+04 0.  0.
        1    1    3    3  502    0 -0.15339851981E+04 -0.36361302464E+02 -0.19864800110E+04  0.25100867647E+04  0.50400001928E-02 0. -1.
       -1    1    3    3    0  502  0.15339851981E+04  0.36361302464E+02  0.11261838456E+03  0.15385433478E+04  0.50400001928E-02 0.  1.
</event>
<event>
 5   0  0.1006019E-06  0.3584728E+04  0.7818609E-02  0.8093999E-01
        2   -1    0    0  501    0  0.00000000000E+00  0.00000000000E+00  0.11440039327E+04  0.11440039327E+04  0.25500000920E-02 0.  1.
       -2   -1    0    0    0  501  0.00000000000E+00  0.00000000000E+00 -0.28081794187E+04  0.28081794187E+04  0.25500000920E-02 0. -1.
    10030    2    1    2    0    0  0.00000000000E+00  0.00000000000E+00 -0.16641754860E+04  0.39521833514E+04  0.35847277714E+04 0.  0.
        1    1    3    3  502    0  0.74498469786E+03 -0.93353470497E+03 -0.23055236274E+04  0.25965223746E+04  0.50400001928E-02 0. -1.
       -1    1    3    3    0  502 -0.74498469786E+03  0.93353470497E+03  0.64134814139E+03  0.13556609768E+04  0.50400001928E-02 0.  1.
</event>
<event>
 5   0  0.3242047E-07  0.3606015E+04  0.7818609E-02  0.8089115E-01
       -1   -1    0    0    0  501  0.00000000000E+00  0.00000000000E+00  0.14721524334E+04  0.14721524334E+04  0.50400001928E-02 0.  1.
        1   -1    0    0  501    0  0.00000000000E+00  0.00000000000E+00 -0.22082202061E+04  0.22082202061E+04  0.50400001928E-02 0. -1.
    10030    2    1    2    0    0  0.00000000000E+00  0.00000000000E+00 -0.73606777274E+03  0.36803726395E+04  0.36060153909E+04 0.  0.
        1    1    3    3  502    0 -0.73600752228E+03  0.55202325784E+03 -0.19506208248E+04  0.21567008026E+04  0.50400001928E-02 0. -1.
       -1    1    3    3    0  502  0.73600752228E+03 -0.55202325784E+03  0.12145530520E+04  0.15236718368E+04  0.50400001928E-02 0.  1.
</event>
<event>
 5   0  0.9878977E-07  0.3620266E+04  0.7818609E-02  0.8085865E-01
        2   -1    0    0  501    0  0.00000000000E+00  0.00000000000E+00  0.21690064215E+04  0.21690064215E+04  0.25500000920E-02 0.  1.
       -2   -1    0    0    0  501  0.00000000000E+00  0.00000000000E+00 -0.15106372072E+04  0.15106372072E+04  0.25500000920E-02 0. -1.
    10030    2    1    2    0    0  0.00000000000E+00  0.00000000000E+00  0.65836921427E+03  0.36796436288E+04  0.36202661798E+04 0.  0.
        5    1    3    3  502    0  0.34268839747E+03 -0.94563092547E+03  0.18588287150E+04  0.21135088045E+04  0.46999998093E+01 0.  1.
       -5    1    3    3    0  502 -0.34268839747E+03  0.94563092547E+03 -0.12004595007E+04  0.15661348243E+04  0.46999998093E+01 0. -1.
</event>
<event>
 5   0  0.1006019E-06  0.3159602E+04  0.7818609E-02  0.8199568E-01
        2   -1    0    0  501    0  0.00000000000E+00  0.00000000000E+00  0.18059644005E+04  0.18059644005E+04  0.25500000920E-02 0. -1.
       -2   -1    0    0    0  501  0.00000000000E+00  0.00000000000E+00 -0.13819603177E+04  0.13819603177E+04  0.25500000920E-02 0.  1.
    10030    2    1    2    0    0  0.00000000000E+00  0.00000000000E+00  0.42400408281E+03  0.31879247182E+04  0.31596019601E+04 0.  0.
        1    1    3    3  502    0  0.10568231991E+03  0.57369480262E+03  0.16933167821E+04  0.17909819105E+04  0.50400001928E-02 0. -1.
       -1    1    3    3    0  502 -0.10568231991E+03 -0.57369480262E+03 -0.12693126993E+04  0.13969428077E+04  0.50400001928E-02 0.  1.
</event>
<event>
 5   0  0.9878977E-07  0.3505303E+04  0.7818609E-02  0.8112534E-01
        2   -1    0    0  501    0  0.00000000000E+00  0.00000000000E+00  0.25171711386E+04  0.25171711386E+04  0.25500000920E-02 0. -1.
       -2   -1    0    0    0  501  0.00000000000E+00  0.00000000000E+00 -0.12203333749E+04  0.12203333749E+04  0.25500000920E-02 0.  1.
    10030    2    1    2    0    0  0.00000000000E+00  0.00000000000E+00  0.12968377637E+04  0.37375045135E+04  0.35053033824E+04 0.  0.
        5    1    3    3  502    0 -0.61652339229E+03 -0.10013895495E+04  0.20340766819E+04  0.23495472247E+04  0.46999998093E+01 0. -1.
       -5    1    3    3    0  502  0.61652339229E+03  0.10013895495E+04 -0.73723891820E+03  0.13879572888E+04  0.46999998093E+01 0.  1.
</event>
<event>
 5   0  0.9878977E-07  0.3598093E+04  0.7818609E-02  0.8090929E-01
       -2   -1    0    0    0  501  0.00000000000E+00  0.00000000000E+00  0.10473538769E+04  0.10473538769E+04  0.25500000920E-02 0. -1.
        2   -1    0    0  501    0  0.00000000000E+00  0.00000000000E+00 -0.30902332910E+04  0.30902332910E+04  0.25500000920E-02 0.  1.
    10030    2    1    2    0    0  0.00000000000E+00  0.00000000000E+00 -0.20428794141E+04  0.41375871679E+04  0.35980927269E+04 0.  0.
        5    1    3    3  502    0 -0.12016020485E+04  0.46223245593E+03 -0.24664511571E+04  0.27822490411E+04  0.46999998093E+01 0.  1.
       -5    1    3    3    0  502  0.12016020485E+04 -0.46223245593E+03  0.42357174302E+03  0.13553381268E+04  0.46999998093E+01 0. -1.
</event>
<event>
 5   0  0.3159875E-07  0.3606023E+04  0.7818609E-02  0.8089114E-01
       -1   -1    0    0    0  501  0.00000000000E+00  0.00000000000E+00  0.14814641877E+04  0.14814641877E+04  0.50400001928E-02 0.  1.
        1   -1    0    0  501    0  0.00000000000E+00  0.00000000000E+00 -0.21943491475E+04  0.21943491475E+04  0.50400001928E-02 0. -1.
    10030    2    1    2    0    0  0.00000000000E+00  0.00000000000E+00 -0.71288495982E+03  0.36758133352E+04  0.36060225609E+04 0.  0.
        2    1    3    3  502    0 -0.23374152854E+03 -0.69999059396E+03  0.13204575808E+04  0.15126897092E+04  0.25500000920E-02 0.  1.
       -2    1    3    3    0  502  0.23374152854E+03  0.69999059396E+03 -0.20333425406E+04  0.21631236260E+04  0.25500000920E-02 0. -1.
</event>
<event>
 5   0  0.1006019E-06  0.3662438E+04  0.7818609E-02  0.8076337E-01
       -2   -1    0    0    0  501  0.00000000000E+00  0.00000000000E+00  0.19494582149E+04  0.19494582149E+04  0.25500000920E-02 0.  1.
        2   -1    0    0  501    0  0.00000000000E+00  0.00000000000E+00 -0.17201517257E+04  0.17201517257E+04  0.25500000920E-02 0. -1.
    10030    2    1    2    0    0  0.00000000000E+00  0.00000000000E+00  0.22930648922E+03  0.36696099406E+04  0.36624384841E+04 0.  0.
        1    1    3    3  502    0 -0.18264885597E+04 -0.12336106530E+03  0.68896534592E+02  0.18319457262E+04  0.50400001928E-02 0. -1.
       -1    1    3    3    0  502  0.18264885597E+04  0.12336106530E+03  0.16040995463E+03  0.18376642144E+04  0.50400001928E-02 0.  1.
</event>
<event>
 5   0  0.3159875E-07  0.3591640E+04  0.7818609E-02  0.8092409E-01
        1   -1    0    0  501    0  0.00000000000E+00  0.00000000000E+00  0.32446184566E+04  0.32446184566E+04  0.50400001928E-02 0.  1.
       -1   -1    0    0    0  501  0.00000000000E+00  0.00000000000E+00 -0.99394416731E+03  0.99394416732E+03  0.50400001928E-02 0. -1.
    10030    2    1    2    0    0  0.00000000000E+00  0.00000000000E+00  0.22506742893E+04  0.42385626239E+04  0.35916400656E+04 0.  0.
        2    1    3    3  502    0  0.68531440049E+02  0.70740671953E+03 -0.82091083455E+03  0.10858247664E+04  0.25500000920E-02 0. -1.
       -2    1    3    3    0  502 -0.68531440049E+02 -0.70740671953E+03  0.30715851238E+04  0.31527378575E+04  0.25500000920E-02 0.  1.
</event>
<event>
 5   0  0.9538919E-07  0.3706586E+04  0.7818609E-02  0.8066504E-01
        2   -1    0    0  501    0  0.00000000000E+00  0.00000000000E+00  0.21355526640E+04  0.21355526640E+04  0.25500000920E-02 0. -1.
       -2   -1    0    0    0  501  0.00000000000E+00  0.00000000000E+00 -0.16083400104E+04  0.16083400104E+04  0.25500000920E-02 0.  1.
    10030    2    1    2    0    0  0.00000000000E+00  0.00000000000E+00  0.52721265362E+03  0.37438926744E+04  0.37065859191E+04 0.  0.
        4    1    3    3  502    0  0.16164317143E+04  0.89159330047E+03  0.42927878828E+03  0.18952762309E+04  0.12699999809E+01 0. -1.
       -4    1    3    3    0  502 -0.16164317143E+04 -0.89159330047E+03  0.97933865333E+02  0.18486164435E+04  0.12699999809E+01 0.  1.
</event>
<event>
 5   0  0.3365378E-07  0.3612858E+04  0.7818609E-02  0.8087553E-01
        1   -1    0    0  501    0  0.00000000000E+00  0.00000000000E+00  0.21722407135E+04  0.21722407135E+04  0.50400001928E-02 0.  1.
       -1   -1    0    0    0  501  0.00000000000E+00  0.00000000000E+00 -0.15022211640E+04  0.15022211640E+04  0.50400001928E-02 0. -1.
    10030    2    1    2    0    0  0.00000000000E+00  0.00000000000E+00  0.67001954948E+03  0.36744618775E+04  0.36128581335E+04 0.  0.
        3    1    3    3  502    0 -0.14103391060E+04  0.64530763303E+03  0.12769264244E+04  0.20089846786E+04  0.10100000352E+00 0. -1.
       -3    1    3    3    0  502  0.14103391060E+04 -0.64530763303E+03 -0.60690687494E+03  0.16654771990E+04  0.10100000352E+00 0.  1.
</event>
<event>
 5   0  0.9878336E-07  0.3537990E+04  0.7818609E-02  0.8104845E-01
       -2   -1    0    0    0  501  0.00000000000E+00  0.00000000000E+00  0.13932072793E+04  0.13932072793E+04  0.25500000920E-02 0. -1.
        2   -1    0    0  501    0  0.00000000000E+00  0.00000000000E+00 -0.22461436931E+04  0.22461436931E+04  0.25500000920E-02 0.  1.
    10030    2    1    2    0    0  0.00000000000E+00  0.00000000000E+00 -0.85293641383E+03  0.36393509723E+04  0.35379902450E+04 0.  0.
        3    1    3    3  502    0 -0.97698521465E+03  0.22235203926E+03 -0.19261115137E+04  0.21711393581E+04  0.10100000352E+00 0.  1.
       -3    1    3    3    0  502  0.97698521465E+03 -0.22235203926E+03  0.10731750999E+04  0.14682116142E+04  0.10100000352E+00 0. -1.
</event>
<event>
 5   0  0.3278988E-07  0.2927800E+04  0.7818609E-02  0.8264654E-01
        1   -1    0    0  501    0  0.00000000000E+00  0.00000000000E+00  0.14087000419E+04  0.14087000420E+04  0.50400001928E-02 0. -1.
       -1   -1    0    0    0  501  0.00000000000E+00  0.00000000000E+00 -0.15212627620E+04  0.15212627621E+04  0.50400001928E-02 0.  1.
    10030    2    1    2    0    0  0.00000000000E+00  0.00000000000E+00 -0.11256272010E+03  0.29299628040E+04  0.29277997997E+04 0.  0.
        4    1    3    3  502    0  0.78680711658E+03 -0.33647957858E+03 -0.12448950702E+04  0.15106453238E+04  0.12699999809E+01 0.  1.
       -4    1    3    3    0  502 -0.78680711658E+03  0.33647957858E+03  0.11323323501E+04  0.14193174802E+04  0.12699999809E+01 0. -1.
</event>
<event>
 5   0  0.1006019E-06  0.3559171E+04  0.7818609E-02  0.8099909E-01
       -2   -1    0    0    0  501  0.00000000000E+00  0.00000000000E+00  0.10048877866E+04  0.10048877866E+04  0.25500000920E-02 0.  1.
        2   -1    0    0  501    0  0.00000000000E+00  0.00000000000E+00 -0.31515198693E+04  0.31515198693E+04  0.25500000920E-02 0. -1.
    10030    2    1    2    0    0  0.00000000000E+00  0.00000000000E+00 -0.21466320828E+04  0.41564076559E+04  0.35591705920E+04 0.  0.
        1    1    3    3  502    0 -0.64687861347E+03  0.16503261880E+04 -0.12575749617E+04  0.21733668010E+04  0.50400001928E-02 0.  1.
       -1    1    3    3    0  502  0.64687861347E+03 -0.16503261880E+04 -0.88905712107E+03  0.19830408549E+04  0.50400001928E-02 0. -1.
</event>
<event>
 5   0  0.3159875E-07  0.3688548E+04  0.7818609E-02  0.8070504E-01
       -1   -1    0    0    0  501  0.00000000000E+00  0.00000000000E+00  0.17795412030E+04  0.17795412030E+04  0.50400001928E-02 0.  1.
        1   -1    0    0  501    0  0.00000000000E+00  0.00000000000E+00 -0.19113619189E+04  0.19113619189E+04  0.50400001928E-02 0. -1.
    10030    2    1    2    0    0  0.00000000000E+00  0.00000000000E+00 -0.13182071587E+03  0.36909031219E+04  0.36885483803E+04 0.  0.
        5    1    3    3  502    0  0.51671050671E+03  0.14646942098E+04  0.92921248580E+03  0.18099107187E+04  0.46999998093E+01 0.  1.
       -5    1    3    3    0  502 -0.51671050671E+03 -0.14646942098E+04 -0.10610332017E+04  0.18809924032E+04  0.46999998093E+01 0. -1.
</event>
<event>
 5   0  0.3278988E-07  0.3537052E+04  0.7818609E-02  0.8105065E-01
       -1   -1    0    0    0  501  0.00000000000E+00  0.00000000000E+00  0.12490120562E+04  0.12490120562E+04  0.50400001928E-02 0.  1.
        1   -1    0    0  501    0  0.00000000000E+00  0.00000000000E+00 -0.25041265743E+04  0.25041265743E+04  0.50400001928E-02 0. -1.
    10030    2    1    2    0    0  0.00000000000E+00  0.00000000000E+00 -0.12551145181E+04  0.37531386304E+04  0.35370520389E+04 0.  0.
        4    1    3    3  502    0  0.12193920819E+04 -0.12638534662E+04 -0.40640150653E+03  0.18026110038E+04  0.12699999809E+01 0.  1.
       -4    1    3    3    0  502 -0.12193920819E+04  0.12638534662E+04 -0.84871301157E+03  0.19505276267E+04  0.12699999809E+01 0. -1.
</event>
<event>
 5   0  0.9878336E-07  0.3093107E+04  0.7818609E-02  0.8217632E-01
        2   -1    0    0  501    0  0.00000000000E+00  0.00000000000E+00  0.91592333267E+03  0.91592333268E+03  0.25500000920E-02 0. -1.
       -2   -1    0    0    0  501  0.00000000000E+00  0.00000000000E+00 -0.26113840992E+04  0.26113840992E+04  0.25500000920E-02 0.  1.
    10030    2    1    2    0    0  0.00000000000E+00  0.00000000000E+00 -0.16954607665E+04  0.35273074319E+04  0.30931069345E+04 0.  0.
        3    1    3    3  502    0  0.11881104366E+04  0.95678558951E+03 -0.55747694392E+03  0.16241384261E+04  0.10100000352E+00 0.  1.
       -3    1    3    3    0  502 -0.11881104366E+04 -0.95678558951E+03 -0.11379838226E+04  0.19031690058E+04  0.10100000352E+00 0. -1.
</event>
<event>
 5   0  0.3159875E-07  0.3589775E+04  0.7818609E-02  0.8092838E-01
       -1   -1    0    0    0  501  0.00000000000E+00  0.00000000000E+00  0.26141710952E+04  0.26141710952E+04  0.50400001928E-02 0. -1.
        1   -1    0    0  501    0  0.00000000000E+00  0.00000000000E+00 -0.12323680901E+04  0.12323680901E+04  0.50400001928E-02 0.  1.
    10030    2    1    2    0    0  0.00000000000E+00  0.00000000000E+00  0.13818030052E+04  0.38465391853E+04  0.35897749455E+04 0.  0.
        5    1    3    3  502    0 -0.50125024968E+03 -0.13274500992E+04 -0.48691207108E+03  0.15001603359E+04  0.46999998093E+01 0.  1.
       -5    1    3    3    0  502  0.50125024968E+03  0.13274500992E+04  0.18687150763E+04  0.23463788494E+04  0.46999998093E+01 0. -1.
</event>
<event>
 5   0  0.3365378E-07  0.3611180E+04  0.7818609E-02  0.8087936E-01
        1   -1    0    0  501    0  0.00000000000E+00  0.00000000000E+00  0.15994285176E+04  0.15994285176E+04  0.50400001928E-02 0. -1.
       -1   -1    0    0    0  501  0.00000000000E+00  0.00000000000E+00 -0.20383253820E+04  0.20383253820E+04  0.50400001928E-02 0.  1.
    10030    2    1    2    0    0  0.00000000000E+00  0.00000000000E+00 -0.43889686433E+03  0.36377538996E+04  0.36111802747E+04 0.  0.
        3    1    3    3  502    0 -0.82972973320E+03 -0.28037471526E+03 -0.18100210450E+04  0.20107803472E+04  0.10100000352E+00 0.  1.
       -3    1    3    3    0  502  0.82972973320E+03  0.28037471526E+03  0.13711241807E+04  0.16269735524E+04  0.10100000352E+00 0. -1.
</event>
<event>
 5   0  0.3159875E-07  0.3610496E+04  0.7818609E-02  0.8088092E-01
       -1   -1    0    0    0  501  0.00000000000E+00  0.00000000000E+00  0.18128094660E+04  0.18128094660E+04  0.50400001928E-02 0.  1.
        1   -1    0    0  501    0  0.00000000000E+00  0.00000000000E+00 -0.17977182333E+04  0.17977182333E+04  0.50400001928E-02 0. -1.
    10030    2    1    2    0    0  0.00000000000E+00  0.00000000000E+00  0.15091232771E+02  0.36105276993E+04  0.36104961601E+04 0.  0.
        2    1    3    3  502    0 -0.21840441903E+03 -0.53497731322E+03 -0.17027381371E+04  0.17981152297E+04  0.25500000920E-02 0. -1.
       -2    1    3    3    0  502  0.21840441903E+03  0.53497731322E+03  0.17178293699E+04  0.18124124696E+04  0.25500000920E-02 0.  1.
</event>
<event>
 5   0  0.1031659E-06  0.3646696E+04  0.7818609E-02  0.8079878E-01
       -2   -1    0    0    0  501  0.00000000000E+00  0.00000000000E+00  0.12573986347E+04  0.12573986347E+04  0.25500000920E-02 0.  1.
        2   -1    0    0  501    0  0.00000000000E+00  0.00000000000E+00 -0.26440289673E+04  0.26440289673E+04  0.25500000920E-02 0. -1.
    10030    2    1    2    0    0  0.00000000000E+00  0.00000000000E+00 -0.13866303327E+04  0.39014276021E+04  0.36466962657E+04 0.  0.
        2    1    3    3  502    0  0.10430995135E+04  0.14529568902E+04 -0.31437267860E+03  0.18160315254E+04  0.25500000920E-02 0.  1.
       -2    1    3    3    0  502 -0.10430995135E+04 -0.14529568902E+04 -0.10722576541E+04  0.20853960767E+04  0.25500000920E-02 0. -1.
</event>
<event>
 5   0  0.3278988E-07  0.3553087E+04  0.7818609E-02  0.8101323E-01
       -1   -1    0    0    0  501  0.00000000000E+00  0.00000000000E+00  0.27288941790E+04  0.27288941790E+04  0.50400001928E-02 0.  1.
        1   -1    0    0  501    0  0.00000000000E+00  0.00000000000E+00 -0.11565514448E+04  0.11565514448E+04  0.50400001928E-02 0. -1.
    10030    2    1    2    0    0  0.00000000000E+00  0.00000000000E+00  0.15723427343E+04  0.38854456238E+04  0.35530868300E+04 0.  0.
        4    1    3    3  502    0 -0.70072898707E+02 -0.16799405519E+04  0.14134049211E+04  0.21965485546E+04  0.12699999809E+01 0.  1.
       -4    1    3    3    0  502  0.70072898707E+02  0.16799405519E+04  0.15893781317E+03  0.16888970692E+04  0.12699999809E+01 0. -1.
</event>
<event>
 5   0  0.3159875E-07  0.3470388E+04  0.7818609E-02  0.8120844E-01
        1   -1    0    0  501    0  0.00000000000E+00  0.00000000000E+00  0.15378704147E+04  0.15378704147E+04  0.50400001928E-02 0. -1.
       -1   -1    0    0    0  501  0.00000000000E+00  0.00000000000E+00 -0.19578356575E+04  0.19578356575E+04  0.50400001928E-02 0.  1.
    10030    2    1    2    0    0  0.00000000000E+00  0.00000000000E+00 -0.41996524276E+03  0.34957060722E+04  0.34703876063E+04 0.  0.
        2    1    3    3  502    0  0.75736098812E+03  0.14511973940E+04 -0.78979300598E+03  0.18175099820E+04  0.25500000920E-02 0.  1.
       -2    1    3    3    0  502 -0.75736098812E+03 -0.14511973940E+04  0.36982776321E+03  0.16781960902E+04  0.25500000920E-02 0. -1.
</event>
<event>
 5   0  0.3365378E-07  0.3597297E+04  0.7818609E-02  0.8091111E-01
       -1   -1    0    0    0  501  0.00000000000E+00  0.00000000000E+00  0.24664266426E+04  0.24664266426E+04  0.50400001928E-02 0.  1.
        1   -1    0    0  501    0  0.00000000000E+00  0.00000000000E+00 -0.13116692802E+04  0.13116692802E+04  0.50400001928E-02 0. -1.
    10030    2    1    2    0    0  0.00000000000E+00  0.00000000000E+00  0.11547573623E+04  0.37780959228E+04  0.35972967956E+04 0.  0.
        3    1    3    3  502    0  0.31368923630E+03  0.13165212592E+04  0.18216181773E+04  0.22693439486E+04  0.10100000352E+00 0.  1.
       -3    1    3    3    0  502 -0.31368923630E+03 -0.13165212592E+04 -0.66686081494E+03  0.15087519742E+04  0.10100000352E+00 0. -1.
</event>
<event>
 5   0  0.1006019E-06  0.3508575E+04  0.7818609E-02  0.8111761E-01
       -2   -1    0    0    0  501  0.00000000000E+00  0.00000000000E+00  0.27642081042E+04  0.27642081042E+04  0.25500000920E-02 0. -1.
        2   -1    0    0  501    0  0.00000000000E+00  0.00000000000E+00 -0.11133476422E+04  0.11133476422E+04  0.25500000920E-02 0.  1.
    10030    2    1    2    0    0  0.00000000000E+00  0.00000000000E+00  0.16508604620E+04  0.38775557464E+04  0.35085749673E+04 0.  0.
        1    1    3    3  502    0 -0.16961254206E+04 -0.71703846805E+02  0.13141354458E+04  0.21468429971E+04  0.50400001928E-02 0. -1.
       -1    1    3    3    0  502  0.16961254206E+04  0.71703846805E+02  0.33672501614E+03  0.17307127493E+04  0.50400001928E-02 0.  1.
</event>
<event>
 5   0  0.9538919E-07  0.3519652E+04  0.7818609E-02  0.8109148E-01
       -2   -1    0    0    0  501  0.00000000000E+00  0.00000000000E+00  0.16009853411E+04  0.16009853411E+04  0.25500000920E-02 0.  1.
        2   -1    0    0  501    0  0.00000000000E+00  0.00000000000E+00 -0.19344258914E+04  0.19344258914E+04  0.25500000920E-02 0. -1.
    10030    2    1    2    0    0  0.00000000000E+00  0.00000000000E+00 -0.33344055030E+03  0.35354112325E+04  0.35196519689E+04 0.  0.
        4    1    3    3  502    0 -0.61165294976E+03  0.85909380258E+03  0.12484257629E+04  0.16342368222E+04  0.12699999809E+01 0.  1.
       -4    1    3    3    0  502  0.61165294976E+03 -0.85909380258E+03 -0.15818663132E+04  0.19011744103E+04  0.12699999809E+01 0. -1.
</event>
<event>
 5   0  0.3242047E-07  0.3596204E+04  0.7818609E-02  0.8091362E-01
        1   -1    0    0  501    0  0.00000000000E+00  0.00000000000E+00  0.18297848949E+04  0.18297848949E+04  0.50400001928E-02 0. -1.
       -1   -1    0    0    0  501  0.00000000000E+00  0.00000000000E+00 -0.17669672747E+04  0.17669672747E+04  0.50400001928E-02 0.  1.
    10030    2    1    2    0    0  0.00000000000E+00  0.00000000000E+00  0.62817620244E+02  0.35967521696E+04  0.35962035699E+04 0.  0.
        1    1    3    3  502    0 -0.15566636349E+04  0.24185339204E+03 -0.83560017814E+03  0.17832336900E+04  0.50400001928E-02 0.  1.
       -1    1    3    3    0  502  0.15566636349E+04 -0.24185339204E+03  0.89841779838E+03  0.18135184796E+04  0.50400001928E-02 0. -1.
</event>
<event>
 5   0  0.1006019E-06  0.3556748E+04  0.7818609E-02  0.8100471E-01
        2   -1    0    0  501    0  0.00000000000E+00  0.00000000000E+00  0.19199065483E+04  0.19199065483E+04  0.25500000920E-02 0. -1.
       -2   -1    0    0    0  501  0.00000000000E+00  0.00000000000E+00 -0.16472753654E+04  0.16472753654E+04  0.25500000920E-02 0.  1.
    10030    2    1    2    0    0  0.00000000000E+00  0.00000000000E+00  0.27263118289E+03  0.35671819138E+04  0.35567483807E+04 0.  0.
        1    1    3    3  502    0  0.13121990579E+04  0.10704529828E+04  0.68093597777E+03  0.18252149906E+04  0.50400001928E-02 0.  1.
       -1    1    3    3    0  502 -0.13121990579E+04 -0.10704529828E+04 -0.40830479488E+03  0.17419669232E+04  0.50400001928E-02 0. -1.
</event>
<event>
 5   0  0.9538919E-07  0.3708291E+04  0.7818609E-02  0.8066127E-01
       -2   -1    0    0    0  501  0.00000000000E+00  0.00000000000E+00  0.18836091861E+04  0.18836091861E+04  0.25500000920E-02 0. -1.
        2   -1    0    0  501    0  0.00000000000E+00  0.00000000000E+00 -0.18251428801E+04  0.18251428801E+04  0.25500000920E-02 0.  1.
    10030    2    1    2    0    0  0.00000000000E+00  0.00000000000E+00  0.58466305989E+02  0.37087520662E+04  0.37082911940E+04 0.  0.
        4    1    3    3  502    0  0.97173082998E+03  0.20995673491E+03 -0.15360529364E+04  0.18297002139E+04  0.12699999809E+01 0.  1.
       -4    1    3    3    0  502 -0.97173082998E+03 -0.20995673491E+03  0.15945192423E+04  0.18790518523E+04  0.12699999809E+01 0. -1.
</event>
<event>
 5   0  0.9878977E-07  0.3617717E+04  0.7818609E-02  0.8086445E-01
        2   -1    0    0  501    0  0.00000000000E+00  0.00000000000E+00  0.26296353776E+04  0.26296353776E+04  0.25500000920E-02 0.  1.
       -2   -1    0    0    0  501  0.00000000000E+00  0.00000000000E+00 -0.12442673876E+04  0.12442673876E+04  0.25500000920E-02 0. -1.
    10030    2    1    2    0    0  0.00000000000E+00  0.00000000000E+00  0.13853679901E+04  0.38739027652E+04  0.36177172590E+04 0.  0.
        5    1    3    3  502    0 -0.44101481005E+03 -0.20937980059E+03  0.25577500478E+04  0.26039280636E+04  0.46999998093E+01 0.  1.
       -5    1    3    3    0  502  0.44101481005E+03  0.20937980059E+03 -0.11723820577E+04  0.12699747016E+04  0.46999998093E+01 0. -1.
</event>
<event>
 5   0  0.1006019E-06  0.3598477E+04  0.7818609E-02  0.8090841E-01
       -2   -1    0    0    0  501  0.00000000000E+00  0.00000000000E+00  0.15137579490E+04  0.15137579491E+04  0.25500000920E-02 0.  1.
        2   -1    0    0  501    0  0.00000000000E+00  0.00000000000E+00 -0.21385583670E+04  0.21385583670E+04  0.25500000920E-02 0. -1.
    10030    2    1    2    0    0  0.00000000000E+00  0.00000000000E+00 -0.62480041797E+03  0.36523163161E+04  0.35984773044E+04 0.  0.
        1    1    3    3  502    0 -0.75170904198E+03 -0.10080942800E+04 -0.16184863002E+04  0.20495898285E+04  0.50400001928E-02 0. -1.
       -1    1    3    3    0  502  0.75170904198E+03  0.10080942800E+04  0.99368588225E+03  0.16027264875E+04  0.50400001928E-02 0.  1.
</event>
<event>
 5   0  0.9878977E-07  0.3727906E+04  0.7818609E-02  0.8061805E-01
        2   -1    0    0  501    0  0.00000000000E+00  0.00000000000E+00  0.14455516995E+04  0.14455516995E+04  0.25500000920E-02 0.  1.
       -2   -1    0    0    0  501  0.00000000000E+00  0.00000000000E+00 -0.24034570306E+04  0.24034570306E+04  0.25500000920E-02 0. -1.
    10030    2    1    2    0    0  0.00000000000E+00  0.00000000000E+00 -0.95790533110E+03  0.38490087302E+04  0.37279063268E+04 0.  0.
        5    1    3    3  502    0 -0.13191494877E+04 -0.69949979316E+02  0.87877577288E+03  0.15866055967E+04  0.46999998093E+01 0.  1.
       -5    1    3    3    0  502  0.13191494877E+04  0.69949979316E+02 -0.18366811040E+04  0.22624031335E+04  0.46999998093E+01 0. -1.
</event>
<event>
 5   0  0.1006019E-06  0.3593043E+04  0.7818609E-02  0.8092087E-01
        2   -1    0    0  501    0  0.00000000000E+00  0.00000000000E+00  0.21496938906E+04  0.21496938906E+04  0.25500000920E-02 0.  1.
       -2   -1    0    0    0  501  0.00000000000E+00  0.00000000000E+00 -0.15013715858E+04  0.15013715858E+04  0.25500000920E-02 0. -1.
    10030    2    1    2    0    0  0.00000000000E+00  0.00000000000E+00  0.64832230476E+03  0.36510654765E+04  0.35930429030E+04 0.  0.
        1    1    3    3  502    0 -0.11753557712E+04  0.16385928892E+03  0.16947110401E+04  0.20689022608E+04  0.50400001928E-02 0.  1.
       -1    1    3    3    0  502  0.11753557712E+04 -0.16385928892E+03 -0.10463887354E+04  0.15821632156E+04  0.50400001928E-02 0. -1.
</event>
<event>
 5   0  0.3278988E-07  0.3596612E+04  0.7818609E-02  0.8091268E-01
       -1   -1    0    0    0  501  0.00000000000E+00  0.00000000000E+00  0.20468058458E+04  0.20468058458E+04  0.50400001928E-02 0. -1.
        1   -1    0    0  501    0  0.00000000000E+00  0.00000000000E+00 -0.15799765360E+04  0.15799765360E+04  0.50400001928E-02 0.  1.
    10030    2    1    2    0    0  0.00000000000E+00  0.00000000000E+00  0.46682930981E+03  0.36267823819E+04  0.35966124118E+04 0.  0.
        4    1    3    3  502    0  0.92713344182E+03  0.15363870506E+04  0.35205364027E+03  0.18286620701E+04  0.12699999809E+01 0. -1.
       -4    1    3    3    0  502 -0.92713344182E+03 -0.15363870506E+04  0.11477566954E+03  0.17981203117E+04  0.12699999809E+01 0.  1.
</event>
<event>
 5   0  0.3365378E-07  0.3590929E+04  0.7818609E-02  0.8092573E-01
        1   -1    0    0  501    0  0.00000000000E+00  0.00000000000E+00  0.26553559900E+04  0.26553559900E+04  0.50400001928E-02 0.  1.
       -1   -1    0    0    0  501  0.00000000000E+00  0.00000000000E+00 -0.12140338709E+04  0.12140338709E+04  0.50400001928E-02 0. -1.
    10030    2    1    2    0    0  0.00000000000E+00  0.00000000000E+00  0.14413221191E+04  0.38693898609E+04  0.35909286326E+04 0.  0.
        3    1    3    3  502    0 -0.17421389697E+04  0.62831178317E+02  0.11837502478E+04  0.21071925888E+04  0.10100000352E+00 0. -1.
       -3    1    3    3    0  502  0.17421389697E+04 -0.62831178317E+02  0.25757187130E+03  0.17621972721E+04  0.10100000352E+00 0.  1.
</event>
<event>
 5   0  0.1006019E-06  0.3566862E+04  0.7818609E-02  0.8098125E-01
        2   -1    0    0  501    0  0.00000000000E+00  0.00000000000E+00  0.13032293627E+04  0.13032293627E+04  0.25500000920E-02 0.  1.
       -2   -1    0    0    0  501  0.00000000000E+00  0.00000000000E+00 -0.24405725929E+04  0.24405725929E+04  0.25500000920E-02 0. -1.
    10030    2    1    2    0    0  0.00000000000E+00  0.00000000000E+00 -0.11373432302E+04  0.37438019556E+04  0.35668618504E+04 0.  0.
        1    1    3    3  502    0  0.11135907003E+04  0.12583171524E+04  0.58620570731E+02  0.16813336002E+04  0.50400001928E-02 0.  1.
       -1    1    3    3    0  502 -0.11135907003E+04 -0.12583171524E+04 -0.11959638010E+04  0.20624683554E+04  0.50400001928E-02 0. -1.
</event>
<event>
 5   0  0.3159875E-07  0.3599067E+04  0.7818609E-02  0.8090705E-01
        1   -1    0    0  501    0  0.00000000000E+00  0.00000000000E+00  0.10396025760E+04  0.10396025760E+04  0.50400001928E-02 0. -1.
       -1   -1    0    0    0  501  0.00000000000E+00  0.00000000000E+00 -0.31149605631E+04  0.31149605631E+04  0.50400001928E-02 0.  1.
    10030    2    1    2    0    0  0.00000000000E+00  0.00000000000E+00 -0.20753579871E+04  0.41545631391E+04  0.35990671155E+04 0.  0.
        2    1    3    3  502    0  0.57926631050E+03  0.93996554133E+03 -0.26780005632E+04  0.28966828777E+04  0.25500000920E-02 0.  1.
       -2    1    3    3    0  502 -0.57926631050E+03 -0.93996554133E+03  0.60264257614E+03  0.12578802614E+04  0.25500000920E-02 0. -1.
</event>
<event>
 5   0  0.1031659E-06  0.3685123E+04  0.7818609E-02  0.8071267E-01
        2   -1    0    0  501    0  0.00000000000E+00  0.00000000000E+00  0.13020721351E+04  0.13020721351E+04  0.25500000920E-02 0. -1.
       -2   -1    0    0    0  501  0.00000000000E+00  0.00000000000E+00 -0.26074071241E+04  0.26074071241E+04  0.25500000920E-02 0.  1.
    10030    2    1    2    0    0  0.00000000000E+00  0.00000000000E+00 -0.13053349890E+04  0.39094792593E+04  0.36851226092E+04 0.  0.
        2    1    3    3  502    0  0.13181331404E+04  0.12158705924E+04 -0.20355490877E+03  0.18047855479E+04  0.25500000920E-02 0.  1.
       -2    1    3    3    0  502 -0.13181331404E+04 -0.12158705924E+04 -0.11017800803E+04  0.21046937113E+04  0.25500000920E-02 0. -1.
</event>
<event>
 5   0  0.3278988E-07  0.3602962E+04  0.7818609E-02  0.8089813E-01
       -1   -1    0    0    0  501  0.00000000000E+00  0.00000000000E+00  0.16209524681E+04  0.16209524681E+04  0.50400001928E-02 0.  1.
        1   -1    0    0  501    0  0.00000000000E+00  0.00000000000E+00 -0.20021158085E+04  0.20021158085E+04  0.50400001928E-02 0. -1.
    10030    2    1    2    0    0  0.00000000000E+00  0.00000000000E+00 -0.38116334038E+03  0.36230682766E+04  0.36029624263E+04 0.  0.
        4    1    3    3  502    0  0.90945205467E+03  0.60894237030E+03  0.12482836999E+04  0.16601589257E+04  0.12699999809E+01 0.  1.
       -4    1    3    3    0  502 -0.90945205467E+03 -0.60894237030E+03 -0.16294470403E+04  0.19629093510E+04  0.12699999809E+01 0. -1.
</event>
<event>
 5   0  0.9878977E-07  0.3464984E+04  0.7818609E-02  0.8122139E-01
       -2   -1    0    0    0  501  0.00000000000E+00  0.00000000000E+00  0.14096991873E+04  0.14096991873E+04  0.25500000920E-02 0. -1.
        2   -1    0    0  501    0  0.00000000000E+00  0.00000000000E+00 -0.21291974888E+04  0.21291974888E+04  0.25500000920E-02 0.  1.
    10030    2    1    2    0    0  0.00000000000E+00  0.00000000000E+00 -0.71949830156E+03  0.35388966761E+04  0.34649836765E+04 0.  0.
        5    1    3    3  502    0 -0.82904602202E+03 -0.14700397163E+04  0.39971058220E+02  0.16881806330E+04  0.46999998093E+01 0. -1.
       -5    1    3    3    0  502  0.82904602202E+03  0.14700397163E+04 -0.75946935978E+03  0.18507160432E+04  0.46999998093E+01 0.  1.
</event>
<event>
 5   0  0.3242047E-07  0.3402550E+04  0.7818609E-02  0.8137281E-01
        1   -1    0    0  501    0  0.00000000000E+00  0.00000000000E+00  0.22362542358E+04  0.22362542358E+04  0.50400001928E-02 0. -1.
       -1   -1    0    0    0  501  0.00000000000E+00  0.00000000000E+00 -0.12942785403E+04  0.12942785403E+04  0.50400001928E-02 0.  1.
    10030    2    1    2    0    0  0.00000000000E+00  0.00000000000E+00  0.94197569544E+03  0.35305327761E+04  0.34025495547E+04 0.  0.
        1    1    3    3  502    0  0.22756978516E+03  0.54957748939E+03 -0.11828634256E+04  0.13240050255E+04  0.50400001928E-02 0.  1.
       -1    1    3    3    0  502 -0.22756978516E+03 -0.54957748939E+03  0.21248391210E+04  0.22065277506E+04  0.50400001928E-02 0. -1.
</event>
<event>
 5   0  0.1006019E-06  0.3529020E+04  0.7818609E-02  0.8106947E-01
       -2   -1    0    0    0  501  0.00000000000E+00  0.00000000000E+00  0.13368372600E+04  0.13368372600E+04  0.25500000920E-02 0. -1.
        2   -1    0    0  501    0  0.00000000000E+00  0.00000000000E+00 -0.23290012465E+04  0.23290012465E+04  0.25500000920E-02 0.  1.
    10030    2    1    2    0    0  0.00000000000E+00  0.00000000000E+00 -0.99216398654E+03  0.36658385065E+04  0.35290200594E+04 0.  0.
        1    1    3    3  502    0  0.15140510168E+04 -0.25137517619E+03  0.40827751487E+03  0.15881531695E+04  0.50400001928E-02 0. -1.
       -1    1    3    3    0  502 -0.15140510168E+04  0.25137517619E+03 -0.14004415014E+04  0.20776853370E+04  0.50400001928E-02 0.  1.
</event>
<event>
 5   0  0.3159875E-07  0.3613116E+04  0.7818609E-02  0.8087494E-01
        1   -1    0    0  501    0  0.00000000000E+00  0.00000000000E+00  0.19400901064E+04  0.19400901064E+04  0.50400001928E-02 0.  1.
       -1   -1    0    0    0  501  0.00000000000E+00  0.00000000000E+00 -0.16822170221E+04  0.16822170221E+04  0.50400001928E-02 0. -1.
    10030    2    1    2    0    0  0.00000000000E+00  0.00000000000E+00  0.25787308425E+03  0.36223071285E+04  0.36131164395E+04 0.  0.
        2    1    3    3  502    0  0.10592220355E+04  0.75974395428E+02 -0.13362628723E+04  0.17068455974E+04  0.25500000920E-02 0. -1.
       -2    1    3    3    0  502 -0.10592220355E+04 -0.75974395428E+02  0.15941359566E+04  0.19154615312E+04  0.25500000920E-02 0.  1.
</event>
<event>
 5   0  0.3159875E-07  0.3597418E+04  0.7818609E-02  0.8091083E-01
        1   -1    0    0  501    0  0.00000000000E+00  0.00000000000E+00  0.18811360522E+04  0.18811360522E+04  0.50400001928E-02 0. -1.
       -1   -1    0    0    0  501  0.00000000000E+00  0.00000000000E+00 -0.17198941255E+04  0.17198941255E+04  0.50400001928E-02 0.  1.
    10030    2    1    2    0    0  0.00000000000E+00  0.00000000000E+00  0.16124192673E+03  0.36010301777E+04  0.35974184330E+04 0.  0.
        2    1    3    3  502    0  0.22111026505E+03  0.32490906624E+03  0.18376322432E+04  0.18791880991E+04  0.25500000920E-02 0. -1.
       -2    1    3    3    0  502 -0.22111026505E+03 -0.32490906624E+03 -0.16763903164E+04  0.17218420786E+04  0.25500000920E-02 0.  1.
</event>
<event>
 5   0  0.3159875E-07  0.3366432E+04  0.7818609E-02  0.8146194E-01
       -1   -1    0    0    0  501  0.00000000000E+00  0.00000000000E+00  0.17137021871E+04  0.17137021871E+04  0.50400001928E-02 0.  1.
        1   -1    0    0  501    0  0.00000000000E+00  0.00000000000E+00 -0.16532724188E+04  0.16532724188E+04  0.50400001928E-02 0. -1.
    10030    2    1    2    0    0  0.00000000000E+00  0.00000000000E+00  0.60429768276E+02  0.33669746059E+04  0.33664322717E+04 0.  0.
        5    1    3    3  502    0 -0.13924111488E+04 -0.79263382483E+03  0.54616355651E+03  0.16927474437E+04  0.46999998093E+01 0.  1.
       -5    1    3    3    0  502  0.13924111488E+04  0.79263382483E+03 -0.48573378823E+03  0.16742271622E+04  0.46999998093E+01 0. -1.
</event>
<event>
 5   0  0.3159875E-07  0.3526957E+04  0.7818609E-02  0.8107431E-01
        1   -1    0    0  501    0  0.00000000000E+00  0.00000000000E+00  0.12920892827E+04  0.12920892827E+04  0.50400001928E-02 0. -1.
       -1   -1    0    0    0  501  0.00000000000E+00  0.00000000000E+00 -0.24068427055E+04  0.24068427055E+04  0.50400001928E-02 0.  1.
    10030    2    1    2    0    0  0.00000000000E+00  0.00000000000E+00 -0.11147534228E+04  0.36989319882E+04  0.35269565719E+04 0.  0.
        5    1    3    3  502    0  0.17543165483E+04 -0.17278809666E+03 -0.50652214151E+03  0.18341398659E+04  0.46999998093E+01 0. -1.
       -5    1    3    3    0  502 -0.17543165483E+04  0.17278809666E+03 -0.60823128126E+03  0.18647921223E+04  0.46999998093E+01 0.  1.
</event>
<event>
 5   0  0.3278988E-07  0.3612707E+04  0.7818609E-02  0.8087587E-01
       -1   -1    0    0    0  501  0.00000000000E+00  0.00000000000E+00  0.14180169737E+04  0.14180169737E+04  0.50400001928E-02 0. -1.
        1   -1    0    0  501    0  0.00000000000E+00  0.00000000000E+00 -0.23010389746E+04  0.23010389746E+04  0.50400001928E-02 0.  1.
    10030    2    1    2    0    0  0.00000000000E+00  0.00000000000E+00 -0.88302200090E+03  0.37190559483E+04  0.36127066436E+04 0.  0.
        4    1    3    3  502    0  0.39654503765E+03  0.67410585377E+03  0.12346852576E+04  0.14615457458E+04  0.12699999809E+01 0. -1.
       -4    1    3    3    0  502 -0.39654503765E+03 -0.67410585377E+03 -0.21177072585E+04  0.22575102025E+04  0.12699999809E+01 0.  1.
</event>
<event>
 5   0  0.9538919E-07  0.3247220E+04  0.7818609E-02  0.8176457E-01
       -2   -1    0    0    0  501  0.00000000000E+00  0.00000000000E+00  0.13075993745E+04  0.13075993745E+04  0.25500000920E-02 0. -1.
        2   -1    0    0  501    0  0.00000000000E+00  0.00000000000E+00 -0.20159915623E+04  0.20159915623E+04  0.25500000920E-02 0.  1.
    10030    2    1    2    0    0  0.00000000000E+00  0.00000000000E+00 -0.70839218780E+03  0.33235909368E+04  0.32472199223E+04 0.  0.
        4    1    3    3  502    0 -0.22614336075E+03 -0.57714707828E+03 -0.18901116528E+04  0.19891614421E+04  0.12699999809E+01 0.  1.
       -4    1    3    3    0  502  0.22614336075E+03  0.57714707828E+03  0.11817194650E+04  0.13344294948E+04  0.12699999809E+01 0. -1.
</event>
<event>
 5   0  0.1006019E-06  0.3626183E+04  0.7818609E-02  0.8084520E-01
        2   -1    0    0  501    0  0.00000000000E+00  0.00000000000E+00  0.20753345989E+04  0.20753345989E+04  0.25500000920E-02 0. -1.
       -2   -1    0    0    0  501  0.00000000000E+00  0.00000000000E+00 -0.15839859414E+04  0.15839859414E+04  0.25500000920E-02 0.  1.
    10030    2    1    2    0    0  0.00000000000E+00  0.00000000000E+00  0.49134865747E+03  0.36593205403E+04  0.36261830226E+04 0.  0.
        1    1    3    3  502    0  0.14383129909E+04 -0.77386847878E+03  0.10400682749E+04  0.19363260828E+04  0.50400001928E-02 0. -1.
       -1    1    3    3    0  502 -0.14383129909E+04  0.77386847878E+03 -0.54871961741E+03  0.17229944576E+04  0.50400001928E-02 0.  1.
</event>
<event>
 5   0  0.9878977E-07  0.3536085E+04  0.7818609E-02  0.8105291E-01
        2   -1    0    0  501    0  0.00000000000E+00  0.00000000000E+00  0.25132448627E+04  0.25132448627E+04  0.25500000920E-02 0. -1.
       -2   -1    0    0    0  501  0.00000000000E+00  0.00000000000E+00 -0.12438001379E+04  0.12438001379E+04  0.25500000920E-02 0.  1.
    10030    2    1    2    0    0  0.00000000000E+00  0.00000000000E+00  0.12694447247E+04  0.37570450006E+04  0.35360850142E+04 0.  0.
        5    1    3    3  502    0 -0.10593473358E+04 -0.33555578082E+03 -0.82639560714E+03  0.13848343762E+04  0.46999998093E+01 0.  1.
       -5    1    3    3    0  502  0.10593473358E+04  0.33555578082E+03  0.20958403319E+04  0.23722106244E+04  0.46999998093E+01 0. -1.
</event>
<event>
 5   0  0.1031659E-06  0.3651043E+04  0.7818609E-02  0.8078899E-01
        2   -1    0    0  501    0  0.00000000000E+00  0.00000000000E+00  0.26185154992E+04  0.26185154992E+04  0.25500000920E-02 0.  1.
       -2   -1    0    0    0  501  0.00000000000E+00  0.00000000000E+00 -0.12726789049E+04  0.12726789049E+04  0.25500000920E-02 0. -1.
    10030    2    1    2    0    0  0.00000000000E+00  0.00000000000E+00  0.13458365942E+04  0.38911944041E+04  0.36510433786E+04 0.  0.
        2    1    3    3  502    0 -0.53355508307E+03  0.17113456534E+04  0.30504109637E+03  0.18183605370E+04  0.25500000920E-02 0. -1.
       -2    1    3    3    0  502  0.53355508307E+03 -0.17113456534E+04  0.10407954979E+04  0.20728338671E+04  0.25500000920E-02 0.  1.
</event>
<event>
 5   0  0.3159875E-07  0.3621819E+04  0.7818609E-02  0.8085512E-01
       -1   -1    0    0    0  501  0.00000000000E+00  0.00000000000E+00  0.13287260740E+04  0.13287260740E+04  0.50400001928E-02 0.  1.
        1   -1    0    0  501    0  0.00000000000E+00  0.00000000000E+00 -0.24680730018E+04  0.24680730018E+04  0.50400001928E-02 0. -1.
    10030    2    1    2    0    0  0.00000000000E+00  0.00000000000E+00 -0.11393469279E+04  0.37967990758E+04  0.36218188524E+04 0.  0.
        2    1    3    3  502    0  0.53486095291E+02  0.12448370759E+04  0.80793594306E+03  0.14850052512E+04  0.25500000920E-02 0.  1.
       -2    1    3    3    0  502 -0.53486095291E+02 -0.12448370759E+04 -0.19472828709E+04  0.23117938246E+04  0.25500000920E-02 0. -1.
</event>
<event>
 5   0  0.3242047E-07  0.3598302E+04  0.7818609E-02  0.8090881E-01
       -1   -1    0    0    0  501  0.00000000000E+00  0.00000000000E+00  0.26718718368E+04  0.26718718368E+04  0.50400001928E-02 0. -1.
        1   -1    0    0  501    0  0.00000000000E+00  0.00000000000E+00 -0.12114895259E+04  0.12114895259E+04  0.50400001928E-02 0.  1.
    10030    2    1    2    0    0  0.00000000000E+00  0.00000000000E+00  0.14603823109E+04  0.38833613627E+04  0.35983022357E+04 0.  0.
        1    1    3    3  502    0 -0.23491813156E+03  0.15461761463E+03 -0.11876208182E+04  0.12204656255E+04  0.50400001928E-02 0.  1.
       -1    1    3    3    0  502  0.23491813156E+03 -0.15461761463E+03  0.26480031291E+04  0.26628957371E+04  0.50400001928E-02 0. -1.
</event>
<event>
 5   0  0.9878977E-07  0.3734736E+04  0.7818609E-02  0.8060307E-01
        2   -1    0    0  501    0  0.00000000000E+00  0.00000000000E+00  0.14609963496E+04  0.14609963497E+04  0.25500000920E-02 0. -1.
       -2   -1    0    0    0  501  0.00000000000E+00  0.00000000000E+00 -0.23867701496E+04  0.23867701496E+04  0.25500000920E-02 0.  1.
    10030    2    1    2    0    0  0.00000000000E+00  0.00000000000E+00 -0.92577379995E+03  0.38477664993E+04  0.37347355869E+04 0.  0.
        5    1    3    3  502    0 -0.53841141281E+03  0.49706963416E+03  0.13066735413E+04  0.14981264647E+04  0.46999998093E+01 0. -1.
       -5    1    3    3    0  502  0.53841141281E+03 -0.49706963416E+03 -0.22324473412E+04  0.23496400346E+04  0.46999998093E+01 0.  1.
</event>
<event>
 5   0  0.1006019E-06  0.3548737E+04  0.7818609E-02  0.8102336E-01
       -2   -1    0    0    0  501  0.00000000000E+00  0.00000000000E+00  0.27539654396E+04  0.27539654396E+04  0.25500000920E-02 0.  1.
        2   -1    0    0  501    0  0.00000000000E+00  0.00000000000E+00 -0.11432183699E+04  0.11432183699E+04  0.25500000920E-02 0. -1.
    10030    2    1    2    0    0  0.00000000000E+00  0.00000000000E+00  0.16107470697E+04  0.38971838095E+04  0.35487371729E+04 0.  0.
        1    1    3    3  502    0  0.50354708882E+03 -0.12274346907E+04 -0.48854668363E+03  0.14138010654E+04  0.50400001928E-02 0. -1.
       -1    1    3    3    0  502 -0.50354708882E+03  0.12274346907E+04  0.20992937534E+04  0.24833827440E+04  0.50400001928E-02 0.  1.
</event>
<event>
 5   0  0.3159875E-07  0.2653816E+04  0.7818609E-02  0.8350147E-01
       -1   -1    0    0    0  501  0.00000000000E+00  0.00000000000E+00  0.82939769879E+03  0.82939769881E+03  0.50400001928E-02 0.  1.
        1   -1    0    0  501    0  0.00000000000E+00  0.00000000000E+00 -0.21228477189E+04  0.21228477189E+04  0.50400001928E-02 0. -1.
    10030    2    1    2    0    0  0.00000000000E+00  0.00000000000E+00 -0.12934500201E+04  0.29522454177E+04  0.26538161300E+04 0.  0.
        5    1    3    3  502    0  0.27759540453E+03  0.46194532945E+03  0.70214887784E+03  0.88514848058E+03  0.46999998093E+01 0.  1.
       -5    1    3    3    0  502 -0.27759540453E+03 -0.46194532945E+03 -0.19955988979E+04  0.20670969371E+04  0.46999998093E+01 0. -1.
</event>
<event>
 5   0  0.3365378E-07  0.3594013E+04  0.7818609E-02  0.8091864E-01
       -1   -1    0    0    0  501  0.00000000000E+00  0.00000000000E+00  0.18896182695E+04  0.18896182695E+04  0.50400001928E-02 0.  1.
        1   -1    0    0  501    0  0.00000000000E+00  0.00000000000E+00 -0.17089339385E+04  0.17089339385E+04  0.50400001928E-02 0. -1.
    10030    2    1    2    0    0  0.00000000000E+00  0.00000000000E+00  0.18068433096E+03  0.35985522080E+04  0.35940132396E+04 0.  0.
        3    1    3    3  502    0  0.16854153281E+04 -0.29032867088E+03 -0.46200406732E+03  0.17715426424E+04  0.10100000352E+00 0. -1.
       -3    1    3    3    0  502 -0.16854153281E+04  0.29032867088E+03  0.64268839828E+03  0.18270095656E+04  0.10100000352E+00 0.  1.
</event>
<event>
 5   0  0.9878977E-07  0.3518644E+04  0.7818609E-02  0.8109386E-01
        2   -1    0    0  501    0  0.00000000000E+00  0.00000000000E+00  0.20118714467E+04  0.20118714467E+04  0.25500000920E-02 0. -1.
       -2   -1    0    0    0  501  0.00000000000E+00  0.00000000000E+00 -0.15384747781E+04  0.15384747781E+04  0.25500000920E-02 0.  1.
    10030    2    1    2    0    0  0.00000000000E+00  0.00000000000E+00  0.47339666861E+03  0.35503462249E+04  0.35186437601E+04 0.  0.
        5    1    3    3  502    0  0.33871372909E+03  0.14192954440E+04  0.12284399680E+04  0.19074101270E+04  0.46999998093E+01 0. -1.
       -5    1    3    3    0  502 -0.33871372909E+03 -0.14192954440E+04 -0.75504329935E+03  0.16429360978E+04  0.46999998093E+01 0.  1.
</event>
<event>
 5   0  0.3365378E-07  0.3598201E+04  0.7818609E-02  0.8090904E-01
        1   -1    0    0  501    0  0.00000000000E+00  0.00000000000E+00  0.20926731698E+04  0.20926731698E+04  0.50400001928E-02 0.  1.
       -1   -1    0    0    0  501  0.00000000000E+00  0.00000000000E+00 -0.15467121724E+04  0.15467121724E+04  0.50400001928E-02 0. -1.
    10030    2    1    2    0    0  0.00000000000E+00  0.00000000000E+00  0.54596099739E+03  0.36393853422E+04  0.35982012532E+04 0.  0.
        3    1    3    3  502    0 -0.92644354429E+03 -0.51227840370E+03  0.17442903502E+04  0.20404106546E+04  0.10100000352E+00 0.  1.
       -3    1    3    3    0  502  0.92644354429E+03  0.51227840370E+03 -0.11983293528E+04  0.15989746876E+04  0.10100000352E+00 0. -1.
</event>
<event>
 5   0  0.9878977E-07  0.3632342E+04  0.7818609E-02  0.8083123E-01
        2   -1    0    0  501    0  0.00000000000E+00  0.00000000000E+00  0.11071848187E+04  0.11071848187E+04  0.25500000920E-02 0.  1.
       -2   -1    0    0    0  501  0.00000000000E+00  0.00000000000E+00 -0.29791572645E+04  0.29791572645E+04  0.25500000920E-02 0. -1.
    10030    2    1    2    0    0  0.00000000000E+00  0.00000000000E+00 -0.18719724458E+04  0.40863420832E+04  0.36323423274E+04 0.  0.
        5    1    3    3  502    0  0.43740473745E+02 -0.17752969638E+04 -0.50780581998E+03  0.18470195937E+04  0.46999998093E+01 0.  1.
       -5    1    3    3    0  502 -0.43740473745E+02  0.17752969638E+04 -0.13641666258E+04  0.22393224895E+04  0.46999998093E+01 0. -1.
</event>
<event>
 5   0  0.3159875E-07  0.3523551E+04  0.7818609E-02  0.8108231E-01
        1   -1    0    0  501    0  0.00000000000E+00  0.00000000000E+00  0.22593530514E+04  0.22593530515E+04  0.50400001928E-02 0. -1.
       -1   -1    0    0    0  501  0.00000000000E+00  0.00000000000E+00 -0.13737792946E+04  0.13737792946E+04  0.50400001928E-02 0.  1.
    10030    2    1    2    0    0  0.00000000000E+00  0.00000000000E+00  0.88557375686E+03  0.36331323461E+04  0.35235507326E+04 0.  0.
        2    1    3    3  502    0 -0.13796129327E+04  0.88123814355E+03 -0.22856908679E+03  0.16529235727E+04  0.25500000920E-02 0. -1.
       -2    1    3    3    0  502  0.13796129327E+04 -0.88123814355E+03  0.11141428437E+04  0.19802087733E+04  0.25500000920E-02 0.  1.
</event>
<event>
 5   0  0.1006019E-06  0.3617389E+04  0.7818609E-02  0.8086520E-01
        2   -1    0    0  501    0  0.00000000000E+00  0.00000000000E+00  0.22408551245E+04  0.22408551245E+04  0.25500000920E-02 0. -1.
       -2   -1    0    0    0  501  0.00000000000E+00  0.00000000000E+00 -0.14598786783E+04  0.14598786783E+04  0.25500000920E-02 0.  1.
    10030    2    1    2    0    0  0.00000000000E+00  0.00000000000E+00  0.78097644624E+03  0.37007338028E+04  0.36173894550E+04 0.  0.
        1    1    3    3  502    0 -0.33803287024E+03  0.17699362827E+04  0.23056659511E+03  0.18166181825E+04  0.50400001928E-02 0.  1.
       -1    1    3    3    0  502  0.33803287024E+03 -0.17699362827E+04  0.55040985113E+03  0.18841156202E+04  0.50400001928E-02 0. -1.
</event>
<event>
 5   0  0.3159875E-07  0.3611364E+04  0.7818609E-02  0.8087894E-01
       -1   -1    0    0    0  501  0.00000000000E+00  0.00000000000E+00  0.11520228332E+04  0.11520228332E+04  0.50400001928E-02 0.  1.
        1   -1    0    0  501    0  0.00000000000E+00  0.00000000000E+00 -0.28302274896E+04  0.28302274896E+04  0.50400001928E-02 0. -1.
    10030    2    1    2    0    0  0.00000000000E+00  0.00000000000E+00 -0.16782046564E+04  0.39822503229E+04  0.36113635604E+04 0.  0.
        2    1    3    3  502    0 -0.17855740676E+04 -0.25177772420E+03 -0.73554290688E+03  0.19474830272E+04  0.25500000920E-02 0.  1.
       -2    1    3    3    0  502  0.17855740676E+04  0.25177772420E+03 -0.94266174949E+03  0.20347672956E+04  0.25500000920E-02 0. -1.
</event>
<event>
 5   0  0.9538919E-07  0.3559945E+04  0.7818609E-02  0.8099729E-01
        2   -1    0    0  501    0  0.00000000000E+00  0.00000000000E+00  0.15646756013E+04  0.15646756013E+04  0.25500000920E-02 0.  1.
       -2   -1    0    0    0  501  0.00000000000E+00  0.00000000000E+00 -0.20248944138E+04  0.20248944138E+04  0.25500000920E-02 0. -1.
    10030    2    1    2    0    0  0.00000000000E+00  0.00000000000E+00 -0.46021881243E+03  0.35895700151E+04  0.35599454403E+04 0.  0.
        4    1    3    3  502    0 -0.75434844544E+03  0.16099907744E+04 -0.14461347774E+03  0.17838235736E+04  0.12699999809E+01 0. -1.
       -4    1    3    3    0  502  0.75434844544E+03 -0.16099907744E+04 -0.31560533468E+03  0.18057464415E+04  0.12699999809E+01 0.  1.
</event>
<event>
 5   0  0.3278988E-07  0.3592017E+04  0.7818609E-02  0.8092323E-01
        1   -1    0    0  501    0  0.00000000000E+00  0.00000000000E+00  0.21335730150E+04  0.21335730150E+04  0.50400001928E-02 0. -1.
       -1   -1    0    0    0  501  0.00000000000E+00  0.00000000000E+00 -0.15118519907E+04  0.15118519908E+04  0.50400001928E-02 0.  1.
    10030    2    1    2    0    0  0.00000000000E+00  0.00000000000E+00  0.62172102427E+03  0.36454250058E+04  0.35920170435E+04 0.  0.
        4    1    3    3  502    0  0.11640651492E+04 -0.21280167514E+03 -0.10602688338E+04  0.15888687288E+04  0.12699999809E+01 0.  1.
       -4    1    3    3    0  502 -0.11640651492E+04  0.21280167514E+03  0.16819898581E+04  0.20565562769E+04  0.12699999809E+01 0. -1.
</event>
<event>
 5   0  0.3159875E-07  0.2676211E+04  0.7818609E-02  0.8342765E-01
        1   -1    0    0  501    0  0.00000000000E+00  0.00000000000E+00  0.93701044410E+03  0.93701044411E+03  0.50400001928E-02 0. -1.
       -1   -1    0    0    0  501  0.00000000000E+00  0.00000000000E+00 -0.19108919167E+04  0.19108919167E+04  0.50400001928E-02 0.  1.
    10030    2    1    2    0    0  0.00000000000E+00  0.00000000000E+00 -0.97388147263E+03  0.28479023608E+04  0.26762105175E+04 0.  0.
        2    1    3    3  502    0 -0.22860684908E+03  0.62068497551E+03 -0.17247567263E+04  0.18472402916E+04  0.25500000920E-02 0.  1.
       -2    1    3    3    0  502  0.22860684908E+03 -0.62068497551E+03  0.75087525362E+03  0.10006620692E+04  0.25500000920E-02 0. -1.
</event>
<event>
 5   0  0.3159875E-07  0.3675390E+04  0.7818609E-02  0.8073438E-01
       -1   -1    0    0    0  501  0.00000000000E+00  0.00000000000E+00  0.31670801844E+04  0.31670801844E+04  0.50400001928E-02 0. -1.
        1   -1    0    0  501    0  0.00000000000E+00  0.00000000000E+00 -0.10663206642E+04  0.10663206642E+04  0.50400001928E-02 0.  1.
    10030    2    1    2    0    0  0.00000000000E+00  0.00000000000E+00  0.21007595202E+04  0.42334008486E+04  0.36753900723E+04 0.  0.
        5    1    3    3  502    0 -0.12333728173E+04  0.13602913169E+04  0.11358011456E+04  0.21590894622E+04  0.46999998093E+01 0. -1.
       -5    1    3    3    0  502  0.12333728173E+04 -0.13602913169E+04  0.96495837460E+03  0.20743113865E+04  0.46999998093E+01 0.  1.
</event>
<event>
 5   0  0.3159875E-07  0.3615847E+04  0.7818609E-02  0.8086871E-01
       -1   -1    0    0    0  501  0.00000000000E+00  0.00000000000E+00  0.18944327531E+04  0.18944327531E+04  0.50400001928E-02 0.  1.
        1   -1    0    0  501    0  0.00000000000E+00  0.00000000000E+00 -0.17253651514E+04  0.17253651514E+04  0.50400001928E-02 0. -1.
    10030    2    1    2    0    0  0.00000000000E+00  0.00000000000E+00  0.16906760177E+03  0.36197979045E+04  0.36158474823E+04 0.  0.
        2    1    3    3  502    0 -0.54004825170E+03  0.40363293217E+03 -0.15948020054E+04  0.17314632813E+04  0.25500000920E-02 0. -1.
       -2    1    3    3    0  502  0.54004825170E+03 -0.40363293217E+03  0.17638696072E+04  0.18883346232E+04  0.25500000920E-02 0.  1.
</event>
<event>
 5   0  0.3365378E-07  0.3671009E+04  0.7818609E-02  0.8074417E-01
       -1   -1    0    0    0  501  0.00000000000E+00  0.00000000000E+00  0.12147456112E+04  0.12147456112E+04  0.50400001928E-02 0.  1.
        1   -1    0    0  501    0  0.00000000000E+00  0.00000000000E+00 -0.27734827927E+04  0.27734827927E+04  0.50400001928E-02 0. -1.
    10030    2    1    2    0    0  0.00000000000E+00  0.00000000000E+00 -0.15587371815E+04  0.39882284039E+04  0.36710086081E+04 0.  0.
        3    1    3    3  502    0 -0.41627730807E+03 -0.30685485891E+03 -0.26926972085E+04  0.27419090008E+04  0.10100000352E+00 0. -1.
       -3    1    3    3    0  502  0.41627730807E+03  0.30685485891E+03  0.11339600270E+04  0.12463194032E+04  0.10100000352E+00 0.  1.
</event>
<event>
 5   0  0.3159875E-07  0.3644979E+04  0.7818609E-02  0.8080266E-01
        1   -1    0    0  501    0  0.00000000000E+00  0.00000000000E+00  0.24507352718E+04  0.24507352718E+04  0.50400001928E-02 0.  1.
       -1   -1    0    0    0  501  0.00000000000E+00  0.00000000000E+00 -0.13552946331E+04  0.13552946332E+04  0.50400001928E-02 0. -1.
    10030    2    1    2    0    0  0.00000000000E+00  0.00000000000E+00  0.10954406387E+04  0.38060299050E+04  0.36449792105E+04 0.  0.
        5    1    3    3  502    0  0.29420198223E+02 -0.46772434292E+03  0.23867344360E+04  0.24323147344E+04  0.46999998093E+01 0.  1.
       -5    1    3    3    0  502 -0.29420198223E+02  0.46772434292E+03 -0.12912937973E+04  0.13737151706E+04  0.46999998093E+01 0. -1.
</event>
<event>
 5   0  0.3159875E-07  0.3521757E+04  0.7818609E-02  0.8108653E-01
        1   -1    0    0  501    0  0.00000000000E+00  0.00000000000E+00  0.24033404936E+04  0.24033404937E+04  0.50400001928E-02 0. -1.
       -1   -1    0    0    0  501  0.00000000000E+00  0.00000000000E+00 -0.12901598393E+04  0.12901598393E+04  0.50400001928E-02 0.  1.
    10030    2    1    2    0    0  0.00000000000E+00  0.00000000000E+00  0.11131806544E+04  0.36935003329E+04  0.35217571666E+04 0.  0.
        5    1    3    3  502    0  0.71058935740E+03 -0.90190280430E+03 -0.84354429844E+03  0.14247648847E+04  0.46999998093E+01 0.  1.
       -5    1    3    3    0  502 -0.71058935740E+03  0.90190280430E+03  0.19567249528E+04  0.22687354482E+04  0.46999998093E+01 0. -1.
</event>
<event>
 5   0  0.3159875E-07  0.2891215E+04  0.7818609E-02  0.8275496E-01
       -1   -1    0    0    0  501  0.00000000000E+00  0.00000000000E+00  0.18443962200E+04  0.18443962200E+04  0.50400001928E-02 0. -1.
        1   -1    0    0  501    0  0.00000000000E+00  0.00000000000E+00 -0.11330430743E+04  0.11330430743E+04  0.50400001928E-02 0.  1.
    10030    2    1    2    0    0  0.00000000000E+00  0.00000000000E+00  0.71135314573E+03  0.29774392943E+04  0.28912145291E+04 0.  0.
        5    1    3    3  502    0  0.23898158850E+03 -0.57675979938E+03 -0.98704608876E+03  0.11679238576E+04  0.46999998093E+01 0.  1.
       -5    1    3    3    0  502 -0.23898158850E+03  0.57675979938E+03  0.16983992345E+04  0.18095154367E+04  0.46999998093E+01 0. -1.
</event>
<event>
 5   0  0.9538919E-07  0.3612022E+04  0.7818609E-02  0.8087743E-01
        2   -1    0    0  501    0  0.00000000000E+00  0.00000000000E+00  0.24754969480E+04  0.24754969480E+04  0.25500000920E-02 0. -1.
       -2   -1    0    0    0  501  0.00000000000E+00  0.00000000000E+00 -0.13175844751E+04  0.13175844751E+04  0.25500000920E-02 0.  1.
    10030    2    1    2    0    0  0.00000000000E+00  0.00000000000E+00  0.11579124729E+04  0.37930814231E+04  0.36120223404E+04 0.  0.
        4    1    3    3  502    0 -0.11755152624E+04 -0.12941763133E+04  0.10355342147E+03  0.17514146814E+04  0.12699999809E+01 0.  1.
       -4    1    3    3    0  502  0.11755152624E+04  0.12941763133E+04  0.10543590514E+04  0.20416667418E+04  0.12699999809E+01 0. -1.
</event>
<event>
 5   0  0.3278988E-07  0.3517862E+04  0.7818609E-02  0.8109570E-01
        1   -1    0    0  501    0  0.00000000000E+00  0.00000000000E+00  0.15277542221E+04  0.15277542221E+04  0.50400001928E-02 0.  1.
       -1   -1    0    0    0  501  0.00000000000E+00  0.00000000000E+00 -0.20250887434E+04  0.20250887434E+04  0.50400001928E-02 0. -1.
    10030    2    1    2    0    0  0.00000000000E+00  0.00000000000E+00 -0.49733452136E+03  0.35528429655E+04  0.35178617812E+04 0.  0.
        4    1    3    3  502    0 -0.17424400602E+04 -0.45343318328E+02 -0.48698595144E+03  0.18097818404E+04  0.12699999809E+01 0. -1.
       -4    1    3    3    0  502  0.17424400602E+04  0.45343318328E+02 -0.10348569919E+02  0.17430611251E+04  0.12699999809E+01 0.  1.
</event>
<event>
 5   0  0.9878336E-07  0.2760707E+04  0.7818609E-02  0.8315572E-01
       -2   -1    0    0    0  501  0.00000000000E+00  0.00000000000E+00  0.13220191770E+04  0.13220191770E+04  0.25500000920E-02 0.  1.
        2   -1    0    0  501    0  0.00000000000E+00  0.00000000000E+00 -0.14412615716E+04  0.14412615716E+04  0.25500000920E-02 0. -1.
    10030    2    1    2    0    0  0.00000000000E+00  0.00000000000E+00 -0.11924239459E+03  0.27632807485E+04  0.27607067476E+04 0.  0.
        3    1    3    3  502    0  0.12566222346E+04 -0.55199273449E+03  0.87417120454E+02  0.13752953074E+04  0.10100000352E+00 0.  1.
       -3    1    3    3    0  502 -0.12566222346E+04  0.55199273449E+03 -0.20665951505E+03  0.13879854411E+04  0.10100000352E+00 0. -1.
</event>
<event>
 5   0  0.1006019E-06  0.3621578E+04  0.7818609E-02  0.8085567E-01
        2   -1    0    0  501    0  0.00000000000E+00  0.00000000000E+00  0.12765654468E+04  0.12765654468E+04  0.25500000920E-02 0.  1.
       -2   -1    0    0    0  501  0.00000000000E+00  0.00000000000E+00 -0.25685767027E+04  0.25685767027E+04  0.25500000920E-02 0. -1.
    10030    2    1    2    0    0  0.00000000000E+00  0.00000000000E+00 -0.12920112559E+04  0.38451421494E+04  0.36215777037E+04 0.  0.
        1    1    3    3  502    0  0.41962327286E+03  0.13564023986E+04  0.54722398369E+03  0.15216324282E+04  0.50400001928E-02 0.  1.
       -1    1    3    3    0  502 -0.41962327286E+03 -0.13564023986E+04 -0.18392352396E+04  0.23235097213E+04  0.50400001928E-02 0. -1.
</event>
<event>
 5   0  0.3278988E-07  0.3637952E+04  0.7818609E-02  0.8081853E-01
        1   -1    0    0  501    0  0.00000000000E+00  0.00000000000E+00  0.23389148257E+04  0.23389148257E+04  0.50400001928E-02 0.  1.
       -1   -1    0    0    0  501  0.00000000000E+00  0.00000000000E+00 -0.14146195119E+04  0.14146195119E+04  0.50400001928E-02 0. -1.
    10030    2    1    2    0    0  0.00000000000E+00  0.00000000000E+00  0.92429531371E+03  0.37535343376E+04  0.36379524731E+04 0.  0.
        4    1    3    3  502    0 -0.87668940510E+03  0.15593212272E+04  0.12212320526E+03  0.17930372815E+04  0.12699999809E+01 0.  1.
       -4    1    3    3    0  502  0.87668940510E+03 -0.15593212272E+04  0.80217210845E+03  0.19604970561E+04  0.12699999809E+01 0. -1.
</event>
<event>
 5   0  0.1006019E-06  0.3223351E+04  0.7818609E-02  0.8182677E-01
        2   -1    0    0  501    0  0.00000000000E+00  0.00000000000E+00  0.14547525612E+04  0.14547525612E+04  0.25500000920E-02 0.  1.
       -2   -1    0    0    0  501  0.00000000000E+00  0.00000000000E+00 -0.17855257743E+04  0.17855257743E+04  0.25500000920E-02 0. -1.
    10030    2    1    2    0    0  0.00000000000E+00  0.00000000000E+00 -0.33077321318E+03  0.32402783355E+04  0.32233511712E+04 0.  0.
        1    1    3    3  502    0  0.68277987260E+03  0.11901931924E+04  0.68448198125E+03  0.15333831133E+04  0.50400001928E-02 0.  1.
       -1    1    3    3    0  502 -0.68277987260E+03 -0.11901931924E+04 -0.10152551944E+04  0.17068952222E+04  0.50400001928E-02 0. -1.
</event>
<event>
 5   0  0.9878336E-07  0.3412801E+04  0.7818609E-02  0.8134772E-01
        2   -1    0    0  501    0  0.00000000000E+00  0.00000000000E+00  0.23027358484E+04  0.23027358484E+04  0.25500000920E-02 0. -1.
       -2   -1    0    0    0  501  0.00000000000E+00  0.00000000000E+00 -0.12644969971E+04  0.12644969971E+04  0.25500000920E-02 0.  1.
    10030    2    1    2    0    0  0.00000000000E+00  0.00000000000E+00  0.10382388513E+04  0.35672328456E+04  0.34128009409E+04 0.  0.
        3    1    3    3  502    0 -0.79553064969E+03 -0.94792811230E+03  0.17471738133E+04  0.21410401829E+04  0.10100000352E+00 0. -1.
       -3    1    3    3    0  502  0.79553064969E+03  0.94792811230E+03 -0.70893496196E+03  0.14261926627E+04  0.10100000352E+00 0.  1.
</event>
<event>
 5   0  0.3159875E-07  0.3560388E+04  0.7818609E-02  0.8099626E-01
       -1   -1    0    0    0  501  0.00000000000E+00  0.00000000000E+00  0.20548684267E+04  0.20548684267E+04  0.50400001928E-02 0.  1.
        1   -1    0    0  501    0  0.00000000000E+00  0.00000000000E+00 -0.15422350848E+04  0.15422350848E+04  0.50400001928E-02 0. -1.
    10030    2    1    2    0    0  0.00000000000E+00  0.00000000000E+00  0.51263334186E+03  0.35971035115E+04  0.35603877217E+04 0.  0.
        2    1    3    3  502    0  0.14088200800E+04  0.83547840193E+02  0.13525571598E+04  0.19547800721E+04  0.25500000920E-02 0.  1.
       -2    1    3    3    0  502 -0.14088200800E+04 -0.83547840193E+02 -0.83992381797E+03  0.16423234394E+04  0.25500000920E-02 0. -1.
</event>
<event>
 5   0  0.9878336E-07  0.3541745E+04  0.7818609E-02  0.8103967E-01
        2   -1    0    0  501    0  0.00000000000E+00  0.00000000000E+00  0.15185446183E+04  0.15185446183E+04  0.25500000920E-02 0.  1.
       -2   -1    0    0    0  501  0.00000000000E+00  0.00000000000E+00 -0.20651288356E+04  0.20651288356E+04  0.25500000920E-02 0. -1.
    10030    2    1    2    0    0  0.00000000000E+00  0.00000000000E+00 -0.54658421736E+03  0.35836734539E+04  0.35417454902E+04 0.  0.
        3    1    3    3  502    0 -0.13970596714E+04  0.61418854136E+03  0.63566699526E+03  0.16532016903E+04  0.10100000352E+00 0.  1.
       -3    1    3    3    0  502  0.13970596714E+04 -0.61418854136E+03 -0.11822512126E+04  0.19304717635E+04  0.10100000352E+00 0. -1.
</event>
<event>
 5   0  0.3242047E-07  0.3665648E+04  0.7818609E-02  0.8075618E-01
        1   -1    0    0  501    0  0.00000000000E+00  0.00000000000E+00  0.26688086861E+04  0.26688086861E+04  0.50400001928E-02 0.  1.
       -1   -1    0    0    0  501  0.00000000000E+00  0.00000000000E+00 -0.12587052589E+04  0.12587052589E+04  0.50400001928E-02 0. -1.
    10030    2    1    2    0    0  0.00000000000E+00  0.00000000000E+00  0.14101034272E+04  0.39275139451E+04  0.36656478436E+04 0.  0.
        1    1    3    3  502    0 -0.79165048209E+03 -0.50537856036E+03 -0.98127222497E+03  0.13583126130E+04  0.50400001928E-02 0. -1.
       -1    1    3    3    0  502  0.79165048209E+03  0.50537856036E+03  0.23913756522E+04  0.25692013321E+04  0.50400001928E-02 0.  1.
</event>
<event>
 5   0  0.3159875E-07  0.3560611E+04  0.7818609E-02  0.8099574E-01
       -1   -1    0    0    0  501  0.00000000000E+00  0.00000000000E+00  0.18464302347E+04  0.18464302347E+04  0.50400001928E-02 0.  1.
        1   -1    0    0  501    0  0.00000000000E+00  0.00000000000E+00 -0.17165483892E+04  0.17165483892E+04  0.50400001928E-02 0. -1.
    10030    2    1    2    0    0  0.00000000000E+00  0.00000000000E+00  0.12988184544E+03  0.35629786239E+04  0.35606105348E+04 0.  0.
        2    1    3    3  502    0 -0.13448348805E+04 -0.41730477359E+03  0.11550518453E+04  0.18212273046E+04  0.25500000920E-02 0.  1.
       -2    1    3    3    0  502  0.13448348805E+04  0.41730477359E+03 -0.10251699998E+04  0.17417513193E+04  0.25500000920E-02 0. -1.
</event>
<event>
 5   0  0.3242047E-07  0.3634737E+04  0.7818609E-02  0.8082581E-01
        1   -1    0    0  501    0  0.00000000000E+00  0.00000000000E+00  0.18379592734E+04  0.18379592734E+04  0.50400001928E-02 0. -1.
       -1   -1    0    0    0  501  0.00000000000E+00  0.00000000000E+00 -0.17970082971E+04  0.17970082971E+04  0.50400001928E-02 0.  1.
    10030    2    1    2    0    0  0.00000000000E+00  0.00000000000E+00  0.40950976287E+02  0.36349675704E+04  0.36347368895E+04 0.  0.
        1    1    3    3  502    0  0.41574515559E+03  0.28826025631E+03  0.17661205873E+04  0.18371499500E+04  0.50400001928E-02 0. -1.
       -1    1    3    3    0  502 -0.41574515559E+03 -0.28826025631E+03 -0.17251696110E+04  0.17978176205E+04  0.50400001928E-02 0.  1.
</event>
<event>
 5   0  0.1006019E-06  0.3578851E+04  0.7818609E-02  0.8095353E-01
       -2   -1    0    0    0  501  0.00000000000E+00  0.00000000000E+00  0.18486392382E+04  0.18486392382E+04  0.25500000920E-02 0.  1.
        2   -1    0    0  501    0  0.00000000000E+00  0.00000000000E+00 -0.17321089138E+04  0.17321089138E+04  0.25500000920E-02 0. -1.
    10030    2    1    2    0    0  0.00000000000E+00  0.00000000000E+00  0.11653032439E+03  0.35807481520E+04  0.35788514933E+04 0.  0.
        1    1    3    3  502    0  0.20427606268E+03 -0.92906972253E+03  0.15747020031E+04  0.18397243429E+04  0.50400001928E-02 0.  1.
       -1    1    3    3    0  502 -0.20427606268E+03  0.92906972253E+03 -0.14581716787E+04  0.17410238091E+04  0.50400001928E-02 0. -1.
</event>
<event>
 5   0  0.3242047E-07  0.3148700E+04  0.7818609E-02  0.8202498E-01
       -1   -1    0    0    0  501  0.00000000000E+00  0.00000000000E+00  0.88784038484E+03  0.88784038485E+03  0.50400001928E-02 0.  1.
        1   -1    0    0  501    0  0.00000000000E+00  0.00000000000E+00 -0.27916933055E+04  0.27916933055E+04  0.50400001928E-02 0. -1.
    10030    2    1    2    0    0  0.00000000000E+00  0.00000000000E+00 -0.19038529207E+04  0.36795336904E+04  0.31487000865E+04 0.  0.
        1    1    3    3  502    0  0.74563162969E+03  0.11714007502E+04 -0.84938131156E+02  0.13911724303E+04  0.50400001928E-02 0.  1.
       -1    1    3    3    0  502 -0.74563162969E+03 -0.11714007502E+04 -0.18189147895E+04  0.22883612600E+04  0.50400001928E-02 0. -1.
</event>
<event>
 5   0  0.3278988E-07  0.2743907E+04  0.7818609E-02  0.8320898E-01
       -1   -1    0    0    0  501  0.00000000000E+00  0.00000000000E+00  0.14911084438E+04  0.14911084438E+04  0.50400001928E-02 0. -1.
        1   -1    0    0  501    0  0.00000000000E+00  0.00000000000E+00 -0.12623206569E+04  0.12623206569E+04  0.50400001928E-02 0.  1.
    10030    2    1    2    0    0  0.00000000000E+00  0.00000000000E+00  0.22878778696E+03  0.27534291007E+04  0.27439074258E+04 0.  0.
        4    1    3    3  502    0  0.29236286143E+03 -0.30114424835E+03 -0.11963130488E+04  0.12678053576E+04  0.12699999809E+01 0.  1.
       -4    1    3    3    0  502 -0.29236286143E+03  0.30114424835E+03  0.14251008358E+04  0.14856237431E+04  0.12699999809E+01 0. -1.
</event>
<event>
 5   0  0.1031659E-06  0.3647773E+04  0.7818609E-02  0.8079636E-01
        2   -1    0    0  501    0  0.00000000000E+00  0.00000000000E+00  0.22844915598E+04  0.22844915598E+04  0.25500000920E-02 0. -1.
       -2   -1    0    0    0  501  0.00000000000E+00  0.00000000000E+00 -0.14561497807E+04  0.14561497807E+04  0.25500000920E-02 0.  1.
    10030    2    1    2    0    0  0.00000000000E+00  0.00000000000E+00  0.82834177905E+03  0.37406413405E+04  0.36477729555E+04 0.  0.
        2    1    3    3  502    0  0.10759744929E+04 -0.85096106434E+03  0.16467307333E+04  0.21432633880E+04  0.25500000920E-02 0. -1.
       -2    1    3    3    0  502 -0.10759744929E+04  0.85096106434E+03 -0.81838895426E+03  0.15973779524E+04  0.25500000920E-02 0.  1.
</event>
<event>
 5   0  0.1031659E-06  0.3588899E+04  0.7818609E-02  0.8093039E-01
       -2   -1    0    0    0  501  0.00000000000E+00  0.00000000000E+00  0.15731257604E+04  0.15731257604E+04  0.25500000920E-02 0. -1.
        2   -1    0    0  501    0  0.00000000000E+00  0.00000000000E+00 -0.20469112269E+04  0.20469112269E+04  0.25500000920E-02 0.  1.
    10030    2    1    2    0    0  0.00000000000E+00  0.00000000000E+00 -0.47378546653E+03  0.36200369874E+04  0.35888988731E+04 0.  0.
        2    1    3    3  502    0  0.66068298344E+03 -0.15951880360E+04  0.25614456133E+03  0.17454904501E+04  0.25500000920E-02 0. -1.
       -2    1    3    3    0  502 -0.66068298344E+03  0.15951880360E+04 -0.72993002786E+03  0.18745465373E+04  0.25500000920E-02 0.  1.
</event>
<event>
 5   0  0.9878977E-07  0.3402136E+04  0.7818609E-02  0.8137382E-01
       -2   -1    0    0    0  501  0.00000000000E+00  0.00000000000E+00  0.10517673898E+04  0.10517673898E+04  0.25500000920E-02 0. -1.
        2   -1    0    0  501    0  0.00000000000E+00  0.00000000000E+00 -0.27512090353E+04  0.27512090353E+04  0.25500000920E-02 0.  1.
    10030    2    1    2    0    0  0.00000000000E+00  0.00000000000E+00 -0.16994416455E+04  0.38029764251E+04  0.34021357679E+04 0.  0.
        5    1    3    3  502    0  0.43561058370E+03  0.60402369511E+03  0.85985318555E+03  0.11375283713E+04  0.46999998093E+01 0. -1.
       -5    1    3    3    0  502 -0.43561058370E+03 -0.60402369511E+03 -0.25592948311E+04  0.26654480537E+04  0.46999998093E+01 0.  1.
</event>
<event>
 5   0  0.1006019E-06  0.3596955E+04  0.7818609E-02  0.8091190E-01
        2   -1    0    0  501    0  0.00000000000E+00  0.00000000000E+00  0.16382253661E+04  0.16382253661E+04  0.25500000920E-02 0.  1.
       -2   -1    0    0    0  501  0.00000000000E+00  0.00000000000E+00 -0.19744055705E+04  0.19744055705E+04  0.25500000920E-02 0. -1.
    10030    2    1    2    0    0  0.00000000000E+00  0.00000000000E+00 -0.33618020439E+03  0.36126309367E+04  0.35969549837E+04 0.  0.
        1    1    3    3  502    0  0.78878545716E+03  0.33540741909E+03  0.14198889070E+04  0.16585430783E+04  0.50400001928E-02 0.  1.
       -1    1    3    3    0  502 -0.78878545716E+03 -0.33540741909E+03 -0.17560691114E+04  0.19540878584E+04  0.50400001928E-02 0. -1.
</event>
<event>
 5   0  0.3365378E-07  0.3626313E+04  0.7818609E-02  0.8084491E-01
        1   -1    0    0  501    0  0.00000000000E+00  0.00000000000E+00  0.15220959094E+04  0.15220959094E+04  0.50400001928E-02 0.  1.
       -1   -1    0    0    0  501  0.00000000000E+00  0.00000000000E+00 -0.21598746149E+04  0.21598746149E+04  0.50400001928E-02 0. -1.
    10030    2    1    2    0    0  0.00000000000E+00  0.00000000000E+00 -0.63777870549E+03  0.36819705243E+04  0.36263129022E+04 0.  0.
        3    1    3    3  502    0 -0.16559090872E+03 -0.87166592468E+03  0.12866181879E+04  0.15628845783E+04  0.10100000352E+00 0.  1.
       -3    1    3    3    0  502  0.16559090872E+03  0.87166592468E+03 -0.19243968934E+04  0.21190859461E+04  0.10100000352E+00 0. -1.
</event>
<event>
 5   0  0.9538919E-07  0.3610059E+04  0.7818609E-02  0.8088192E-01
       -2   -1    0    0    0  501  0.00000000000E+00  0.00000000000E+00  0.14006478311E+04  0.14006478311E+04  0.25500000920E-02 0. -1.
        2   -1    0    0  501    0  0.00000000000E+00  0.00000000000E+00 -0.23261599034E+04  0.23261599034E+04  0.25500000920E-02 0.  1.
    10030    2    1    2    0    0  0.00000000000E+00  0.00000000000E+00 -0.92551207231E+03  0.37268077345E+04  0.36100586275E+04 0.  0.
        4    1    3    3  502    0 -0.12045819336E+04 -0.94652315361E+03  0.52268557861E+03  0.16186801852E+04  0.12699999809E+01 0. -1.
       -4    1    3    3    0  502  0.12045819336E+04  0.94652315361E+03 -0.14481976509E+04  0.21081275493E+04  0.12699999809E+01 0.  1.
</event>
<event>
 5   0  0.9878977E-07  0.3587137E+04  0.7818609E-02  0.8093444E-01
       -2   -1    0    0    0  501  0.00000000000E+00  0.00000000000E+00  0.15587265891E+04  0.15587265891E+04  0.25500000920E-02 0. -1.
        2   -1    0    0  501    0  0.00000000000E+00  0.00000000000E+00 -0.20637928648E+04  0.20637928648E+04  0.25500000920E-02 0.  1.
    10030    2    1    2    0    0  0.00000000000E+00  0.00000000000E+00 -0.50506627566E+03  0.36225194539E+04  0.35871374731E+04 0.  0.
        5    1    3    3  502    0  0.36529715837E+03 -0.15325129142E+02 -0.20257540291E+04  0.20584893369E+04  0.46999998093E+01 0.  1.
       -5    1    3    3    0  502 -0.36529715837E+03  0.15325129142E+02  0.15206877535E+04  0.15640301170E+04  0.46999998093E+01 0. -1.
</event>
<event>
 5   0  0.9878336E-07  0.3356227E+04  0.7818609E-02  0.8148734E-01
       -2   -1    0    0    0  501  0.00000000000E+00  0.00000000000E+00  0.13601420176E+04  0.13601420176E+04  0.25500000920E-02 0. -1.
        2   -1    0    0  501    0  0.00000000000E+00  0.00000000000E+00 -0.20704196148E+04  0.20704196148E+04  0.25500000920E-02 0.  1.
    10030    2    1    2    0    0  0.00000000000E+00  0.00000000000E+00 -0.71027759720E+03  0.34305616323E+04  0.33562268767E+04 0.  0.
        3    1    3    3  502    0  0.15685140227E+04  0.82131745996E+02 -0.95905706373E+03  0.18403185389E+04  0.10100000352E+00 0.  1.
       -3    1    3    3    0  502 -0.15685140227E+04 -0.82131745996E+02  0.24877946654E+03  0.15902430934E+04  0.10100000352E+00 0. -1.
</event>
<event>
 5   0  0.3242047E-07  0.3867591E+04  0.7818609E-02  0.8031804E-01
       -1   -1    0    0    0  501  0.00000000000E+00  0.00000000000E+00  0.12765442669E+04  0.12765442669E+04  0.50400001928E-02 0.  1.
        1   -1    0    0  501    0  0.00000000000E+00  0.00000000000E+00 -0.29294439914E+04  0.29294439914E+04  0.50400001928E-02 0. -1.
    10030    2    1    2    0    0  0.00000000000E+00  0.00000000000E+00 -0.16528997245E+04  0.42059882582E+04  0.38675909465E+04 0.  0.
        1    1    3    3  502    0  0.22820265873E+03  0.17958924513E+04 -0.15658339611E+04  0.23935626467E+04  0.50400001928E-02 0.  1.
       -1    1    3    3    0  502 -0.22820265873E+03 -0.17958924513E+04 -0.87065763391E+02  0.18124256115E+04  0.50400001928E-02 0. -1.
</event>
<event>
 5   0  0.3159875E-07  0.3480403E+04  0.7818609E-02  0.8118450E-01
        1   -1    0    0  501    0  0.00000000000E+00  0.00000000000E+00  0.24393338438E+04  0.24393338438E+04  0.50400001928E-02 0. -1.
       -1   -1    0    0    0  501  0.00000000000E+00  0.00000000000E+00 -0.12414458297E+04  0.12414458298E+04  0.50400001928E-02 0.  1.
    10030    2    1    2    0    0  0.00000000000E+00  0.00000000000E+00  0.11978880141E+04  0.36807796736E+04  0.34804027513E+04 0.  0.
        2    1    3    3  502    0 -0.76703237163E+03  0.12564206372E+04  0.15804772794E+04  0.21598240455E+04  0.25500000920E-02 0. -1.
       -2    1    3    3    0  502  0.76703237163E+03 -0.12564206372E+04 -0.38258926536E+03  0.15209556281E+04  0.25500000920E-02 0.  1.
</event>
<event>
 5   0  0.3159875E-07  0.3601404E+04  0.7818609E-02  0.8090170E-01
        1   -1    0    0  501    0  0.00000000000E+00  0.00000000000E+00  0.18609069987E+04  0.18609069987E+04  0.50400001928E-02 0.  1.
       -1   -1    0    0    0  501  0.00000000000E+00  0.00000000000E+00 -0.17424445536E+04  0.17424445536E+04  0.50400001928E-02 0. -1.
    10030    2    1    2    0    0  0.00000000000E+00  0.00000000000E+00  0.11846244508E+03  0.36033515523E+04  0.36014037622E+04 0.  0.
        2    1    3    3  502    0 -0.15634097751E+03  0.86004724164E+03  0.16343772727E+04  0.18534596917E+04  0.25500000920E-02 0.  1.
       -2    1    3    3    0  502  0.15634097751E+03 -0.86004724164E+03 -0.15159148277E+04  0.17498918606E+04  0.25500000920E-02 0. -1.
</event>
<event>
 5   0  0.1031659E-06  0.3699497E+04  0.7818609E-02  0.8068073E-01
        2   -1    0    0  501    0  0.00000000000E+00  0.00000000000E+00  0.24839001400E+04  0.24839001400E+04  0.25500000920E-02 0.  1.
       -2   -1    0    0    0  501  0.00000000000E+00  0.00000000000E+00 -0.13774986603E+04  0.13774986603E+04  0.25500000920E-02 0. -1.
    10030    2    1    2    0    0  0.00000000000E+00  0.00000000000E+00  0.11064014797E+04  0.38613988002E+04  0.36994967847E+04 0.  0.
        2    1    3    3  502    0 -0.14502349083E+04 -0.40609229993E+03 -0.56780141705E+03  0.16095001381E+04  0.25500000920E-02 0. -1.
       -2    1    3    3    0  502  0.14502349083E+04  0.40609229993E+03  0.16742028968E+04  0.22518986622E+04  0.25500000920E-02 0.  1.
</event>
<event>
 5   0  0.9538919E-07  0.3318400E+04  0.7818609E-02  0.8158229E-01
       -2   -1    0    0    0  501  0.00000000000E+00  0.00000000000E+00  0.13846107592E+04  0.13846107592E+04  0.25500000920E-02 0.  1.
        2   -1    0    0  501    0  0.00000000000E+00  0.00000000000E+00 -0.19882446404E+04  0.19882446404E+04  0.25500000920E-02 0. -1.
    10030    2    1    2    0    0  0.00000000000E+00  0.00000000000E+00 -0.60363388114E+03  0.33728553996E+04  0.33184001694E+04 0.  0.
        4    1    3    3  502    0  0.15113712490E+04  0.67801986457E+03 -0.39818483350E+03  0.17036744888E+04  0.12699999809E+01 0.  1.
       -4    1    3    3    0  502 -0.15113712490E+04 -0.67801986457E+03 -0.20544904764E+03  0.16691809109E+04  0.12699999809E+01 0. -1.
</event>
<event>
 5   0  0.9878977E-07  0.3674107E+04  0.7818609E-02  0.8073724E-01
       -2   -1    0    0    0  501  0.00000000000E+00  0.00000000000E+00  0.16279186682E+04  0.16279186682E+04  0.25500000920E-02 0. -1.
        2   -1    0    0  501    0  0.00000000000E+00  0.00000000000E+00 -0.20730557072E+04  0.20730557072E+04  0.25500000920E-02 0.  1.
    10030    2    1    2    0    0  0.00000000000E+00  0.00000000000E+00 -0.44513703908E+03  0.37009743754E+04  0.36741072853E+04 0.  0.
        5    1    3    3  502    0 -0.17153829633E+04 -0.41396554735E+03 -0.73702603714E+03  0.19123638917E+04  0.46999998093E+01 0. -1.
       -5    1    3    3    0  502  0.17153829633E+04  0.41396554735E+03  0.29188899805E+03  0.17886104837E+04  0.46999998093E+01 0.  1.
</event>
<event>
 5   0  0.3242047E-07  0.3642287E+04  0.7818609E-02  0.8080873E-01
       -1   -1    0    0    0  501  0.00000000000E+00  0.00000000000E+00  0.11720191075E+04  0.11720191075E+04  0.50400001928E-02 0. -1.
        1   -1    0    0  501    0  0.00000000000E+00  0.00000000000E+00 -0.28297864063E+04  0.28297864063E+04  0.50400001928E-02 0.  1.
    10030    2    1    2    0    0  0.00000000000E+00  0.00000000000E+00 -0.16577672988E+04  0.40018055138E+04  0.36422870498E+04 0.  0.
        1    1    3    3  502    0  0.24035088898E+03  0.14819009002E+04  0.30377856315E+03  0.15316919544E+04  0.50400001928E-02 0. -1.
       -1    1    3    3    0  502 -0.24035088898E+03 -0.14819009002E+04 -0.19615458620E+04  0.24701135594E+04  0.50400001928E-02 0.  1.
</event>
<event>
 5   0  0.3278988E-07  0.3608365E+04  0.7818609E-02  0.8088578E-01
        1   -1    0    0  501    0  0.00000000000E+00  0.00000000000E+00  0.12581375598E+04  0.12581375598E+04  0.50400001928E-02 0.  1.
       -1   -1    0    0    0  501  0.00000000000E+00  0.00000000000E+00 -0.25872168415E+04  0.25872168415E+04  0.50400001928E-02 0. -1.
    10030    2    1    2    0    0  0.00000000000E+00  0.00000000000E+00 -0.13290792817E+04  0.38453544012E+04  0.36083651054E+04 0.  0.
        4    1    3    3  502    0 -0.20295566097E+03  0.16752566038E+04  0.15657832655E+02  0.16875788780E+04  0.12699999809E+01 0.  1.
       -4    1    3    3    0  502  0.20295566097E+03 -0.16752566038E+04 -0.13447371144E+04  0.21577755232E+04  0.12699999809E+01 0. -1.
</event>
<event>
 5   0  0.1031659E-06  0.3549727E+04  0.7818609E-02  0.8102105E-01
       -2   -1    0    0    0  501  0.00000000000E+00  0.00000000000E+00  0.15554627726E+04  0.15554627726E+04  0.25500000920E-02 0. -1.
        2   -1    0    0  501    0  0.00000000000E+00  0.00000000000E+00 -0.20252111622E+04  0.20252111622E+04  0.25500000920E-02 0.  1.
    10030    2    1    2    0    0  0.00000000000E+00  0.00000000000E+00 -0.46974838963E+03  0.35806739347E+04  0.35497270708E+04 0.  0.
        2    1    3    3  502    0  0.13733011653E+04 -0.10492017555E+04  0.17282784172E+03  0.17368505627E+04  0.25500000920E-02 0. -1.
       -2    1    3    3    0  502 -0.13733011653E+04  0.10492017555E+04 -0.64257623135E+03  0.18438233721E+04  0.25500000920E-02 0.  1.
</event>
<event>
 5   0  0.1006019E-06  0.3580949E+04  0.7818609E-02  0.8094869E-01
       -2   -1    0    0    0  501  0.00000000000E+00  0.00000000000E+00  0.12885690970E+04  0.12885690970E+04  0.25500000920E-02 0. -1.
        2   -1    0    0  501    0  0.00000000000E+00  0.00000000000E+00 -0.24878753905E+04  0.24878753905E+04  0.25500000920E-02 0.  1.
    10030    2    1    2    0    0  0.00000000000E+00  0.00000000000E+00 -0.11993062935E+04  0.37764444875E+04  0.35809492291E+04 0.  0.
        1    1    3    3  502    0 -0.17963779769E+03  0.86573610222E+03  0.10422744078E+04  0.13667862592E+04  0.50400001928E-02 0. -1.
       -1    1    3    3    0  502  0.17963779769E+03 -0.86573610222E+03 -0.22415807013E+04  0.24096582283E+04  0.50400001928E-02 0.  1.
</event>
<event>
 5   0  0.1006019E-06  0.3546664E+04  0.7818609E-02  0.8102819E-01
        2   -1    0    0  501    0  0.00000000000E+00  0.00000000000E+00  0.23522240004E+04  0.23522240004E+04  0.25500000920E-02 0. -1.
       -2   -1    0    0    0  501  0.00000000000E+00  0.00000000000E+00 -0.13369080111E+04  0.13369080111E+04  0.25500000920E-02 0.  1.
    10030    2    1    2    0    0  0.00000000000E+00  0.00000000000E+00  0.10153159894E+04  0.36891320115E+04  0.35466644105E+04 0.  0.
        1    1    3    3  502    0 -0.81837290238E+03 -0.10149023628E+04 -0.74268717992E+03  0.15004483532E+04  0.50400001928E-02 0. -1.
       -1    1    3    3    0  502  0.81837290238E+03  0.10149023628E+04  0.17580031693E+04  0.21886836584E+04  0.50400001928E-02 0.  1.
</event>
<event>
 5   0  0.3159875E-07  0.3761684E+04  0.7818609E-02  0.8054428E-01
       -1   -1    0    0    0  501  0.00000000000E+00  0.00000000000E+00  0.26916423105E+04  0.26916423105E+04  0.50400001928E-02 0.  1.
        1   -1    0    0  501    0  0.00000000000E+00  0.00000000000E+00 -0.13142782936E+04  0.13142782936E+04  0.50400001928E-02 0. -1.
    10030    2    1    2    0    0  0.00000000000E+00  0.00000000000E+00  0.13773640168E+04  0.40059206041E+04  0.37616842307E+04 0.  0.
        2    1    3    3  502    0 -0.15250655709E+04 -0.68771716040E+03 -0.22665216067E+03  0.16882390500E+04  0.25500000920E-02 0. -1.
       -2    1    3    3    0  502  0.15250655709E+04  0.68771716040E+03  0.16040161775E+04  0.23176815540E+04  0.25500000920E-02 0.  1.
</event>
<event>
 5   0  0.9878977E-07  0.3655965E+04  0.7818609E-02  0.8077791E-01
       -2   -1    0    0    0  501  0.00000000000E+00  0.00000000000E+00  0.10357953976E+04  0.10357953976E+04  0.25500000920E-02 0. -1.
        2   -1    0    0  501    0  0.00000000000E+00  0.00000000000E+00 -0.32260421537E+04  0.32260421537E+04  0.25500000920E-02 0.  1.
    10030    2    1    2    0    0  0.00000000000E+00  0.00000000000E+00 -0.21902467561E+04  0.42618375513E+04  0.36559647784E+04 0.  0.
        5    1    3    3  502    0  0.25320008437E+03  0.65683187649E+03  0.87144575369E+03  0.11202580900E+04  0.46999998093E+01 0. -1.
       -5    1    3    3    0  502 -0.25320008437E+03 -0.65683187649E+03 -0.30616925098E+04  0.31415794612E+04  0.46999998093E+01 0.  1.
</event>
<event>
 5   0  0.3278988E-07  0.3629870E+04  0.7818609E-02  0.8083684E-01
        1   -1    0    0  501    0  0.00000000000E+00  0.00000000000E+00  0.22833503318E+04  0.22833503318E+04  0.50400001928E-02 0. -1.
       -1   -1    0    0    0  501  0.00000000000E+00  0.00000000000E+00 -0.14426124132E+04  0.14426124132E+04  0.50400001928E-02 0.  1.
    10030    2    1    2    0    0  0.00000000000E+00  0.00000000000E+00  0.84073791855E+03  0.37259627450E+04  0.36298702635E+04 0.  0.
        4    1    3    3  502    0 -0.93880255338E+03  0.40554820415E+02  0.20142113711E+04  0.22226209727E+04  0.12699999809E+01 0. -1.
       -4    1    3    3    0  502  0.93880255338E+03 -0.40554820415E+02 -0.11734734526E+04  0.15033417724E+04  0.12699999809E+01 0.  1.
</event>
<event>
 5   0  0.3242047E-07  0.3685323E+04  0.7818609E-02  0.8071222E-01
       -1   -1    0    0    0  501  0.00000000000E+00  0.00000000000E+00  0.11904927693E+04  0.11904927693E+04  0.50400001928E-02 0. -1.
        1   -1    0    0  501    0  0.00000000000E+00  0.00000000000E+00 -0.28520968393E+04  0.28520968393E+04  0.50400001928E-02 0.  1.
    10030    2    1    2    0    0  0.00000000000E+00  0.00000000000E+00 -0.16616040700E+04  0.40425896086E+04  0.36853225989E+04 0.  0.
        1    1    3    3  502    0  0.31141927253E+03 -0.17595877475E+04 -0.13241456561E+04  0.22240712046E+04  0.50400001928E-02 0.  1.
       -1    1    3    3    0  502 -0.31141927253E+03  0.17595877475E+04 -0.33745841398E+03  0.18185184040E+04  0.50400001928E-02 0. -1.
</event>
<event>
 5   0  0.3242047E-07  0.2997207E+04  0.7818609E-02  0.8244529E-01
       -1   -1    0    0    0  501  0.00000000000E+00  0.00000000000E+00  0.24501010346E+04  0.24501010346E+04  0.50400001928E-02 0. -1.
        1   -1    0    0  501    0  0.00000000000E+00  0.00000000000E+00 -0.91662049194E+03  0.91662049195E+03  0.50400001928E-02 0.  1.
    10030    2    1    2    0    0  0.00000000000E+00  0.00000000000E+00  0.15334805426E+04  0.33667215265E+04  0.29972072438E+04 0.  0.
        1    1    3    3  502    0  0.13511194560E+04  0.32564401020E+03  0.13705343101E+03  0.13965498376E+04  0.50400001928E-02 0. -1.
       -1    1    3    3    0  502 -0.13511194560E+04 -0.32564401020E+03  0.13964271116E+04  0.19701716890E+04  0.50400001928E-02 0.  1.
</event>
<event>
 5   0  0.3159875E-07  0.3504321E+04  0.7818609E-02  0.8112767E-01
       -1   -1    0    0    0  501  0.00000000000E+00  0.00000000000E+00  0.10620542515E+04  0.10620542515E+04  0.50400001928E-02 0. -1.
        1   -1    0    0  501    0  0.00000000000E+00  0.00000000000E+00 -0.28906866936E+04  0.28906866936E+04  0.50400001928E-02 0.  1.
    10030    2    1    2    0    0  0.00000000000E+00  0.00000000000E+00 -0.18286324422E+04  0.39527409451E+04  0.35043208145E+04 0.  0.
        2    1    3    3  502    0  0.15878835144E+03 -0.16245270947E+04 -0.16328236928E+04  0.23087692032E+04  0.25500000920E-02 0.  1.
       -2    1    3    3    0  502 -0.15878835144E+03  0.16245270947E+04 -0.19580874940E+03  0.16439717419E+04  0.25500000920E-02 0. -1.
</event>
<event>
 5   0  0.3365378E-07  0.3568583E+04  0.7818609E-02  0.8097726E-01
        1   -1    0    0  501    0  0.00000000000E+00  0.00000000000E+00  0.14000458095E+04  0.14000458095E+04  0.50400001928E-02 0. -1.
       -1   -1    0    0    0  501  0.00000000000E+00  0.00000000000E+00 -0.22739943928E+04  0.22739943928E+04  0.50400001928E-02 0.  1.
    10030    2    1    2    0    0  0.00000000000E+00  0.00000000000E+00 -0.87394858331E+03  0.36740402024E+04  0.35685830917E+04 0.  0.
        3    1    3    3  502    0  0.11878364806E+04  0.12974153149E+04 -0.12904662083E+03  0.17637729572E+04  0.10100000352E+00 0.  1.
       -3    1    3    3    0  502 -0.11878364806E+04 -0.12974153149E+04 -0.74490196248E+03  0.19102672452E+04  0.10100000352E+00 0. -1.
</event>
<event>
 5   0  0.9878336E-07  0.3597617E+04  0.7818609E-02  0.8091038E-01
        2   -1    0    0  501    0  0.00000000000E+00  0.00000000000E+00  0.25043998733E+04  0.25043998733E+04  0.25500000920E-02 0. -1.
       -2   -1    0    0    0  501  0.00000000000E+00  0.00000000000E+00 -0.12920108615E+04  0.12920108615E+04  0.25500000920E-02 0.  1.
    10030    2    1    2    0    0  0.00000000000E+00  0.00000000000E+00  0.12123890117E+04  0.37964107348E+04  0.35976168989E+04 0.  0.
        3    1    3    3  502    0  0.12921860317E+04 -0.99399488229E+03  0.14084267782E+04  0.21543993516E+04  0.10100000352E+00 0.  1.
       -3    1    3    3    0  502 -0.12921860317E+04  0.99399488229E+03 -0.19603776645E+03  0.16420113832E+04  0.10100000352E+00 0. -1.
</event>
<event>
 5   0  0.3365378E-07  0.3648169E+04  0.7818609E-02  0.8079546E-01
       -1   -1    0    0    0  501  0.00000000000E+00  0.00000000000E+00  0.31145719607E+04  0.31145719607E+04  0.50400001928E-02 0.  1.
        1   -1    0    0  501    0  0.00000000000E+00  0.00000000000E+00 -0.10682960358E+04  0.10682960359E+04  0.50400001928E-02 0. -1.
    10030    2    1    2    0    0  0.00000000000E+00  0.00000000000E+00  0.20462759249E+04  0.41828679966E+04  0.36481693376E+04 0.  0.
        3    1    3    3  502    0  0.13514839149E+04 -0.88250849167E+03  0.19973515718E+04  0.25680232323E+04  0.10100000352E+00 0.  1.
       -3    1    3    3    0  502 -0.13514839149E+04  0.88250849167E+03  0.48924353057E+02  0.16148447643E+04  0.10100000352E+00 0. -1.
</event>
<event>
 5   0  0.9538919E-07  0.3539871E+04  0.7818609E-02  0.8104406E-01
       -2   -1    0    0    0  501  0.00000000000E+00  0.00000000000E+00  0.18200805781E+04  0.18200805781E+04  0.25500000920E-02 0.  1.
        2   -1    0    0  501    0  0.00000000000E+00  0.00000000000E+00 -0.17211718062E+04  0.17211718062E+04  0.25500000920E-02 0. -1.
    10030    2    1    2    0    0  0.00000000000E+00  0.00000000000E+00  0.98908771873E+02  0.35412523843E+04  0.35398708316E+04 0.  0.
        4    1    3    3  502    0  0.29941986074E+03 -0.11136404969E+03 -0.16920913694E+04  0.17219840359E+04  0.12699999809E+01 0. -1.
       -4    1    3    3    0  502 -0.29941986074E+03  0.11136404969E+03  0.17910001413E+04  0.18192683484E+04  0.12699999809E+01 0.  1.
</event>
<event>
 5   0  0.9878336E-07  0.3489608E+04  0.7818609E-02  0.8116257E-01
       -2   -1    0    0    0  501  0.00000000000E+00  0.00000000000E+00  0.12690249049E+04  0.12690249049E+04  0.25500000920E-02 0.  1.
        2   -1    0    0  501    0  0.00000000000E+00  0.00000000000E+00 -0.23989613574E+04  0.23989613574E+04  0.25500000920E-02 0. -1.
    10030    2    1    2    0    0  0.00000000000E+00  0.00000000000E+00 -0.11299364526E+04  0.36679862623E+04  0.34896084069E+04 0.  0.
        3    1    3    3  502    0  0.16549783126E+04  0.49561673335E+03 -0.82190672313E+03  0.19131439657E+04  0.10100000352E+00 0.  1.
       -3    1    3    3    0  502 -0.16549783126E+04 -0.49561673335E+03 -0.30802972943E+03  0.17548422966E+04  0.10100000352E+00 0. -1.
</event>
<event>
 5   0  0.1031659E-06  0.3637566E+04  0.7818609E-02  0.8081940E-01
       -2   -1    0    0    0  501  0.00000000000E+00  0.00000000000E+00  0.14309669321E+04  0.14309669321E+04  0.25500000920E-02 0.  1.
        2   -1    0    0  501    0  0.00000000000E+00  0.00000000000E+00 -0.23117041266E+04  0.23117041266E+04  0.25500000920E-02 0. -1.
    10030    2    1    2    0    0  0.00000000000E+00  0.00000000000E+00 -0.88073719457E+03  0.37426710587E+04  0.36375663084E+04 0.  0.
        2    1    3    3  502    0  0.68518127984E+02 -0.83753416906E+03 -0.20999893567E+04  0.22618827372E+04  0.25500000920E-02 0. -1.
       -2    1    3    3    0  502 -0.68518127984E+02  0.83753416906E+03  0.12192521622E+04  0.14807883215E+04  0.25500000920E-02 0.  1.
</event>
<event>
 5   0  0.3159875E-07  0.3619517E+04  0.7818609E-02  0.8086036E-01
       -1   -1    0    0    0  501  0.00000000000E+00  0.00000000000E+00  0.13085765199E+04  0.13085765199E+04  0.50400001928E-02 0. -1.
        1   -1    0    0  501    0  0.00000000000E+00  0.00000000000E+00 -0.25028927639E+04  0.25028927639E+04  0.50400001928E-02 0.  1.
    10030    2    1    2    0    0  0.00000000000E+00  0.00000000000E+00 -0.11943162439E+04  0.38114692838E+04  0.36195174832E+04 0.  0.
        5    1    3    3  502    0 -0.11503988165E+04  0.52871826843E+03  0.76457371267E+03  0.14790387069E+04  0.46999998093E+01 0. -1.
       -5    1    3    3    0  502  0.11503988165E+04 -0.52871826843E+03 -0.19588899566E+04  0.23324305770E+04  0.46999998093E+01 0.  1.
</event>
<event>
 5   0  0.3242047E-07  0.3563811E+04  0.7818609E-02  0.8098832E-01
        1   -1    0    0  501    0  0.00000000000E+00  0.00000000000E+00  0.26098699627E+04  0.26098699627E+04  0.50400001928E-02 0.  1.
       -1   -1    0    0    0  501  0.00000000000E+00  0.00000000000E+00 -0.12166073646E+04  0.12166073646E+04  0.50400001928E-02 0. -1.
    10030    2    1    2    0    0  0.00000000000E+00  0.00000000000E+00  0.13932625981E+04  0.38264773273E+04  0.35638108913E+04 0.  0.
        1    1    3    3  502    0 -0.50483031452E+03 -0.66063862328E+03  0.23888273275E+04  0.25293859013E+04  0.50400001928E-02 0.  1.
       -1    1    3    3    0  502  0.50483031452E+03  0.66063862328E+03 -0.99556472939E+03  0.12970914260E+04  0.50400001928E-02 0. -1.
</event>
<event>
 5   0  0.9538919E-07  0.3576084E+04  0.7818609E-02  0.8095992E-01
       -2   -1    0    0    0  501  0.00000000000E+00  0.00000000000E+00  0.13557176485E+04  0.13557176485E+04  0.25500000920E-02 0.  1.
        2   -1    0    0  501    0  0.00000000000E+00  0.00000000000E+00 -0.23582303556E+04  0.23582303556E+04  0.25500000920E-02 0. -1.
    10030    2    1    2    0    0  0.00000000000E+00  0.00000000000E+00 -0.10025127071E+04  0.37139480041E+04  0.35760841781E+04 0.  0.
        4    1    3    3  502    0  0.80197169530E+03  0.51484303513E+03 -0.20724826519E+04  0.22810979607E+04  0.12699999809E+01 0. -1.
       -4    1    3    3    0  502 -0.80197169530E+03 -0.51484303513E+03  0.10699699449E+04  0.14328500433E+04  0.12699999809E+01 0.  1.
</event>
<event>
 5   0  0.9538919E-07  0.3602493E+04  0.7818609E-02  0.8089921E-01
       -2   -1    0    0    0  501  0.00000000000E+00  0.00000000000E+00  0.14818271766E+04  0.14818271766E+04  0.25500000920E-02 0. -1.
        2   -1    0    0  501    0  0.00000000000E+00  0.00000000000E+00 -0.21895194744E+04  0.21895194744E+04  0.25500000920E-02 0.  1.
    10030    2    1    2    0    0  0.00000000000E+00  0.00000000000E+00 -0.70769229784E+03  0.36713466510E+04  0.36024932815E+04 0.  0.
        4    1    3    3  502    0 -0.31969481983E+03 -0.84282109779E+03  0.12354259330E+04  0.15293237164E+04  0.12699999809E+01 0. -1.
       -4    1    3    3    0  502  0.31969481983E+03  0.84282109779E+03 -0.19431182308E+04  0.21420229346E+04  0.12699999809E+01 0.  1.
</event>
<event>
 5   0  0.9878977E-07  0.3554736E+04  0.7818609E-02  0.8100939E-01
       -2   -1    0    0    0  501  0.00000000000E+00  0.00000000000E+00  0.16007574609E+04  0.16007574609E+04  0.25500000920E-02 0.  1.
        2   -1    0    0  501    0  0.00000000000E+00  0.00000000000E+00 -0.19734642477E+04  0.19734642477E+04  0.25500000920E-02 0. -1.
    10030    2    1    2    0    0  0.00000000000E+00  0.00000000000E+00 -0.37270678687E+03  0.35742217086E+04  0.35547363437E+04 0.  0.
        5    1    3    3  502    0 -0.44643156034E+03  0.76175234203E+03 -0.17373547619E+04  0.19488436128E+04  0.46999998093E+01 0. -1.
       -5    1    3    3    0  502  0.44643156034E+03 -0.76175234203E+03  0.13646479750E+04  0.16253780958E+04  0.46999998093E+01 0.  1.
</event>
<event>
 5   0  0.9878336E-07  0.3619053E+04  0.7818609E-02  0.8086141E-01
        2   -1    0    0  501    0  0.00000000000E+00  0.00000000000E+00  0.13305176019E+04  0.13305176019E+04  0.25500000920E-02 0.  1.
       -2   -1    0    0    0  501  0.00000000000E+00  0.00000000000E+00 -0.24609862926E+04  0.24609862926E+04  0.25500000920E-02 0. -1.
    10030    2    1    2    0    0  0.00000000000E+00  0.00000000000E+00 -0.11304686907E+04  0.37915038945E+04  0.36190526829E+04 0.  0.
        3    1    3    3  502    0  0.64929896292E+03  0.90325418708E+03 -0.20604521928E+04  0.23415636909E+04  0.10100000352E+00 0. -1.
       -3    1    3    3    0  502 -0.64929896292E+03 -0.90325418708E+03  0.92998350204E+03  0.14499402036E+04  0.10100000352E+00 0.  1.
</event>
<event>
 5   0  0.9538919E-07  0.3586460E+04  0.7818609E-02  0.8093600E-01
        2   -1    0    0  501    0  0.00000000000E+00  0.00000000000E+00  0.22361197394E+04  0.22361197394E+04  0.25500000920E-02 0.  1.
       -2   -1    0    0    0  501  0.00000000000E+00  0.00000000000E+00 -0.14380595394E+04  0.14380595394E+04  0.25500000920E-02 0. -1.
    10030    2    1    2    0    0  0.00000000000E+00  0.00000000000E+00  0.79806020002E+03  0.36741792788E+04  0.35864597154E+04 0.  0.
        4    1    3    3  502    0 -0.87269721459E+03 -0.74425420015E+03 -0.10131468733E+04  0.15303538619E+04  0.12699999809E+01 0. -1.
       -4    1    3    3    0  502  0.87269721459E+03  0.74425420015E+03  0.18112070733E+04  0.21438254169E+04  0.12699999809E+01 0.  1.
</event>
<event>
 5   0  0.3159875E-07  0.3623385E+04  0.7818609E-02  0.8085156E-01
        1   -1    0    0  501    0  0.00000000000E+00  0.00000000000E+00  0.14626658091E+04  0.14626658091E+04  0.50400001928E-02 0.  1.
       -1   -1    0    0    0  501  0.00000000000E+00  0.00000000000E+00 -0.22440046741E+04  0.22440046741E+04  0.50400001928E-02 0. -1.
    10030    2    1    2    0    0  0.00000000000E+00  0.00000000000E+00 -0.78133886501E+03  0.37066704833E+04  0.36233845572E+04 0.  0.
        5    1    3    3  502    0  0.11994919502E+04 -0.51532036274E+03  0.89433691017E+03  0.15824653594E+04  0.46999998093E+01 0.  1.
       -5    1    3    3    0  502 -0.11994919502E+04  0.51532036274E+03 -0.16756757752E+04  0.21242051239E+04  0.46999998093E+01 0. -1.
</event>
<event>
 5   0  0.3159875E-07  0.3561830E+04  0.7818609E-02  0.8099291E-01
       -1   -1    0    0    0  501  0.00000000000E+00  0.00000000000E+00  0.12314447986E+04  0.12314447986E+04  0.50400001928E-02 0. -1.
        1   -1    0    0  501    0  0.00000000000E+00  0.00000000000E+00 -0.25755582837E+04  0.25755582837E+04  0.50400001928E-02 0.  1.
    10030    2    1    2    0    0  0.00000000000E+00  0.00000000000E+00 -0.13441134851E+04  0.38070030824E+04  0.35618297837E+04 0.  0.
        2    1    3    3  502    0 -0.77606589847E+03  0.14831941977E+04 -0.22337339823E+02  0.16741093942E+04  0.25500000920E-02 0. -1.
       -2    1    3    3    0  502  0.77606589847E+03 -0.14831941977E+04 -0.13217761452E+04  0.21328936882E+04  0.25500000920E-02 0.  1.
</event>
<event>
 5   0  0.9538919E-07  0.3901571E+04  0.7818609E-02  0.8024703E-01
       -2   -1    0    0    0  501  0.00000000000E+00  0.00000000000E+00  0.15828114522E+04  0.15828114522E+04  0.25500000920E-02 0.  1.
        2   -1    0    0  501    0  0.00000000000E+00  0.00000000000E+00 -0.24043062653E+04  0.24043062653E+04  0.25500000920E-02 0. -1.
    10030    2    1    2    0    0  0.00000000000E+00  0.00000000000E+00 -0.82149481314E+03  0.39871177175E+04  0.39015707049E+04 0.  0.
        4    1    3    3  502    0  0.15721372937E+04  0.11343525059E+04 -0.63274451997E+03  0.20392985359E+04  0.12699999809E+01 0.  1.
       -4    1    3    3    0  502 -0.15721372937E+04 -0.11343525059E+04 -0.18875029317E+03  0.19478191816E+04  0.12699999809E+01 0. -1.
</event>
<event>
 5   0  0.9878336E-07  0.3467003E+04  0.7818609E-02  0.8121655E-01
       -2   -1    0    0    0  501  0.00000000000E+00  0.00000000000E+00  0.13288928090E+04  0.13288928090E+04  0.25500000920E-02 0.  1.
        2   -1    0    0  501    0  0.00000000000E+00  0.00000000000E+00 -0.22613018653E+04  0.22613018653E+04  0.25500000920E-02 0. -1.
    10030    2    1    2    0    0  0.00000000000E+00  0.00000000000E+00 -0.93240905625E+03  0.35901946743E+04  0.34670031946E+04 0.  0.
        3    1    3    3  502    0  0.23597905464E+02 -0.12506246182E+04  0.77661098842E+03  0.14723258587E+04  0.10100000352E+00 0.  1.
       -3    1    3    3    0  502 -0.23597905464E+02  0.12506246182E+04 -0.17090200447E+04  0.21178688156E+04  0.10100000352E+00 0. -1.
</event>
<event>
 5   0  0.1031659E-06  0.3094038E+04  0.7818609E-02  0.8217376E-01
       -2   -1    0    0    0  501  0.00000000000E+00  0.00000000000E+00  0.22398968310E+04  0.22398968310E+04  0.25500000920E-02 0.  1.
        2   -1    0    0  501    0  0.00000000000E+00  0.00000000000E+00 -0.10684722590E+04  0.10684722590E+04  0.25500000920E-02 0. -1.
    10030    2    1    2    0    0  0.00000000000E+00  0.00000000000E+00  0.11714245720E+04  0.33083690900E+04  0.30940378969E+04 0.  0.
        2    1    3    3  502    0 -0.31500822005E+03 -0.10997997938E+04  0.16992339509E+04  0.20484593687E+04  0.25500000920E-02 0.  1.
       -2    1    3    3    0  502  0.31500822005E+03  0.10997997938E+04 -0.52780937892E+03  0.12599097213E+04  0.25500000920E-02 0. -1.
</event>
<event>
 5   0  0.9538919E-07  0.3594488E+04  0.7818609E-02  0.8091755E-01
       -2   -1    0    0    0  501  0.00000000000E+00  0.00000000000E+00  0.14086915069E+04  0.14086915069E+04  0.25500000920E-02 0. -1.
        2   -1    0    0  501    0  0.00000000000E+00  0.00000000000E+00 -0.22929694728E+04  0.22929694728E+04  0.25500000920E-02 0.  1.
    10030    2    1    2    0    0  0.00000000000E+00  0.00000000000E+00 -0.88427796597E+03  0.37016609797E+04  0.35944883485E+04 0.  0.
        4    1    3    3  502    0  0.67056471875E+03 -0.42144696147E+02 -0.21587686900E+04  0.22609106766E+04  0.12699999809E+01 0.  1.
       -4    1    3    3    0  502 -0.67056471875E+03  0.42144696147E+02  0.12744907241E+04  0.14407503032E+04  0.12699999809E+01 0. -1.
</event>
<event>
 5   0  0.3242047E-07  0.3709795E+04  0.7818609E-02  0.8065795E-01
        1   -1    0    0  501    0  0.00000000000E+00  0.00000000000E+00  0.16799984471E+04  0.16799984471E+04  0.50400001928E-02 0.  1.
       -1   -1    0    0    0  501  0.00000000000E+00  0.00000000000E+00 -0.20480044576E+04  0.20480044576E+04  0.50400001928E-02 0. -1.
    10030    2    1    2    0    0  0.00000000000E+00  0.00000000000E+00 -0.36800601052E+03  0.37280029047E+04  0.37097947697E+04 0.  0.
        1    1    3    3  502    0 -0.87100407077E+03  0.13582049672E+04  0.73551565070E+03  0.17732321045E+04  0.50400001928E-02 0. -1.
       -1    1    3    3    0  502  0.87100407077E+03 -0.13582049672E+04 -0.11035216612E+04  0.19547708001E+04  0.50400001928E-02 0.  1.
</event>
<event>
 5   0  0.1031659E-06  0.3536746E+04  0.7818609E-02  0.8105136E-01
        2   -1    0    0  501    0  0.00000000000E+00  0.00000000000E+00  0.18420158678E+04  0.18420158678E+04  0.25500000920E-02 0. -1.
       -2   -1    0    0    0  501  0.00000000000E+00  0.00000000000E+00 -0.16976746138E+04  0.16976746138E+04  0.25500000920E-02 0.  1.
    10030    2    1    2    0    0  0.00000000000E+00  0.00000000000E+00  0.14434125406E+03  0.35396904816E+04  0.35367462883E+04 0.  0.
        2    1    3    3  502    0 -0.31215539036E+03  0.13105330791E+04  0.12186396671E+04  0.18165958762E+04  0.25500000920E-02 0. -1.
       -2    1    3    3    0  502  0.31215539036E+03 -0.13105330791E+04 -0.10742984130E+04  0.17230946054E+04  0.25500000920E-02 0.  1.
</event>
<event>
 5   0  0.3159875E-07  0.3578467E+04  0.7818609E-02  0.8095442E-01
       -1   -1    0    0    0  501  0.00000000000E+00  0.00000000000E+00  0.14094044988E+04  0.14094044988E+04  0.50400001928E-02 0. -1.
        1   -1    0    0  501    0  0.00000000000E+00  0.00000000000E+00 -0.22714252379E+04  0.22714252379E+04  0.50400001928E-02 0.  1.
    10030    2    1    2    0    0  0.00000000000E+00  0.00000000000E+00 -0.86202073911E+03  0.36808297367E+04  0.35784672412E+04 0.  0.
        5    1    3    3  502    0 -0.13014741080E+03 -0.21539466313E+03 -0.22531232023E+04  0.22671390483E+04  0.46999998093E+01 0.  1.
       -5    1    3    3    0  502  0.13014741080E+03  0.21539466313E+03  0.13911024632E+04  0.14136906884E+04  0.46999998093E+01 0. -1.
</event>
<event>
 5   0  0.3365378E-07  0.3557810E+04  0.7818609E-02  0.8100225E-01
       -1   -1    0    0    0  501  0.00000000000E+00  0.00000000000E+00  0.11059716451E+04  0.11059716451E+04  0.50400001928E-02 0.  1.
        1   -1    0    0  501    0  0.00000000000E+00  0.00000000000E+00 -0.28612877471E+04  0.28612877471E+04  0.50400001928E-02 0. -1.
    10030    2    1    2    0    0  0.00000000000E+00  0.00000000000E+00 -0.17553161019E+04  0.39672593922E+04  0.35578100662E+04 0.  0.
        3    1    3    3  502    0  0.56903002910E+03 -0.32569316515E+03 -0.27216425877E+04  0.27995016694E+04  0.10100000352E+00 0. -1.
       -3    1    3    3    0  502 -0.56903002910E+03  0.32569316515E+03  0.96632648573E+03  0.11677577228E+04  0.10100000352E+00 0.  1.
</event>
<event>
 5   0  0.9878977E-07  0.3604873E+04  0.7818609E-02  0.8089376E-01
       -2   -1    0    0    0  501  0.00000000000E+00  0.00000000000E+00  0.10867049581E+04  0.10867049581E+04  0.25500000920E-02 0.  1.
        2   -1    0    0  501    0  0.00000000000E+00  0.00000000000E+00 -0.29895673636E+04  0.29895673636E+04  0.25500000920E-02 0. -1.
    10030    2    1    2    0    0  0.00000000000E+00  0.00000000000E+00 -0.19028624055E+04  0.40762723217E+04  0.36048731887E+04 0.  0.
        5    1    3    3  502    0 -0.13984222316E+04 -0.50286487203E+03 -0.21047570678E+04  0.25765252224E+04  0.46999998093E+01 0. -1.
       -5    1    3    3    0  502  0.13984222316E+04  0.50286487203E+03  0.20189466233E+03  0.14997470993E+04  0.46999998093E+01 0.  1.
</event>
<event>
 5   0  0.3159875E-07  0.3388636E+04  0.7818609E-02  0.8140701E-01
        1   -1    0    0  501    0  0.00000000000E+00  0.00000000000E+00  0.17543636331E+04  0.17543636331E+04  0.50400001928E-02 0. -1.
       -1   -1    0    0    0  501  0.00000000000E+00  0.00000000000E+00 -0.16363272212E+04  0.16363272212E+04  0.50400001928E-02 0.  1.
    10030    2    1    2    0    0  0.00000000000E+00  0.00000000000E+00  0.11803641194E+03  0.33906908543E+04  0.33886356952E+04 0.  0.
        5    1    3    3  502    0 -0.42663263488E+03 -0.85837478281E+03 -0.13389218801E+04  0.16466804680E+04  0.46999998093E+01 0.  1.
       -5    1    3    3    0  502  0.42663263488E+03  0.85837478281E+03  0.14569582920E+04  0.17440103863E+04  0.46999998093E+01 0. -1.
</event>
<event>
 5   0  0.9878336E-07  0.3514786E+04  0.7818609E-02  0.8110295E-01
       -2   -1    0    0    0  501  0.00000000000E+00  0.00000000000E+00  0.13318788488E+04  0.13318788488E+04  0.25500000920E-02 0.  1.
        2   -1    0    0  501    0  0.00000000000E+00  0.00000000000E+00 -0.23188524096E+04  0.23188524096E+04  0.25500000920E-02 0. -1.
    10030    2    1    2    0    0  0.00000000000E+00  0.00000000000E+00 -0.98697356075E+03  0.36507312584E+04  0.35147861829E+04 0.  0.
        3    1    3    3  502    0 -0.83874658717E+03  0.27196244632E+03  0.10854989571E+04  0.13984875422E+04  0.10100000352E+00 0.  1.
       -3    1    3    3    0  502  0.83874658717E+03 -0.27196244632E+03 -0.20724725178E+04  0.22522437162E+04  0.10100000352E+00 0. -1.
</event>
<event>
 5   0  0.3242047E-07  0.3629244E+04  0.7818609E-02  0.8083826E-01
        1   -1    0    0  501    0  0.00000000000E+00  0.00000000000E+00  0.16990607603E+04  0.16990607603E+04  0.50400001928E-02 0.  1.
       -1   -1    0    0    0  501  0.00000000000E+00  0.00000000000E+00 -0.19380431572E+04  0.19380431572E+04  0.50400001928E-02 0. -1.
    10030    2    1    2    0    0  0.00000000000E+00  0.00000000000E+00 -0.23898239691E+03  0.36371039176E+04  0.36292440427E+04 0.  0.
        1    1    3    3  502    0 -0.65971264826E+02  0.66139931482E+03 -0.18116538000E+04  0.19297385192E+04  0.50400001928E-02 0. -1.
       -1    1    3    3    0  502  0.65971264826E+02 -0.66139931482E+03  0.15726714031E+04  0.17073653984E+04  0.50400001928E-02 0.  1.
</event>
<event>
 5   0  0.3159875E-07  0.3259714E+04  0.7818609E-02  0.8173223E-01
       -1   -1    0    0    0  501  0.00000000000E+00  0.00000000000E+00  0.17760333115E+04  0.17760333115E+04  0.50400001928E-02 0. -1.
        1   -1    0    0  501    0  0.00000000000E+00  0.00000000000E+00 -0.14957112865E+04  0.14957112865E+04  0.50400001928E-02 0.  1.
    10030    2    1    2    0    0  0.00000000000E+00  0.00000000000E+00  0.28032202499E+03  0.32717445980E+04  0.32597135268E+04 0.  0.
        5    1    3    3  502    0  0.27435610229E+03  0.16061450362E+04  0.10210231846E+03  0.16326114423E+04  0.46999998093E+01 0.  1.
       -5    1    3    3    0  502 -0.27435610229E+03 -0.16061450362E+04  0.17821970653E+03  0.16391331557E+04  0.46999998093E+01 0. -1.
</event>
<event>
 5   0  0.9878336E-07  0.3585610E+04  0.7818609E-02  0.8093796E-01
       -2   -1    0    0    0  501  0.00000000000E+00  0.00000000000E+00  0.22824069958E+04  0.22824069958E+04  0.25500000920E-02 0.  1.
        2   -1    0    0  501    0  0.00000000000E+00  0.00000000000E+00 -0.14082284787E+04  0.14082284787E+04  0.25500000920E-02 0. -1.
    10030    2    1    2    0    0  0.00000000000E+00  0.00000000000E+00  0.87417851701E+03  0.36906354745E+04  0.35856104259E+04 0.  0.
        3    1    3    3  502    0 -0.89561127541E+03  0.57175293947E+03 -0.10492042140E+04  0.14932683862E+04  0.10100000352E+00 0. -1.
       -3    1    3    3    0  502  0.89561127541E+03 -0.57175293947E+03  0.19233827310E+04  0.21973670883E+04  0.10100000352E+00 0.  1.
</event>
<event>
 5   0  0.9878977E-07  0.3618681E+04  0.7818609E-02  0.8086226E-01
        2   -1    0    0  501    0  0.00000000000E+00  0.00000000000E+00  0.17921007260E+04  0.17921007260E+04  0.25500000920E-02 0. -1.
       -2   -1    0    0    0  501  0.00000000000E+00  0.00000000000E+00 -0.18267463648E+04  0.18267463648E+04  0.25500000920E-02 0.  1.
    10030    2    1    2    0    0  0.00000000000E+00  0.00000000000E+00 -0.34645638754E+02  0.36188470908E+04  0.36186812441E+04 0.  0.
        5    1    3    3  502    0 -0.15594715527E+03  0.11901873158E+04 -0.13712039212E+04  0.18223851529E+04  0.46999998093E+01 0.  1.
       -5    1    3    3    0  502  0.15594715527E+03 -0.11901873158E+04  0.13365582824E+04  0.17964619379E+04  0.46999998093E+01 0. -1.
</event>
<event>
 5   0  0.9878977E-07  0.3601094E+04  0.7818609E-02  0.8090241E-01
        2   -1    0    0  501    0  0.00000000000E+00  0.00000000000E+00  0.27913764159E+04  0.27913764159E+04  0.25500000920E-02 0. -1.
       -2   -1    0    0    0  501  0.00000000000E+00  0.00000000000E+00 -0.11614230193E+04  0.11614230193E+04  0.25500000920E-02 0.  1.
    10030    2    1    2    0    0  0.00000000000E+00  0.00000000000E+00  0.16299533966E+04  0.39527994352E+04  0.36010936255E+04 0.  0.
        5    1    3    3  502    0  0.64676262412E+03  0.14678040630E+04  0.17129161616E+04  0.23466688148E+04  0.46999998093E+01 0.  1.
       -5    1    3    3    0  502 -0.64676262412E+03 -0.14678040630E+04 -0.82962765018E+02  0.16061306204E+04  0.46999998093E+01 0. -1.
</event>
<event>
 5   0  0.3278988E-07  0.3520079E+04  0.7818609E-02  0.8109048E-01
       -1   -1    0    0    0  501  0.00000000000E+00  0.00000000000E+00  0.11892441479E+04  0.11892441479E+04  0.50400001928E-02 0. -1.
        1   -1    0    0  501    0  0.00000000000E+00  0.00000000000E+00 -0.26047958907E+04  0.26047958907E+04  0.50400001928E-02 0.  1.
    10030    2    1    2    0    0  0.00000000000E+00  0.00000000000E+00 -0.14155517428E+04  0.37940400387E+04  0.35200785614E+04 0.  0.
        4    1    3    3  502    0 -0.88268767174E+03  0.10393736565E+04 -0.19071723206E+04  0.23445133817E+04  0.12699999809E+01 0.  1.
       -4    1    3    3    0  502  0.88268767174E+03 -0.10393736565E+04  0.49162057781E+03  0.14495266569E+04  0.12699999809E+01 0. -1.
</event>
<event>
 5   0  0.3159875E-07  0.3611677E+04  0.7818609E-02  0.8087822E-01
       -3   -1    0    0    0  501  0.00000000000E+00  0.00000000000E+00  0.19793615313E+04  0.19793615339E+04  0.10100000352E+00 0.  1.
        3   -1    0    0  501    0  0.00000000000E+00  0.00000000000E+00 -0.16475276194E+04  0.16475276225E+04  0.10100000352E+00 0. -1.
    10030    2    1    2    0    0  0.00000000000E+00  0.00000000000E+00  0.33183391191E+03  0.36268891565E+04  0.36116770631E+04 0.  0.
        3    1    3    3  502    0  0.14209708106E+04 -0.11056389710E+04  0.25840324902E+02  0.18006285879E+04  0.10100000352E+00 0. -1.
       -3    1    3    3    0  502 -0.14209708106E+04  0.11056389710E+04  0.30599358701E+03  0.18262605686E+04  0.10100000352E+00 0.  1.
</event>
<event>
 5   0  0.3278988E-07  0.3616518E+04  0.7818609E-02  0.8086719E-01
        1   -1    0    0  501    0  0.00000000000E+00  0.00000000000E+00  0.18738527541E+04  0.18738527541E+04  0.50400001928E-02 0.  1.
       -1   -1    0    0    0  501  0.00000000000E+00  0.00000000000E+00 -0.17449609794E+04  0.17449609794E+04  0.50400001928E-02 0. -1.
    10030    2    1    2    0    0  0.00000000000E+00  0.00000000000E+00  0.12889177471E+03  0.36188137335E+04  0.36165176273E+04 0.  0.
        4    1    3    3  502    0 -0.17431992988E+04  0.47178925456E+03 -0.27642037232E+02  0.18061269588E+04  0.12699999809E+01 0.  1.
       -4    1    3    3    0  502  0.17431992988E+04 -0.47178925456E+03  0.15653381194E+03  0.18126867747E+04  0.12699999809E+01 0. -1.
</event>
<event>
 5   0  0.3365378E-07  0.3659466E+04  0.7818609E-02  0.8077005E-01
       -1   -1    0    0    0  501  0.00000000000E+00  0.00000000000E+00  0.18343823122E+04  0.18343823122E+04  0.50400001928E-02 0.  1.
        1   -1    0    0  501    0  0.00000000000E+00  0.00000000000E+00 -0.18250952021E+04  0.18250952021E+04  0.50400001928E-02 0. -1.
    10030    2    1    2    0    0  0.00000000000E+00  0.00000000000E+00  0.92871101254E+01  0.36594775143E+04  0.36594657298E+04 0.  0.
        3    1    3    3  502    0 -0.17063553774E+04  0.52306605040E+03 -0.39868835193E+03  0.18287151718E+04  0.10100000352E+00 0. -1.
       -3    1    3    3    0  502  0.17063553774E+04 -0.52306605040E+03  0.40797546205E+03  0.18307623426E+04  0.10100000352E+00 0.  1.
</event>
<event>
 5   0  0.3242047E-07  0.3243009E+04  0.7818609E-02  0.8177550E-01
       -1   -1    0    0    0  501  0.00000000000E+00  0.00000000000E+00  0.10990322482E+04  0.10990322482E+04  0.50400001928E-02 0. -1.
        1   -1    0    0  501    0  0.00000000000E+00  0.00000000000E+00 -0.23923569757E+04  0.23923569757E+04  0.50400001928E-02 0.  1.
    10030    2    1    2    0    0  0.00000000000E+00  0.00000000000E+00 -0.12933247275E+04  0.34913892240E+04  0.32430093836E+04 0.  0.
        1    1    3    3  502    0  0.79585786095E+03  0.85730651153E+03  0.56224401893E+03  0.12978761599E+04  0.50400001928E-02 0. -1.
       -1    1    3    3    0  502 -0.79585786095E+03 -0.85730651153E+03 -0.18555687464E+04  0.21935130641E+04  0.50400001928E-02 0.  1.
</event>
<event>
 5   0  0.9878336E-07  0.3628605E+04  0.7818609E-02  0.8083971E-01
       -2   -1    0    0    0  501  0.00000000000E+00  0.00000000000E+00  0.15386325207E+04  0.15386325207E+04  0.25500000920E-02 0.  1.
        2   -1    0    0  501    0  0.00000000000E+00  0.00000000000E+00 -0.21393628730E+04  0.21393628730E+04  0.25500000920E-02 0. -1.
    10030    2    1    2    0    0  0.00000000000E+00  0.00000000000E+00 -0.60073035234E+03  0.36779953937E+04  0.36286048503E+04 0.  0.
        3    1    3    3  502    0 -0.45734445158E+03  0.60787240358E+03 -0.19699098321E+04  0.21116859528E+04  0.10100000352E+00 0. -1.
       -3    1    3    3    0  502  0.45734445158E+03 -0.60787240358E+03  0.13691794798E+04  0.15663094408E+04  0.10100000352E+00 0.  1.
</event>
<event>
 5   0  0.9878977E-07  0.3606831E+04  0.7818609E-02  0.8088929E-01
        2   -1    0    0  501    0  0.00000000000E+00  0.00000000000E+00  0.19029151412E+04  0.19029151412E+04  0.25500000920E-02 0.  1.
       -2   -1    0    0    0  501  0.00000000000E+00  0.00000000000E+00 -0.17091182994E+04  0.17091182994E+04  0.25500000920E-02 0. -1.
    10030    2    1    2    0    0  0.00000000000E+00  0.00000000000E+00  0.19379684183E+03  0.36120334406E+04  0.36068307917E+04 0.  0.
        5    1    3    3  502    0 -0.95110872979E+03  0.15316243671E+04  0.13943300010E+03  0.18082988329E+04  0.46999998093E+01 0.  1.
       -5    1    3    3    0  502  0.95110872979E+03 -0.15316243671E+04  0.54363841729E+02  0.18037346077E+04  0.46999998093E+01 0. -1.
</event>
<event>
 5   0  0.9878977E-07  0.3606464E+04  0.7818609E-02  0.8089013E-01
        2   -1    0    0  501    0  0.00000000000E+00  0.00000000000E+00  0.13104417962E+04  0.13104417962E+04  0.25500000920E-02 0. -1.
       -2   -1    0    0    0  501  0.00000000000E+00  0.00000000000E+00 -0.24813360243E+04  0.24813360243E+04  0.25500000920E-02 0.  1.
    10030    2    1    2    0    0  0.00000000000E+00  0.00000000000E+00 -0.11708942281E+04  0.37917778205E+04  0.36064644386E+04 0.  0.
        5    1    3    3  502    0  0.15377922062E+04 -0.88554945921E+03 -0.92225378680E+03  0.19998942101E+04  0.46999998093E+01 0.  1.
       -5    1    3    3    0  502 -0.15377922062E+04  0.88554945921E+03 -0.24864044125E+03  0.17918836104E+04  0.46999998093E+01 0. -1.
</event>
<event>
 5   0  0.3242047E-07  0.3666090E+04  0.7818609E-02  0.8075518E-01
        1   -1    0    0  501    0  0.00000000000E+00  0.00000000000E+00  0.19789655552E+04  0.19789655552E+04  0.50400001928E-02 0.  1.
       -1   -1    0    0    0  501  0.00000000000E+00  0.00000000000E+00 -0.16978840741E+04  0.16978840741E+04  0.50400001928E-02 0. -1.
    10030    2    1    2    0    0  0.00000000000E+00  0.00000000000E+00  0.28108148111E+03  0.36768496292E+04  0.36660900694E+04 0.  0.
        1    1    3    3  502    0 -0.22774606581E+03 -0.13751719928E+04  0.13344494515E+04  0.19296946958E+04  0.50400001928E-02 0.  1.
       -1    1    3    3    0  502  0.22774606581E+03  0.13751719928E+04 -0.10533679704E+04  0.17471549334E+04  0.50400001928E-02 0. -1.
</event>
<event>
 5   0  0.1006019E-06  0.3584610E+04  0.7818609E-02  0.8094026E-01
        2   -1    0    0  501    0  0.00000000000E+00  0.00000000000E+00  0.21362570482E+04  0.21362570482E+04  0.25500000920E-02 0.  1.
       -2   -1    0    0    0  501  0.00000000000E+00  0.00000000000E+00 -0.15037315987E+04  0.15037315987E+04  0.25500000920E-02 0. -1.
    10030    2    1    2    0    0  0.00000000000E+00  0.00000000000E+00  0.63252544952E+03  0.36399886469E+04  0.35846100074E+04 0.  0.
        1    1    3    3  502    0  0.75575447063E+03  0.38482287496E+03 -0.12870871166E+04  0.15413781855E+04  0.50400001928E-02 0. -1.
       -1    1    3    3    0  502 -0.75575447063E+03 -0.38482287496E+03  0.19196125661E+04  0.20986104614E+04  0.50400001928E-02 0.  1.
</event>
<event>
 5   0  0.1006019E-06  0.3750474E+04  0.7818609E-02  0.8056867E-01
        2   -1    0    0  501    0  0.00000000000E+00  0.00000000000E+00  0.18149807289E+04  0.18149807289E+04  0.25500000920E-02 0.  1.
       -2   -1    0    0    0  501  0.00000000000E+00  0.00000000000E+00 -0.19374936660E+04  0.19374936660E+04  0.25500000920E-02 0. -1.
    10030    2    1    2    0    0  0.00000000000E+00  0.00000000000E+00 -0.12251293711E+03  0.37524743948E+04  0.37504739253E+04 0.  0.
        1    1    3    3  502    0  0.14957874618E+04 -0.50703244666E+03 -0.10727614021E+04  0.19092613909E+04  0.50400001928E-02 0. -1.
       -1    1    3    3    0  502 -0.14957874618E+04  0.50703244666E+03  0.95024846498E+03  0.18432130040E+04  0.50400001928E-02 0.  1.
</event>
<event>
 5   0  0.3365378E-07  0.3550109E+04  0.7818609E-02  0.8102016E-01
       -1   -1    0    0    0  501  0.00000000000E+00  0.00000000000E+00  0.25925801231E+04  0.25925801231E+04  0.50400001928E-02 0.  1.
        1   -1    0    0  501    0  0.00000000000E+00  0.00000000000E+00 -0.12153212053E+04  0.12153212053E+04  0.50400001928E-02 0. -1.
    10030    2    1    2    0    0  0.00000000000E+00  0.00000000000E+00  0.13772589178E+04  0.38079013284E+04  0.35501085055E+04 0.  0.
        3    1    3    3  502    0  0.70353331374E+03  0.16205452255E+04  0.87345464039E+03  0.19707990690E+04  0.10100000352E+00 0. -1.
       -3    1    3    3    0  502 -0.70353331374E+03 -0.16205452255E+04  0.50380427742E+03  0.18371022594E+04  0.10100000352E+00 0.  1.
</event>
<event>
 5   0  0.9538919E-07  0.3604619E+04  0.7818609E-02  0.8089434E-01
        2   -1    0    0  501    0  0.00000000000E+00  0.00000000000E+00  0.29311854393E+04  0.29311854393E+04  0.25500000920E-02 0. -1.
       -2   -1    0    0    0  501  0.00000000000E+00  0.00000000000E+00 -0.11081932817E+04  0.11081932817E+04  0.25500000920E-02 0.  1.
    10030    2    1    2    0    0  0.00000000000E+00  0.00000000000E+00  0.18229921577E+04  0.40393787210E+04  0.36046192649E+04 0.  0.
        4    1    3    3  502    0  0.10778630226E+03 -0.13734403838E+04 -0.39071168922E+03  0.14319963728E+04  0.12699999809E+01 0.  1.
       -4    1    3    3    0  502 -0.10778630226E+03  0.13734403838E+04  0.22137038469E+04  0.26073823481E+04  0.12699999809E+01 0. -1.
</event>
<event>
 5   0  0.3159875E-07  0.3656452E+04  0.7818609E-02  0.8077682E-01
       -1   -1    0    0    0  501  0.00000000000E+00  0.00000000000E+00  0.19612871874E+04  0.19612871874E+04  0.50400001928E-02 0. -1.
        1   -1    0    0  501    0  0.00000000000E+00  0.00000000000E+00 -0.17041921061E+04  0.17041921062E+04  0.50400001928E-02 0.  1.
    10030    2    1    2    0    0  0.00000000000E+00  0.00000000000E+00  0.25709508126E+03  0.36654792936E+04  0.36564519101E+04 0.  0.
        2    1    3    3  502    0  0.52425801077E+03 -0.12559290271E+04  0.13523013382E+04  0.19185731918E+04  0.25500000920E-02 0. -1.
       -2    1    3    3    0  502 -0.52425801077E+03  0.12559290271E+04 -0.10952062570E+04  0.17469061017E+04  0.25500000920E-02 0.  1.
</event>
<event>
 5   0  0.1031659E-06  0.3584414E+04  0.7818609E-02  0.8094071E-01
       -2   -1    0    0    0  501  0.00000000000E+00  0.00000000000E+00  0.15736543235E+04  0.15736543235E+04  0.25500000920E-02 0.  1.
        2   -1    0    0  501    0  0.00000000000E+00  0.00000000000E+00 -0.20411132470E+04  0.20411132470E+04  0.25500000920E-02 0. -1.
    10030    2    1    2    0    0  0.00000000000E+00  0.00000000000E+00 -0.46745892354E+03  0.36147675705E+04  0.35844144212E+04 0.  0.
        2    1    3    3  502    0 -0.35842290105E+03  0.20308050216E+03  0.15252591949E+04  0.15799127437E+04  0.25500000920E-02 0.  1.
       -2    1    3    3    0  502  0.35842290105E+03 -0.20308050216E+03 -0.19927181184E+04  0.20348548267E+04  0.25500000920E-02 0. -1.
</event>
<event>
 5   0  0.3242047E-07  0.2825242E+04  0.7818609E-02  0.8295474E-01
       -1   -1    0    0    0  501  0.00000000000E+00  0.00000000000E+00  0.14339181676E+04  0.14339181677E+04  0.50400001928E-02 0.  1.
        1   -1    0    0  501    0  0.00000000000E+00  0.00000000000E+00 -0.13916398560E+04  0.13916398560E+04  0.50400001928E-02 0. -1.
    10030    2    1    2    0    0  0.00000000000E+00  0.00000000000E+00  0.42278311670E+02  0.28255580236E+04  0.28252417046E+04 0.  0.
        1    1    3    3  502    0  0.78807641043E+02  0.13741329580E+04  0.33905151713E+03  0.14175358768E+04  0.50400001928E-02 0. -1.
       -1    1    3    3    0  502 -0.78807641043E+02 -0.13741329580E+04 -0.29677320546E+03  0.14080221469E+04  0.50400001928E-02 0.  1.
</event>
<event>
 5   0  0.1031659E-06  0.3710594E+04  0.7818609E-02  0.8065618E-01
        2   -1    0    0  501    0  0.00000000000E+00  0.00000000000E+00  0.15718745633E+04  0.15718745633E+04  0.25500000920E-02 0. -1.
       -2   -1    0    0    0  501  0.00000000000E+00  0.00000000000E+00 -0.21898230424E+04  0.21898230424E+04  0.25500000920E-02 0.  1.
    10030    2    1    2    0    0  0.00000000000E+00  0.00000000000E+00 -0.61794847911E+03  0.37616976057E+04  0.37105940972E+04 0.  0.
        2    1    3    3  502    0  0.87901284300E+03  0.11573213810E+04  0.86019615005E+03  0.16887847031E+04  0.25500000920E-02 0. -1.
       -2    1    3    3    0  502 -0.87901284300E+03 -0.11573213810E+04 -0.14781446292E+04  0.20729129026E+04  0.25500000920E-02 0.  1.
</event>
<event>
 5   0  0.9878977E-07  0.3630923E+04  0.7818609E-02  0.8083445E-01
        2   -1    0    0  501    0  0.00000000000E+00  0.00000000000E+00  0.25811571719E+04  0.25811571719E+04  0.25500000920E-02 0.  1.
       -2   -1    0    0    0  501  0.00000000000E+00  0.00000000000E+00 -0.12769079073E+04  0.12769079073E+04  0.25500000920E-02 0. -1.
    10030    2    1    2    0    0  0.00000000000E+00  0.00000000000E+00  0.13042492646E+04  0.38580650792E+04  0.36309227492E+04 0.  0.
        5    1    3    3  502    0  0.78149593788E+03 -0.12582947534E+04 -0.46322514062E+03  0.15519797706E+04  0.46999998093E+01 0. -1.
       -5    1    3    3    0  502 -0.78149593788E+03  0.12582947534E+04  0.17674744053E+04  0.23060853086E+04  0.46999998093E+01 0.  1.
</event>
<event>
 5   0  0.9878977E-07  0.2881692E+04  0.7818609E-02  0.8278345E-01
        2   -1    0    0  501    0  0.00000000000E+00  0.00000000000E+00  0.14642915939E+04  0.14642915939E+04  0.25500000920E-02 0. -1.
       -2   -1    0    0    0  501  0.00000000000E+00  0.00000000000E+00 -0.14177759967E+04  0.14177759967E+04  0.25500000920E-02 0.  1.
    10030    2    1    2    0    0  0.00000000000E+00  0.00000000000E+00  0.46515597241E+02  0.28820675906E+04  0.28816921932E+04 0.  0.
        5    1    3    3  502    0  0.61032195753E+03 -0.37743894845E+03  0.12728453615E+04  0.14612017164E+04  0.46999998093E+01 0. -1.
       -5    1    3    3    0  502 -0.61032195753E+03  0.37743894845E+03 -0.12263297643E+04  0.14208658742E+04  0.46999998093E+01 0.  1.
</event>
<event>
 5   0  0.9878977E-07  0.3467465E+04  0.7818609E-02  0.8121544E-01
       -2   -1    0    0    0  501  0.00000000000E+00  0.00000000000E+00  0.11114936398E+04  0.11114936398E+04  0.25500000920E-02 0. -1.
        2   -1    0    0  501    0  0.00000000000E+00  0.00000000000E+00 -0.27043141892E+04  0.27043141892E+04  0.25500000920E-02 0.  1.
    10030    2    1    2    0    0  0.00000000000E+00  0.00000000000E+00 -0.15928205494E+04  0.38158078290E+04  0.34674647922E+04 0.  0.
        5    1    3    3  502    0  0.17183263566E+04 -0.60476786294E+02 -0.10412547391E+04  0.20101085620E+04  0.46999998093E+01 0.  1.
       -5    1    3    3    0  502 -0.17183263566E+04  0.60476786294E+02 -0.55156581030E+03  0.18056992669E+04  0.46999998093E+01 0. -1.
</event>
<event>
 5   0  0.3365378E-07  0.3612737E+04  0.7818609E-02  0.8087580E-01
       -1   -1    0    0    0  501  0.00000000000E+00  0.00000000000E+00  0.14445563854E+04  0.14445563854E+04  0.50400001928E-02 0. -1.
        1   -1    0    0  501    0  0.00000000000E+00  0.00000000000E+00 -0.22588023269E+04  0.22588023269E+04  0.50400001928E-02 0.  1.
    10030    2    1    2    0    0  0.00000000000E+00  0.00000000000E+00 -0.81424594149E+03  0.37033587123E+04  0.36127370924E+04 0.  0.
        3    1    3    3  502    0  0.10799015044E+04 -0.13266336299E+04 -0.10020455668E+04  0.19824831337E+04  0.10100000352E+00 0.  1.
       -3    1    3    3    0  502 -0.10799015044E+04  0.13266336299E+04  0.18779962532E+03  0.17208755785E+04  0.10100000352E+00 0. -1.
</event>
<event>
 5   0  0.3365378E-07  0.3471480E+04  0.7818609E-02  0.8120582E-01
       -1   -1    0    0    0  501  0.00000000000E+00  0.00000000000E+00  0.15858191422E+04  0.15858191422E+04  0.50400001928E-02 0.  1.
        1   -1    0    0  501    0  0.00000000000E+00  0.00000000000E+00 -0.18998345745E+04  0.18998345745E+04  0.50400001928E-02 0. -1.
    10030    2    1    2    0    0  0.00000000000E+00  0.00000000000E+00 -0.31401543223E+03  0.34856537167E+04  0.34714803962E+04 0.  0.
        3    1    3    3  502    0 -0.96225345184E+03 -0.13968196744E+04  0.21294892316E+03  0.17094982195E+04  0.10100000352E+00 0. -1.
       -3    1    3    3    0  502  0.96225345184E+03  0.13968196744E+04 -0.52696435539E+03  0.17761554972E+04  0.10100000352E+00 0.  1.
</event>
<event>
 5   0  0.3159875E-07  0.2927909E+04  0.7818609E-02  0.8264622E-01
        1   -1    0    0  501    0  0.00000000000E+00  0.00000000000E+00  0.11693420168E+04  0.11693420169E+04  0.50400001928E-02 0.  1.
       -1   -1    0    0    0  501  0.00000000000E+00  0.00000000000E+00 -0.18327941722E+04  0.18327941722E+04  0.50400001928E-02 0. -1.
    10030    2    1    2    0    0  0.00000000000E+00  0.00000000000E+00 -0.66345215531E+03  0.30021361890E+04  0.29279093113E+04 0.  0.
        5    1    3    3  502    0 -0.83292461058E+03 -0.51232856965E+03  0.78534116538E+03  0.12542036542E+04  0.46999998093E+01 0.  1.
       -5    1    3    3    0  502  0.83292461058E+03  0.51232856965E+03 -0.14487933207E+04  0.17479325348E+04  0.46999998093E+01 0. -1.
</event>
<event>
 5   0  0.1006019E-06  0.3866685E+04  0.7818609E-02  0.8031994E-01
        2   -1    0    0  501    0  0.00000000000E+00  0.00000000000E+00  0.22359974025E+04  0.22359974025E+04  0.25500000920E-02 0.  1.
       -2   -1    0    0    0  501  0.00000000000E+00  0.00000000000E+00 -0.16716534316E+04  0.16716534316E+04  0.25500000920E-02 0. -1.
    10030    2    1    2    0    0  0.00000000000E+00  0.00000000000E+00  0.56434397087E+03  0.39076508342E+04  0.38666847459E+04 0.  0.
        1    1    3    3  502    0 -0.12500398327E+04  0.11882662672E+04 -0.60071787686E+03  0.18263182288E+04  0.50400001928E-02 0. -1.
       -1    1    3    3    0  502  0.12500398327E+04 -0.11882662672E+04  0.11650618477E+04  0.20813326054E+04  0.50400001928E-02 0.  1.
</event>
<event>
 5   0  0.3159875E-07  0.3531304E+04  0.7818609E-02  0.8106411E-01
       -1   -1    0    0    0  501  0.00000000000E+00  0.00000000000E+00  0.11819609724E+04  0.11819609724E+04  0.50400001928E-02 0.  1.
        1   -1    0    0  501    0  0.00000000000E+00  0.00000000000E+00 -0.26375885275E+04  0.26375885275E+04  0.50400001928E-02 0. -1.
    10030    2    1    2    0    0  0.00000000000E+00  0.00000000000E+00 -0.14556275551E+04  0.38195494999E+04  0.35313038390E+04 0.  0.
        5    1    3    3  502    0 -0.22855632640E+03  0.12658862915E+04 -0.20359992180E+04  0.24083232762E+04  0.46999998093E+01 0. -1.
       -5    1    3    3    0  502  0.22855632640E+03 -0.12658862915E+04  0.58037166292E+03  0.14112262237E+04  0.46999998093E+01 0.  1.
</event>
<event>
 5   0  0.1006019E-06  0.3551287E+04  0.7818609E-02  0.8101742E-01
       -2   -1    0    0    0  501  0.00000000000E+00  0.00000000000E+00  0.16620297563E+04  0.16620297563E+04  0.25500000920E-02 0. -1.
        2   -1    0    0  501    0  0.00000000000E+00  0.00000000000E+00 -0.18970238624E+04  0.18970238624E+04  0.25500000920E-02 0.  1.
    10030    2    1    2    0    0  0.00000000000E+00  0.00000000000E+00 -0.23499410608E+03  0.35590536187E+04  0.35512871512E+04 0.  0.
        1    1    3    3  502    0 -0.94126308168E+03  0.14443689338E+04  0.30855889300E+03  0.17513955568E+04  0.50400001928E-02 0. -1.
       -1    1    3    3    0  502  0.94126308168E+03 -0.14443689338E+04 -0.54355299909E+03  0.18076580619E+04  0.50400001928E-02 0.  1.
</event>
<event>
 5   0  0.9878336E-07  0.3657345E+04  0.7818609E-02  0.8077481E-01
        2   -1    0    0  501    0  0.00000000000E+00  0.00000000000E+00  0.11930230397E+04  0.11930230397E+04  0.25500000920E-02 0.  1.
       -2   -1    0    0    0  501  0.00000000000E+00  0.00000000000E+00 -0.28029997003E+04  0.28029997003E+04  0.25500000920E-02 0. -1.
    10030    2    1    2    0    0  0.00000000000E+00  0.00000000000E+00 -0.16099766606E+04  0.39960227399E+04  0.36573450603E+04 0.  0.
        3    1    3    3  502    0  0.17333356835E+04  0.47484122693E+03 -0.43589508091E+03  0.18493056303E+04  0.10100000352E+00 0. -1.
       -3    1    3    3    0  502 -0.17333356835E+04 -0.47484122693E+03 -0.11740815797E+04  0.21467171096E+04  0.10100000352E+00 0.  1.
</event>
<event>
 5   0  0.1031659E-06  0.3569897E+04  0.7818609E-02  0.8097422E-01
        2   -1    0    0  501    0  0.00000000000E+00  0.00000000000E+00  0.25320704277E+04  0.25320704277E+04  0.25500000920E-02 0.  1.
       -2   -1    0    0    0  501  0.00000000000E+00  0.00000000000E+00 -0.12582748711E+04  0.12582748711E+04  0.25500000920E-02 0. -1.
    10030    2    1    2    0    0  0.00000000000E+00  0.00000000000E+00  0.12737955566E+04  0.37903452988E+04  0.35698966882E+04 0.  0.
        2    1    3    3  502    0 -0.63212969284E+03 -0.12180524996E+04 -0.57498922499E+03  0.14879020294E+04  0.25500000920E-02 0. -1.
       -2    1    3    3    0  502  0.63212969284E+03  0.12180524996E+04  0.18487847815E+04  0.23024432694E+04  0.25500000920E-02 0.  1.
</event>
<event>
 5   0  0.3159875E-07  0.3711176E+04  0.7818609E-02  0.8065490E-01
        1   -1    0    0  501    0  0.00000000000E+00  0.00000000000E+00  0.24484824073E+04  0.24484824073E+04  0.50400001928E-02 0.  1.
       -1   -1    0    0    0  501  0.00000000000E+00  0.00000000000E+00 -0.14062618971E+04  0.14062618971E+04  0.50400001928E-02 0. -1.
    10030    2    1    2    0    0  0.00000000000E+00  0.00000000000E+00  0.10422205102E+04  0.38547443044E+04  0.37111763715E+04 0.  0.
        2    1    3    3  502    0 -0.22964814805E+03  0.18409041777E+04  0.56188512460E+03  0.19383965943E+04  0.25500000920E-02 0.  1.
       -2    1    3    3    0  502  0.22964814805E+03 -0.18409041777E+04  0.48033538556E+03  0.19163477101E+04  0.25500000920E-02 0. -1.
</event>
<event>
 5   0  0.9878977E-07  0.3646268E+04  0.7818609E-02  0.8079975E-01
        2   -1    0    0  501    0  0.00000000000E+00  0.00000000000E+00  0.22430860002E+04  0.22430860002E+04  0.25500000920E-02 0. -1.
       -2   -1    0    0    0  501  0.00000000000E+00  0.00000000000E+00 -0.14818056596E+04  0.14818056596E+04  0.25500000920E-02 0.  1.
    10030    2    1    2    0    0  0.00000000000E+00  0.00000000000E+00  0.76128034060E+03  0.37248916599E+04  0.36462679716E+04 0.  0.
        5    1    3    3  502    0  0.10423275364E+04  0.12513339333E+04  0.12177684152E+04  0.20335351752E+04  0.46999998093E+01 0.  1.
       -5    1    3    3    0  502 -0.10423275364E+04 -0.12513339333E+04 -0.45648807461E+03  0.16913564846E+04  0.46999998093E+01 0. -1.
</event>
<event>
 5   0  0.9878977E-07  0.3636640E+04  0.7818609E-02  0.8082150E-01
        2   -1    0    0  501    0  0.00000000000E+00  0.00000000000E+00  0.14737193666E+04  0.14737193666E+04  0.25500000920E-02 0. -1.
       -2   -1    0    0    0  501  0.00000000000E+00  0.00000000000E+00 -0.22434986901E+04  0.22434986901E+04  0.25500000920E-02 0.  1.
    10030    2    1    2    0    0  0.00000000000E+00  0.00000000000E+00 -0.76977932355E+03  0.37172180567E+04  0.36366399154E+04 0.  0.
        5    1    3    3  502    0  0.16629079201E+04  0.48560595118E+01 -0.11366994209E+04  0.20142973950E+04  0.46999998093E+01 0.  1.
       -5    1    3    3    0  502 -0.16629079201E+04 -0.48560595118E+01  0.36692009733E+03  0.17029206617E+04  0.46999998093E+01 0. -1.
</event>
<event>
 5   0  0.1006019E-06  0.3632326E+04  0.7818609E-02  0.8083127E-01
       -2   -1    0    0    0  501  0.00000000000E+00  0.00000000000E+00  0.14406665728E+04  0.14406665728E+04  0.25500000920E-02 0.  1.
        2   -1    0    0  501    0  0.00000000000E+00  0.00000000000E+00 -0.22895287087E+04  0.22895287087E+04  0.25500000920E-02 0. -1.
    10030    2    1    2    0    0  0.00000000000E+00  0.00000000000E+00 -0.84886213587E+03  0.37301952814E+04  0.36323256891E+04 0.  0.
        1    1    3    3  502    0  0.58620279185E+03  0.10788230688E+04 -0.17987548715E+04  0.21778457280E+04  0.50400001928E-02 0. -1.
       -1    1    3    3    0  502 -0.58620279185E+03 -0.10788230688E+04  0.94989273567E+03  0.15523495535E+04  0.50400001928E-02 0.  1.
</event>
<event>
 5   0  0.9538919E-07  0.2991649E+04  0.7818609E-02  0.8246120E-01
        2   -1    0    0  501    0  0.00000000000E+00  0.00000000000E+00  0.29034824009E+04  0.29034824009E+04  0.25500000920E-02 0.  1.
       -2   -1    0    0    0  501  0.00000000000E+00  0.00000000000E+00 -0.77062299830E+03  0.77062299830E+03  0.25500000920E-02 0. -1.
    10030    2    1    2    0    0  0.00000000000E+00  0.00000000000E+00  0.21328594026E+04  0.36741053992E+04  0.29916485845E+04 0.  0.
        4    1    3    3  502    0 -0.78567379858E+03 -0.10050112916E+04  0.10711284290E+03  0.12801585011E+04  0.12699999809E+01 0.  1.
       -4    1    3    3    0  502  0.78567379858E+03  0.10050112916E+04  0.20257465597E+04  0.23939468981E+04  0.12699999809E+01 0. -1.
</event>
<event>
 5   0  0.3159875E-07  0.3587986E+04  0.7818609E-02  0.8093249E-01
        1   -1    0    0  501    0  0.00000000000E+00  0.00000000000E+00  0.20858240721E+04  0.20858240721E+04  0.50400001928E-02 0.  1.
       -1   -1    0    0    0  501  0.00000000000E+00  0.00000000000E+00 -0.15429923080E+04  0.15429923080E+04  0.50400001928E-02 0. -1.
    10030    2    1    2    0    0  0.00000000000E+00  0.00000000000E+00  0.54283176415E+03  0.36288163801E+04  0.35879857855E+04 0.  0.
        2    1    3    3  502    0  0.78200968271E+03 -0.57375491163E+03  0.17977876156E+04  0.20427369271E+04  0.25500000920E-02 0. -1.
       -2    1    3    3    0  502 -0.78200968271E+03  0.57375491163E+03 -0.12549558514E+04  0.15860794531E+04  0.25500000920E-02 0.  1.
</event>
<event>
 5   0  0.3159875E-07  0.3558006E+04  0.7818609E-02  0.8100179E-01
       -1   -1    0    0    0  501  0.00000000000E+00  0.00000000000E+00  0.31145451686E+04  0.31145451686E+04  0.50400001928E-02 0. -1.
        1   -1    0    0  501    0  0.00000000000E+00  0.00000000000E+00 -0.10161522542E+04  0.10161522542E+04  0.50400001928E-02 0.  1.
    10030    2    1    2    0    0  0.00000000000E+00  0.00000000000E+00  0.20983929144E+04  0.41306974228E+04  0.35580062360E+04 0.  0.
        2    1    3    3  502    0 -0.84035453143E+03  0.14933935614E+04  0.49432143614E+03  0.17834723856E+04  0.25500000920E-02 0.  1.
       -2    1    3    3    0  502  0.84035453143E+03 -0.14933935614E+04  0.16040714783E+04  0.23472250372E+04  0.25500000920E-02 0. -1.
</event>
<event>
 5   0  0.9878977E-07  0.3603480E+04  0.7818609E-02  0.8089695E-01
       -2   -1    0    0    0  501  0.00000000000E+00  0.00000000000E+00  0.11223700325E+04  0.11223700325E+04  0.25500000920E-02 0.  1.
        2   -1    0    0  501    0  0.00000000000E+00  0.00000000000E+00 -0.28923317307E+04  0.28923317307E+04  0.25500000920E-02 0. -1.
    10030    2    1    2    0    0  0.00000000000E+00  0.00000000000E+00 -0.17699616982E+04  0.40147017632E+04  0.36034796842E+04 0.  0.
        5    1    3    3  502    0 -0.11013852198E+04  0.89711161778E+03 -0.21197864448E+04  0.25517396651E+04  0.46999998093E+01 0. -1.
       -5    1    3    3    0  502  0.11013852198E+04 -0.89711161778E+03  0.34982474658E+03  0.14629620981E+04  0.46999998093E+01 0.  1.
</event>
<event>
 5   0  0.9878336E-07  0.2996567E+04  0.7818609E-02  0.8244712E-01
        2   -1    0    0  501    0  0.00000000000E+00  0.00000000000E+00  0.19492343327E+04  0.19492343327E+04  0.25500000920E-02 0.  1.
       -2   -1    0    0    0  501  0.00000000000E+00  0.00000000000E+00 -0.11516590425E+04  0.11516590425E+04  0.25500000920E-02 0. -1.
    10030    2    1    2    0    0  0.00000000000E+00  0.00000000000E+00  0.79757529021E+03  0.31008933752E+04  0.29965669325E+04 0.  0.
        3    1    3    3  502    0 -0.22111676752E+03  0.85272030916E+03 -0.85535933828E+03  0.12278697644E+04  0.10100000352E+00 0. -1.
       -3    1    3    3    0  502  0.22111676752E+03 -0.85272030916E+03  0.16529346285E+04  0.18730236108E+04  0.10100000352E+00 0.  1.
</event>
<event>
 5   0  0.3159875E-07  0.3625030E+04  0.7818609E-02  0.8084782E-01
       -1   -1    0    0    0  501  0.00000000000E+00  0.00000000000E+00  0.14866002470E+04  0.14866002471E+04  0.50400001928E-02 0. -1.
        1   -1    0    0  501    0  0.00000000000E+00  0.00000000000E+00 -0.22098822063E+04  0.22098822063E+04  0.50400001928E-02 0.  1.
    10030    2    1    2    0    0  0.00000000000E+00  0.00000000000E+00 -0.72328195929E+03  0.36964824534E+04  0.36250304462E+04 0.  0.
        2    1    3    3  502    0  0.11225131469E+04 -0.14230481716E+04 -0.35096706640E+03  0.18461526874E+04  0.25500000920E-02 0. -1.
       -2    1    3    3    0  502 -0.11225131469E+04  0.14230481716E+04 -0.37231489289E+03  0.18503297660E+04  0.25500000920E-02 0.  1.
</event>
<event>
 5   0  0.9538919E-07  0.3554205E+04  0.7818609E-02  0.8101063E-01
       -2   -1    0    0    0  501  0.00000000000E+00  0.00000000000E+00  0.17614027112E+04  0.17614027113E+04  0.25500000920E-02 0.  1.
        2   -1    0    0  501    0  0.00000000000E+00  0.00000000000E+00 -0.17929419884E+04  0.17929419884E+04  0.25500000920E-02 0. -1.
    10030    2    1    2    0    0  0.00000000000E+00  0.00000000000E+00 -0.31539277160E+02  0.35543446997E+04  0.35542047659E+04 0.  0.
        4    1    3    3  502    0 -0.52551665138E+03 -0.16781815397E+04  0.24042443536E+03  0.17748990262E+04  0.12699999809E+01 0. -1.
       -4    1    3    3    0  502  0.52551665138E+03  0.16781815397E+04 -0.27196371252E+03  0.17794456735E+04  0.12699999809E+01 0.  1.
</event>
<event>
 5   0  0.3278988E-07  0.3219158E+04  0.7818609E-02  0.8183776E-01
       -1   -1    0    0    0  501  0.00000000000E+00  0.00000000000E+00  0.11215158774E+04  0.11215158774E+04  0.50400001928E-02 0.  1.
        1   -1    0    0  501    0  0.00000000000E+00  0.00000000000E+00 -0.23100378382E+04  0.23100378382E+04  0.50400001928E-02 0. -1.
    10030    2    1    2    0    0  0.00000000000E+00  0.00000000000E+00 -0.11885219608E+04  0.34315537156E+04  0.32191577239E+04 0.  0.
        4    1    3    3  502    0  0.18478841491E+03 -0.15987461736E+04 -0.56801074827E+03  0.17066850644E+04  0.12699999809E+01 0. -1.
       -4    1    3    3    0  502 -0.18478841491E+03  0.15987461736E+04 -0.62051121254E+03  0.17248686512E+04  0.12699999809E+01 0.  1.
</event>
<event>
 5   0  0.3365378E-07  0.3661920E+04  0.7818609E-02  0.8076454E-01
       -1   -1    0    0    0  501  0.00000000000E+00  0.00000000000E+00  0.15174092042E+04  0.15174092042E+04  0.50400001928E-02 0.  1.
        1   -1    0    0  501    0  0.00000000000E+00  0.00000000000E+00 -0.22093011490E+04  0.22093011490E+04  0.50400001928E-02 0. -1.
    10030    2    1    2    0    0  0.00000000000E+00  0.00000000000E+00 -0.69189194481E+03  0.37267103532E+04  0.36619196596E+04 0.  0.
        3    1    3    3  502    0 -0.17095872381E+04  0.26112064230E+03  0.26597569301E+03  0.17497472943E+04  0.10100000352E+00 0.  1.
       -3    1    3    3    0  502  0.17095872381E+04 -0.26112064230E+03 -0.95786763782E+03  0.19769630589E+04  0.10100000352E+00 0. -1.
</event>
<event>
 5   0  0.1006019E-06  0.3552112E+04  0.7818609E-02  0.8101550E-01
        2   -1    0    0  501    0  0.00000000000E+00  0.00000000000E+00  0.28719196165E+04  0.28719196165E+04  0.25500000920E-02 0.  1.
       -2   -1    0    0    0  501  0.00000000000E+00  0.00000000000E+00 -0.10983505537E+04  0.10983505538E+04  0.25500000920E-02 0. -1.
    10030    2    1    2    0    0  0.00000000000E+00  0.00000000000E+00  0.17735690627E+04  0.39702701702E+04  0.35521117669E+04 0.  0.
        1    1    3    3  502    0 -0.19196842675E+03  0.50301976998E+02 -0.10859194887E+04  0.11039036651E+04  0.50400001928E-02 0. -1.
       -1    1    3    3    0  502  0.19196842675E+03 -0.50301976998E+02  0.28594885515E+04  0.28663665051E+04  0.50400001928E-02 0.  1.
</event>
<event>
 5   0  0.3159875E-07  0.3812798E+04  0.7818609E-02  0.8043414E-01
        1   -1    0    0  501    0  0.00000000000E+00  0.00000000000E+00  0.14334519719E+04  0.14334519720E+04  0.50400001928E-02 0.  1.
       -1   -1    0    0    0  501  0.00000000000E+00  0.00000000000E+00 -0.25353880959E+04  0.25353880959E+04  0.50400001928E-02 0. -1.
    10030    2    1    2    0    0  0.00000000000E+00  0.00000000000E+00 -0.11019361239E+04  0.39688400678E+04  0.38127979573E+04 0.  0.
        2    1    3    3  502    0 -0.18097866939E+03  0.38244467662E+02 -0.25260247727E+04  0.25327883983E+04  0.25500000920E-02 0. -1.
       -2    1    3    3    0  502  0.18097866939E+03 -0.38244467662E+02  0.14240886488E+04  0.14360516696E+04  0.25500000920E-02 0.  1.
</event>
<event>
 5   0  0.1006019E-06  0.3637070E+04  0.7818609E-02  0.8082053E-01
       -2   -1    0    0    0  501  0.00000000000E+00  0.00000000000E+00  0.12112350910E+04  0.12112350910E+04  0.25500000920E-02 0.  1.
        2   -1    0    0  501    0  0.00000000000E+00  0.00000000000E+00 -0.27303281063E+04  0.27303281063E+04  0.25500000920E-02 0. -1.
    10030    2    1    2    0    0  0.00000000000E+00  0.00000000000E+00 -0.15190930153E+04  0.39415631973E+04  0.36370698163E+04 0.  0.
        1    1    3    3  502    0  0.13034810420E+04  0.38201320156E+02 -0.21331569390E+04  0.25001761326E+04  0.50400001928E-02 0. -1.
       -1    1    3    3    0  502 -0.13034810420E+04 -0.38201320156E+02  0.61406392364E+03  0.14413870647E+04  0.50400001928E-02 0.  1.
</event>
<event>
 5   0  0.9878336E-07  0.3699289E+04  0.7818609E-02  0.8068119E-01
       -2   -1    0    0    0  501  0.00000000000E+00  0.00000000000E+00  0.15506710981E+04  0.15506710981E+04  0.25500000920E-02 0. -1.
        2   -1    0    0  501    0  0.00000000000E+00  0.00000000000E+00 -0.22062610958E+04  0.22062610958E+04  0.25500000920E-02 0.  1.
    10030    2    1    2    0    0  0.00000000000E+00  0.00000000000E+00 -0.65558999771E+03  0.37569321939E+04  0.36992892918E+04 0.  0.
        3    1    3    3  502    0  0.24663257741E+03 -0.72060737593E+03  0.13840206742E+04  0.15797518335E+04  0.10100000352E+00 0. -1.
       -3    1    3    3    0  502 -0.24663257741E+03  0.72060737593E+03 -0.20396106719E+04  0.21771803604E+04  0.10100000352E+00 0.  1.
</event>
<event>
 5   0  0.3242047E-07  0.3515382E+04  0.7818609E-02  0.8110154E-01
        1   -1    0    0  501    0  0.00000000000E+00  0.00000000000E+00  0.20090900339E+04  0.20090900339E+04  0.50400001928E-02 0. -1.
       -1   -1    0    0    0  501  0.00000000000E+00  0.00000000000E+00 -0.15377497439E+04  0.15377497439E+04  0.50400001928E-02 0.  1.
    10030    2    1    2    0    0  0.00000000000E+00  0.00000000000E+00  0.47134029000E+03  0.35468397778E+04  0.35153820191E+04 0.  0.
        1    1    3    3  502    0 -0.10591191349E+04 -0.49846861973E+03 -0.10872740125E+04  0.15976135593E+04  0.50400001928E-02 0.  1.
       -1    1    3    3    0  502  0.10591191349E+04  0.49846861973E+03  0.15586143025E+04  0.19492262184E+04  0.50400001928E-02 0. -1.
</event>
<event>
 5   0  0.3242047E-07  0.3333484E+04  0.7818609E-02  0.8154427E-01
        1   -1    0    0  501    0  0.00000000000E+00  0.00000000000E+00  0.21415425185E+04  0.21415425185E+04  0.50400001928E-02 0.  1.
       -1   -1    0    0    0  501  0.00000000000E+00  0.00000000000E+00 -0.12972091970E+04  0.12972091970E+04  0.50400001928E-02 0. -1.
    10030    2    1    2    0    0  0.00000000000E+00  0.00000000000E+00  0.84433332156E+03  0.34387517155E+04  0.33334838537E+04 0.  0.
        1    1    3    3  502    0  0.27701441180E+03  0.16421182270E+04  0.49318392230E+03  0.17368130691E+04  0.50400001928E-02 0.  1.
       -1    1    3    3    0  502 -0.27701441180E+03 -0.16421182270E+04  0.35114939926E+03  0.17019386464E+04  0.50400001928E-02 0. -1.
</event>
<event>
 5   0  0.1006019E-06  0.3582892E+04  0.7818609E-02  0.8094422E-01
       -2   -1    0    0    0  501  0.00000000000E+00  0.00000000000E+00  0.26006835976E+04  0.26006835976E+04  0.25500000920E-02 0.  1.
        2   -1    0    0  501    0  0.00000000000E+00  0.00000000000E+00 -0.12340135312E+04  0.12340135312E+04  0.25500000920E-02 0. -1.
    10030    2    1    2    0    0  0.00000000000E+00  0.00000000000E+00  0.13666700664E+04  0.38346971288E+04  0.35828919882E+04 0.  0.
        1    1    3    3  502    0  0.84362921093E+03  0.13651758723E+04  0.15354440686E+04  0.22210366714E+04  0.50400001928E-02 0.  1.
       -1    1    3    3    0  502 -0.84362921093E+03 -0.13651758723E+04 -0.16877400217E+03  0.16136604574E+04  0.50400001928E-02 0. -1.
</event>
<event>
 5   0  0.3159875E-07  0.3531452E+04  0.7818609E-02  0.8106376E-01
        1   -1    0    0  501    0  0.00000000000E+00  0.00000000000E+00  0.18725890669E+04  0.18725890669E+04  0.50400001928E-02 0. -1.
       -1   -1    0    0    0  501  0.00000000000E+00  0.00000000000E+00 -0.16649611505E+04  0.16649611505E+04  0.50400001928E-02 0.  1.
    10030    2    1    2    0    0  0.00000000000E+00  0.00000000000E+00  0.20762791639E+03  0.35375502174E+04  0.35314518528E+04 0.  0.
        2    1    3    3  502    0  0.15657967499E+04 -0.55953054266E+03  0.69897306372E+03  0.18037065266E+04  0.25500000920E-02 0.  1.
       -2    1    3    3    0  502 -0.15657967499E+04  0.55953054266E+03 -0.49134514734E+03  0.17338436908E+04  0.25500000920E-02 0. -1.
</event>
<event>
 5   0  0.3242047E-07  0.2895104E+04  0.7818609E-02  0.8274336E-01
       -1   -1    0    0    0  501  0.00000000000E+00  0.00000000000E+00  0.12468960170E+04  0.12468960170E+04  0.50400001928E-02 0.  1.
        1   -1    0    0  501    0  0.00000000000E+00  0.00000000000E+00 -0.16804980552E+04  0.16804980552E+04  0.50400001928E-02 0. -1.
    10030    2    1    2    0    0  0.00000000000E+00  0.00000000000E+00 -0.43360203819E+03  0.29273940722E+04  0.28951036815E+04 0.  0.
        1    1    3    3  502    0  0.12098417095E+04  0.70843192077E+03 -0.58111608914E+03  0.15176589398E+04  0.50400001928E-02 0. -1.
       -1    1    3    3    0  502 -0.12098417095E+04 -0.70843192077E+03  0.14751405094E+03  0.14097351324E+04  0.50400001928E-02 0.  1.
</event>
<event>
 5   0  0.9878336E-07  0.3569349E+04  0.7818609E-02  0.8097549E-01
        2   -1    0    0  501    0  0.00000000000E+00  0.00000000000E+00  0.23811396988E+04  0.23811396988E+04  0.25500000920E-02 0. -1.
       -2   -1    0    0    0  501  0.00000000000E+00  0.00000000000E+00 -0.13376210525E+04  0.13376210525E+04  0.25500000920E-02 0.  1.
    10030    2    1    2    0    0  0.00000000000E+00  0.00000000000E+00  0.10435186463E+04  0.37187607513E+04  0.35693487306E+04 0.  0.
        3    1    3    3  502    0 -0.34364777897E+03  0.47131669962E+03 -0.12355061157E+04  0.13662754478E+04  0.10100000352E+00 0.  1.
       -3    1    3    3    0  502  0.34364777897E+03 -0.47131669962E+03  0.22790247619E+04  0.23524853035E+04  0.10100000352E+00 0. -1.
</event>
<event>
 5   0  0.3278988E-07  0.3609134E+04  0.7818609E-02  0.8088403E-01
       -1   -1    0    0    0  501  0.00000000000E+00  0.00000000000E+00  0.24402089508E+04  0.24402089508E+04  0.50400001928E-02 0.  1.
        1   -1    0    0  501    0  0.00000000000E+00  0.00000000000E+00 -0.13345016193E+04  0.13345016193E+04  0.50400001928E-02 0. -1.
    10030    2    1    2    0    0  0.00000000000E+00  0.00000000000E+00  0.11057073315E+04  0.37747105701E+04  0.36091344094E+04 0.  0.
        4    1    3    3  502    0 -0.16202205642E+04  0.64143733691E+02 -0.27545982569E+03  0.16447215034E+04  0.12699999809E+01 0. -1.
       -4    1    3    3    0  502  0.16202205642E+04 -0.64143733691E+02  0.13811671571E+04  0.21299890667E+04  0.12699999809E+01 0.  1.
</event>
<event>
 5   0  0.3242047E-07  0.3122067E+04  0.7818609E-02  0.8209708E-01
       -1   -1    0    0    0  501  0.00000000000E+00  0.00000000000E+00  0.12611002742E+04  0.12611002742E+04  0.50400001928E-02 0. -1.
        1   -1    0    0  501    0  0.00000000000E+00  0.00000000000E+00 -0.19323011970E+04  0.19323011970E+04  0.50400001928E-02 0.  1.
    10030    2    1    2    0    0  0.00000000000E+00  0.00000000000E+00 -0.67120092284E+03  0.31934014712E+04  0.31220669880E+04 0.  0.
        1    1    3    3  502    0 -0.25501623333E+03  0.38735637215E+03  0.11890090942E+04  0.12762526648E+04  0.50400001928E-02 0. -1.
       -1    1    3    3    0  502  0.25501623333E+03 -0.38735637215E+03 -0.18602100171E+04  0.19171488064E+04  0.50400001928E-02 0.  1.
</event>
<event>
 5   0  0.3242047E-07  0.3476714E+04  0.7818609E-02  0.8119331E-01
       -1   -1    0    0    0  501  0.00000000000E+00  0.00000000000E+00  0.12661115272E+04  0.12661115272E+04  0.50400001928E-02 0.  1.
        1   -1    0    0  501    0  0.00000000000E+00  0.00000000000E+00 -0.23867444779E+04  0.23867444779E+04  0.50400001928E-02 0. -1.
    10030    2    1    2    0    0  0.00000000000E+00  0.00000000000E+00 -0.11206329507E+04  0.36528560051E+04  0.34767137909E+04 0.  0.
        1    1    3    3  502    0  0.14081397271E+04  0.10158123069E+04 -0.64917404421E+03  0.18536879656E+04  0.50400001928E-02 0.  1.
       -1    1    3    3    0  502 -0.14081397271E+04 -0.10158123069E+04 -0.47145890651E+03  0.17991680395E+04  0.50400001928E-02 0. -1.
</event>
<event>
 5   0  0.1031659E-06  0.3619094E+04  0.7818609E-02  0.8086132E-01
        2   -1    0    0  501    0  0.00000000000E+00  0.00000000000E+00  0.14248138963E+04  0.14248138963E+04  0.25500000920E-02 0.  1.
       -2   -1    0    0    0  501  0.00000000000E+00  0.00000000000E+00 -0.22981669453E+04  0.22981669453E+04  0.25500000920E-02 0. -1.
    10030    2    1    2    0    0  0.00000000000E+00  0.00000000000E+00 -0.87335304901E+03  0.37229808416E+04  0.36190939196E+04 0.  0.
        2    1    3    3  502    0 -0.25654453353E+03 -0.87624011806E+03  0.11704917361E+04  0.14844738955E+04  0.25500000920E-02 0.  1.
       -2    1    3    3    0  502  0.25654453353E+03  0.87624011806E+03 -0.20438447851E+04  0.22385069461E+04  0.25500000920E-02 0. -1.
</event>
<event>
 5   0  0.9538919E-07  0.3624622E+04  0.7818609E-02  0.8084875E-01
       -2   -1    0    0    0  501  0.00000000000E+00  0.00000000000E+00  0.14902982153E+04  0.14902982153E+04  0.25500000920E-02 0. -1.
        2   -1    0    0  501    0  0.00000000000E+00  0.00000000000E+00 -0.22039024921E+04  0.22039024921E+04  0.25500000920E-02 0.  1.
    10030    2    1    2    0    0  0.00000000000E+00  0.00000000000E+00 -0.71360427678E+03  0.36942007074E+04  0.36246224359E+04 0.  0.
        4    1    3    3  502    0 -0.46238391064E+03  0.10241787501E+04 -0.18059717557E+04  0.21270346937E+04  0.12699999809E+01 0.  1.
       -4    1    3    3    0  502  0.46238391064E+03 -0.10241787501E+04  0.10923674789E+04  0.15671660138E+04  0.12699999809E+01 0. -1.
</event>
<event>
 5   0  0.9878336E-07  0.3643155E+04  0.7818609E-02  0.8080677E-01
        2   -1    0    0  501    0  0.00000000000E+00  0.00000000000E+00  0.18142118011E+04  0.18142118012E+04  0.25500000920E-02 0.  1.
       -2   -1    0    0    0  501  0.00000000000E+00  0.00000000000E+00 -0.18289735844E+04  0.18289735844E+04  0.25500000920E-02 0. -1.
    10030    2    1    2    0    0  0.00000000000E+00  0.00000000000E+00 -0.14761783292E+02  0.36431853856E+04  0.36431554789E+04 0.  0.
        3    1    3    3  502    0 -0.55307565302E+03 -0.82900662714E+03  0.15174269510E+04  0.18154143405E+04  0.10100000352E+00 0.  1.
       -3    1    3    3    0  502  0.55307565302E+03  0.82900662714E+03 -0.15321887343E+04  0.18277710451E+04  0.10100000352E+00 0. -1.
</event>
<event>
 5   0  0.3365378E-07  0.3598067E+04  0.7818609E-02  0.8090935E-01
       -1   -1    0    0    0  501  0.00000000000E+00  0.00000000000E+00  0.17554152464E+04  0.17554152464E+04  0.50400001928E-02 0. -1.
        1   -1    0    0  501    0  0.00000000000E+00  0.00000000000E+00 -0.18437353836E+04  0.18437353836E+04  0.50400001928E-02 0.  1.
    10030    2    1    2    0    0  0.00000000000E+00  0.00000000000E+00 -0.88320137162E+02  0.35991506300E+04  0.35980668157E+04 0.  0.
        3    1    3    3  502    0  0.59463440073E+03  0.61471854705E+03 -0.16273725013E+04  0.18384260199E+04  0.10100000352E+00 0.  1.
       -3    1    3    3    0  502 -0.59463440073E+03 -0.61471854705E+03  0.15390523641E+04  0.17607246100E+04  0.10100000352E+00 0. -1.
</event>
<event>
 5   0  0.9878977E-07  0.3627660E+04  0.7818609E-02  0.8084185E-01
       -2   -1    0    0    0  501  0.00000000000E+00  0.00000000000E+00  0.11803173586E+04  0.11803173586E+04  0.25500000920E-02 0. -1.
        2   -1    0    0  501    0  0.00000000000E+00  0.00000000000E+00 -0.27873689431E+04  0.27873689431E+04  0.25500000920E-02 0.  1.
    10030    2    1    2    0    0  0.00000000000E+00  0.00000000000E+00 -0.16070515845E+04  0.39676863017E+04  0.36276603746E+04 0.  0.
        5    1    3    3  502    0 -0.57050099401E+03  0.11209059294E+04  0.62590063414E+03  0.14048755035E+04  0.46999998093E+01 0. -1.
       -5    1    3    3    0  502  0.57050099401E+03 -0.11209059294E+04 -0.22329522186E+04  0.25628107982E+04  0.46999998093E+01 0.  1.
</event>
<event>
 5   0  0.1031659E-06  0.3540388E+04  0.7818609E-02  0.8104285E-01
       -2   -1    0    0    0  501  0.00000000000E+00  0.00000000000E+00  0.13193980141E+04  0.13193980141E+04  0.25500000920E-02 0. -1.
        2   -1    0    0  501    0  0.00000000000E+00  0.00000000000E+00 -0.23750130841E+04  0.23750130841E+04  0.25500000920E-02 0.  1.
    10030    2    1    2    0    0  0.00000000000E+00  0.00000000000E+00 -0.10556150701E+04  0.36944110982E+04  0.35403884231E+04 0.  0.
        2    1    3    3  502    0  0.75481049488E+03 -0.36998078198E+03 -0.21534531452E+04  0.23117061039E+04  0.25500000920E-02 0.  1.
       -2    1    3    3    0  502 -0.75481049488E+03  0.36998078198E+03  0.10978380751E+04  0.13827049944E+04  0.25500000920E-02 0. -1.
</event>
<event>
 5   0  0.3365378E-07  0.3634189E+04  0.7818609E-02  0.8082705E-01
        1   -1    0    0  501    0  0.00000000000E+00  0.00000000000E+00  0.24709578133E+04  0.24709578133E+04  0.50400001928E-02 0.  1.
       -1   -1    0    0    0  501  0.00000000000E+00  0.00000000000E+00 -0.13362561395E+04  0.13362561395E+04  0.50400001928E-02 0. -1.
    10030    2    1    2    0    0  0.00000000000E+00  0.00000000000E+00  0.11347016738E+04  0.38072139527E+04  0.36341890696E+04 0.  0.
        3    1    3    3  502    0 -0.17100994905E+04  0.28733553497E+03 -0.14837763682E+01  0.17340715639E+04  0.10100000352E+00 0.  1.
       -3    1    3    3    0  502  0.17100994905E+04 -0.28733553497E+03  0.11361854501E+04  0.20731423888E+04  0.10100000352E+00 0. -1.
</event>
<event>
 5   0  0.9878977E-07  0.3716318E+04  0.7818609E-02  0.8064355E-01
       -2   -1    0    0    0  501  0.00000000000E+00  0.00000000000E+00  0.18023947155E+04  0.18023947155E+04  0.25500000920E-02 0. -1.
        2   -1    0    0  501    0  0.00000000000E+00  0.00000000000E+00 -0.19156488821E+04  0.19156488821E+04  0.25500000920E-02 0.  1.
    10030    2    1    2    0    0  0.00000000000E+00  0.00000000000E+00 -0.11325416658E+03  0.37180435977E+04  0.37163182975E+04 0.  0.
        5    1    3    3  502    0 -0.36773159369E+02 -0.84348531905E+02 -0.19133621572E+04  0.19155792269E+04  0.46999998093E+01 0.  1.
       -5    1    3    3    0  502  0.36773159369E+02  0.84348531905E+02  0.18001079906E+04  0.18024643708E+04  0.46999998093E+01 0. -1.
</event>
<event>
 5   0  0.3159875E-07  0.3325377E+04  0.7818609E-02  0.8156468E-01
        3   -1    0    0  501    0  0.00000000000E+00  0.00000000000E+00  0.25721064807E+04  0.25721064827E+04  0.10100000352E+00 0. -1.
       -3   -1    0    0    0  501  0.00000000000E+00  0.00000000000E+00 -0.10748126724E+04  0.10748126772E+04  0.10100000352E+00 0.  1.
    10030    2    1    2    0    0  0.00000000000E+00  0.00000000000E+00  0.14972938083E+04  0.36469191599E+04  0.33253767622E+04 0.  0.
        3    1    3    3  502    0 -0.21109605011E+02  0.56635046330E+03  0.24629069932E+04  0.25272731016E+04  0.10100000352E+00 0. -1.
       -3    1    3    3    0  502  0.21109605011E+02 -0.56635046330E+03 -0.96561318493E+03  0.11196460583E+04  0.10100000352E+00 0.  1.
</event>
<event>
 5   0  0.9878977E-07  0.2818951E+04  0.7818609E-02  0.8297409E-01
        2   -1    0    0  501    0  0.00000000000E+00  0.00000000000E+00  0.16936135304E+04  0.16936135304E+04  0.25500000920E-02 0.  1.
       -2   -1    0    0    0  501  0.00000000000E+00  0.00000000000E+00 -0.11730073607E+04  0.11730073607E+04  0.25500000920E-02 0. -1.
    10030    2    1    2    0    0  0.00000000000E+00  0.00000000000E+00  0.52060616973E+03  0.28666208912E+04  0.28189509662E+04 0.  0.
        5    1    3    3  502    0  0.37628712987E+03  0.12902640105E+04  0.69201223416E+03  0.15117130161E+04  0.46999998093E+01 0.  1.
       -5    1    3    3    0  502 -0.37628712987E+03 -0.12902640105E+04 -0.17140606444E+03  0.13549078750E+04  0.46999998093E+01 0. -1.
</event>
<event>
 5   0  0.1006019E-06  0.3639883E+04  0.7818609E-02  0.8081417E-01
       -2   -1    0    0    0  501  0.00000000000E+00  0.00000000000E+00  0.12461072001E+04  0.12461072001E+04  0.25500000920E-02 0. -1.
        2   -1    0    0  501    0  0.00000000000E+00  0.00000000000E+00 -0.26580271102E+04  0.26580271102E+04  0.25500000920E-02 0.  1.
    10030    2    1    2    0    0  0.00000000000E+00  0.00000000000E+00 -0.14119199100E+04  0.39041343103E+04  0.36398828114E+04 0.  0.
        1    1    3    3  502    0 -0.94751621037E+03  0.10356614518E+04  0.53649905236E+03  0.15027351213E+04  0.50400001928E-02 0. -1.
       -1    1    3    3    0  502  0.94751621037E+03 -0.10356614518E+04 -0.19484189624E+04  0.24013991890E+04  0.50400001928E-02 0.  1.
</event>
<event>
 5   0  0.9538919E-07  0.3594095E+04  0.7818609E-02  0.8091846E-01
        2   -1    0    0  501    0  0.00000000000E+00  0.00000000000E+00  0.20209544820E+04  0.20209544820E+04  0.25500000920E-02 0. -1.
       -2   -1    0    0    0  501  0.00000000000E+00  0.00000000000E+00 -0.15979476505E+04  0.15979476505E+04  0.25500000920E-02 0.  1.
    10030    2    1    2    0    0  0.00000000000E+00  0.00000000000E+00  0.42300683153E+03  0.36189021325E+04  0.35940948603E+04 0.  0.
        4    1    3    3  502    0 -0.14148557794E+04 -0.11076329008E+04  0.18466736803E+03  0.18063142498E+04  0.12699999809E+01 0.  1.
       -4    1    3    3    0  502  0.14148557794E+04  0.11076329008E+04  0.23833946350E+03  0.18125878826E+04  0.12699999809E+01 0. -1.
</event>
<event>
 5   0  0.3365378E-07  0.3680712E+04  0.7818609E-02  0.8072250E-01
        1   -1    0    0  501    0  0.00000000000E+00  0.00000000000E+00  0.22745670084E+04  0.22745670084E+04  0.50400001928E-02 0. -1.
       -1   -1    0    0    0  501  0.00000000000E+00  0.00000000000E+00 -0.14890351753E+04  0.14890351753E+04  0.50400001928E-02 0.  1.
    10030    2    1    2    0    0  0.00000000000E+00  0.00000000000E+00  0.78553183309E+03  0.37636021837E+04  0.36807120421E+04 0.  0.
        3    1    3    3  502    0  0.77965830751E+03  0.14625555422E+04  0.12107657195E+04  0.20525324427E+04  0.10100000352E+00 0. -1.
       -3    1    3    3    0  502 -0.77965830751E+03 -0.14625555422E+04 -0.42523388638E+03  0.17110697411E+04  0.10100000352E+00 0.  1.
</event>
<event>
 5   0  0.3278988E-07  0.3610063E+04  0.7818609E-02  0.8088190E-01
        1   -1    0    0  501    0  0.00000000000E+00  0.00000000000E+00  0.21948882206E+04  0.21948882206E+04  0.50400001928E-02 0.  1.
       -1   -1    0    0    0  501  0.00000000000E+00  0.00000000000E+00 -0.14844215534E+04  0.14844215534E+04  0.50400001928E-02 0. -1.
    10030    2    1    2    0    0  0.00000000000E+00  0.00000000000E+00  0.71046666721E+03  0.36793097740E+04  0.36100633689E+04 0.  0.
        4    1    3    3  502    0  0.17887027815E+04 -0.11377111123E+03  0.57319587642E+03  0.18817429771E+04  0.12699999809E+01 0. -1.
       -4    1    3    3    0  502 -0.17887027815E+04  0.11377111123E+03  0.13727079080E+03  0.17975667969E+04  0.12699999809E+01 0.  1.
</event>
<event>
 5   0  0.1006019E-06  0.3634074E+04  0.7818609E-02  0.8082731E-01
        2   -1    0    0  501    0  0.00000000000E+00  0.00000000000E+00  0.16703100663E+04  0.16703100663E+04  0.25500000920E-02 0.  1.
       -2   -1    0    0    0  501  0.00000000000E+00  0.00000000000E+00 -0.19766534049E+04  0.19766534049E+04  0.25500000920E-02 0. -1.
    10030    2    1    2    0    0  0.00000000000E+00  0.00000000000E+00 -0.30634333860E+03  0.36469634712E+04  0.36340743415E+04 0.  0.
        1    1    3    3  502    0 -0.85557872274E+03  0.49476395260E+03  0.13769714841E+04  0.16949503791E+04  0.50400001928E-02 0.  1.
       -1    1    3    3    0  502  0.85557872274E+03 -0.49476395260E+03 -0.16833148227E+04  0.19520130921E+04  0.50400001928E-02 0. -1.
</event>
<event>
 5   0  0.3242047E-07  0.2957967E+04  0.7818609E-02  0.8255837E-01
       -1   -1    0    0    0  501  0.00000000000E+00  0.00000000000E+00  0.17437593197E+04  0.17437593197E+04  0.50400001928E-02 0.  1.
        1   -1    0    0  501    0  0.00000000000E+00  0.00000000000E+00 -0.12544114123E+04  0.12544114123E+04  0.50400001928E-02 0. -1.
    10030    2    1    2    0    0  0.00000000000E+00  0.00000000000E+00  0.48934790739E+03  0.29981707320E+04  0.29579665928E+04 0.  0.
        1    1    3    3  502    0 -0.24185750076E+03  0.14551235468E+04  0.35342628135E+03  0.15168354306E+04  0.50400001928E-02 0. -1.
       -1    1    3    3    0  502  0.24185750076E+03 -0.14551235468E+04  0.13592162604E+03  0.14813353015E+04  0.50400001928E-02 0.  1.
</event>
<event>
 5   0  0.9538919E-07  0.3260979E+04  0.7818609E-02  0.8172896E-01
        2   -1    0    0  501    0  0.00000000000E+00  0.00000000000E+00  0.18952382136E+04  0.18952382136E+04  0.25500000920E-02 0. -1.
       -2   -1    0    0    0  501  0.00000000000E+00  0.00000000000E+00 -0.14027239327E+04  0.14027239327E+04  0.25500000920E-02 0.  1.
    10030    2    1    2    0    0  0.00000000000E+00  0.00000000000E+00  0.49251428098E+03  0.32979621463E+04  0.32609789943E+04 0.  0.
        4    1    3    3  502    0  0.15447849063E+04 -0.32236399112E+03 -0.16853506854E+03  0.15870364305E+04  0.12699999809E+01 0. -1.
       -4    1    3    3    0  502 -0.15447849063E+04  0.32236399112E+03  0.66104934952E+03  0.17109257158E+04  0.12699999809E+01 0.  1.
</event>
<event>
 5   0  0.9878977E-07  0.3429447E+04  0.7818609E-02  0.8130717E-01
       -2   -1    0    0    0  501  0.00000000000E+00  0.00000000000E+00  0.15141342395E+04  0.15141342395E+04  0.25500000920E-02 0.  1.
        2   -1    0    0  501    0  0.00000000000E+00  0.00000000000E+00 -0.19418859217E+04  0.19418859217E+04  0.25500000920E-02 0. -1.
    10030    2    1    2    0    0  0.00000000000E+00  0.00000000000E+00 -0.42775168227E+03  0.34560201612E+04  0.34294465812E+04 0.  0.
        5    1    3    3  502    0  0.21565256602E+02  0.24270679717E+03  0.14965922499E+04  0.15163054119E+04  0.46999998093E+01 0.  1.
       -5    1    3    3    0  502 -0.21565256602E+02 -0.24270679717E+03 -0.19243439321E+04  0.19397147493E+04  0.46999998093E+01 0. -1.
</event>
<event>
 5   0  0.9878977E-07  0.3582873E+04  0.7818609E-02  0.8094426E-01
       -2   -1    0    0    0  501  0.00000000000E+00  0.00000000000E+00  0.11442683640E+04  0.11442683640E+04  0.25500000920E-02 0. -1.
        2   -1    0    0  501    0  0.00000000000E+00  0.00000000000E+00 -0.28046264876E+04  0.28046264876E+04  0.25500000920E-02 0.  1.
    10030    2    1    2    0    0  0.00000000000E+00  0.00000000000E+00 -0.16603581235E+04  0.39488948516E+04  0.35828733512E+04 0.  0.
        5    1    3    3  502    0 -0.12712690107E+03 -0.19390248214E+02 -0.27995259437E+04  0.28024819054E+04  0.46999998093E+01 0.  1.
       -5    1    3    3    0  502  0.12712690107E+03  0.19390248214E+02  0.11391678202E+04  0.11464129462E+04  0.46999998093E+01 0. -1.
</event>
<event>
 5   0  0.3278988E-07  0.3055630E+04  0.7818609E-02  0.8228021E-01
        1   -1    0    0  501    0  0.00000000000E+00  0.00000000000E+00  0.12536748421E+04  0.12536748421E+04  0.50400001928E-02 0.  1.
       -1   -1    0    0    0  501  0.00000000000E+00  0.00000000000E+00 -0.18619016863E+04  0.18619016863E+04  0.50400001928E-02 0. -1.
    10030    2    1    2    0    0  0.00000000000E+00  0.00000000000E+00 -0.60822684422E+03  0.31155765284E+04  0.30556304113E+04 0.  0.
        4    1    3    3  502    0 -0.12424460075E+04 -0.37602336128E+03  0.51739271606E+03  0.13974127827E+04  0.12699999809E+01 0.  1.
       -4    1    3    3    0  502  0.12424460075E+04  0.37602336128E+03 -0.11256195603E+04  0.17181637457E+04  0.12699999809E+01 0. -1.
</event>
<event>
 5   0  0.3278988E-07  0.3421989E+04  0.7818609E-02  0.8132530E-01
        1   -1    0    0  501    0  0.00000000000E+00  0.00000000000E+00  0.27015193683E+04  0.27015193683E+04  0.50400001928E-02 0. -1.
       -1   -1    0    0    0  501  0.00000000000E+00  0.00000000000E+00 -0.10836503063E+04  0.10836503063E+04  0.50400001928E-02 0.  1.
    10030    2    1    2    0    0  0.00000000000E+00  0.00000000000E+00  0.16178690620E+04  0.37851696746E+04  0.34219890655E+04 0.  0.
        4    1    3    3  502    0 -0.37848981395E+03  0.96455185503E+03 -0.69714612428E+03  0.12488511328E+04  0.12699999809E+01 0.  1.
       -4    1    3    3    0  502  0.37848981395E+03 -0.96455185503E+03  0.23150151863E+04  0.25363185419E+04  0.12699999809E+01 0. -1.
</event>
<event>
 5   0  0.3242047E-07  0.2975650E+04  0.7818609E-02  0.8250718E-01
       -1   -1    0    0    0  501  0.00000000000E+00  0.00000000000E+00  0.21150895636E+04  0.21150895636E+04  0.50400001928E-02 0. -1.
        1   -1    0    0  501    0  0.00000000000E+00  0.00000000000E+00 -0.10465863323E+04  0.10465863323E+04  0.50400001928E-02 0.  1.
    10030    2    1    2    0    0  0.00000000000E+00  0.00000000000E+00  0.10685032312E+04  0.31616758959E+04  0.29756504021E+04 0.  0.
        1    1    3    3  502    0 -0.51332055520E+03 -0.71952070231E+03  0.18059086345E+04  0.20106004152E+04  0.50400001928E-02 0. -1.
       -1    1    3    3    0  502  0.51332055520E+03  0.71952070231E+03 -0.73740540328E+03  0.11510754807E+04  0.50400001928E-02 0.  1.
</event>
<event>
 5   0  0.9878977E-07  0.3588513E+04  0.7818609E-02  0.8093128E-01
       -2   -1    0    0    0  501  0.00000000000E+00  0.00000000000E+00  0.16202064633E+04  0.16202064633E+04  0.25500000920E-02 0. -1.
        2   -1    0    0  501    0  0.00000000000E+00  0.00000000000E+00 -0.19870036289E+04  0.19870036289E+04  0.25500000920E-02 0.  1.
    10030    2    1    2    0    0  0.00000000000E+00  0.00000000000E+00 -0.36679716568E+03  0.36072100922E+04  0.35885128519E+04 0.  0.
        5    1    3    3  502    0 -0.14015234022E+04 -0.10990962571E+04 -0.40144721762E+03  0.18257772011E+04  0.46999998093E+01 0. -1.
       -5    1    3    3    0  502  0.14015234022E+04  0.10990962571E+04  0.34650051940E+02  0.17814328911E+04  0.46999998093E+01 0.  1.
</event>
<event>
 5   0  0.9538919E-07  0.3535823E+04  0.7818609E-02  0.8105352E-01
       -2   -1    0    0    0  501  0.00000000000E+00  0.00000000000E+00  0.12877568943E+04  0.12877568943E+04  0.25500000920E-02 0. -1.
        2   -1    0    0  501    0  0.00000000000E+00  0.00000000000E+00 -0.24270969950E+04  0.24270969950E+04  0.25500000920E-02 0.  1.
    10030    2    1    2    0    0  0.00000000000E+00  0.00000000000E+00 -0.11393401006E+04  0.37148538893E+04  0.35358228963E+04 0.  0.
        4    1    3    3  502    0 -0.10848692298E+03  0.34278770517E+03  0.12489386938E+04  0.12996623781E+04  0.12699999809E+01 0. -1.
       -4    1    3    3    0  502  0.10848692298E+03 -0.34278770517E+03 -0.23882787944E+04  0.24151915112E+04  0.12699999809E+01 0.  1.
</event>
<event>
 5   0  0.1006019E-06  0.3615344E+04  0.7818609E-02  0.8086986E-01
       -2   -1    0    0    0  501  0.00000000000E+00  0.00000000000E+00  0.10605623470E+04  0.10605623471E+04  0.25500000920E-02 0.  1.
        2   -1    0    0  501    0  0.00000000000E+00  0.00000000000E+00 -0.30810798738E+04  0.30810798738E+04  0.25500000920E-02 0. -1.
    10030    2    1    2    0    0  0.00000000000E+00  0.00000000000E+00 -0.20205175267E+04  0.41416422208E+04  0.36153435811E+04 0.  0.
        1    1    3    3  502    0 -0.14865849840E+04  0.81150568392E+03 -0.17340590748E+04  0.24239301278E+04  0.50400001928E-02 0.  1.
       -1    1    3    3    0  502  0.14865849840E+04 -0.81150568392E+03 -0.28645845192E+03  0.17177120930E+04  0.50400001928E-02 0. -1.
</event>
<event>
 5   0  0.1006019E-06  0.3594978E+04  0.7818609E-02  0.8091643E-01
        2   -1    0    0  501    0  0.00000000000E+00  0.00000000000E+00  0.16322490362E+04  0.16322490362E+04  0.25500000920E-02 0. -1.
       -2   -1    0    0    0  501  0.00000000000E+00  0.00000000000E+00 -0.19794574939E+04  0.19794574939E+04  0.25500000920E-02 0.  1.
    10030    2    1    2    0    0  0.00000000000E+00  0.00000000000E+00 -0.34720845762E+03  0.36117065301E+04  0.35949784904E+04 0.  0.
        1    1    3    3  502    0  0.72451629047E+03  0.10264283264E+04  0.11178689676E+04  0.16816985441E+04  0.50400001928E-02 0. -1.
       -1    1    3    3    0  502 -0.72451629047E+03 -0.10264283264E+04 -0.14650774252E+04  0.19300079861E+04  0.50400001928E-02 0.  1.
</event>
<event>
 5   0  0.3159875E-07  0.3678713E+04  0.7818609E-02  0.8072696E-01
       -1   -1    0    0    0  501  0.00000000000E+00  0.00000000000E+00  0.23659778927E+04  0.23659778927E+04  0.50400001928E-02 0. -1.
        1   -1    0    0  501    0  0.00000000000E+00  0.00000000000E+00 -0.14299509253E+04  0.14299509253E+04  0.50400001928E-02 0.  1.
    10030    2    1    2    0    0  0.00000000000E+00  0.00000000000E+00  0.93602696740E+03  0.37959288180E+04  0.36787129689E+04 0.  0.
        2    1    3    3  502    0  0.18331497151E+04 -0.15090246717E+03  0.47294534055E+03  0.18991805411E+04  0.25500000920E-02 0.  1.
       -2    1    3    3    0  502 -0.18331497151E+04  0.15090246717E+03  0.46308162685E+03  0.18967482769E+04  0.25500000920E-02 0. -1.
</event>
<event>
 5   0  0.3159875E-07  0.3598971E+04  0.7818609E-02  0.8090728E-01
       -1   -1    0    0    0  501  0.00000000000E+00  0.00000000000E+00  0.15067950892E+04  0.15067950892E+04  0.50400001928E-02 0. -1.
        1   -1    0    0  501    0  0.00000000000E+00  0.00000000000E+00 -0.21490297259E+04  0.21490297260E+04  0.50400001928E-02 0.  1.
    10030    2    1    2    0    0  0.00000000000E+00  0.00000000000E+00 -0.64223463677E+03  0.36558248151E+04  0.35989706515E+04 0.  0.
        5    1    3    3  502    0  0.84289597007E+03 -0.83815252472E+03  0.10512064956E+04  0.15868303178E+04  0.46999998093E+01 0. -1.
       -5    1    3    3    0  502 -0.84289597007E+03  0.83815252472E+03 -0.16934411324E+04  0.20689944973E+04  0.46999998093E+01 0.  1.
</event>
<event>
 5   0  0.9878977E-07  0.3715220E+04  0.7818609E-02  0.8064597E-01
        2   -1    0    0  501    0  0.00000000000E+00  0.00000000000E+00  0.22916384827E+04  0.22916384827E+04  0.25500000920E-02 0.  1.
       -2   -1    0    0    0  501  0.00000000000E+00  0.00000000000E+00 -0.15057853521E+04  0.15057853521E+04  0.25500000920E-02 0. -1.
    10030    2    1    2    0    0  0.00000000000E+00  0.00000000000E+00  0.78585313059E+03  0.37974238348E+04  0.37152204024E+04 0.  0.
        5    1    3    3  502    0  0.62961801330E+03 -0.44151532702E+03 -0.13354457789E+04  0.15410360623E+04  0.46999998093E+01 0. -1.
       -5    1    3    3    0  502 -0.62961801330E+03  0.44151532702E+03  0.21212989095E+04  0.22563877726E+04  0.46999998093E+01 0.  1.
</event>
<event>
 5   0  0.3278988E-07  0.3562945E+04  0.7818609E-02  0.8099033E-01
       -1   -1    0    0    0  501  0.00000000000E+00  0.00000000000E+00  0.14568583013E+04  0.14568583013E+04  0.50400001928E-02 0. -1.
        1   -1    0    0  501    0  0.00000000000E+00  0.00000000000E+00 -0.21784169746E+04  0.21784169746E+04  0.50400001928E-02 0.  1.
    10030    2    1    2    0    0  0.00000000000E+00  0.00000000000E+00 -0.72155867332E+03  0.36352752759E+04  0.35629453283E+04 0.  0.
        4    1    3    3  502    0  0.42215150409E+03  0.32551626036E+03 -0.20951314656E+04  0.21618857970E+04  0.12699999809E+01 0.  1.
       -4    1    3    3    0  502 -0.42215150409E+03 -0.32551626036E+03  0.13735727923E+04  0.14733894789E+04  0.12699999809E+01 0. -1.
</event>
<event>
 5   0  0.1031659E-06  0.3598372E+04  0.7818609E-02  0.8090865E-01
        2   -1    0    0  501    0  0.00000000000E+00  0.00000000000E+00  0.16209142303E+04  0.16209142303E+04  0.25500000920E-02 0. -1.
       -2   -1    0    0    0  501  0.00000000000E+00  0.00000000000E+00 -0.19970647517E+04  0.19970647517E+04  0.25500000920E-02 0.  1.
    10030    2    1    2    0    0  0.00000000000E+00  0.00000000000E+00 -0.37615052135E+03  0.36179789820E+04  0.35983722291E+04 0.  0.
        2    1    3    3  502    0 -0.71494699527E+03  0.16495961428E+04 -0.25740045951E+03  0.18161970259E+04  0.25500000920E-02 0.  1.
       -2    1    3    3    0  502  0.71494699527E+03 -0.16495961428E+04 -0.11875006184E+03  0.18017819561E+04  0.25500000920E-02 0. -1.
</event>
<event>
 5   0  0.3242047E-07  0.3535917E+04  0.7818609E-02  0.8105331E-01
        1   -1    0    0  501    0  0.00000000000E+00  0.00000000000E+00  0.21745592875E+04  0.21745592875E+04  0.50400001928E-02 0.  1.
       -1   -1    0    0    0  501  0.00000000000E+00  0.00000000000E+00 -0.14373838697E+04  0.14373838697E+04  0.50400001928E-02 0. -1.
    10030    2    1    2    0    0  0.00000000000E+00  0.00000000000E+00  0.73717541776E+03  0.36119431572E+04  0.35359165395E+04 0.  0.
        1    1    3    3  502    0 -0.16558757920E+04 -0.30976101330E+03  0.91659234900E+03  0.19178159604E+04  0.50400001928E-02 0.  1.
       -1    1    3    3    0  502  0.16558757920E+04  0.30976101330E+03 -0.17941693124E+03  0.16941271968E+04  0.50400001928E-02 0. -1.
</event>
<event>
 5   0  0.9878336E-07  0.3608361E+04  0.7818609E-02  0.8088579E-01
        2   -1    0    0  501    0  0.00000000000E+00  0.00000000000E+00  0.22825692455E+04  0.22825692455E+04  0.25500000920E-02 0.  1.
       -2   -1    0    0    0  501  0.00000000000E+00  0.00000000000E+00 -0.14260544543E+04  0.14260544543E+04  0.25500000920E-02 0. -1.
    10030    2    1    2    0    0  0.00000000000E+00  0.00000000000E+00  0.85651479119E+03  0.37086236998E+04  0.36083614230E+04 0.  0.
        3    1    3    3  502    0  0.11608395254E+03 -0.87493631182E+03  0.20455365404E+04  0.22278260215E+04  0.10100000352E+00 0.  1.
       -3    1    3    3    0  502 -0.11608395254E+03  0.87493631182E+03 -0.11890217492E+04  0.14807976783E+04  0.10100000352E+00 0. -1.
</event>
<event>
 5   0  0.9878977E-07  0.3598118E+04  0.7818609E-02  0.8090923E-01
       -2   -1    0    0    0  501  0.00000000000E+00  0.00000000000E+00  0.13633146258E+04  0.13633146258E+04  0.25500000920E-02 0. -1.
        2   -1    0    0  501    0  0.00000000000E+00  0.00000000000E+00 -0.23740762729E+04  0.23740762729E+04  0.25500000920E-02 0.  1.
    10030    2    1    2    0    0  0.00000000000E+00  0.00000000000E+00 -0.10107616470E+04  0.37373908987E+04  0.35981177889E+04 0.  0.
        5    1    3    3  502    0 -0.97862704083E+03 -0.46523616603E+03 -0.19970870676E+04  0.22721211281E+04  0.46999998093E+01 0.  1.
       -5    1    3    3    0  502  0.97862704083E+03  0.46523616603E+03  0.98632542059E+03  0.14652697706E+04  0.46999998093E+01 0. -1.
</event>
<event>
 5   0  0.3242047E-07  0.3611992E+04  0.7818609E-02  0.8087750E-01
       -1   -1    0    0    0  501  0.00000000000E+00  0.00000000000E+00  0.18836380888E+04  0.18836380888E+04  0.50400001928E-02 0. -1.
        1   -1    0    0  501    0  0.00000000000E+00  0.00000000000E+00 -0.17315538781E+04  0.17315538781E+04  0.50400001928E-02 0.  1.
    10030    2    1    2    0    0  0.00000000000E+00  0.00000000000E+00  0.15208421068E+03  0.36151919669E+04  0.36119916045E+04 0.  0.
        1    1    3    3  502    0  0.73701176023E+03 -0.15277491969E+04  0.69660508544E+03  0.18337018810E+04  0.50400001928E-02 0. -1.
       -1    1    3    3    0  502 -0.73701176023E+03  0.15277491969E+04 -0.54452087476E+03  0.17814900860E+04  0.50400001928E-02 0.  1.
</event>
<event>
 5   0  0.3278988E-07  0.3655976E+04  0.7818609E-02  0.8077789E-01
        1   -1    0    0  501    0  0.00000000000E+00  0.00000000000E+00  0.25364879825E+04  0.25364879825E+04  0.50400001928E-02 0.  1.
       -1   -1    0    0    0  501  0.00000000000E+00  0.00000000000E+00 -0.13173886830E+04  0.13173886831E+04  0.50400001928E-02 0. -1.
    10030    2    1    2    0    0  0.00000000000E+00  0.00000000000E+00  0.12190992994E+04  0.38538766655E+04  0.36559762378E+04 0.  0.
        4    1    3    3  502    0 -0.59168538358E+03 -0.61161343524E+03  0.23149546641E+04  0.24664102045E+04  0.12699999809E+01 0.  1.
       -4    1    3    3    0  502  0.59168538358E+03  0.61161343524E+03 -0.10958553646E+04  0.13874664610E+04  0.12699999809E+01 0. -1.
</event>
<event>
 5   0  0.3159875E-07  0.3582472E+04  0.7818609E-02  0.8094519E-01
        3   -1    0    0  501    0  0.00000000000E+00  0.00000000000E+00  0.19683332586E+04  0.19683332612E+04  0.10100000352E+00 0.  1.
       -3   -1    0    0    0  501  0.00000000000E+00  0.00000000000E+00 -0.16300727758E+04  0.16300727790E+04  0.10100000352E+00 0. -1.
    10030    2    1    2    0    0  0.00000000000E+00  0.00000000000E+00  0.33826048278E+03  0.35984060402E+04  0.35824720342E+04 0.  0.
        3    1    3    3  502    0  0.10742030317E+04 -0.33885471267E+03 -0.12298285331E+04  0.16676968851E+04  0.10100000352E+00 0. -1.
       -3    1    3    3    0  502 -0.10742030317E+04  0.33885471267E+03  0.15680890159E+04  0.19307091551E+04  0.10100000352E+00 0.  1.
</event>
<event>
 5   0  0.3159875E-07  0.2895623E+04  0.7818609E-02  0.8274181E-01
       -1   -1    0    0    0  501  0.00000000000E+00  0.00000000000E+00  0.21484723913E+04  0.21484723913E+04  0.50400001928E-02 0.  1.
        1   -1    0    0  501    0  0.00000000000E+00  0.00000000000E+00 -0.97565076668E+03  0.97565076669E+03  0.50400001928E-02 0. -1.
    10030    2    1    2    0    0  0.00000000000E+00  0.00000000000E+00  0.11728216246E+04  0.31241231580E+04  0.28956234118E+04 0.  0.
        5    1    3    3  502    0 -0.13228248002E+04  0.49313185717E+03  0.23999405097E+03  0.14320138670E+04  0.46999998093E+01 0.  1.
       -5    1    3    3    0  502  0.13228248002E+04 -0.49313185717E+03  0.93282757363E+03  0.16921092910E+04  0.46999998093E+01 0. -1.
</event>
<event>
 5   0  0.9878977E-07  0.3656258E+04  0.7818609E-02  0.8077725E-01
       -2   -1    0    0    0  501  0.00000000000E+00  0.00000000000E+00  0.12723346839E+04  0.12723346839E+04  0.25500000920E-02 0.  1.
        2   -1    0    0  501    0  0.00000000000E+00  0.00000000000E+00 -0.26267113149E+04  0.26267113149E+04  0.25500000920E-02 0. -1.
    10030    2    1    2    0    0  0.00000000000E+00  0.00000000000E+00 -0.13543766311E+04  0.38990459988E+04  0.36562581476E+04 0.  0.
        5    1    3    3  502    0 -0.18043189352E+03 -0.17390903701E+04 -0.10784192273E+03  0.17517542504E+04  0.46999998093E+01 0. -1.
       -5    1    3    3    0  502  0.18043189352E+03  0.17390903701E+04 -0.12465347083E+04  0.21472917484E+04  0.46999998093E+01 0.  1.
</event>
<event>
 5   0  0.9878977E-07  0.3609421E+04  0.7818609E-02  0.8088337E-01
       -2   -1    0    0    0  501  0.00000000000E+00  0.00000000000E+00  0.22572091467E+04  0.22572091467E+04  0.25500000920E-02 0.  1.
        2   -1    0    0  501    0  0.00000000000E+00  0.00000000000E+00 -0.14429237255E+04  0.14429237255E+04  0.25500000920E-02 0. -1.
    10030    2    1    2    0    0  0.00000000000E+00  0.00000000000E+00  0.81428542129E+03  0.37001328722E+04  0.36094213559E+04 0.  0.
        5    1    3    3  502    0  0.94870501112E+03  0.15018028172E+04  0.73374921237E+03  0.19219424800E+04  0.46999998093E+01 0. -1.
       -5    1    3    3    0  502 -0.94870501112E+03 -0.15018028172E+04  0.80536208914E+02  0.17781903922E+04  0.46999998093E+01 0.  1.
</event>
<event>
 5   0  0.9878336E-07  0.2842532E+04  0.7818609E-02  0.8290184E-01
       -2   -1    0    0    0  501  0.00000000000E+00  0.00000000000E+00  0.10849479062E+04  0.10849479062E+04  0.25500000920E-02 0.  1.
        2   -1    0    0  501    0  0.00000000000E+00  0.00000000000E+00 -0.18618375538E+04  0.18618375538E+04  0.25500000920E-02 0. -1.
    10030    2    1    2    0    0  0.00000000000E+00  0.00000000000E+00 -0.77688964763E+03  0.29467854600E+04  0.28425317980E+04 0.  0.
        3    1    3    3  502    0  0.50338513466E+03 -0.76894883679E+03 -0.15123271727E+04  0.17696927402E+04  0.10100000352E+00 0. -1.
       -3    1    3    3    0  502 -0.50338513466E+03  0.76894883679E+03  0.73543752507E+03  0.11770927198E+04  0.10100000352E+00 0.  1.
</event>
<event>
 5   0  0.9878977E-07  0.3581923E+04  0.7818609E-02  0.8094645E-01
        2   -1    0    0  501    0  0.00000000000E+00  0.00000000000E+00  0.28431758816E+04  0.28431758816E+04  0.25500000920E-02 0. -1.
       -2   -1    0    0    0  501  0.00000000000E+00  0.00000000000E+00 -0.11281552495E+04  0.11281552495E+04  0.25500000920E-02 0.  1.
    10030    2    1    2    0    0  0.00000000000E+00  0.00000000000E+00  0.17150206321E+04  0.39713311311E+04  0.35819233917E+04 0.  0.
        5    1    3    3  502    0 -0.53293485587E+03  0.17097109951E+04  0.83560207895E+03  0.19762044863E+04  0.46999998093E+01 0.  1.
       -5    1    3    3    0  502  0.53293485587E+03 -0.17097109951E+04  0.87941855313E+03  0.19951266448E+04  0.46999998093E+01 0. -1.
</event>
<event>
 5   0  0.3159875E-07  0.3520730E+04  0.7818609E-02  0.8108895E-01
        1   -1    0    0  501    0  0.00000000000E+00  0.00000000000E+00  0.16727851214E+04  0.16727851214E+04  0.50400001928E-02 0. -1.
       -1   -1    0    0    0  501  0.00000000000E+00  0.00000000000E+00 -0.18525304427E+04  0.18525304427E+04  0.50400001928E-02 0.  1.
    10030    2    1    2    0    0  0.00000000000E+00  0.00000000000E+00 -0.17974532127E+03  0.35253155641E+04  0.35207302433E+04 0.  0.
        2    1    3    3  502    0  0.39302103403E+03  0.13870540309E+02 -0.18079825009E+04  0.18502590761E+04  0.25500000920E-02 0.  1.
       -2    1    3    3    0  502 -0.39302103403E+03 -0.13870540309E+02  0.16282371796E+04  0.16750564881E+04  0.25500000920E-02 0. -1.
</event>
<event>
 5   0  0.9878336E-07  0.2826101E+04  0.7818609E-02  0.8295211E-01
       -2   -1    0    0    0  501  0.00000000000E+00  0.00000000000E+00  0.96760499092E+03  0.96760499092E+03  0.25500000920E-02 0. -1.
        2   -1    0    0  501    0  0.00000000000E+00  0.00000000000E+00 -0.20635602616E+04  0.20635602616E+04  0.25500000920E-02 0.  1.
    10030    2    1    2    0    0  0.00000000000E+00  0.00000000000E+00 -0.10959552707E+04  0.30311652525E+04  0.28261006409E+04 0.  0.
        3    1    3    3  502    0  0.70104148222E+03  0.10500489712E+04  0.13261212154E+03  0.12695069857E+04  0.10100000352E+00 0. -1.
       -3    1    3    3    0  502 -0.70104148222E+03 -0.10500489712E+04 -0.12285673922E+04  0.17616582668E+04  0.10100000352E+00 0.  1.
</event>
<event>
 5   0  0.9538919E-07  0.3543942E+04  0.7818609E-02  0.8103455E-01
       -2   -1    0    0    0  501  0.00000000000E+00  0.00000000000E+00  0.12846410880E+04  0.12846410880E+04  0.25500000920E-02 0.  1.
        2   -1    0    0  501    0  0.00000000000E+00  0.00000000000E+00 -0.24441695134E+04  0.24441695134E+04  0.25500000920E-02 0. -1.
    10030    2    1    2    0    0  0.00000000000E+00  0.00000000000E+00 -0.11595284254E+04  0.37288106015E+04  0.35439416378E+04 0.  0.
        4    1    3    3  502    0 -0.37150873086E+03  0.15610071600E+04  0.21119284058E+03  0.16184455874E+04  0.12699999809E+01 0.  1.
       -4    1    3    3    0  502  0.37150873086E+03 -0.15610071600E+04 -0.13707212660E+04  0.21103650141E+04  0.12699999809E+01 0. -1.
</event>
<event>
 5   0  0.9878336E-07  0.2853094E+04  0.7818609E-02  0.8286972E-01
       -2   -1    0    0    0  501  0.00000000000E+00  0.00000000000E+00  0.12074883210E+04  0.12074883210E+04  0.25500000920E-02 0. -1.
        2   -1    0    0  501    0  0.00000000000E+00  0.00000000000E+00 -0.16853462501E+04  0.16853462501E+04  0.25500000920E-02 0.  1.
    10030    2    1    2    0    0  0.00000000000E+00  0.00000000000E+00 -0.47785792912E+03  0.28928345712E+04  0.28530936991E+04 0.  0.
        3    1    3    3  502    0 -0.95246821036E+03  0.25862689186E+03  0.80544371508E+03  0.12739007612E+04  0.10100000352E+00 0. -1.
       -3    1    3    3    0  502  0.95246821036E+03 -0.25862689186E+03 -0.12833016442E+04  0.16189338100E+04  0.10100000352E+00 0.  1.
</event>
<event>
 5   0  0.3159875E-07  0.3622976E+04  0.7818609E-02  0.8085249E-01
        1   -1    0    0  501    0  0.00000000000E+00  0.00000000000E+00  0.22765196464E+04  0.22765196464E+04  0.50400001928E-02 0.  1.
       -1   -1    0    0    0  501  0.00000000000E+00  0.00000000000E+00 -0.14414494537E+04  0.14414494537E+04  0.50400001928E-02 0. -1.
    10030    2    1    2    0    0  0.00000000000E+00  0.00000000000E+00  0.83507019268E+03  0.37179691001E+04  0.36229755730E+04 0.  0.
        2    1    3    3  502    0  0.16968598199E+04 -0.31223412217E+03 -0.14890158728E+03  0.17317606873E+04  0.25500000920E-02 0. -1.
       -2    1    3    3    0  502 -0.16968598199E+04  0.31223412217E+03  0.98397177996E+03  0.19862084128E+04  0.25500000920E-02 0.  1.
</event>
<event>
 5   0  0.1031659E-06  0.3605169E+04  0.7818609E-02  0.8089309E-01
        2   -1    0    0  501    0  0.00000000000E+00  0.00000000000E+00  0.10815743039E+04  0.10815743039E+04  0.25500000920E-02 0. -1.
       -2   -1    0    0    0  501  0.00000000000E+00  0.00000000000E+00 -0.30042425097E+04  0.30042425097E+04  0.25500000920E-02 0.  1.
    10030    2    1    2    0    0  0.00000000000E+00  0.00000000000E+00 -0.19226682058E+04  0.40858168136E+04  0.36051693448E+04 0.  0.
        2    1    3    3  502    0  0.10183944690E+04 -0.50405747428E+03  0.62455127278E+03  0.12966362344E+04  0.25500000920E-02 0. -1.
       -2    1    3    3    0  502 -0.10183944690E+04  0.50405747428E+03 -0.25472194785E+04  0.27891805793E+04  0.25500000920E-02 0.  1.
</event>
<event>
 5   0  0.3278988E-07  0.3524879E+04  0.7818609E-02  0.8107919E-01
        1   -1    0    0  501    0  0.00000000000E+00  0.00000000000E+00  0.24958358781E+04  0.24958358781E+04  0.50400001928E-02 0.  1.
       -1   -1    0    0    0  501  0.00000000000E+00  0.00000000000E+00 -0.12445500837E+04  0.12445500838E+04  0.50400001928E-02 0. -1.
    10030    2    1    2    0    0  0.00000000000E+00  0.00000000000E+00  0.12512857943E+04  0.37403859618E+04  0.35248788638E+04 0.  0.
        4    1    3    3  502    0  0.52589921541E+03  0.13170268942E+03  0.24051558671E+04  0.24655003430E+04  0.12699999809E+01 0.  1.
       -4    1    3    3    0  502 -0.52589921541E+03 -0.13170268942E+03 -0.11538700728E+04  0.12748856188E+04  0.12699999809E+01 0. -1.
</event>
<event>
 5   0  0.3278988E-07  0.2813308E+04  0.7818609E-02  0.8299149E-01
        1   -1    0    0  501    0  0.00000000000E+00  0.00000000000E+00  0.19559317622E+04  0.19559317622E+04  0.50400001928E-02 0. -1.
       -1   -1    0    0    0  501  0.00000000000E+00  0.00000000000E+00 -0.10116279659E+04  0.10116279659E+04  0.50400001928E-02 0.  1.
    10030    2    1    2    0    0  0.00000000000E+00  0.00000000000E+00  0.94430379634E+03  0.29675597281E+04  0.28133078537E+04 0.  0.
        4    1    3    3  502    0  0.26934595140E+03  0.29448164395E+03  0.18949626489E+04  0.19365308502E+04  0.12699999809E+01 0. -1.
       -4    1    3    3    0  502 -0.26934595140E+03 -0.29448164395E+03 -0.95065885255E+03  0.10310288779E+04  0.12699999809E+01 0.  1.
</event>
<event>
 5   0  0.9538919E-07  0.2716393E+04  0.7818609E-02  0.8329705E-01
       -2   -1    0    0    0  501  0.00000000000E+00  0.00000000000E+00  0.11935878623E+04  0.11935878623E+04  0.25500000920E-02 0. -1.
        2   -1    0    0  501    0  0.00000000000E+00  0.00000000000E+00 -0.15455067451E+04  0.15455067451E+04  0.25500000920E-02 0.  1.
    10030    2    1    2    0    0  0.00000000000E+00  0.00000000000E+00 -0.35191888281E+03  0.27390946075E+04  0.27163932647E+04 0.  0.
        4    1    3    3  502    0 -0.54168026522E+03  0.16649532097E+02  0.10798407173E+04  0.12082020958E+04  0.12699999809E+01 0. -1.
       -4    1    3    3    0  502  0.54168026522E+03 -0.16649532097E+02 -0.14317596002E+04  0.15308925116E+04  0.12699999809E+01 0.  1.
</event>
<event>
 5   0  0.3159875E-07  0.3639765E+04  0.7818609E-02  0.8081443E-01
       -1   -1    0    0    0  501  0.00000000000E+00  0.00000000000E+00  0.19008663904E+04  0.19008663904E+04  0.50400001928E-02 0. -1.
        1   -1    0    0  501    0  0.00000000000E+00  0.00000000000E+00 -0.17423489451E+04  0.17423489451E+04  0.50400001928E-02 0.  1.
    10030    2    1    2    0    0  0.00000000000E+00  0.00000000000E+00  0.15851744522E+03  0.36432153355E+04  0.36397651298E+04 0.  0.
        5    1    3    3  502    0  0.13755051467E+04  0.11912788468E+04  0.51111598453E+02  0.18203829775E+04  0.46999998093E+01 0.  1.
       -5    1    3    3    0  502 -0.13755051467E+04 -0.11912788468E+04  0.10740584676E+03  0.18228323580E+04  0.46999998093E+01 0. -1.
</event>
<event>
 5   0  0.3159875E-07  0.2924028E+04  0.7818609E-02  0.8265764E-01
        1   -1    0    0  501    0  0.00000000000E+00  0.00000000000E+00  0.32524998343E+04  0.32524998343E+04  0.50400001928E-02 0. -1.
       -1   -1    0    0    0  501  0.00000000000E+00  0.00000000000E+00 -0.65718209879E+03  0.65718209880E+03  0.50400001928E-02 0.  1.
    10030    2    1    2    0    0  0.00000000000E+00  0.00000000000E+00  0.25953177355E+04  0.39096819331E+04  0.29240278162E+04 0.  0.
        2    1    3    3  502    0  0.50473148425E+03  0.62207638659E+03  0.29329296972E+04  0.30403633846E+04  0.25500000920E-02 0. -1.
       -2    1    3    3    0  502 -0.50473148425E+03 -0.62207638659E+03 -0.33761196172E+03  0.86931854843E+03  0.25500000920E-02 0.  1.
</event>
<event>
 5   0  0.9878336E-07  0.3462939E+04  0.7818609E-02  0.8122629E-01
       -2   -1    0    0    0  501  0.00000000000E+00  0.00000000000E+00  0.15802041321E+04  0.15802041321E+04  0.25500000920E-02 0. -1.
        2   -1    0    0  501    0  0.00000000000E+00  0.00000000000E+00 -0.18972150389E+04  0.18972150389E+04  0.25500000920E-02 0.  1.
    10030    2    1    2    0    0  0.00000000000E+00  0.00000000000E+00 -0.31701090679E+03  0.34774191710E+04  0.34629392394E+04 0.  0.
        3    1    3    3  502    0 -0.16148308337E+04 -0.43676155350E+03 -0.60708100349E+03  0.17796029420E+04  0.10100000352E+00 0.  1.
       -3    1    3    3    0  502  0.16148308337E+04  0.43676155350E+03  0.29007009670E+03  0.16978162290E+04  0.10100000352E+00 0. -1.
</event>
<event>
 5   0  0.9878336E-07  0.3088537E+04  0.7818609E-02  0.8218891E-01
        2   -1    0    0  501    0  0.00000000000E+00  0.00000000000E+00  0.30440571353E+04  0.30440571353E+04  0.25500000920E-02 0.  1.
       -2   -1    0    0    0  501  0.00000000000E+00  0.00000000000E+00 -0.78341659653E+03  0.78341659653E+03  0.25500000920E-02 0. -1.
    10030    2    1    2    0    0  0.00000000000E+00  0.00000000000E+00  0.22606405388E+04  0.38274737319E+04  0.30885367931E+04 0.  0.
        3    1    3    3  502    0 -0.10347077261E+04  0.94639007247E+03  0.32863795126E+03  0.14402351061E+04  0.10100000352E+00 0. -1.
       -3    1    3    3    0  502  0.10347077261E+04 -0.94639007247E+03  0.19320025876E+04  0.23872386258E+04  0.10100000352E+00 0.  1.
</event>
<event>
 5   0  0.9538919E-07  0.3743862E+04  0.7818609E-02  0.8058310E-01
        2   -1    0    0  501    0  0.00000000000E+00  0.00000000000E+00  0.27712745484E+04  0.27712745484E+04  0.25500000920E-02 0. -1.
       -2   -1    0    0    0  501  0.00000000000E+00  0.00000000000E+00 -0.12644455467E+04  0.12644455467E+04  0.25500000920E-02 0.  1.
    10030    2    1    2    0    0  0.00000000000E+00  0.00000000000E+00  0.15068290017E+04  0.40357200950E+04  0.37438620494E+04 0.  0.
        4    1    3    3  502    0 -0.67570413101E+03  0.33100680881E+03 -0.10942614528E+04  0.13279876958E+04  0.12699999809E+01 0.  1.
       -4    1    3    3    0  502  0.67570413101E+03 -0.33100680881E+03  0.26010904546E+04  0.27077323992E+04  0.12699999809E+01 0. -1.
</event>
<event>
 5   0  0.3242047E-07  0.3596598E+04  0.7818609E-02  0.8091271E-01
       -1   -1    0    0    0  501  0.00000000000E+00  0.00000000000E+00  0.12981781184E+04  0.12981781184E+04  0.50400001928E-02 0.  1.
        1   -1    0    0  501    0  0.00000000000E+00  0.00000000000E+00 -0.24910911785E+04  0.24910911785E+04  0.50400001928E-02 0. -1.
    10030    2    1    2    0    0  0.00000000000E+00  0.00000000000E+00 -0.11929130602E+04  0.37892692969E+04  0.35965984257E+04 0.  0.
        1    1    3    3  502    0 -0.25746006838E+03 -0.11326833035E+04  0.84990130900E+03  0.14393017015E+04  0.50400001928E-02 0.  1.
       -1    1    3    3    0  502  0.25746006838E+03  0.11326833035E+04 -0.20428143692E+04  0.23499675955E+04  0.50400001928E-02 0. -1.
</event>
<event>
 5   0  0.9538919E-07  0.3463215E+04  0.7818609E-02  0.8122563E-01
       -2   -1    0    0    0  501  0.00000000000E+00  0.00000000000E+00  0.26937311250E+04  0.26937311250E+04  0.25500000920E-02 0.  1.
        2   -1    0    0  501    0  0.00000000000E+00  0.00000000000E+00 -0.11131267386E+04  0.11131267386E+04  0.25500000920E-02 0. -1.
    10030    2    1    2    0    0  0.00000000000E+00  0.00000000000E+00  0.15806043863E+04  0.38068578636E+04  0.34632147735E+04 0.  0.
        4    1    3    3  502    0  0.36678185498E+03  0.13775212026E+04  0.18708866517E+04  0.23520867478E+04  0.12699999809E+01 0.  1.
       -4    1    3    3    0  502 -0.36678185498E+03 -0.13775212026E+04 -0.29028226534E+03  0.14547711158E+04  0.12699999809E+01 0. -1.
</event>
<event>
 5   0  0.3365378E-07  0.3304916E+04  0.7818609E-02  0.8161646E-01
       -1   -1    0    0    0  501  0.00000000000E+00  0.00000000000E+00  0.18363210304E+04  0.18363210304E+04  0.50400001928E-02 0. -1.
        1   -1    0    0  501    0  0.00000000000E+00  0.00000000000E+00 -0.14870047505E+04  0.14870047505E+04  0.50400001928E-02 0.  1.
    10030    2    1    2    0    0  0.00000000000E+00  0.00000000000E+00  0.34931627988E+03  0.33233257809E+04  0.33049163957E+04 0.  0.
        3    1    3    3  502    0 -0.10301230833E+04  0.12874520763E+04  0.28449877999E+03  0.16732082900E+04  0.10100000352E+00 0.  1.
       -3    1    3    3    0  502  0.10301230833E+04 -0.12874520763E+04  0.64817499886E+02  0.16501174910E+04  0.10100000352E+00 0. -1.
</event>
<event>
 5   0  0.9878336E-07  0.3591623E+04  0.7818609E-02  0.8092413E-01
       -2   -1    0    0    0  501  0.00000000000E+00  0.00000000000E+00  0.11695865040E+04  0.11695865040E+04  0.25500000920E-02 0. -1.
        2   -1    0    0  501    0  0.00000000000E+00  0.00000000000E+00 -0.27573328556E+04  0.27573328556E+04  0.25500000920E-02 0.  1.
    10030    2    1    2    0    0  0.00000000000E+00  0.00000000000E+00 -0.15877463516E+04  0.39269193597E+04  0.35916231958E+04 0.  0.
        3    1    3    3  502    0 -0.10350091050E+04 -0.13689406241E+04 -0.13721091716E+04  0.21972541657E+04  0.10100000352E+00 0. -1.
       -3    1    3    3    0  502  0.10350091050E+04  0.13689406241E+04 -0.21563718006E+03  0.17296651940E+04  0.10100000352E+00 0.  1.
</event>
<event>
 5   0  0.9878336E-07  0.3369526E+04  0.7818609E-02  0.8145426E-01
       -2   -1    0    0    0  501  0.00000000000E+00  0.00000000000E+00  0.24715063791E+04  0.24715063791E+04  0.25500000920E-02 0.  1.
        2   -1    0    0  501    0  0.00000000000E+00  0.00000000000E+00 -0.11484599407E+04  0.11484599407E+04  0.25500000920E-02 0. -1.
    10030    2    1    2    0    0  0.00000000000E+00  0.00000000000E+00  0.13230464384E+04  0.36199663199E+04  0.33695258240E+04 0.  0.
        3    1    3    3  502    0 -0.13543746618E+04 -0.21286783369E+03  0.17134749615E+04  0.21944566282E+04  0.10100000352E+00 0.  1.
       -3    1    3    3    0  502  0.13543746618E+04  0.21286783369E+03 -0.39042852310E+03  0.14255096917E+04  0.10100000352E+00 0. -1.
</event>
<event>
 5   0  0.3242047E-07  0.3557955E+04  0.7818609E-02  0.8100191E-01
        1   -1    0    0  501    0  0.00000000000E+00  0.00000000000E+00  0.14029564936E+04  0.14029564936E+04  0.50400001928E-02 0. -1.
       -1   -1    0    0    0  501  0.00000000000E+00  0.00000000000E+00 -0.22557802839E+04  0.22557802839E+04  0.50400001928E-02 0.  1.
    10030    2    1    2    0    0  0.00000000000E+00  0.00000000000E+00 -0.85282379029E+03  0.36587367774E+04  0.35579553664E+04 0.  0.
        1    1    3    3  502    0 -0.14686218860E+04 -0.69499022317E+03  0.31860982295E+03  0.16557094774E+04  0.50400001928E-02 0. -1.
       -1    1    3    3    0  502  0.14686218860E+04  0.69499022317E+03 -0.11714336132E+04  0.20030273000E+04  0.50400001928E-02 0.  1.
</event>
<event>
 5   0  0.3242047E-07  0.3615569E+04  0.7818609E-02  0.8086935E-01
        1   -1    0    0  501    0  0.00000000000E+00  0.00000000000E+00  0.27714564850E+04  0.27714564850E+04  0.50400001928E-02 0. -1.
       -1   -1    0    0    0  501  0.00000000000E+00  0.00000000000E+00 -0.11791939959E+04  0.11791939959E+04  0.50400001928E-02 0.  1.
    10030    2    1    2    0    0  0.00000000000E+00  0.00000000000E+00  0.15922624891E+04  0.39506504809E+04  0.36155690269E+04 0.  0.
        1    1    3    3  502    0  0.12965174886E+04 -0.11622736741E+04  0.26503253600E+03  0.17612722495E+04  0.50400001928E-02 0.  1.
       -1    1    3    3    0  502 -0.12965174886E+04  0.11622736741E+04  0.13272299531E+04  0.21893782314E+04  0.50400001928E-02 0. -1.
</event>
<event>
 5   0  0.1006019E-06  0.3448192E+04  0.7818609E-02  0.8126179E-01
       -2   -1    0    0    0  501  0.00000000000E+00  0.00000000000E+00  0.13845048931E+04  0.13845048931E+04  0.25500000920E-02 0. -1.
        2   -1    0    0  501    0  0.00000000000E+00  0.00000000000E+00 -0.21469821817E+04  0.21469821817E+04  0.25500000920E-02 0.  1.
    10030    2    1    2    0    0  0.00000000000E+00  0.00000000000E+00 -0.76247728862E+03  0.35314870748E+04  0.34481921849E+04 0.  0.
        1    1    3    3  502    0 -0.69448657232E+03 -0.15608157506E+04 -0.14313627133E+03  0.17143352644E+04  0.50400001928E-02 0. -1.
       -1    1    3    3    0  502  0.69448657232E+03  0.15608157506E+04 -0.61934101730E+03  0.18171518104E+04  0.50400001928E-02 0.  1.
</event>
<event>
 5   0  0.3278988E-07  0.3580630E+04  0.7818609E-02  0.8094943E-01
       -1   -1    0    0    0  501  0.00000000000E+00  0.00000000000E+00  0.18719687153E+04  0.18719687153E+04  0.50400001928E-02 0.  1.
        1   -1    0    0  501    0  0.00000000000E+00  0.00000000000E+00 -0.17122226611E+04  0.17122226611E+04  0.50400001928E-02 0. -1.
    10030    2    1    2    0    0  0.00000000000E+00  0.00000000000E+00  0.15974605419E+03  0.35841913764E+04  0.35806296961E+04 0.  0.
        4    1    3    3  502    0  0.51115029060E+03 -0.15097355677E+04 -0.73619833025E+03  0.17557236964E+04  0.12699999809E+01 0.  1.
       -4    1    3    3    0  502 -0.51115029060E+03  0.15097355677E+04  0.89594438443E+03  0.18284676800E+04  0.12699999809E+01 0. -1.
</event>
<event>
 5   0  0.9878977E-07  0.3615099E+04  0.7818609E-02  0.8087042E-01
       -2   -1    0    0    0  501  0.00000000000E+00  0.00000000000E+00  0.25021986706E+04  0.25021986706E+04  0.25500000920E-02 0.  1.
        2   -1    0    0  501    0  0.00000000000E+00  0.00000000000E+00 -0.13057458087E+04  0.13057458087E+04  0.25500000920E-02 0. -1.
    10030    2    1    2    0    0  0.00000000000E+00  0.00000000000E+00  0.11964528620E+04  0.38079444793E+04  0.36150991282E+04 0.  0.
        5    1    3    3  502    0  0.72049834796E+03  0.15716253167E+04  0.42753933350E+02  0.17294432613E+04  0.46999998093E+01 0. -1.
       -5    1    3    3    0  502 -0.72049834796E+03 -0.15716253167E+04  0.11536989286E+04  0.20785012180E+04  0.46999998093E+01 0.  1.
</event>
<event>
 5   0  0.3159875E-07  0.3595280E+04  0.7818609E-02  0.8091574E-01
       -1   -1    0    0    0  501  0.00000000000E+00  0.00000000000E+00  0.32831647611E+04  0.32831647611E+04  0.50400001928E-02 0. -1.
        1   -1    0    0  501    0  0.00000000000E+00  0.00000000000E+00 -0.98426672984E+03  0.98426672986E+03  0.50400001928E-02 0.  1.
    10030    2    1    2    0    0  0.00000000000E+00  0.00000000000E+00  0.22988980312E+04  0.42674314909E+04  0.35952801521E+04 0.  0.
        2    1    3    3  502    0 -0.54146728734E+03 -0.12226368598E+04  0.25755146891E+04  0.29019482469E+04  0.25500000920E-02 0. -1.
       -2    1    3    3    0  502  0.54146728734E+03  0.12226368598E+04 -0.27661665787E+03  0.13654832440E+04  0.25500000920E-02 0.  1.
</event>
<event>
 5   0  0.3159875E-07  0.3598484E+04  0.7818609E-02  0.8090839E-01
       -1   -1    0    0    0  501  0.00000000000E+00  0.00000000000E+00  0.28272857641E+04  0.28272857641E+04  0.50400001928E-02 0.  1.
        1   -1    0    0  501    0  0.00000000000E+00  0.00000000000E+00 -0.11450102814E+04  0.11450102814E+04  0.50400001928E-02 0. -1.
    10030    2    1    2    0    0  0.00000000000E+00  0.00000000000E+00  0.16822754826E+04  0.39722960455E+04  0.35984837187E+04 0.  0.
        5    1    3    3  502    0 -0.79232349744E+03  0.14899151520E+04  0.15209565598E+03  0.16943372933E+04  0.46999998093E+01 0. -1.
       -5    1    3    3    0  502  0.79232349744E+03 -0.14899151520E+04  0.15301798266E+04  0.22779587522E+04  0.46999998093E+01 0.  1.
</event>
<event>
 5   0  0.3242047E-07  0.3567665E+04  0.7818609E-02  0.8097939E-01
        1   -1    0    0  501    0  0.00000000000E+00  0.00000000000E+00  0.16597661800E+04  0.16597661801E+04  0.50400001928E-02 0.  1.
       -1   -1    0    0    0  501  0.00000000000E+00  0.00000000000E+00 -0.19171728285E+04  0.19171728285E+04  0.50400001928E-02 0. -1.
    10030    2    1    2    0    0  0.00000000000E+00  0.00000000000E+00 -0.25740664848E+03  0.35769390086E+04  0.35676651312E+04 0.  0.
        1    1    3    3  502    0  0.15485637319E+04 -0.88143703231E+03 -0.21305136749E+03  0.17945394281E+04  0.50400001928E-02 0.  1.
       -1    1    3    3    0  502 -0.15485637319E+04  0.88143703231E+03 -0.44355280987E+02  0.17823995805E+04  0.50400001928E-02 0. -1.
</event>
<event>
 5   0  0.9878977E-07  0.3592868E+04  0.7818609E-02  0.8092127E-01
       -2   -1    0    0    0  501  0.00000000000E+00  0.00000000000E+00  0.29007178879E+04  0.29007178879E+04  0.25500000920E-02 0. -1.
        2   -1    0    0  501    0  0.00000000000E+00  0.00000000000E+00 -0.11125439023E+04  0.11125439023E+04  0.25500000920E-02 0.  1.
    10030    2    1    2    0    0  0.00000000000E+00  0.00000000000E+00  0.17881739857E+04  0.40132617902E+04  0.35928684910E+04 0.  0.
        5    1    3    3  502    0 -0.12242120505E+04 -0.41919876828E+03 -0.49780104632E+03  0.13864525682E+04  0.46999998093E+01 0.  1.
       -5    1    3    3    0  502  0.12242120505E+04  0.41919876828E+03  0.22859750320E+04  0.26268092220E+04  0.46999998093E+01 0. -1.
</event>
<event>
 5   0  0.3159875E-07  0.3587016E+04  0.7818609E-02  0.8093472E-01
        1   -1    0    0  501    0  0.00000000000E+00  0.00000000000E+00  0.19024858493E+04  0.19024858493E+04  0.50400001928E-02 0.  1.
       -1   -1    0    0    0  501  0.00000000000E+00  0.00000000000E+00 -0.16907728166E+04  0.16907728166E+04  0.50400001928E-02 0. -1.
    10030    2    1    2    0    0  0.00000000000E+00  0.00000000000E+00  0.21171303275E+03  0.35932586659E+04  0.35870162297E+04 0.  0.
        2    1    3    3  502    0  0.81450279112E+03  0.77804413709E+03  0.15039586598E+04  0.18790048234E+04  0.25500000920E-02 0.  1.
       -2    1    3    3    0  502 -0.81450279112E+03 -0.77804413709E+03 -0.12922456270E+04  0.17142538425E+04  0.25500000920E-02 0. -1.
</event>
<event>
 5   0  0.3365378E-07  0.3644974E+04  0.7818609E-02  0.8080267E-01
       -1   -1    0    0    0  501  0.00000000000E+00  0.00000000000E+00  0.14076654013E+04  0.14076654013E+04  0.50400001928E-02 0. -1.
        1   -1    0    0  501    0  0.00000000000E+00  0.00000000000E+00 -0.23595517621E+04  0.23595517621E+04  0.50400001928E-02 0.  1.
    10030    2    1    2    0    0  0.00000000000E+00  0.00000000000E+00 -0.95188636073E+03  0.37672171634E+04  0.36449742815E+04 0.  0.
        3    1    3    3  502    0  0.12614007595E+04 -0.92821173378E+03  0.48738377751E+03  0.16401987244E+04  0.10100000352E+00 0. -1.
       -3    1    3    3    0  502 -0.12614007595E+04  0.92821173378E+03 -0.14392701382E+04  0.21270184390E+04  0.10100000352E+00 0.  1.
</event>
<event>
 5   0  0.9878336E-07  0.3621007E+04  0.7818609E-02  0.8085697E-01
        2   -1    0    0  501    0  0.00000000000E+00  0.00000000000E+00  0.23531364999E+04  0.23531364999E+04  0.25500000920E-02 0.  1.
       -2   -1    0    0    0  501  0.00000000000E+00  0.00000000000E+00 -0.13930014967E+04  0.13930014967E+04  0.25500000920E-02 0. -1.
    10030    2    1    2    0    0  0.00000000000E+00  0.00000000000E+00  0.96013500316E+03  0.37461379965E+04  0.36210068579E+04 0.  0.
        3    1    3    3  502    0  0.17456087167E+04  0.47515744161E+03  0.55320907039E+03  0.18918151791E+04  0.10100000352E+00 0. -1.
       -3    1    3    3    0  502 -0.17456087167E+04 -0.47515744161E+03  0.40692593277E+03  0.18543228174E+04  0.10100000352E+00 0.  1.
</event>
<event>
 5   0  0.9878977E-07  0.3544302E+04  0.7818609E-02  0.8103371E-01
       -2   -1    0    0    0  501  0.00000000000E+00  0.00000000000E+00  0.12681304477E+04  0.12681304477E+04  0.25500000920E-02 0. -1.
        2   -1    0    0  501    0  0.00000000000E+00  0.00000000000E+00 -0.24764947294E+04  0.24764947294E+04  0.25500000920E-02 0.  1.
    10030    2    1    2    0    0  0.00000000000E+00  0.00000000000E+00 -0.12083642816E+04  0.37446251771E+04  0.35443015504E+04 0.  0.
        5    1    3    3  502    0  0.14589630006E+04  0.97762056617E+03 -0.85460471182E+03  0.19531221959E+04  0.46999998093E+01 0.  1.
       -5    1    3    3    0  502 -0.14589630006E+04 -0.97762056617E+03 -0.35375956982E+03  0.17915029812E+04  0.46999998093E+01 0. -1.
</event>
<event>
 5   0  0.1006019E-06  0.3609575E+04  0.7818609E-02  0.8088302E-01
        2   -1    0    0  501    0  0.00000000000E+00  0.00000000000E+00  0.15972186152E+04  0.15972186152E+04  0.25500000920E-02 0.  1.
       -2   -1    0    0    0  501  0.00000000000E+00  0.00000000000E+00 -0.20393309409E+04  0.20393309409E+04  0.25500000920E-02 0. -1.
    10030    2    1    2    0    0  0.00000000000E+00  0.00000000000E+00 -0.44211232566E+03  0.36365495561E+04  0.36095746793E+04 0.  0.
        1    1    3    3  502    0  0.10950134379E+04 -0.13172069823E+03  0.12182039678E+04  0.16432971973E+04  0.50400001928E-02 0.  1.
       -1    1    3    3    0  502 -0.10950134379E+04  0.13172069823E+03 -0.16603162934E+04  0.19932523588E+04  0.50400001928E-02 0. -1.
</event>
<event>
 5   0  0.3278988E-07  0.3578188E+04  0.7818609E-02  0.8095506E-01
        1   -1    0    0  501    0  0.00000000000E+00  0.00000000000E+00  0.20189204930E+04  0.20189204930E+04  0.50400001928E-02 0. -1.
       -1   -1    0    0    0  501  0.00000000000E+00  0.00000000000E+00 -0.15854302019E+04  0.15854302019E+04  0.50400001928E-02 0.  1.
    10030    2    1    2    0    0  0.00000000000E+00  0.00000000000E+00  0.43349029107E+03  0.36043506949E+04  0.35781881029E+04 0.  0.
        4    1    3    3  502    0  0.76996762166E+03 -0.13424220731E+04  0.11210332308E+04  0.19109328293E+04  0.12699999809E+01 0. -1.
       -4    1    3    3    0  502 -0.76996762166E+03  0.13424220731E+04 -0.68754293970E+03  0.16934178656E+04  0.12699999809E+01 0.  1.
</event>
<event>
 5   0  0.3159875E-07  0.3631130E+04  0.7818609E-02  0.8083398E-01
       -1   -1    0    0    0  501  0.00000000000E+00  0.00000000000E+00  0.21037785469E+04  0.21037785469E+04  0.50400001928E-02 0.  1.
        1   -1    0    0  501    0  0.00000000000E+00  0.00000000000E+00 -0.15668360630E+04  0.15668360630E+04  0.50400001928E-02 0. -1.
    10030    2    1    2    0    0  0.00000000000E+00  0.00000000000E+00  0.53694248387E+03  0.36706146099E+04  0.36311299045E+04 0.  0.
        5    1    3    3  502    0 -0.14375234721E+04  0.46973164542E+03  0.12839505759E+04  0.19838529993E+04  0.46999998093E+01 0.  1.
       -5    1    3    3    0  502  0.14375234721E+04 -0.46973164542E+03 -0.74700809202E+03  0.16867616106E+04  0.46999998093E+01 0. -1.
</event>
<event>
 5   0  0.3365378E-07  0.3689247E+04  0.7818609E-02  0.8070349E-01
       -1   -1    0    0    0  501  0.00000000000E+00  0.00000000000E+00  0.23974479922E+04  0.23974479922E+04  0.50400001928E-02 0.  1.
        1   -1    0    0  501    0  0.00000000000E+00  0.00000000000E+00 -0.14192738001E+04  0.14192738002E+04  0.50400001928E-02 0. -1.
    10030    2    1    2    0    0  0.00000000000E+00  0.00000000000E+00  0.97817419203E+03  0.38167217923E+04  0.36892466020E+04 0.  0.
        3    1    3    3  502    0 -0.33971542425E+03 -0.13144358728E+03  0.23598702454E+04  0.23878173238E+04  0.10100000352E+00 0.  1.
       -3    1    3    3    0  502  0.33971542425E+03  0.13144358728E+03 -0.13816960534E+04  0.14289044686E+04  0.10100000352E+00 0. -1.
</event>
<event>
 5   0  0.1031659E-06  0.3578015E+04  0.7818609E-02  0.8095546E-01
       -2   -1    0    0    0  501  0.00000000000E+00  0.00000000000E+00  0.26659580893E+04  0.26659580893E+04  0.25500000920E-02 0.  1.
        2   -1    0    0  501    0  0.00000000000E+00  0.00000000000E+00 -0.12005246782E+04  0.12005246782E+04  0.25500000920E-02 0. -1.
    10030    2    1    2    0    0  0.00000000000E+00  0.00000000000E+00  0.14654334111E+04  0.38664827675E+04  0.35780153589E+04 0.  0.
        2    1    3    3  502    0  0.10373443502E+04  0.13395592651E+04  0.13535302952E+04  0.21685355855E+04  0.25500000920E-02 0.  1.
       -2    1    3    3    0  502 -0.10373443502E+04 -0.13395592651E+04  0.11190311597E+03  0.16979471820E+04  0.25500000920E-02 0. -1.
</event>
<event>
 5   0  0.3365378E-07  0.3598830E+04  0.7818609E-02  0.8090760E-01
       -1   -1    0    0    0  501  0.00000000000E+00  0.00000000000E+00  0.16436529204E+04  0.16436529204E+04  0.50400001928E-02 0. -1.
        1   -1    0    0  501    0  0.00000000000E+00  0.00000000000E+00 -0.19699383351E+04  0.19699383351E+04  0.50400001928E-02 0.  1.
    10030    2    1    2    0    0  0.00000000000E+00  0.00000000000E+00 -0.32628541475E+03  0.36135912555E+04  0.35988303086E+04 0.  0.
        3    1    3    3  502    0  0.79671422284E+03  0.10481446849E+04 -0.13947681966E+04  0.19180039535E+04  0.10100000352E+00 0.  1.
       -3    1    3    3    0  502 -0.79671422284E+03 -0.10481446849E+04  0.10684827818E+04  0.16955873020E+04  0.10100000352E+00 0. -1.
</event>
<event>
 5   0  0.3159875E-07  0.3558612E+04  0.7818609E-02  0.8100039E-01
       -1   -1    0    0    0  501  0.00000000000E+00  0.00000000000E+00  0.15750966323E+04  0.15750966323E+04  0.50400001928E-02 0.  1.
        1   -1    0    0  501    0  0.00000000000E+00  0.00000000000E+00 -0.20099903607E+04  0.20099903607E+04  0.50400001928E-02 0. -1.
    10030    2    1    2    0    0  0.00000000000E+00  0.00000000000E+00 -0.43489372844E+03  0.35850869930E+04  0.35586115540E+04 0.  0.
        2    1    3    3  502    0 -0.17686283554E+04 -0.18679966715E+03 -0.16237138437E+03  0.17858624924E+04  0.25500000920E-02 0. -1.
       -2    1    3    3    0  502  0.17686283554E+04  0.18679966715E+03 -0.27252234407E+03  0.17992245005E+04  0.25500000920E-02 0.  1.
</event>
<event>
 5   0  0.3278988E-07  0.3585457E+04  0.7818609E-02  0.8093831E-01
        1   -1    0    0  501    0  0.00000000000E+00  0.00000000000E+00  0.15393983308E+04  0.15393983309E+04  0.50400001928E-02 0.  1.
       -1   -1    0    0    0  501  0.00000000000E+00  0.00000000000E+00 -0.20877473521E+04  0.20877473521E+04  0.50400001928E-02 0. -1.
    10030    2    1    2    0    0  0.00000000000E+00  0.00000000000E+00 -0.54834902130E+03  0.36271456830E+04  0.35854566176E+04 0.  0.
        4    1    3    3  502    0  0.11536837472E+03  0.13603616772E+04 -0.14495702207E+04  0.19912682372E+04  0.12699999809E+01 0. -1.
       -4    1    3    3    0  502 -0.11536837472E+03 -0.13603616772E+04  0.90122119941E+03  0.16358774458E+04  0.12699999809E+01 0.  1.
</event>
<event>
 5   0  0.1006019E-06  0.3607131E+04  0.7818609E-02  0.8088860E-01
        2   -1    0    0  501    0  0.00000000000E+00  0.00000000000E+00  0.19434749823E+04  0.19434749823E+04  0.25500000920E-02 0.  1.
       -2   -1    0    0    0  501  0.00000000000E+00  0.00000000000E+00 -0.16737277566E+04  0.16737277566E+04  0.25500000920E-02 0. -1.
    10030    2    1    2    0    0  0.00000000000E+00  0.00000000000E+00  0.26974722567E+03  0.36172027389E+04  0.36071307280E+04 0.  0.
        1    1    3    3  502    0  0.72417925615E+03  0.10317499729E+04 -0.11586523698E+04  0.17121386964E+04  0.50400001928E-02 0. -1.
       -1    1    3    3    0  502 -0.72417925615E+03 -0.10317499729E+04  0.14283995955E+04  0.19050640425E+04  0.50400001928E-02 0.  1.
</event>
<event>
 5   0  0.9878336E-07  0.2754419E+04  0.7818609E-02  0.8317561E-01
       -2   -1    0    0    0  501  0.00000000000E+00  0.00000000000E+00  0.16994599300E+04  0.16994599300E+04  0.25500000920E-02 0.  1.
        2   -1    0    0  501    0  0.00000000000E+00  0.00000000000E+00 -0.11160641785E+04  0.11160641785E+04  0.25500000920E-02 0. -1.
    10030    2    1    2    0    0  0.00000000000E+00  0.00000000000E+00  0.58339575150E+03  0.28155241085E+04  0.27544192497E+04 0.  0.
        3    1    3    3  502    0  0.79035680265E+03 -0.23778942804E+02  0.14443107455E+04  0.16465912830E+04  0.10100000352E+00 0.  1.
       -3    1    3    3    0  502 -0.79035680265E+03  0.23778942804E+02 -0.86091499396E+03  0.11689328255E+04  0.10100000352E+00 0. -1.
</event>
<event>
 5   0  0.3159875E-07  0.3590903E+04  0.7818609E-02  0.8092579E-01
       -1   -1    0    0    0  501  0.00000000000E+00  0.00000000000E+00  0.15628152501E+04  0.15628152501E+04  0.50400001928E-02 0.  1.
        1   -1    0    0  501    0  0.00000000000E+00  0.00000000000E+00 -0.20627172953E+04  0.20627172953E+04  0.50400001928E-02 0. -1.
    10030    2    1    2    0    0  0.00000000000E+00  0.00000000000E+00 -0.49990204515E+03  0.36255325454E+04  0.35909029760E+04 0.  0.
        2    1    3    3  502    0  0.19362476698E+03 -0.69777938731E+03  0.14088353166E+04  0.15840465817E+04  0.25500000920E-02 0.  1.
       -2    1    3    3    0  502 -0.19362476698E+03  0.69777938731E+03 -0.19087373618E+04  0.20414859637E+04  0.25500000920E-02 0. -1.
</event>
<event>
 5   0  0.3159875E-07  0.3787573E+04  0.7818609E-02  0.8048827E-01
        1   -1    0    0  501    0  0.00000000000E+00  0.00000000000E+00  0.21591996424E+04  0.21591996424E+04  0.50400001928E-02 0.  1.
       -1   -1    0    0    0  501  0.00000000000E+00  0.00000000000E+00 -0.16609982947E+04  0.16609982947E+04  0.50400001928E-02 0. -1.
    10030    2    1    2    0    0  0.00000000000E+00  0.00000000000E+00  0.49820134771E+03  0.38201979372E+04  0.37875727975E+04 0.  0.
        5    1    3    3  502    0  0.70431728647E+03 -0.14910514857E+04  0.11883077123E+04  0.20325832534E+04  0.46999998093E+01 0.  1.
       -5    1    3    3    0  502 -0.70431728647E+03  0.14910514857E+04 -0.69010636459E+03  0.17876146837E+04  0.46999998093E+01 0. -1.
</event>
<event>
 5   0  0.9878977E-07  0.3576571E+04  0.7818609E-02  0.8095880E-01
       -2   -1    0    0    0  501  0.00000000000E+00  0.00000000000E+00  0.13769450976E+04  0.13769450976E+04  0.25500000920E-02 0. -1.
        2   -1    0    0  501    0  0.00000000000E+00  0.00000000000E+00 -0.23225073934E+04  0.23225073934E+04  0.25500000920E-02 0.  1.
    10030    2    1    2    0    0  0.00000000000E+00  0.00000000000E+00 -0.94556229575E+03  0.36994524910E+04  0.35765710782E+04 0.  0.
        5    1    3    3  502    0  0.10801078779E+04  0.13965479442E+04 -0.17846351645E+03  0.17745000719E+04  0.46999998093E+01 0.  1.
       -5    1    3    3    0  502 -0.10801078779E+04 -0.13965479442E+04 -0.76709877930E+03  0.19249524191E+04  0.46999998093E+01 0. -1.
</event>
<event>
 5   0  0.1006019E-06  0.3530084E+04  0.7818609E-02  0.8106697E-01
       -2   -1    0    0    0  501  0.00000000000E+00  0.00000000000E+00  0.16945110587E+04  0.16945110587E+04  0.25500000920E-02 0. -1.
        2   -1    0    0  501    0  0.00000000000E+00  0.00000000000E+00 -0.18385087340E+04  0.18385087340E+04  0.25500000920E-02 0.  1.
    10030    2    1    2    0    0  0.00000000000E+00  0.00000000000E+00 -0.14399767530E+03  0.35330197927E+04  0.35300840677E+04 0.  0.
        1    1    3    3  502    0  0.18227357030E+03 -0.64473256597E+03 -0.17062896696E+04  0.18331197922E+04  0.50400001928E-02 0.  1.
       -1    1    3    3    0  502 -0.18227357030E+03  0.64473256597E+03  0.15622919943E+04  0.16999000005E+04  0.50400001928E-02 0. -1.
</event>
<event>
 5   0  0.3159875E-07  0.3568820E+04  0.7818609E-02  0.8097671E-01
        3   -1    0    0  501    0  0.00000000000E+00  0.00000000000E+00  0.15091016227E+04  0.15091016261E+04  0.10100000352E+00 0.  1.
       -3   -1    0    0    0  501  0.00000000000E+00  0.00000000000E+00 -0.21099431929E+04  0.21099431953E+04  0.10100000352E+00 0. -1.
    10030    2    1    2    0    0  0.00000000000E+00  0.00000000000E+00 -0.60084157019E+03  0.36190448215E+04  0.35688198088E+04 0.  0.
        3    1    3    3  502    0 -0.13565996081E+04 -0.10954102319E+04  0.84169263358E+02  0.17456719474E+04  0.10100000352E+00 0.  1.
       -3    1    3    3    0  502  0.13565996081E+04  0.10954102319E+04 -0.68501083354E+03  0.18733728740E+04  0.10100000352E+00 0. -1.
</event>
<event>
 5   0  0.3278988E-07  0.3613636E+04  0.7818609E-02  0.8087375E-01
        1   -1    0    0  501    0  0.00000000000E+00  0.00000000000E+00  0.24508643158E+04  0.24508643158E+04  0.50400001928E-02 0. -1.
       -1   -1    0    0    0  501  0.00000000000E+00  0.00000000000E+00 -0.13320161985E+04  0.13320161985E+04  0.50400001928E-02 0.  1.
    10030    2    1    2    0    0  0.00000000000E+00  0.00000000000E+00  0.11188481173E+04  0.37828805144E+04  0.36136358251E+04 0.  0.
        4    1    3    3  502    0 -0.13837096326E+04  0.11583683323E+04  0.46509373482E+03  0.18635405377E+04  0.12699999809E+01 0.  1.
       -4    1    3    3    0  502  0.13837096326E+04 -0.11583683323E+04  0.65375438253E+03  0.19193399767E+04  0.12699999809E+01 0. -1.
</event>
<event>
 5   0  0.9538919E-07  0.3572123E+04  0.7818609E-02  0.8096907E-01
       -2   -1    0    0    0  501  0.00000000000E+00  0.00000000000E+00  0.98769900015E+03  0.98769900015E+03  0.25500000920E-02 0.  1.
        2   -1    0    0  501    0  0.00000000000E+00  0.00000000000E+00 -0.32297441793E+04  0.32297441793E+04  0.25500000920E-02 0. -1.
    10030    2    1    2    0    0  0.00000000000E+00  0.00000000000E+00 -0.22420451792E+04  0.42174431795E+04  0.35721226724E+04 0.  0.
        4    1    3    3  502    0  0.45310335257E+03  0.50887267876E+03  0.82822334512E+03  0.10724782392E+04  0.12699999809E+01 0.  1.
       -4    1    3    3    0  502 -0.45310335257E+03 -0.50887267876E+03 -0.30702685243E+04  0.31449649403E+04  0.12699999809E+01 0. -1.
</event>
<event>
 5   0  0.9878336E-07  0.3456975E+04  0.7818609E-02  0.8124063E-01
       -2   -1    0    0    0  501  0.00000000000E+00  0.00000000000E+00  0.13544811457E+04  0.13544811457E+04  0.25500000920E-02 0. -1.
        2   -1    0    0  501    0  0.00000000000E+00  0.00000000000E+00 -0.22057665166E+04  0.22057665166E+04  0.25500000920E-02 0.  1.
    10030    2    1    2    0    0  0.00000000000E+00  0.00000000000E+00 -0.85128537089E+03  0.35602476623E+04  0.34569750700E+04 0.  0.
        3    1    3    3  502    0  0.32350799617E+03 -0.74001470798E+03  0.11482085033E+04  0.14038026816E+04  0.10100000352E+00 0. -1.
       -3    1    3    3    0  502 -0.32350799617E+03  0.74001470798E+03 -0.19994938742E+04  0.21564449807E+04  0.10100000352E+00 0.  1.
</event>
<event>
 5   0  0.9878977E-07  0.3622550E+04  0.7818609E-02  0.8085346E-01
       -2   -1    0    0    0  501  0.00000000000E+00  0.00000000000E+00  0.12813526671E+04  0.12813526672E+04  0.25500000920E-02 0. -1.
        2   -1    0    0  501    0  0.00000000000E+00  0.00000000000E+00 -0.25603538517E+04  0.25603538517E+04  0.25500000920E-02 0.  1.
    10030    2    1    2    0    0  0.00000000000E+00  0.00000000000E+00 -0.12790011845E+04  0.38417065188E+04  0.36225495092E+04 0.  0.
        5    1    3    3  502    0 -0.73230855853E+03 -0.85781219705E+03  0.86348234268E+03  0.14204722582E+04  0.46999998093E+01 0. -1.
       -5    1    3    3    0  502  0.73230855853E+03  0.85781219705E+03 -0.21424835272E+04  0.24212342606E+04  0.46999998093E+01 0.  1.
</event>
<event>
 5   0  0.9878977E-07  0.3600226E+04  0.7818609E-02  0.8090440E-01
        2   -1    0    0  501    0  0.00000000000E+00  0.00000000000E+00  0.21017041788E+04  0.21017041788E+04  0.25500000920E-02 0. -1.
       -2   -1    0    0    0  501  0.00000000000E+00  0.00000000000E+00 -0.15417993075E+04  0.15417993075E+04  0.25500000920E-02 0.  1.
    10030    2    1    2    0    0  0.00000000000E+00  0.00000000000E+00  0.55990487133E+03  0.36435034862E+04  0.36002255748E+04 0.  0.
        5    1    3    3  502    0  0.51775746988E+03 -0.10028666702E+04  0.16991541844E+04  0.20398434715E+04  0.46999998093E+01 0. -1.
       -5    1    3    3    0  502 -0.51775746988E+03  0.10028666702E+04 -0.11392493130E+04  0.16036600148E+04  0.46999998093E+01 0.  1.
</event>
<event>
 5   0  0.9878977E-07  0.3538527E+04  0.7818609E-02  0.8104720E-01
        2   -1    0    0  501    0  0.00000000000E+00  0.00000000000E+00  0.10975066101E+04  0.10975066101E+04  0.25500000920E-02 0. -1.
       -2   -1    0    0    0  501  0.00000000000E+00  0.00000000000E+00 -0.28521870639E+04  0.28521870639E+04  0.25500000920E-02 0.  1.
    10030    2    1    2    0    0  0.00000000000E+00  0.00000000000E+00 -0.17546804538E+04  0.39496936740E+04  0.35385274654E+04 0.  0.
        5    1    3    3  502    0 -0.83487681691E+03  0.84384110110E+03 -0.23417230130E+04  0.26254096562E+04  0.46999998093E+01 0.  1.
       -5    1    3    3    0  502  0.83487681691E+03 -0.84384110110E+03  0.58704255922E+03  0.13242840177E+04  0.46999998093E+01 0. -1.
</event>
<event>
 5   0  0.3159875E-07  0.3555875E+04  0.7818609E-02  0.8100674E-01
        1   -1    0    0  501    0  0.00000000000E+00  0.00000000000E+00  0.20054835992E+04  0.20054835992E+04  0.50400001928E-02 0. -1.
       -1   -1    0    0    0  501  0.00000000000E+00  0.00000000000E+00 -0.15762096484E+04  0.15762096484E+04  0.50400001928E-02 0.  1.
    10030    2    1    2    0    0  0.00000000000E+00  0.00000000000E+00  0.42927395080E+03  0.35816932475E+04  0.35558754751E+04 0.  0.
        5    1    3    3  502    0 -0.12165722080E+04 -0.21581865950E+03  0.15023615917E+04  0.19451833007E+04  0.46999998093E+01 0. -1.
       -5    1    3    3    0  502  0.12165722080E+04  0.21581865950E+03 -0.10730876409E+04  0.16365099468E+04  0.46999998093E+01 0.  1.
</event>
<event>
 5   0  0.1006019E-06  0.3356839E+04  0.7818609E-02  0.8148581E-01
       -2   -1    0    0    0  501  0.00000000000E+00  0.00000000000E+00  0.13587334771E+04  0.13587334771E+04  0.25500000920E-02 0.  1.
        2   -1    0    0  501    0  0.00000000000E+00  0.00000000000E+00 -0.20733220930E+04  0.20733220930E+04  0.25500000920E-02 0. -1.
    10030    2    1    2    0    0  0.00000000000E+00  0.00000000000E+00 -0.71458861584E+03  0.34320555701E+04  0.33568390706E+04 0.  0.
        1    1    3    3  502    0 -0.97100314684E+03 -0.10226673380E+04  0.57326258026E+03  0.15222764471E+04  0.50400001928E-02 0.  1.
       -1    1    3    3    0  502  0.97100314684E+03  0.10226673380E+04 -0.12878511961E+04  0.19097791230E+04  0.50400001928E-02 0. -1.
</event>
<event>
 5   0  0.3159875E-07  0.3585429E+04  0.7818609E-02  0.8093838E-01
       -1   -1    0    0    0  501  0.00000000000E+00  0.00000000000E+00  0.24092286300E+04  0.24092286300E+04  0.50400001928E-02 0. -1.
        1   -1    0    0  501    0  0.00000000000E+00  0.00000000000E+00 -0.13339641637E+04  0.13339641637E+04  0.50400001928E-02 0.  1.
    10030    2    1    2    0    0  0.00000000000E+00  0.00000000000E+00  0.10752644663E+04  0.37431927938E+04  0.35854286520E+04 0.  0.
        2    1    3    3  502    0  0.16141741240E+04 -0.27114914037E+03  0.13010712545E+04  0.20909008509E+04  0.25500000920E-02 0. -1.
       -2    1    3    3    0  502 -0.16141741240E+04  0.27114914037E+03 -0.22580678825E+03  0.16522919429E+04  0.25500000920E-02 0.  1.
</event>
<event>
 5   0  0.3278988E-07  0.3627954E+04  0.7818609E-02  0.8084118E-01
       -1   -1    0    0    0  501  0.00000000000E+00  0.00000000000E+00  0.22036160902E+04  0.22036160902E+04  0.50400001928E-02 0. -1.
        1   -1    0    0  501    0  0.00000000000E+00  0.00000000000E+00 -0.14932330340E+04  0.14932330340E+04  0.50400001928E-02 0.  1.
    10030    2    1    2    0    0  0.00000000000E+00  0.00000000000E+00  0.71038305618E+03  0.36968491243E+04  0.36279538808E+04 0.  0.
        4    1    3    3  502    0 -0.44467244229E+03 -0.38711384392E+03 -0.13928799970E+04  0.15125167794E+04  0.12699999809E+01 0.  1.
       -4    1    3    3    0  502  0.44467244229E+03  0.38711384392E+03  0.21032630532E+04  0.21843323449E+04  0.12699999809E+01 0. -1.
</event>
<event>
 5   0  0.3365378E-07  0.3617553E+04  0.7818609E-02  0.8086483E-01
       -1   -1    0    0    0  501  0.00000000000E+00  0.00000000000E+00  0.17005013666E+04  0.17005013666E+04  0.50400001928E-02 0.  1.
        1   -1    0    0  501    0  0.00000000000E+00  0.00000000000E+00 -0.19239459850E+04  0.19239459850E+04  0.50400001928E-02 0. -1.
    10030    2    1    2    0    0  0.00000000000E+00  0.00000000000E+00 -0.22344461845E+03  0.36244473516E+04  0.36175531934E+04 0.  0.
        3    1    3    3  502    0  0.84637539974E+03  0.88045169709E+03  0.12250340938E+04  0.17298135880E+04  0.10100000352E+00 0.  1.
       -3    1    3    3    0  502 -0.84637539974E+03 -0.88045169709E+03 -0.14484787122E+04  0.18946337636E+04  0.10100000352E+00 0. -1.
</event>
<event>
 5   0  0.1006019E-06  0.3576133E+04  0.7818609E-02  0.8095981E-01
        2   -1    0    0  501    0  0.00000000000E+00  0.00000000000E+00  0.25237865416E+04  0.25237865416E+04  0.25500000920E-02 0.  1.
       -2   -1    0    0    0  501  0.00000000000E+00  0.00000000000E+00 -0.12668194789E+04  0.12668194789E+04  0.25500000920E-02 0. -1.
    10030    2    1    2    0    0  0.00000000000E+00  0.00000000000E+00  0.12569670627E+04  0.37906060205E+04  0.35761330800E+04 0.  0.
        1    1    3    3  502    0 -0.10220453839E+04 -0.14276888747E+04  0.98685749152E+03  0.20141400146E+04  0.50400001928E-02 0.  1.
       -1    1    3    3    0  502  0.10220453839E+04  0.14276888747E+04  0.27010957116E+03  0.17764660059E+04  0.50400001928E-02 0. -1.
</event>
<event>
 5   0  0.3278988E-07  0.3552713E+04  0.7818609E-02  0.8101410E-01
       -1   -1    0    0    0  501  0.00000000000E+00  0.00000000000E+00  0.26558425242E+04  0.26558425243E+04  0.50400001928E-02 0. -1.
        1   -1    0    0  501    0  0.00000000000E+00  0.00000000000E+00 -0.11881133881E+04  0.11881133881E+04  0.50400001928E-02 0.  1.
    10030    2    1    2    0    0  0.00000000000E+00  0.00000000000E+00  0.14677291362E+04  0.38439559123E+04  0.35527127999E+04 0.  0.
        4    1    3    3  502    0 -0.15060620451E+04 -0.65951724626E+03  0.62359414099E+01  0.16441491360E+04  0.12699999809E+01 0.  1.
       -4    1    3    3    0  502  0.15060620451E+04  0.65951724626E+03  0.14614931948E+04  0.21998067763E+04  0.12699999809E+01 0. -1.
</event>
<event>
 5   0  0.3278988E-07  0.3542654E+04  0.7818609E-02  0.8103755E-01
       -1   -1    0    0    0  501  0.00000000000E+00  0.00000000000E+00  0.22718679386E+04  0.22718679386E+04  0.50400001928E-02 0. -1.
        1   -1    0    0  501    0  0.00000000000E+00  0.00000000000E+00 -0.13810656781E+04  0.13810656781E+04  0.50400001928E-02 0.  1.
    10030    2    1    2    0    0  0.00000000000E+00  0.00000000000E+00  0.89080226048E+03  0.36529336167E+04  0.35426537144E+04 0.  0.
        4    1    3    3  502    0 -0.13772241775E+04 -0.66083701929E+03 -0.47925514089E+03  0.16009806695E+04  0.12699999809E+01 0.  1.
       -4    1    3    3    0  502  0.13772241775E+04  0.66083701929E+03  0.13700574014E+04  0.20519529471E+04  0.12699999809E+01 0. -1.
</event>
<event>
 5   0  0.3159875E-07  0.4088510E+04  0.7818609E-02  0.7986925E-01
       -1   -1    0    0    0  501  0.00000000000E+00  0.00000000000E+00  0.18609549496E+04  0.18609549496E+04  0.50400001928E-02 0. -1.
        1   -1    0    0  501    0  0.00000000000E+00  0.00000000000E+00 -0.22456098610E+04  0.22456098610E+04  0.50400001928E-02 0.  1.
    10030    2    1    2    0    0  0.00000000000E+00  0.00000000000E+00 -0.38465491133E+03  0.41065648106E+04  0.40885101373E+04 0.  0.
        5    1    3    3  502    0 -0.16619588271E+04  0.57039430327E+03 -0.12416897398E+04  0.21515743780E+04  0.46999998093E+01 0.  1.
       -5    1    3    3    0  502  0.16619588271E+04 -0.57039430327E+03  0.85703482845E+03  0.19549904326E+04  0.46999998093E+01 0. -1.
</event>
<event>
 5   0  0.1031659E-06  0.3595815E+04  0.7818609E-02  0.8091451E-01
        2   -1    0    0  501    0  0.00000000000E+00  0.00000000000E+00  0.15521223647E+04  0.15521223647E+04  0.25500000920E-02 0. -1.
       -2   -1    0    0    0  501  0.00000000000E+00  0.00000000000E+00 -0.20826142717E+04  0.20826142717E+04  0.25500000920E-02 0.  1.
    10030    2    1    2    0    0  0.00000000000E+00  0.00000000000E+00 -0.53049190696E+03  0.36347366364E+04  0.35958154503E+04 0.  0.
        2    1    3    3  502    0  0.16577055220E+04 -0.28291096366E+03  0.37759837167E+03  0.17235448184E+04  0.25500000920E-02 0. -1.
       -2    1    3    3    0  502 -0.16577055220E+04  0.28291096366E+03 -0.90809027863E+03  0.19111918180E+04  0.25500000920E-02 0.  1.
</event>
<event>
 5   0  0.9538919E-07  0.3710773E+04  0.7818609E-02  0.8065579E-01
       -2   -1    0    0    0  501  0.00000000000E+00  0.00000000000E+00  0.14351413202E+04  0.14351413202E+04  0.25500000920E-02 0. -1.
        2   -1    0    0  501    0  0.00000000000E+00  0.00000000000E+00 -0.23986898380E+04  0.23986898380E+04  0.25500000920E-02 0.  1.
    10030    2    1    2    0    0  0.00000000000E+00  0.00000000000E+00 -0.96354851777E+03  0.38338311582E+04  0.37107729119E+04 0.  0.
        4    1    3    3  502    0 -0.17318355234E+04 -0.60258785072E+03 -0.77416267657E+03  0.19904009296E+04  0.12699999809E+01 0.  1.
       -4    1    3    3    0  502  0.17318355234E+04  0.60258785072E+03 -0.18938584119E+03  0.18434302286E+04  0.12699999809E+01 0. -1.
</event>
<event>
 5   0  0.9878977E-07  0.3505856E+04  0.7818609E-02  0.8112403E-01
       -2   -1    0    0    0  501  0.00000000000E+00  0.00000000000E+00  0.10694106141E+04  0.10694106141E+04  0.25500000920E-02 0. -1.
        2   -1    0    0  501    0  0.00000000000E+00  0.00000000000E+00 -0.28733183818E+04  0.28733183818E+04  0.25500000920E-02 0.  1.
    10030    2    1    2    0    0  0.00000000000E+00  0.00000000000E+00 -0.18039077677E+04  0.39427289959E+04  0.35058563434E+04 0.  0.
        5    1    3    3  502    0  0.88122646238E+03  0.75289636316E+03 -0.23808605035E+04  0.26480052566E+04  0.46999998093E+01 0.  1.
       -5    1    3    3    0  502 -0.88122646238E+03 -0.75289636316E+03  0.57695273588E+03  0.12947237393E+04  0.46999998093E+01 0. -1.
</event>
<event>
 5   0  0.9878336E-07  0.3591147E+04  0.7818609E-02  0.8092523E-01
       -2   -1    0    0    0  501  0.00000000000E+00  0.00000000000E+00  0.18521906821E+04  0.18521906821E+04  0.25500000920E-02 0.  1.
        2   -1    0    0  501    0  0.00000000000E+00  0.00000000000E+00 -0.17406868615E+04  0.17406868615E+04  0.25500000920E-02 0. -1.
    10030    2    1    2    0    0  0.00000000000E+00  0.00000000000E+00  0.11150382058E+03  0.35928775437E+04  0.35911468839E+04 0.  0.
        3    1    3    3  502    0 -0.10239942493E+04  0.15232034815E+03  0.15235370688E+04  0.18419910210E+04  0.10100000352E+00 0.  1.
       -3    1    3    3    0  502  0.10239942493E+04 -0.15232034815E+03 -0.14120332483E+04  0.17508865227E+04  0.10100000352E+00 0. -1.
</event>
<event>
 5   0  0.9878977E-07  0.3614586E+04  0.7818609E-02  0.8087159E-01
        2   -1    0    0  501    0  0.00000000000E+00  0.00000000000E+00  0.25911063307E+04  0.25911063307E+04  0.25500000920E-02 0. -1.
       -2   -1    0    0    0  501  0.00000000000E+00  0.00000000000E+00 -0.12605846533E+04  0.12605846533E+04  0.25500000920E-02 0.  1.
    10030    2    1    2    0    0  0.00000000000E+00  0.00000000000E+00  0.13305216774E+04  0.38516909840E+04  0.36145864912E+04 0.  0.
        5    1    3    3  502    0  0.11570606741E+04 -0.13402425378E+04  0.10513059358E+04  0.20592002633E+04  0.46999998093E+01 0. -1.
       -5    1    3    3    0  502 -0.11570606741E+04  0.13402425378E+04  0.27921574159E+03  0.17924907207E+04  0.46999998093E+01 0.  1.
</event>
<event>
 5   0  0.1031659E-06  0.3465569E+04  0.7818609E-02  0.8121999E-01
        2   -1    0    0  501    0  0.00000000000E+00  0.00000000000E+00  0.15364068625E+04  0.15364068625E+04  0.25500000920E-02 0.  1.
       -2   -1    0    0    0  501  0.00000000000E+00  0.00000000000E+00 -0.19542621237E+04  0.19542621237E+04  0.25500000920E-02 0. -1.
    10030    2    1    2    0    0  0.00000000000E+00  0.00000000000E+00 -0.41785526125E+03  0.34906689862E+04  0.34655687775E+04 0.  0.
        2    1    3    3  502    0 -0.80496448926E+03  0.18531188887E+03  0.13253359758E+04  0.15616733890E+04  0.25500000920E-02 0.  1.
       -2    1    3    3    0  502  0.80496448926E+03 -0.18531188887E+03 -0.17431912370E+04  0.19289955972E+04  0.25500000920E-02 0. -1.
</event>
<event>
 5   0  0.3242047E-07  0.3586543E+04  0.7818609E-02  0.8093581E-01
       -1   -1    0    0    0  501  0.00000000000E+00  0.00000000000E+00  0.16775655219E+04  0.16775655220E+04  0.50400001928E-02 0.  1.
        1   -1    0    0  501    0  0.00000000000E+00  0.00000000000E+00 -0.19169580332E+04  0.19169580332E+04  0.50400001928E-02 0. -1.
    10030    2    1    2    0    0  0.00000000000E+00  0.00000000000E+00 -0.23939251122E+03  0.35945235551E+04  0.35865430172E+04 0.  0.
        1    1    3    3  502    0  0.26492464614E+03 -0.33125784239E+03  0.16265658960E+04  0.16809620579E+04  0.50400001928E-02 0.  1.
       -1    1    3    3    0  502 -0.26492464614E+03  0.33125784239E+03 -0.18659584072E+04  0.19135614972E+04  0.50400001928E-02 0. -1.
</event>
<event>
 5   0  0.3278988E-07  0.3579173E+04  0.7818609E-02  0.8095279E-01
       -1   -1    0    0    0  501  0.00000000000E+00  0.00000000000E+00  0.17265607585E+04  0.17265607585E+04  0.50400001928E-02 0. -1.
        1   -1    0    0  501    0  0.00000000000E+00  0.00000000000E+00 -0.18549126686E+04  0.18549126686E+04  0.50400001928E-02 0.  1.
    10030    2    1    2    0    0  0.00000000000E+00  0.00000000000E+00 -0.12835191009E+03  0.35814734271E+04  0.35791727670E+04 0.  0.
        4    1    3    3  502    0 -0.10757905383E+04  0.14271657204E+04 -0.15637928561E+03  0.17940410724E+04  0.12699999809E+01 0. -1.
       -4    1    3    3    0  502  0.10757905383E+04 -0.14271657204E+04  0.28027375524E+02  0.17874323546E+04  0.12699999809E+01 0.  1.
</event>
<event>
 5   0  0.9538919E-07  0.3377366E+04  0.7818609E-02  0.8143484E-01
       -2   -1    0    0    0  501  0.00000000000E+00  0.00000000000E+00  0.15441910167E+04  0.15441910167E+04  0.25500000920E-02 0.  1.
        2   -1    0    0  501    0  0.00000000000E+00  0.00000000000E+00 -0.18466956873E+04  0.18466956873E+04  0.25500000920E-02 0. -1.
    10030    2    1    2    0    0  0.00000000000E+00  0.00000000000E+00 -0.30250467054E+03  0.33908867040E+04  0.33773663651E+04 0.  0.
        4    1    3    3  502    0  0.22695609286E+03 -0.73735619285E+03 -0.16594129083E+04  0.18299879880E+04  0.12699999809E+01 0. -1.
       -4    1    3    3    0  502 -0.22695609286E+03  0.73735619285E+03  0.13569082377E+04  0.15608987160E+04  0.12699999809E+01 0.  1.
</event>
<event>
 5   0  0.9538919E-07  0.3616110E+04  0.7818609E-02  0.8086812E-01
        2   -1    0    0  501    0  0.00000000000E+00  0.00000000000E+00  0.11483884295E+04  0.11483884295E+04  0.25500000920E-02 0.  1.
       -2   -1    0    0    0  501  0.00000000000E+00  0.00000000000E+00 -0.28466521995E+04  0.28466521995E+04  0.25500000920E-02 0. -1.
    10030    2    1    2    0    0  0.00000000000E+00  0.00000000000E+00 -0.16982637700E+04  0.39950406290E+04  0.36161097598E+04 0.  0.
        4    1    3    3  502    0 -0.77469941196E+03 -0.12853233344E+04  0.26492431376E+03  0.15239428328E+04  0.12699999809E+01 0.  1.
       -4    1    3    3    0  502  0.77469941196E+03  0.12853233344E+04 -0.19631880838E+04  0.24710977961E+04  0.12699999809E+01 0. -1.
</event>
<event>
 5   0  0.3159875E-07  0.3615759E+04  0.7818609E-02  0.8086891E-01
       -1   -1    0    0    0  501  0.00000000000E+00  0.00000000000E+00  0.11465308462E+04  0.11465308462E+04  0.50400001928E-02 0.  1.
        1   -1    0    0  501    0  0.00000000000E+00  0.00000000000E+00 -0.28507115121E+04  0.28507115121E+04  0.50400001928E-02 0. -1.
    10030    2    1    2    0    0  0.00000000000E+00  0.00000000000E+00 -0.17041806659E+04  0.39972423583E+04  0.36157592189E+04 0.  0.
        2    1    3    3  502    0 -0.54657822055E+03  0.45350019274E+03 -0.26900308509E+04  0.27822070654E+04  0.25500000920E-02 0. -1.
       -2    1    3    3    0  502  0.54657822055E+03 -0.45350019274E+03  0.98585018492E+03  0.12150352929E+04  0.25500000920E-02 0.  1.
</event>
<event>
 5   0  0.3159875E-07  0.3816250E+04  0.7818609E-02  0.8042677E-01
        1   -1    0    0  501    0  0.00000000000E+00  0.00000000000E+00  0.12767948950E+04  0.12767948950E+04  0.50400001928E-02 0.  1.
       -1   -1    0    0    0  501  0.00000000000E+00  0.00000000000E+00 -0.28516254558E+04  0.28516254558E+04  0.50400001928E-02 0. -1.
    10030    2    1    2    0    0  0.00000000000E+00  0.00000000000E+00 -0.15748305608E+04  0.41284203509E+04  0.38162498999E+04 0.  0.
        2    1    3    3  502    0  0.34273204069E+03 -0.15453926037E+04  0.36521606333E+03  0.16245264923E+04  0.25500000920E-02 0.  1.
       -2    1    3    3    0  502 -0.34273204069E+03  0.15453926037E+04 -0.19400466241E+04  0.25038938586E+04  0.25500000920E-02 0. -1.
</event>
<event>
 5   0  0.1031659E-06  0.3177922E+04  0.7818609E-02  0.8194672E-01
        2   -1    0    0  501    0  0.00000000000E+00  0.00000000000E+00  0.23122326418E+04  0.23122326418E+04  0.25500000920E-02 0.  1.
       -2   -1    0    0    0  501  0.00000000000E+00  0.00000000000E+00 -0.10919304547E+04  0.10919304547E+04  0.25500000920E-02 0. -1.
    10030    2    1    2    0    0  0.00000000000E+00  0.00000000000E+00  0.12203021871E+04  0.34041630965E+04  0.31779221135E+04 0.  0.
        2    1    3    3  502    0  0.46041024814E+03  0.13948884813E+04 -0.38875832256E+02  0.14694226084E+04  0.25500000920E-02 0. -1.
       -2    1    3    3    0  502 -0.46041024814E+03 -0.13948884813E+04  0.12591780194E+04  0.19347404881E+04  0.25500000920E-02 0.  1.
</event>
<event>
 5   0  0.9878336E-07  0.3619929E+04  0.7818609E-02  0.8085942E-01
        2   -1    0    0  501    0  0.00000000000E+00  0.00000000000E+00  0.27209624612E+04  0.27209624612E+04  0.25500000920E-02 0. -1.
       -2   -1    0    0    0  501  0.00000000000E+00  0.00000000000E+00 -0.12039750807E+04  0.12039750807E+04  0.25500000920E-02 0.  1.
    10030    2    1    2    0    0  0.00000000000E+00  0.00000000000E+00  0.15169873805E+04  0.39249375420E+04  0.36199287280E+04 0.  0.
        3    1    3    3  502    0  0.19310359550E+03  0.95366980544E+03 -0.89626906742E+03  0.13229033781E+04  0.10100000352E+00 0.  1.
       -3    1    3    3    0  502 -0.19310359550E+03 -0.95366980544E+03  0.24132564479E+04  0.26020341639E+04  0.10100000352E+00 0. -1.
</event>
<event>
 5   0  0.1031659E-06  0.3668642E+04  0.7818609E-02  0.8074947E-01
        2   -1    0    0  501    0  0.00000000000E+00  0.00000000000E+00  0.24686275300E+04  0.24686275300E+04  0.25500000920E-02 0.  1.
       -2   -1    0    0    0  501  0.00000000000E+00  0.00000000000E+00 -0.13629979652E+04  0.13629979652E+04  0.25500000920E-02 0. -1.
    10030    2    1    2    0    0  0.00000000000E+00  0.00000000000E+00  0.11056295648E+04  0.38316254952E+04  0.36686424194E+04 0.  0.
        2    1    3    3  502    0  0.50898382777E+03 -0.11177480101E+04  0.19758079786E+04  0.23264226442E+04  0.25500000920E-02 0.  1.
       -2    1    3    3    0  502 -0.50898382777E+03  0.11177480101E+04 -0.87017841381E+03  0.15052028511E+04  0.25500000920E-02 0. -1.
</event>
<event>
 5   0  0.1006019E-06  0.3588558E+04  0.7818609E-02  0.8093118E-01
       -2   -1    0    0    0  501  0.00000000000E+00  0.00000000000E+00  0.21379983904E+04  0.21379983904E+04  0.25500000920E-02 0.  1.
        2   -1    0    0  501    0  0.00000000000E+00  0.00000000000E+00 -0.15058183673E+04  0.15058183673E+04  0.25500000920E-02 0. -1.
    10030    2    1    2    0    0  0.00000000000E+00  0.00000000000E+00  0.63218002309E+03  0.36438167578E+04  0.35885580645E+04 0.  0.
        1    1    3    3  502    0  0.32718582263E+03  0.14965279113E+04  0.12647086520E+04  0.19864879376E+04  0.50400001928E-02 0.  1.
       -1    1    3    3    0  502 -0.32718582263E+03 -0.14965279113E+04 -0.63252862894E+03  0.16573288202E+04  0.50400001928E-02 0. -1.
</event>
<event>
 5   0  0.3159875E-07  0.3673870E+04  0.7818609E-02  0.8073777E-01
       -1   -1    0    0    0  501  0.00000000000E+00  0.00000000000E+00  0.15034759440E+04  0.15034759440E+04  0.50400001928E-02 0.  1.
        1   -1    0    0  501    0  0.00000000000E+00  0.00000000000E+00 -0.22443522846E+04  0.22443522846E+04  0.50400001928E-02 0. -1.
    10030    2    1    2    0    0  0.00000000000E+00  0.00000000000E+00 -0.74087634057E+03  0.37478282287E+04  0.36738697146E+04 0.  0.
        5    1    3    3  502    0 -0.70418094961E+03  0.49189224679E+02  0.13595839885E+04  0.15319207230E+04  0.46999998093E+01 0.  1.
       -5    1    3    3    0  502  0.70418094961E+03 -0.49189224679E+02 -0.21004603291E+04  0.22159075057E+04  0.46999998093E+01 0. -1.
</event>
<event>
 5   0  0.9878977E-07  0.3687283E+04  0.7818609E-02  0.8070786E-01
       -2   -1    0    0    0  501  0.00000000000E+00  0.00000000000E+00  0.12983770966E+04  0.12983770966E+04  0.25500000920E-02 0.  1.
        2   -1    0    0  501    0  0.00000000000E+00  0.00000000000E+00 -0.26178938956E+04  0.26178938956E+04  0.25500000920E-02 0. -1.
    10030    2    1    2    0    0  0.00000000000E+00  0.00000000000E+00 -0.13195167990E+04  0.39162709922E+04  0.36872827260E+04 0.  0.
        5    1    3    3  502    0  0.21132881936E+03  0.17357340896E+04 -0.39033790320E+02  0.17489935468E+04  0.46999998093E+01 0.  1.
       -5    1    3    3    0  502 -0.21132881936E+03 -0.17357340896E+04 -0.12804830087E+04  0.21672774454E+04  0.46999998093E+01 0. -1.
</event>
<event>
 5   0  0.9538919E-07  0.3613888E+04  0.7818609E-02  0.8087318E-01
        2   -1    0    0  501    0  0.00000000000E+00  0.00000000000E+00  0.20848274170E+04  0.20848274170E+04  0.25500000920E-02 0. -1.
       -2   -1    0    0    0  501  0.00000000000E+00  0.00000000000E+00 -0.15660995399E+04  0.15660995399E+04  0.25500000920E-02 0.  1.
    10030    2    1    2    0    0  0.00000000000E+00  0.00000000000E+00  0.51872787706E+03  0.36509269569E+04  0.36138883539E+04 0.  0.
        4    1    3    3  502    0 -0.53645346630E+02 -0.15270816424E+04  0.12337119979E+04  0.19638999650E+04  0.12699999809E+01 0. -1.
       -4    1    3    3    0  502  0.53645346630E+02  0.15270816424E+04 -0.71498412087E+03  0.16870269920E+04  0.12699999809E+01 0.  1.
</event>
<event>
 5   0  0.1031659E-06  0.3609166E+04  0.7818609E-02  0.8088395E-01
       -2   -1    0    0    0  501  0.00000000000E+00  0.00000000000E+00  0.11131504140E+04  0.11131504140E+04  0.25500000920E-02 0.  1.
        2   -1    0    0  501    0  0.00000000000E+00  0.00000000000E+00 -0.29254978748E+04  0.29254978748E+04  0.25500000920E-02 0. -1.
    10030    2    1    2    0    0  0.00000000000E+00  0.00000000000E+00 -0.18123474608E+04  0.40386482889E+04  0.36091656490E+04 0.  0.
        2    1    3    3  502    0 -0.15560656542E+04 -0.19336738768E+03 -0.19056510467E+04  0.24678405902E+04  0.25500000920E-02 0. -1.
       -2    1    3    3    0  502  0.15560656542E+04  0.19336738768E+03  0.93303585915E+02  0.15708076986E+04  0.25500000920E-02 0.  1.
</event>
<event>
 5   0  0.3159875E-07  0.3591791E+04  0.7818609E-02  0.8092375E-01
        1   -1    0    0  501    0  0.00000000000E+00  0.00000000000E+00  0.24711243470E+04  0.24711243470E+04  0.50400001928E-02 0. -1.
       -1   -1    0    0    0  501  0.00000000000E+00  0.00000000000E+00 -0.13051716893E+04  0.13051716893E+04  0.50400001928E-02 0.  1.
    10030    2    1    2    0    0  0.00000000000E+00  0.00000000000E+00  0.11659526577E+04  0.37762960363E+04  0.35917914964E+04 0.  0.
        5    1    3    3  502    0  0.16443138857E+04  0.65183901876E+03  0.90967488743E+03  0.19890180371E+04  0.46999998093E+01 0. -1.
       -5    1    3    3    0  502 -0.16443138857E+04 -0.65183901876E+03  0.25627777024E+03  0.17872779992E+04  0.46999998093E+01 0.  1.
</event>
<event>
 5   0  0.3159875E-07  0.3634495E+04  0.7818609E-02  0.8082636E-01
       -1   -1    0    0    0  501  0.00000000000E+00  0.00000000000E+00  0.24346122101E+04  0.24346122101E+04  0.50400001928E-02 0. -1.
        1   -1    0    0  501    0  0.00000000000E+00  0.00000000000E+00 -0.13564328628E+04  0.13564328628E+04  0.50400001928E-02 0.  1.
    10030    2    1    2    0    0  0.00000000000E+00  0.00000000000E+00  0.10781793473E+04  0.37910450729E+04  0.36344947434E+04 0.  0.
        5    1    3    3  502    0  0.79674391661E+03 -0.16211704621E+04  0.33212070080E+03  0.18366602260E+04  0.46999998093E+01 0.  1.
       -5    1    3    3    0  502 -0.79674391661E+03  0.16211704621E+04  0.74605864646E+03  0.19543848469E+04  0.46999998093E+01 0. -1.
</event>
<event>
 5   0  0.1006019E-06  0.3522576E+04  0.7818609E-02  0.8108460E-01
       -2   -1    0    0    0  501  0.00000000000E+00  0.00000000000E+00  0.13033594325E+04  0.13033594325E+04  0.25500000920E-02 0. -1.
        2   -1    0    0  501    0  0.00000000000E+00  0.00000000000E+00 -0.23801076278E+04  0.23801076278E+04  0.25500000920E-02 0.  1.
    10030    2    1    2    0    0  0.00000000000E+00  0.00000000000E+00 -0.10767481953E+04  0.36834670603E+04  0.35225761749E+04 0.  0.
        1    1    3    3  502    0  0.77739203250E+03  0.15168392413E+04 -0.74259552670E+02  0.17060639312E+04  0.50400001928E-02 0. -1.
       -1    1    3    3    0  502 -0.77739203250E+03 -0.15168392413E+04 -0.10024886427E+04  0.19774031291E+04  0.50400001928E-02 0.  1.
</event>
<event>
 5   0  0.9878977E-07  0.3603034E+04  0.7818609E-02  0.8089797E-01
        2   -1    0    0  501    0  0.00000000000E+00  0.00000000000E+00  0.15807632381E+04  0.15807632381E+04  0.25500000920E-02 0. -1.
       -2   -1    0    0    0  501  0.00000000000E+00  0.00000000000E+00 -0.20530985947E+04  0.20530985947E+04  0.25500000920E-02 0.  1.
    10030    2    1    2    0    0  0.00000000000E+00  0.00000000000E+00 -0.47233535663E+03  0.36338618328E+04  0.36030336011E+04 0.  0.
        5    1    3    3  502    0 -0.41412927712E+03  0.16794727489E+04 -0.74377203380E+03  0.18829101680E+04  0.46999998093E+01 0.  1.
       -5    1    3    3    0  502  0.41412927712E+03 -0.16794727489E+04  0.27143667717E+03  0.17509516648E+04  0.46999998093E+01 0. -1.
</event>
<event>
 5   0  0.9878977E-07  0.3622058E+04  0.7818609E-02  0.8085458E-01
        2   -1    0    0  501    0  0.00000000000E+00  0.00000000000E+00  0.94012167624E+03  0.94012167624E+03  0.25500000920E-02 0. -1.
       -2   -1    0    0    0  501  0.00000000000E+00  0.00000000000E+00 -0.34887246991E+04  0.34887246991E+04  0.25500000920E-02 0.  1.
    10030    2    1    2    0    0  0.00000000000E+00  0.00000000000E+00 -0.25486030229E+04  0.44288463754E+04  0.36220578196E+04 0.  0.
        5    1    3    3  502    0 -0.14184742261E+02 -0.11132790259E+04  0.47221586201E+03  0.12093805467E+04  0.46999998093E+01 0. -1.
       -5    1    3    3    0  502  0.14184742261E+02  0.11132790259E+04 -0.30208188849E+04  0.32194658287E+04  0.46999998093E+01 0.  1.
</event>
<event>
 5   0  0.3278988E-07  0.3618970E+04  0.7818609E-02  0.8086160E-01
       -1   -1    0    0    0  501  0.00000000000E+00  0.00000000000E+00  0.17244336725E+04  0.17244336725E+04  0.50400001928E-02 0. -1.
        1   -1    0    0  501    0  0.00000000000E+00  0.00000000000E+00 -0.18987314901E+04  0.18987314901E+04  0.50400001928E-02 0.  1.
    10030    2    1    2    0    0  0.00000000000E+00  0.00000000000E+00 -0.17429781757E+03  0.36231651626E+04  0.36189703047E+04 0.  0.
        4    1    3    3  502    0 -0.14365140728E+04  0.35285432276E+03  0.95624722936E+03  0.17613884384E+04  0.12699999809E+01 0. -1.
       -4    1    3    3    0  502  0.14365140728E+04 -0.35285432276E+03 -0.11305450469E+04  0.18617767241E+04  0.12699999809E+01 0.  1.
</event>
<event>
 5   0  0.3278988E-07  0.2749868E+04  0.7818609E-02  0.8319004E-01
       -1   -1    0    0    0  501  0.00000000000E+00  0.00000000000E+00  0.11547518163E+04  0.11547518163E+04  0.50400001928E-02 0. -1.
        1   -1    0    0  501    0  0.00000000000E+00  0.00000000000E+00 -0.16370991261E+04  0.16370991262E+04  0.50400001928E-02 0.  1.
    10030    2    1    2    0    0  0.00000000000E+00  0.00000000000E+00 -0.48234730985E+03  0.27918509425E+04  0.27498677709E+04 0.  0.
        4    1    3    3  502    0  0.32532876327E+03  0.21860312780E+03 -0.15791771649E+04  0.16270919650E+04  0.12699999809E+01 0.  1.
       -4    1    3    3    0  502 -0.32532876327E+03 -0.21860312780E+03  0.10968298550E+04  0.11647589774E+04  0.12699999809E+01 0. -1.
</event>
<event>
 5   0  0.3159875E-07  0.3622436E+04  0.7818609E-02  0.8085372E-01
        1   -1    0    0  501    0  0.00000000000E+00  0.00000000000E+00  0.96865530886E+03  0.96865530887E+03  0.50400001928E-02 0. -1.
       -1   -1    0    0    0  501  0.00000000000E+00  0.00000000000E+00 -0.33866640280E+04  0.33866640280E+04  0.50400001928E-02 0.  1.
    10030    2    1    2    0    0  0.00000000000E+00  0.00000000000E+00 -0.24180087191E+04  0.43553193369E+04  0.36224356944E+04 0.  0.
        2    1    3    3  502    0  0.36155691926E+03  0.81845064648E+03  0.68437924366E+03  0.11264811653E+04  0.25500000920E-02 0. -1.
       -2    1    3    3    0  502 -0.36155691926E+03 -0.81845064648E+03 -0.31023879628E+04  0.32288381716E+04  0.25500000920E-02 0.  1.
</event>
<event>
 5   0  0.1006019E-06  0.3614792E+04  0.7818609E-02  0.8087112E-01
       -2   -1    0    0    0  501  0.00000000000E+00  0.00000000000E+00  0.20731621101E+04  0.20731621101E+04  0.25500000920E-02 0.  1.
        2   -1    0    0  501    0  0.00000000000E+00  0.00000000000E+00 -0.15756989701E+04  0.15756989701E+04  0.25500000920E-02 0. -1.
    10030    2    1    2    0    0  0.00000000000E+00  0.00000000000E+00  0.49746313996E+03  0.36488610802E+04  0.36147915026E+04 0.  0.
        1    1    3    3  502    0 -0.35465002391E+02  0.21843213587E+03 -0.15619724327E+04  0.15775703613E+04  0.50400001928E-02 0. -1.
       -1    1    3    3    0  502  0.35465002391E+02 -0.21843213587E+03  0.20594355726E+04  0.20712907189E+04  0.50400001928E-02 0.  1.
</event>
<event>
 5   0  0.9878977E-07  0.3563075E+04  0.7818609E-02  0.8099003E-01
       -2   -1    0    0    0  501  0.00000000000E+00  0.00000000000E+00  0.18220246508E+04  0.18220246508E+04  0.25500000920E-02 0. -1.
        2   -1    0    0  501    0  0.00000000000E+00  0.00000000000E+00 -0.17419501589E+04  0.17419501589E+04  0.25500000920E-02 0.  1.
    10030    2    1    2    0    0  0.00000000000E+00  0.00000000000E+00  0.80074491972E+02  0.35639748097E+04  0.35630751493E+04 0.  0.
        5    1    3    3  502    0  0.13410904583E+03 -0.13964345206E+04 -0.10583472260E+04  0.17573091781E+04  0.46999998093E+01 0.  1.
       -5    1    3    3    0  502 -0.13410904583E+03  0.13964345206E+04  0.11384217180E+04  0.18066656316E+04  0.46999998093E+01 0. -1.
</event>
<event>
 5   0  0.9878336E-07  0.3610676E+04  0.7818609E-02  0.8088051E-01
        2   -1    0    0  501    0  0.00000000000E+00  0.00000000000E+00  0.14706722619E+04  0.14706722619E+04  0.25500000920E-02 0. -1.
       -2   -1    0    0    0  501  0.00000000000E+00  0.00000000000E+00 -0.22161602809E+04  0.22161602809E+04  0.25500000920E-02 0.  1.
    10030    2    1    2    0    0  0.00000000000E+00  0.00000000000E+00 -0.74548801899E+03  0.36868325427E+04  0.36106760879E+04 0.  0.
        3    1    3    3  502    0 -0.11755051128E+04 -0.89121815171E+03  0.68995889249E+03  0.16285347241E+04  0.10100000352E+00 0. -1.
       -3    1    3    3    0  502  0.11755051128E+04  0.89121815171E+03 -0.14354469115E+04  0.20582978186E+04  0.10100000352E+00 0.  1.
</event>
<event>
 5   0  0.3242047E-07  0.2682402E+04  0.7818609E-02  0.8340737E-01
        1   -1    0    0  501    0  0.00000000000E+00  0.00000000000E+00  0.97452152369E+03  0.97452152370E+03  0.50400001928E-02 0. -1.
       -1   -1    0    0    0  501  0.00000000000E+00  0.00000000000E+00 -0.18458499026E+04  0.18458499026E+04  0.50400001928E-02 0.  1.
    10030    2    1    2    0    0  0.00000000000E+00  0.00000000000E+00 -0.87132837886E+03  0.28203714263E+04  0.26824022514E+04 0.  0.
        1    1    3    3  502    0  0.19365833477E+03  0.12912187467E+03  0.95312353096E+03  0.98113224105E+03  0.50400001928E-02 0. -1.
       -1    1    3    3    0  502 -0.19365833477E+03 -0.12912187467E+03 -0.18244519098E+04  0.18392391852E+04  0.50400001928E-02 0.  1.
</event>
<event>
 5   0  0.1006019E-06  0.3598022E+04  0.7818609E-02  0.8090945E-01
       -2   -1    0    0    0  501  0.00000000000E+00  0.00000000000E+00  0.14567101194E+04  0.14567101194E+04  0.25500000920E-02 0. -1.
        2   -1    0    0  501    0  0.00000000000E+00  0.00000000000E+00 -0.22217470618E+04  0.22217470618E+04  0.25500000920E-02 0.  1.
    10030    2    1    2    0    0  0.00000000000E+00  0.00000000000E+00 -0.76503694242E+03  0.36784571812E+04  0.35980224723E+04 0.  0.
        1    1    3    3  502    0  0.92152734204E+03  0.14723333915E+04  0.96423235422E+02  0.17396194119E+04  0.50400001928E-02 0. -1.
       -1    1    3    3    0  502 -0.92152734204E+03 -0.14723333915E+04 -0.86146017784E+03  0.19388377693E+04  0.50400001928E-02 0.  1.
</event>
<event>
 5   0  0.3278988E-07  0.3511791E+04  0.7818609E-02  0.8111001E-01
       -1   -1    0    0    0  501  0.00000000000E+00  0.00000000000E+00  0.14392412116E+04  0.14392412116E+04  0.50400001928E-02 0.  1.
        1   -1    0    0  501    0  0.00000000000E+00  0.00000000000E+00 -0.21422180956E+04  0.21422180956E+04  0.50400001928E-02 0. -1.
    10030    2    1    2    0    0  0.00000000000E+00  0.00000000000E+00 -0.70297688396E+03  0.35814593072E+04  0.35117907498E+04 0.  0.
        4    1    3    3  502    0 -0.12895244905E+04 -0.87213362159E+03 -0.11798060501E+04  0.19533136958E+04  0.12699999809E+01 0. -1.
       -4    1    3    3    0  502  0.12895244905E+04  0.87213362159E+03  0.47682916617E+03  0.16281456114E+04  0.12699999809E+01 0.  1.
</event>
<event>
 5   0  0.9878336E-07  0.3602349E+04  0.7818609E-02  0.8089954E-01
       -2   -1    0    0    0  501  0.00000000000E+00  0.00000000000E+00  0.17042817829E+04  0.17042817829E+04  0.25500000920E-02 0.  1.
        2   -1    0    0  501    0  0.00000000000E+00  0.00000000000E+00 -0.19035760724E+04  0.19035760724E+04  0.25500000920E-02 0. -1.
    10030    2    1    2    0    0  0.00000000000E+00  0.00000000000E+00 -0.19929428948E+03  0.36078578553E+04  0.36023492461E+04 0.  0.
        3    1    3    3  502    0  0.55836178735E+03 -0.63228396845E+03  0.14942257590E+04  0.17158850577E+04  0.10100000352E+00 0.  1.
       -3    1    3    3    0  502 -0.55836178735E+03  0.63228396845E+03 -0.16935200484E+04  0.18919727976E+04  0.10100000352E+00 0. -1.
</event>
<event>
 5   0  0.9538919E-07  0.3622552E+04  0.7818609E-02  0.8085345E-01
        2   -1    0    0  501    0  0.00000000000E+00  0.00000000000E+00  0.30816997740E+04  0.30816997740E+04  0.25500000920E-02 0. -1.
       -2   -1    0    0    0  501  0.00000000000E+00  0.00000000000E+00 -0.10645814476E+04  0.10645814476E+04  0.25500000920E-02 0.  1.
    10030    2    1    2    0    0  0.00000000000E+00  0.00000000000E+00  0.20171183264E+04  0.41462812216E+04  0.36225518113E+04 0.  0.
        4    1    3    3  502    0  0.24186934585E+03 -0.77634605774E+03  0.28610401081E+04  0.29743513738E+04  0.12699999809E+01 0. -1.
       -4    1    3    3    0  502 -0.24186934585E+03  0.77634605774E+03 -0.84392178162E+03  0.11719298478E+04  0.12699999809E+01 0.  1.
</event>
<event>
 5   0  0.3242047E-07  0.3431014E+04  0.7818609E-02  0.8130336E-01
       -1   -1    0    0    0  501  0.00000000000E+00  0.00000000000E+00  0.28980817662E+04  0.28980817663E+04  0.50400001928E-02 0. -1.
        1   -1    0    0  501    0  0.00000000000E+00  0.00000000000E+00 -0.10154869558E+04  0.10154869558E+04  0.50400001928E-02 0.  1.
    10030    2    1    2    0    0  0.00000000000E+00  0.00000000000E+00  0.18825948104E+04  0.39135687221E+04  0.34310139788E+04 0.  0.
        1    1    3    3  502    0  0.14259014137E+04 -0.55245642688E+03  0.54405597725E+02  0.15301512717E+04  0.50400001928E-02 0. -1.
       -1    1    3    3    0  502 -0.14259014137E+04  0.55245642688E+03  0.18281892127E+04  0.23834174504E+04  0.50400001928E-02 0.  1.
</event>
<event>
 5   0  0.1006019E-06  0.3626957E+04  0.7818609E-02  0.8084345E-01
       -2   -1    0    0    0  501  0.00000000000E+00  0.00000000000E+00  0.19375120904E+04  0.19375120904E+04  0.25500000920E-02 0.  1.
        2   -1    0    0  501    0  0.00000000000E+00  0.00000000000E+00 -0.16973850750E+04  0.16973850750E+04  0.25500000920E-02 0. -1.
    10030    2    1    2    0    0  0.00000000000E+00  0.00000000000E+00  0.24012701543E+03  0.36348971654E+04  0.36269569089E+04 0.  0.
        1    1    3    3  502    0  0.52501308840E+03  0.12931526829E+04 -0.10404099603E+04  0.17407858828E+04  0.50400001928E-02 0.  1.
       -1    1    3    3    0  502 -0.52501308840E+03 -0.12931526829E+04  0.12805369758E+04  0.18941112825E+04  0.50400001928E-02 0. -1.
</event>
<event>
 5   0  0.3159875E-07  0.3553822E+04  0.7818609E-02  0.8101152E-01
       -1   -1    0    0    0  501  0.00000000000E+00  0.00000000000E+00  0.27030561025E+04  0.27030561025E+04  0.50400001928E-02 0.  1.
        1   -1    0    0  501    0  0.00000000000E+00  0.00000000000E+00 -0.11680898843E+04  0.11680898843E+04  0.50400001928E-02 0. -1.
    10030    2    1    2    0    0  0.00000000000E+00  0.00000000000E+00  0.15349662182E+04  0.38711459868E+04  0.35538218807E+04 0.  0.
        5    1    3    3  502    0  0.32233802773E+03 -0.10283354482E+04  0.23064375789E+04  0.25457910349E+04  0.46999998093E+01 0.  1.
       -5    1    3    3    0  502 -0.32233802773E+03  0.10283354482E+04 -0.77147136069E+03  0.13253549519E+04  0.46999998093E+01 0. -1.
</event>
<event>
 5   0  0.3159875E-07  0.3488057E+04  0.7818609E-02  0.8116626E-01
       -1   -1    0    0    0  501  0.00000000000E+00  0.00000000000E+00  0.21959802214E+04  0.21959802214E+04  0.50400001928E-02 0.  1.
        1   -1    0    0  501    0  0.00000000000E+00  0.00000000000E+00 -0.13850921666E+04  0.13850921666E+04  0.50400001928E-02 0. -1.
    10030    2    1    2    0    0  0.00000000000E+00  0.00000000000E+00  0.81088805482E+03  0.35810723881E+04  0.34880567672E+04 0.  0.
        5    1    3    3  502    0 -0.22134689143E+03  0.66901491991E+03 -0.12324154905E+04  0.14196638478E+04  0.46999998093E+01 0. -1.
       -5    1    3    3    0  502  0.22134689143E+03 -0.66901491991E+03  0.20433035454E+04  0.21614085403E+04  0.46999998093E+01 0.  1.
</event>
<event>
 5   0  0.3242047E-07  0.3467453E+04  0.7818609E-02  0.8121547E-01
        1   -1    0    0  501    0  0.00000000000E+00  0.00000000000E+00  0.23886492688E+04  0.23886492688E+04  0.50400001928E-02 0.  1.
       -1   -1    0    0    0  501  0.00000000000E+00  0.00000000000E+00 -0.12583713039E+04  0.12583713039E+04  0.50400001928E-02 0. -1.
    10030    2    1    2    0    0  0.00000000000E+00  0.00000000000E+00  0.11302779649E+04  0.36470205727E+04  0.34674530682E+04 0.  0.
        1    1    3    3  502    0 -0.12706091463E+03 -0.62992348010E+03 -0.11284855050E+04  0.12986252738E+04  0.50400001928E-02 0. -1.
       -1    1    3    3    0  502  0.12706091463E+03  0.62992348010E+03  0.22587634699E+04  0.23483952989E+04  0.50400001928E-02 0.  1.
</event>
<event>
 5   0  0.3365378E-07  0.3528131E+04  0.7818609E-02  0.8107156E-01
        1   -1    0    0  501    0  0.00000000000E+00  0.00000000000E+00  0.22234365366E+04  0.22234365366E+04  0.50400001928E-02 0.  1.
       -1   -1    0    0    0  501  0.00000000000E+00  0.00000000000E+00 -0.13996020130E+04  0.13996020131E+04  0.50400001928E-02 0. -1.
    10030    2    1    2    0    0  0.00000000000E+00  0.00000000000E+00  0.82383452354E+03  0.36230385496E+04  0.35281305262E+04 0.  0.
        3    1    3    3  502    0 -0.12760365472E+04 -0.73435852030E+03 -0.58601358073E+03  0.15846020425E+04  0.10100000352E+00 0. -1.
       -3    1    3    3    0  502  0.12760365472E+04  0.73435852030E+03  0.14098481043E+04  0.20384365071E+04  0.10100000352E+00 0.  1.
</event>
<event>
 5   0  0.3365378E-07  0.3617298E+04  0.7818609E-02  0.8086541E-01
        1   -1    0    0  501    0  0.00000000000E+00  0.00000000000E+00  0.26376340967E+04  0.26376340968E+04  0.50400001928E-02 0.  1.
       -1   -1    0    0    0  501  0.00000000000E+00  0.00000000000E+00 -0.12402068621E+04  0.12402068621E+04  0.50400001928E-02 0. -1.
    10030    2    1    2    0    0  0.00000000000E+00  0.00000000000E+00  0.13974272346E+04  0.38778409589E+04  0.36172983878E+04 0.  0.
        3    1    3    3  502    0  0.35503309826E+03 -0.16890696267E+04  0.11921672827E+03  0.17300917152E+04  0.10100000352E+00 0. -1.
       -3    1    3    3    0  502 -0.35503309826E+03  0.16890696267E+04  0.12782105064E+04  0.21477492436E+04  0.10100000352E+00 0.  1.
</event>
<event>
 5   0  0.3278988E-07  0.3530940E+04  0.7818609E-02  0.8106496E-01
        1   -1    0    0  501    0  0.00000000000E+00  0.00000000000E+00  0.21534648714E+04  0.21534648714E+04  0.50400001928E-02 0. -1.
       -1   -1    0    0    0  501  0.00000000000E+00  0.00000000000E+00 -0.14473810578E+04  0.14473810578E+04  0.50400001928E-02 0.  1.
    10030    2    1    2    0    0  0.00000000000E+00  0.00000000000E+00  0.70608381363E+03  0.36008459291E+04  0.35309399674E+04 0.  0.
        4    1    3    3  502    0  0.38510633045E+03  0.12492519152E+04 -0.85701867779E+03  0.15631442225E+04  0.12699999809E+01 0.  1.
       -4    1    3    3    0  502 -0.38510633045E+03 -0.12492519152E+04  0.15631024914E+04  0.20377017066E+04  0.12699999809E+01 0. -1.
</event>
<event>
 5   0  0.3365378E-07  0.3524087E+04  0.7818609E-02  0.8108105E-01
        1   -1    0    0  501    0  0.00000000000E+00  0.00000000000E+00  0.15126432952E+04  0.15126432952E+04  0.50400001928E-02 0.  1.
       -1   -1    0    0    0  501  0.00000000000E+00  0.00000000000E+00 -0.20525639942E+04  0.20525639942E+04  0.50400001928E-02 0. -1.
    10030    2    1    2    0    0  0.00000000000E+00  0.00000000000E+00 -0.53992069895E+03  0.35652072894E+04  0.35240869251E+04 0.  0.
        3    1    3    3  502    0 -0.10867149986E+04  0.12336430640E+04 -0.91137122785E+03  0.18797399349E+04  0.10100000352E+00 0. -1.
       -3    1    3    3    0  502  0.10867149986E+04 -0.12336430640E+04  0.37145052889E+03  0.16854673546E+04  0.10100000352E+00 0.  1.
</event>
<event>
 5   0  0.3242047E-07  0.3617125E+04  0.7818609E-02  0.8086580E-01
        1   -1    0    0  501    0  0.00000000000E+00  0.00000000000E+00  0.28476259935E+04  0.28476259935E+04  0.50400001928E-02 0. -1.
       -1   -1    0    0    0  501  0.00000000000E+00  0.00000000000E+00 -0.11486404341E+04  0.11486404341E+04  0.50400001928E-02 0.  1.
    10030    2    1    2    0    0  0.00000000000E+00  0.00000000000E+00  0.16989855594E+04  0.39962664276E+04  0.36171250226E+04 0.  0.
        1    1    3    3  502    0 -0.52821695927E+02 -0.26070569638E+03  0.28258955576E+04  0.28383874461E+04  0.50400001928E-02 0. -1.
       -1    1    3    3    0  502  0.52821695927E+02  0.26070569638E+03 -0.11269099982E+04  0.11578789815E+04  0.50400001928E-02 0.  1.
</event>
<event>
 5   0  0.3159875E-07  0.3588846E+04  0.7818609E-02  0.8093052E-01
        1   -1    0    0  501    0  0.00000000000E+00  0.00000000000E+00  0.30644481382E+04  0.30644481382E+04  0.50400001928E-02 0. -1.
       -1   -1    0    0    0  501  0.00000000000E+00  0.00000000000E+00 -0.10507448737E+04  0.10507448737E+04  0.50400001928E-02 0.  1.
    10030    2    1    2    0    0  0.00000000000E+00  0.00000000000E+00  0.20137032646E+04  0.41151930119E+04  0.35888455926E+04 0.  0.
        5    1    3    3  502    0  0.82710776592E+03  0.76898851147E+03 -0.59210701266E+03  0.12751719067E+04  0.46999998093E+01 0.  1.
       -5    1    3    3    0  502 -0.82710776592E+03 -0.76898851147E+03  0.26058102772E+04  0.28400211052E+04  0.46999998093E+01 0. -1.
</event>
<event>
 5   0  0.9878336E-07  0.3526106E+04  0.7818609E-02  0.8107631E-01
       -2   -1    0    0    0  501  0.00000000000E+00  0.00000000000E+00  0.16672231266E+04  0.16672231266E+04  0.25500000920E-02 0.  1.
        2   -1    0    0  501    0  0.00000000000E+00  0.00000000000E+00 -0.18643909540E+04  0.18643909540E+04  0.25500000920E-02 0. -1.
    10030    2    1    2    0    0  0.00000000000E+00  0.00000000000E+00 -0.19716782747E+03  0.35316140806E+04  0.35261059063E+04 0.  0.
        3    1    3    3  502    0  0.24838397284E+03  0.54532957202E+03  0.15621005336E+04  0.16730920559E+04  0.10100000352E+00 0.  1.
       -3    1    3    3    0  502 -0.24838397284E+03 -0.54532957202E+03 -0.17592683611E+04  0.18585220248E+04  0.10100000352E+00 0. -1.
</event>
<event>
 5   0  0.1031659E-06  0.3611496E+04  0.7818609E-02  0.8087863E-01
        2   -1    0    0  501    0  0.00000000000E+00  0.00000000000E+00  0.16938591807E+04  0.16938591807E+04  0.25500000920E-02 0.  1.
       -2   -1    0    0    0  501  0.00000000000E+00  0.00000000000E+00 -0.19250277079E+04  0.19250277079E+04  0.25500000920E-02 0. -1.
    10030    2    1    2    0    0  0.00000000000E+00  0.00000000000E+00 -0.23116852717E+03  0.36188868886E+04  0.36114960093E+04 0.  0.
        2    1    3    3  502    0  0.36582550204E+03  0.13787577394E+04  0.99389645559E+03  0.17385716454E+04  0.25500000920E-02 0.  1.
       -2    1    3    3    0  502 -0.36582550204E+03 -0.13787577394E+04 -0.12250649828E+04  0.18803152432E+04  0.25500000920E-02 0. -1.
</event>
<event>
 5   0  0.3159875E-07  0.3184943E+04  0.7818609E-02  0.8192805E-01
       -1   -1    0    0    0  501  0.00000000000E+00  0.00000000000E+00  0.13431885947E+04  0.13431885947E+04  0.50400001928E-02 0.  1.
        1   -1    0    0  501    0  0.00000000000E+00  0.00000000000E+00 -0.18880192761E+04  0.18880192761E+04  0.50400001928E-02 0. -1.
    10030    2    1    2    0    0  0.00000000000E+00  0.00000000000E+00 -0.54483068142E+03  0.32312078708E+04  0.31849433013E+04 0.  0.
        5    1    3    3  502    0  0.58842902767E+02  0.96747312245E+03  0.10094563146E+04  0.13994609216E+04  0.46999998093E+01 0.  1.
       -5    1    3    3    0  502 -0.58842902767E+02 -0.96747312245E+03 -0.15542869960E+04  0.18317469492E+04  0.46999998093E+01 0. -1.
</event>
<event>
 5   0  0.9878336E-07  0.3656181E+04  0.7818609E-02  0.8077743E-01
       -2   -1    0    0    0  501  0.00000000000E+00  0.00000000000E+00  0.15761781206E+04  0.15761781206E+04  0.25500000920E-02 0.  1.
        2   -1    0    0  501    0  0.00000000000E+00  0.00000000000E+00 -0.21202649580E+04  0.21202649580E+04  0.25500000920E-02 0. -1.
    10030    2    1    2    0    0  0.00000000000E+00  0.00000000000E+00 -0.54408683746E+03  0.36964430786E+04  0.36561811972E+04 0.  0.
        3    1    3    3  502    0 -0.16397309323E+04  0.24643939005E+03  0.50615040602E+03  0.17336776364E+04  0.10100000352E+00 0.  1.
       -3    1    3    3    0  502  0.16397309323E+04 -0.24643939005E+03 -0.10502372435E+04  0.19627654422E+04  0.10100000352E+00 0. -1.
</event>
<event>
 5   0  0.1006019E-06  0.3644086E+04  0.7818609E-02  0.8080467E-01
       -2   -1    0    0    0  501  0.00000000000E+00  0.00000000000E+00  0.13337163043E+04  0.13337163043E+04  0.25500000920E-02 0. -1.
        2   -1    0    0  501    0  0.00000000000E+00  0.00000000000E+00 -0.24891649876E+04  0.24891649876E+04  0.25500000920E-02 0.  1.
    10030    2    1    2    0    0  0.00000000000E+00  0.00000000000E+00 -0.11554486833E+04  0.38228812918E+04  0.36440855796E+04 0.  0.
        1    1    3    3  502    0 -0.87229110682E+03  0.51788902600E+03  0.10100546822E+04  0.14315415744E+04  0.50400001928E-02 0. -1.
       -1    1    3    3    0  502  0.87229110682E+03 -0.51788902600E+03 -0.21655033655E+04  0.23913397174E+04  0.50400001928E-02 0.  1.
</event>
<event>
 5   0  0.9538919E-07  0.2571882E+04  0.7818609E-02  0.8377815E-01
        2   -1    0    0  501    0  0.00000000000E+00  0.00000000000E+00  0.15836382960E+04  0.15836382960E+04  0.25500000920E-02 0.  1.
       -2   -1    0    0    0  501  0.00000000000E+00  0.00000000000E+00 -0.10442059768E+04  0.10442059768E+04  0.25500000920E-02 0. -1.
    10030    2    1    2    0    0  0.00000000000E+00  0.00000000000E+00  0.53943231918E+03  0.26278442728E+04  0.25718822475E+04 0.  0.
        4    1    3    3  502    0 -0.71961266401E+03  0.16121473726E+03  0.13461142937E+04  0.15348804130E+04  0.12699999809E+01 0.  1.
       -4    1    3    3    0  502  0.71961266401E+03 -0.16121473726E+03 -0.80668197453E+03  0.10929638597E+04  0.12699999809E+01 0. -1.
</event>
<event>
 5   0  0.1031659E-06  0.3376429E+04  0.7818609E-02  0.8143716E-01
        2   -1    0    0  501    0  0.00000000000E+00  0.00000000000E+00  0.16072746272E+04  0.16072746272E+04  0.25500000920E-02 0. -1.
       -2   -1    0    0    0  501  0.00000000000E+00  0.00000000000E+00 -0.17732306275E+04  0.17732306275E+04  0.25500000920E-02 0.  1.
    10030    2    1    2    0    0  0.00000000000E+00  0.00000000000E+00 -0.16595600032E+03  0.33805052547E+04  0.33764292356E+04 0.  0.
        2    1    3    3  502    0 -0.74662640428E+03  0.15001634021E+04  0.12251931989E+03  0.16801643385E+04  0.25500000920E-02 0.  1.
       -2    1    3    3    0  502  0.74662640428E+03 -0.15001634021E+04 -0.28847532021E+03  0.17003409161E+04  0.25500000920E-02 0. -1.
</event>
<event>
 5   0  0.3159875E-07  0.3556247E+04  0.7818609E-02  0.8100588E-01
        1   -1    0    0  501    0  0.00000000000E+00  0.00000000000E+00  0.18265181090E+04  0.18265181090E+04  0.50400001928E-02 0.  1.
       -1   -1    0    0    0  501  0.00000000000E+00  0.00000000000E+00 -0.17310107343E+04  0.17310107344E+04  0.50400001928E-02 0. -1.
    10030    2    1    2    0    0  0.00000000000E+00  0.00000000000E+00  0.95507374631E+02  0.35575288433E+04  0.35562465905E+04 0.  0.
        5    1    3    3  502    0  0.11647902700E+04  0.21596758663E+03 -0.12787417683E+04  0.17431525956E+04  0.46999998093E+01 0. -1.
       -5    1    3    3    0  502 -0.11647902700E+04 -0.21596758663E+03  0.13742491429E+04  0.18143762477E+04  0.46999998093E+01 0.  1.
</event>
<event>
 5   0  0.1031659E-06  0.3627206E+04  0.7818609E-02  0.8084288E-01
       -2   -1    0    0    0  501  0.00000000000E+00  0.00000000000E+00  0.12613462199E+04  0.12613462200E+04  0.25500000920E-02 0. -1.
        2   -1    0    0  501    0  0.00000000000E+00  0.00000000000E+00 -0.26076557660E+04  0.26076557660E+04  0.25500000920E-02 0.  1.
    10030    2    1    2    0    0  0.00000000000E+00  0.00000000000E+00 -0.13463095461E+04  0.38690019860E+04  0.36272064972E+04 0.  0.
        2    1    3    3  502    0 -0.16940700735E+04  0.45878762101E+03 -0.11605587376E+04  0.21041045788E+04  0.25500000920E-02 0. -1.
       -2    1    3    3    0  502  0.16940700735E+04 -0.45878762101E+03 -0.18575080843E+03  0.17648974072E+04  0.25500000920E-02 0.  1.
</event>
<event>
 5   0  0.3159875E-07  0.3636828E+04  0.7818609E-02  0.8082107E-01
       -1   -1    0    0    0  501  0.00000000000E+00  0.00000000000E+00  0.13039535585E+04  0.13039535585E+04  0.50400001928E-02 0. -1.
        1   -1    0    0  501    0  0.00000000000E+00  0.00000000000E+00 -0.25358497569E+04  0.25358497569E+04  0.50400001928E-02 0.  1.
    10030    2    1    2    0    0  0.00000000000E+00  0.00000000000E+00 -0.12318961984E+04  0.38398033155E+04  0.36368284614E+04 0.  0.
        5    1    3    3  502    0 -0.15850120867E+04 -0.51133921783E+03  0.15477734430E+03  0.16726354136E+04  0.46999998093E+01 0. -1.
       -5    1    3    3    0  502  0.15850120867E+04  0.51133921783E+03 -0.13866735427E+04  0.21671679018E+04  0.46999998093E+01 0.  1.
</event>
<event>
 5   0  0.3278988E-07  0.3545204E+04  0.7818609E-02  0.8103160E-01
        1   -1    0    0  501    0  0.00000000000E+00  0.00000000000E+00  0.23623061081E+04  0.23623061082E+04  0.50400001928E-02 0. -1.
       -1   -1    0    0    0  501  0.00000000000E+00  0.00000000000E+00 -0.13301064484E+04  0.13301064484E+04  0.50400001928E-02 0.  1.
    10030    2    1    2    0    0  0.00000000000E+00  0.00000000000E+00  0.10321996598E+04  0.36924125565E+04  0.35452044158E+04 0.  0.
        4    1    3    3  502    0 -0.65547765005E+03  0.73631191206E+03 -0.10182694780E+04  0.14172792683E+04  0.12699999809E+01 0.  1.
       -4    1    3    3    0  502  0.65547765005E+03 -0.73631191206E+03  0.20504691378E+04  0.22751332883E+04  0.12699999809E+01 0. -1.
</event>
<event>
 5   0  0.3159875E-07  0.3542284E+04  0.7818609E-02  0.8103842E-01
       -1   -1    0    0    0  501  0.00000000000E+00  0.00000000000E+00  0.98823015575E+03  0.98823015576E+03  0.50400001928E-02 0.  1.
        1   -1    0    0  501    0  0.00000000000E+00  0.00000000000E+00 -0.31743058347E+04  0.31743058347E+04  0.50400001928E-02 0. -1.
    10030    2    1    2    0    0  0.00000000000E+00  0.00000000000E+00 -0.21860756790E+04  0.41625359905E+04  0.35422844321E+04 0.  0.
        2    1    3    3  502    0 -0.21627393911E+03 -0.15803754577E+04 -0.18845272194E+03  0.16061990638E+04  0.25500000920E-02 0.  1.
       -2    1    3    3    0  502  0.21627393911E+03  0.15803754577E+04 -0.19976229570E+04  0.25563369267E+04  0.25500000920E-02 0. -1.
</event>
<event>
 5   0  0.3278988E-07  0.3625698E+04  0.7818609E-02  0.8084631E-01
       -1   -1    0    0    0  501  0.00000000000E+00  0.00000000000E+00  0.24008707926E+04  0.24008707926E+04  0.50400001928E-02 0.  1.
        1   -1    0    0  501    0  0.00000000000E+00  0.00000000000E+00 -0.13688456121E+04  0.13688456121E+04  0.50400001928E-02 0. -1.
    10030    2    1    2    0    0  0.00000000000E+00  0.00000000000E+00  0.10320251804E+04  0.37697164047E+04  0.36256979740E+04 0.  0.
        4    1    3    3  502    0 -0.16047227092E+04  0.63918949377E+03 -0.56043745335E+02  0.17282478690E+04  0.12699999809E+01 0. -1.
       -4    1    3    3    0  502  0.16047227092E+04 -0.63918949377E+03  0.10880689258E+04  0.20414685357E+04  0.12699999809E+01 0.  1.
</event>
<event>
 5   0  0.1006019E-06  0.3630306E+04  0.7818609E-02  0.8083585E-01
        2   -1    0    0  501    0  0.00000000000E+00  0.00000000000E+00  0.18065993568E+04  0.18065993568E+04  0.25500000920E-02 0. -1.
       -2   -1    0    0    0  501  0.00000000000E+00  0.00000000000E+00 -0.18237471276E+04  0.18237471276E+04  0.25500000920E-02 0.  1.
    10030    2    1    2    0    0  0.00000000000E+00  0.00000000000E+00 -0.17147770718E+02  0.36303464844E+04  0.36303059858E+04 0.  0.
        1    1    3    3  502    0  0.17963376374E+04  0.17934069691E+03 -0.19775420414E+03  0.18160668265E+04  0.50400001928E-02 0. -1.
       -1    1    3    3    0  502 -0.17963376374E+04 -0.17934069691E+03  0.18060643343E+03  0.18142796579E+04  0.50400001928E-02 0.  1.
</event>
<event>
 5   0  0.9538919E-07  0.3551105E+04  0.7818609E-02  0.8101784E-01
        2   -1    0    0  501    0  0.00000000000E+00  0.00000000000E+00  0.11003360623E+04  0.11003360623E+04  0.25500000920E-02 0.  1.
       -2   -1    0    0    0  501  0.00000000000E+00  0.00000000000E+00 -0.28651127608E+04  0.28651127608E+04  0.25500000920E-02 0. -1.
    10030    2    1    2    0    0  0.00000000000E+00  0.00000000000E+00 -0.17647766984E+04  0.39654488231E+04  0.35511051200E+04 0.  0.
        4    1    3    3  502    0 -0.51673174207E+03 -0.13815165964E+04  0.22136713820E+03  0.14915109192E+04  0.12699999809E+01 0.  1.
       -4    1    3    3    0  502  0.51673174207E+03  0.13815165964E+04 -0.19861438366E+04  0.24739379039E+04  0.12699999809E+01 0. -1.
</event>
<event>
 5   0  0.3365378E-07  0.3624311E+04  0.7818609E-02  0.8084946E-01
       -1   -1    0    0    0  501  0.00000000000E+00  0.00000000000E+00  0.13476200286E+04  0.13476200286E+04  0.50400001928E-02 0.  1.
        1   -1    0    0  501    0  0.00000000000E+00  0.00000000000E+00 -0.24368196060E+04  0.24368196060E+04  0.50400001928E-02 0. -1.
    10030    2    1    2    0    0  0.00000000000E+00  0.00000000000E+00 -0.10891995774E+04  0.37844396346E+04  0.36243106419E+04 0.  0.
        3    1    3    3  502    0  0.60960882042E+03 -0.22781398036E+03 -0.23105904258E+04  0.24004895854E+04  0.10100000352E+00 0. -1.
       -3    1    3    3    0  502 -0.60960882042E+03  0.22781398036E+03  0.12213908485E+04  0.13839500492E+04  0.10100000352E+00 0.  1.
</event>
<event>
 5   0  0.9878336E-07  0.3357662E+04  0.7818609E-02  0.8148376E-01
        2   -1    0    0  501    0  0.00000000000E+00  0.00000000000E+00  0.25471647370E+04  0.25471647370E+04  0.25500000920E-02 0.  1.
       -2   -1    0    0    0  501  0.00000000000E+00  0.00000000000E+00 -0.11065139655E+04  0.11065139655E+04  0.25500000920E-02 0. -1.
    10030    2    1    2    0    0  0.00000000000E+00  0.00000000000E+00  0.14406507715E+04  0.36536787026E+04  0.33576618972E+04 0.  0.
        3    1    3    3  502    0 -0.71383758682E+03  0.88954505037E+03  0.20608498587E+04  0.23554100805E+04  0.10100000352E+00 0.  1.
       -3    1    3    3    0  502  0.71383758682E+03 -0.88954505037E+03 -0.62019908722E+03  0.12982686220E+04  0.10100000352E+00 0. -1.
</event>
<event>
 5   0  0.3365378E-07  0.3580733E+04  0.7818609E-02  0.8094919E-01
       -1   -1    0    0    0  501  0.00000000000E+00  0.00000000000E+00  0.15404780721E+04  0.15404780721E+04  0.50400001928E-02 0. -1.
        1   -1    0    0  501    0  0.00000000000E+00  0.00000000000E+00 -0.20807901545E+04  0.20807901545E+04  0.50400001928E-02 0.  1.
    10030    2    1    2    0    0  0.00000000000E+00  0.00000000000E+00 -0.54031208243E+03  0.36212682266E+04  0.35807326656E+04 0.  0.
        3    1    3    3  502    0 -0.37984902270E+03 -0.16133053614E+04 -0.95485220728E+03  0.19127943478E+04  0.10100000352E+00 0.  1.
       -3    1    3    3    0  502  0.37984902270E+03  0.16133053614E+04  0.41454012484E+03  0.17084738788E+04  0.10100000352E+00 0. -1.
</event>
<event>
 5   0  0.3159875E-07  0.3597479E+04  0.7818609E-02  0.8091069E-01
       -1   -1    0    0    0  501  0.00000000000E+00  0.00000000000E+00  0.16595125297E+04  0.16595125297E+04  0.50400001928E-02 0.  1.
        1   -1    0    0  501    0  0.00000000000E+00  0.00000000000E+00 -0.19496473863E+04  0.19496473863E+04  0.50400001928E-02 0. -1.
    10030    2    1    2    0    0  0.00000000000E+00  0.00000000000E+00 -0.29013485662E+03  0.36091599160E+04  0.35974792653E+04 0.  0.
        2    1    3    3  502    0  0.14044728988E+04  0.66585304355E+03  0.76316743269E+03  0.17315683439E+04  0.25500000920E-02 0.  1.
       -2    1    3    3    0  502 -0.14044728988E+04 -0.66585304355E+03 -0.10533022893E+04  0.18775915721E+04  0.25500000920E-02 0. -1.
</event>
<event>
 5   0  0.1031659E-06  0.3561751E+04  0.7818609E-02  0.8099310E-01
       -2   -1    0    0    0  501  0.00000000000E+00  0.00000000000E+00  0.13294885095E+04  0.13294885095E+04  0.25500000920E-02 0. -1.
        2   -1    0    0  501    0  0.00000000000E+00  0.00000000000E+00 -0.23855171803E+04  0.23855171803E+04  0.25500000920E-02 0.  1.
    10030    2    1    2    0    0  0.00000000000E+00  0.00000000000E+00 -0.10560286708E+04  0.37150056898E+04  0.35617510752E+04 0.  0.
        2    1    3    3  502    0  0.21643436856E+03 -0.12935020404E+04  0.72861842093E+03  0.15002920275E+04  0.25500000920E-02 0. -1.
       -2    1    3    3    0  502 -0.21643436856E+03  0.12935020404E+04 -0.17846470917E+04  0.22147136624E+04  0.25500000920E-02 0.  1.
</event>
<event>
 5   0  0.3159875E-07  0.3510055E+04  0.7818609E-02  0.8111411E-01
       -3   -1    0    0    0  501  0.00000000000E+00  0.00000000000E+00  0.16980450729E+04  0.16980450759E+04  0.10100000352E+00 0. -1.
        3   -1    0    0  501    0  0.00000000000E+00  0.00000000000E+00 -0.18139224217E+04  0.18139224246E+04  0.10100000352E+00 0.  1.
    10030    2    1    2    0    0  0.00000000000E+00  0.00000000000E+00 -0.11587734881E+03  0.35119675005E+04  0.35100552937E+04 0.  0.
        4    1    3    3  502    0 -0.13315366907E+04 -0.72512606738E+03 -0.94234479453E+03  0.17851647254E+04  0.12699999809E+01 0.  1.
       -4    1    3    3    0  502  0.13315366907E+04  0.72512606738E+03  0.82646744572E+03  0.17268027751E+04  0.12699999809E+01 0. -1.
</event>
<event>
 5   0  0.3242047E-07  0.3330655E+04  0.7818609E-02  0.8155139E-01
       -1   -1    0    0    0  501  0.00000000000E+00  0.00000000000E+00  0.13382748409E+04  0.13382748409E+04  0.50400001928E-02 0.  1.
        1   -1    0    0  501    0  0.00000000000E+00  0.00000000000E+00 -0.20723065207E+04  0.20723065207E+04  0.50400001928E-02 0. -1.
    10030    2    1    2    0    0  0.00000000000E+00  0.00000000000E+00 -0.73403167979E+03  0.34105813615E+04  0.33306549981E+04 0.  0.
        1    1    3    3  502    0 -0.52465118494E+00 -0.12472666644E+03  0.13334851690E+04  0.13393056830E+04  0.50400001928E-02 0.  1.
       -1    1    3    3    0  502  0.52465118494E+00  0.12472666644E+03 -0.20675168488E+04  0.20712756785E+04  0.50400001928E-02 0. -1.
</event>
<event>
 5   0  0.9538919E-07  0.3597939E+04  0.7818609E-02  0.8090964E-01
       -2   -1    0    0    0  501  0.00000000000E+00  0.00000000000E+00  0.17855873378E+04  0.17855873378E+04  0.25500000920E-02 0.  1.
        2   -1    0    0  501    0  0.00000000000E+00  0.00000000000E+00 -0.18124521168E+04  0.18124521168E+04  0.25500000920E-02 0. -1.
    10030    2    1    2    0    0  0.00000000000E+00  0.00000000000E+00 -0.26864778926E+02  0.35980394546E+04  0.35979391602E+04 0.  0.
        4    1    3    3  502    0  0.99908778423E+03 -0.67044210924E+03  0.13239982194E+04  0.17890337952E+04  0.12699999809E+01 0.  1.
       -4    1    3    3    0  502 -0.99908778423E+03  0.67044210924E+03 -0.13508629984E+04  0.18090056594E+04  0.12699999809E+01 0. -1.
</event>
<event>
 5   0  0.3242047E-07  0.3270103E+04  0.7818609E-02  0.8170544E-01
        1   -1    0    0  501    0  0.00000000000E+00  0.00000000000E+00  0.19447029160E+04  0.19447029160E+04  0.50400001928E-02 0. -1.
       -1   -1    0    0    0  501  0.00000000000E+00  0.00000000000E+00 -0.13747056910E+04  0.13747056910E+04  0.50400001928E-02 0.  1.
    10030    2    1    2    0    0  0.00000000000E+00  0.00000000000E+00  0.56999722496E+03  0.33194086070E+04  0.32701034638E+04 0.  0.
        1    1    3    3  502    0  0.92285397589E+03 -0.93050206871E+03  0.12774416525E+04  0.18301231479E+04  0.50400001928E-02 0. -1.
       -1    1    3    3    0  502 -0.92285397589E+03  0.93050206871E+03 -0.70744442757E+03  0.14892854591E+04  0.50400001928E-02 0.  1.
</event>
<event>
 5   0  0.9538919E-07  0.3605453E+04  0.7818609E-02  0.8089244E-01
       -2   -1    0    0    0  501  0.00000000000E+00  0.00000000000E+00  0.14199064373E+04  0.14199064373E+04  0.25500000920E-02 0.  1.
        2   -1    0    0  501    0  0.00000000000E+00  0.00000000000E+00 -0.22887589893E+04  0.22887589893E+04  0.25500000920E-02 0. -1.
    10030    2    1    2    0    0  0.00000000000E+00  0.00000000000E+00 -0.86885255204E+03  0.37086654266E+04  0.36054534374E+04 0.  0.
        4    1    3    3  502    0 -0.53098137369E+03 -0.53387237163E+03  0.12504067119E+04  0.14596162121E+04  0.12699999809E+01 0.  1.
       -4    1    3    3    0  502  0.53098137369E+03  0.53387237163E+03 -0.21192592640E+04  0.22490492145E+04  0.12699999809E+01 0. -1.
</event>
<event>
 5   0  0.9878977E-07  0.3558389E+04  0.7818609E-02  0.8100090E-01
       -2   -1    0    0    0  501  0.00000000000E+00  0.00000000000E+00  0.22323911206E+04  0.22323911206E+04  0.25500000920E-02 0.  1.
        2   -1    0    0  501    0  0.00000000000E+00  0.00000000000E+00 -0.14180012830E+04  0.14180012830E+04  0.25500000920E-02 0. -1.
    10030    2    1    2    0    0  0.00000000000E+00  0.00000000000E+00  0.81438983753E+03  0.36503924036E+04  0.35583892273E+04 0.  0.
        5    1    3    3  502    0  0.14883237990E+04  0.34481442512E+02  0.14066616094E+04  0.20481737411E+04  0.46999998093E+01 0.  1.
       -5    1    3    3    0  502 -0.14883237990E+04 -0.34481442512E+02 -0.59227177183E+03  0.16022186624E+04  0.46999998093E+01 0. -1.
</event>
<event>
 5   0  0.3278988E-07  0.3246495E+04  0.7818609E-02  0.8176645E-01
       -1   -1    0    0    0  501  0.00000000000E+00  0.00000000000E+00  0.10562791902E+04  0.10562791902E+04  0.50400001928E-02 0. -1.
        1   -1    0    0  501    0  0.00000000000E+00  0.00000000000E+00 -0.24945415002E+04  0.24945415002E+04  0.50400001928E-02 0.  1.
    10030    2    1    2    0    0  0.00000000000E+00  0.00000000000E+00 -0.14382623100E+04  0.35508206904E+04  0.32464948949E+04 0.  0.
        4    1    3    3  502    0 -0.82722544797E+02  0.14807963050E+04  0.25133170230E+01  0.14831077662E+04  0.12699999809E+01 0. -1.
       -4    1    3    3    0  502  0.82722544797E+02 -0.14807963050E+04 -0.14407756271E+04  0.20677129242E+04  0.12699999809E+01 0.  1.
</event>
<event>
 5   0  0.9878977E-07  0.3652541E+04  0.7818609E-02  0.8078562E-01
        2   -1    0    0  501    0  0.00000000000E+00  0.00000000000E+00  0.24073163559E+04  0.24073163559E+04  0.25500000920E-02 0.  1.
       -2   -1    0    0    0  501  0.00000000000E+00  0.00000000000E+00 -0.13854693816E+04  0.13854693816E+04  0.25500000920E-02 0. -1.
    10030    2    1    2    0    0  0.00000000000E+00  0.00000000000E+00  0.10218469743E+04  0.37927857374E+04  0.36525405420E+04 0.  0.
        5    1    3    3  502    0  0.10133182717E+04  0.96226213032E+03 -0.71001135120E+03  0.15674503297E+04  0.46999998093E+01 0. -1.
       -5    1    3    3    0  502 -0.10133182717E+04 -0.96226213032E+03  0.17318583255E+04  0.22253354077E+04  0.46999998093E+01 0.  1.
</event>
<event>
 5   0  0.3159875E-07  0.3073103E+04  0.7818609E-02  0.8223159E-01
        1   -1    0    0  501    0  0.00000000000E+00  0.00000000000E+00  0.21251198228E+04  0.21251198228E+04  0.50400001928E-02 0. -1.
       -1   -1    0    0    0  501  0.00000000000E+00  0.00000000000E+00 -0.11109913808E+04  0.11109913808E+04  0.50400001928E-02 0.  1.
    10030    2    1    2    0    0  0.00000000000E+00  0.00000000000E+00  0.10141284419E+04  0.32361112036E+04  0.30731025407E+04 0.  0.
        2    1    3    3  502    0 -0.54789329558E+03  0.14100788560E+04  0.22356193542E+03  0.15292120136E+04  0.25500000920E-02 0.  1.
       -2    1    3    3    0  502  0.54789329558E+03 -0.14100788560E+04  0.79056650651E+03  0.17068991900E+04  0.25500000920E-02 0. -1.
</event>
<event>
 5   0  0.1031659E-06  0.3424202E+04  0.7818609E-02  0.8131992E-01
        2   -1    0    0  501    0  0.00000000000E+00  0.00000000000E+00  0.23021249173E+04  0.23021249173E+04  0.25500000920E-02 0.  1.
       -2   -1    0    0    0  501  0.00000000000E+00  0.00000000000E+00 -0.12732972814E+04  0.12732972814E+04  0.25500000920E-02 0. -1.
    10030    2    1    2    0    0  0.00000000000E+00  0.00000000000E+00  0.10288276359E+04  0.35754221987E+04  0.34242017457E+04 0.  0.
        2    1    3    3  502    0  0.13330983134E+04 -0.96523838959E+03  0.10068922947E+04  0.19294217671E+04  0.25500000920E-02 0.  1.
       -2    1    3    3    0  502 -0.13330983134E+04  0.96523838959E+03  0.21935341138E+02  0.16460004317E+04  0.25500000920E-02 0. -1.
</event>
<event>
 5   0  0.3159875E-07  0.3479815E+04  0.7818609E-02  0.8118590E-01
        1   -1    0    0  501    0  0.00000000000E+00  0.00000000000E+00  0.19332013843E+04  0.19332013843E+04  0.50400001928E-02 0.  1.
       -1   -1    0    0    0  501  0.00000000000E+00  0.00000000000E+00 -0.15659404013E+04  0.15659404013E+04  0.50400001928E-02 0. -1.
    10030    2    1    2    0    0  0.00000000000E+00  0.00000000000E+00  0.36726098296E+03  0.34991417856E+04  0.34798150247E+04 0.  0.
        5    1    3    3  502    0 -0.30922068760E+03  0.15153711547E+04 -0.61784641319E+03  0.16654499243E+04  0.46999998093E+01 0. -1.
       -5    1    3    3    0  502  0.30922068760E+03 -0.15153711547E+04  0.98510739615E+03  0.18336918613E+04  0.46999998093E+01 0.  1.
</event>
</LesHouchesEvents>
