<LesHouchesEvents version="3.0">
<header>
<!--
#*********************************************************************
#                                                                    *
#                        MadGraph5_aMC@NLO                           *
#                                                                    *
#                           Going Beyond                             *
#                                                                    *
#                   http://madgraph.hep.uiuc.edu                     *
#                   http://madgraph.phys.ucl.ac.be                   *
#                   http://amcatnlo.cern.ch                          *
#                                                                    *
#                     The MadGraph5_aMC@NLO team                     *
#                                                                    *
#....................................................................*
#                                                                    *
# This file contains all the information necessary to reproduce      *
# the events generated:                                              *
#                                                                    *
# 1. software version                                                *
# 2. proc_card          : code generation info including model       *
# 3. param_card         : model primary parameters in the LH format  *
# 4. run_card           : running parameters (collider and cuts)     *
# 5. pythia_card        : present only if pythia has been run        *
# 6. pgs_card           : present only if pgs has been run           *
# 7. delphes_cards      : present only if delphes has been run       *
#                                                                    *
#                                                                    *
#*********************************************************************
-->
<MGVersion>
#5.2.2.3
</MGVersion>
<MG5ProcCard>
#************************************************************
#*                     MadGraph5_aMC@NLO                    *
#*                                                          *
#*                *                       *                 *
#*                  *        * *        *                   *
#*                    * * * * 5 * * * *                     *
#*                  *        * *        *                   *
#*                *                       *                 *
#*                                                          *
#*                                                          *
#*         VERSION 2.2.3                 2015-02-10         *
#*                                                          *
#*    The MadGraph5_aMC@NLO Development Team - Find us at   *
#*    https://server06.fynu.ucl.ac.be/projects/madgraph     *
#*                                                          *
#************************************************************
#*                                                          *
#*               Command File for MadGraph5_aMC@NLO         *
#*                                                          *
#*     run as ./bin/mg5_aMC  filename                       *
#*                                                          *
#************************************************************
set group_subprocesses Auto
set ignore_six_quark_processes False
set loop_optimized_output True
set gauge unitary
set complex_mass_scheme False
import model sm
define p = g u c d s u~ c~ d~ s~
define j = g u c d s u~ c~ d~ s~
define l+ = e+ mu+
define l- = e- mu-
define vl = ve vm vt
define vl~ = ve~ vm~ vt~
import model Zprime_UFO
generate p p > zph, zph > j j
add process p p > zph, zph > b b~
output Dijet_signal
</MG5ProcCard>
<MGProcCard>
#*********************************************************************
#                        MadGraph/MadEvent                           *
#                   http://madgraph.hep.uiuc.edu                     *
#                                                                    *
#                          proc_card.dat                             *
#*********************************************************************
#                                                                    *
#            This Files is generated by MADGRAPH 5                   *
#                                                                    *
# WARNING: This Files is generated for MADEVENT (compatibility issue)*
#          This files is NOT a valid MG4 proc_card.dat               *
#          Running this in MG4 will NEVER reproduce the result of MG5*
#                                                                    *
#*********************************************************************
#*********************************************************************
# Process(es) requested : mg2 input                                  *
#*********************************************************************
# Begin PROCESS # This is TAG. Do not modify this line
p p > zph , zph > j j           #Process
# Be carefull the coupling are here in MG5 convention
          
end_coup           # End the couplings input

done               # this tells MG there are no more procs
# End PROCESS  # This is TAG. Do not modify this line
#*********************************************************************
# Model information                                                  *
#*********************************************************************
# Begin MODEL  # This is TAG. Do not modify this line
Zprime_UFO
# End   MODEL  # This is TAG. Do not modify this line
#*********************************************************************
# Start multiparticle definitions                                    *
#*********************************************************************
# Begin MULTIPARTICLES # This is TAG. Do not modify this line

# End  MULTIPARTICLES # This is TAG. Do not modify this line
</MGProcCard>
<MGRunCard>
#*********************************************************************
#                       MadGraph5_aMC@NLO                            *
#                                                                    *
#                     run_card.dat MadEvent                          *
#                                                                    *
#  This file is used to set the parameters of the run.               *
#                                                                    *
#  Some notation/conventions:                                        *
#                                                                    *
#   Lines starting with a '# ' are info or comments                  *
#                                                                    *
#   mind the format:   value    = variable     ! comment             *
#*********************************************************************
#
#*******************                                                 
# Running parameters
#*******************                                                 
#                                                                    
#*********************************************************************
# Tag name for the run (one word)                                    *
#*********************************************************************
  tag_1     = run_tag ! name of the run 
#*********************************************************************
# Run to generate the grid pack                                      *
#*********************************************************************
  .false.     = gridpack  !True = setting up the grid pack
#*********************************************************************
# Number of events and rnd seed                                      *
# Warning: Do not generate more than 1M events in a single run       *
# If you want to run Pythia, avoid more than 50k events in a run.    *
#*********************************************************************
  2000 = nevents ! Number of unweighted events requested 
 1569 = iseed   ! rnd seed (0=assigned automatically=default))
#*********************************************************************
# Collider type and energy                                           *
# lpp: 0=No PDF, 1=proton, -1=antiproton, 2=photon from proton,      *
#                                         3=photon from electron     *
#*********************************************************************
        1     = lpp1    ! beam 1 type 
        1     = lpp2    ! beam 2 type
     4000     = ebeam1  ! beam 1 total energy in GeV
     4000     = ebeam2  ! beam 2 total energy in GeV
#*********************************************************************
# Beam polarization from -100 (left-handed) to 100 (right-handed)    *
#*********************************************************************
        0     = polbeam1 ! beam polarization for beam 1
        0     = polbeam2 ! beam polarization for beam 2
#*********************************************************************
# PDF CHOICE: this automatically fixes also alpha_s and its evol.    *
#*********************************************************************
 'nn23lo1'    = pdlabel     ! PDF set                                     
 230000    = lhaid     ! if pdlabel=lhapdf, this is the lhapdf number
#*********************************************************************
# Renormalization and factorization scales                           *
#*********************************************************************
 F        = fixed_ren_scale  ! if .true. use fixed ren scale
 F        = fixed_fac_scale  ! if .true. use fixed fac scale
 91.1880  = scale            ! fixed ren scale
 91.1880  = dsqrt_q2fact1    ! fixed fact scale for pdf1
 91.1880  = dsqrt_q2fact2    ! fixed fact scale for pdf2
 1        = scalefact        ! scale factor for event-by-event scales
#*********************************************************************
# Matching - Warning! ickkw > 1 is still beta
#*********************************************************************
 0        = ickkw            ! 0 no matching, 1 MLM, 2 CKKW matching
 1        = highestmult      ! for ickkw=2, highest mult group
 1        = ktscheme         ! for ickkw=1, 1 Durham kT, 2 Pythia pTE
 1        = alpsfact         ! scale factor for QCD emission vx
 F        = chcluster        ! cluster only according to channel diag
 T        = pdfwgt           ! for ickkw=1, perform pdf reweighting
 5        = asrwgtflavor     ! highest quark flavor for a_s reweight
 T        = clusinfo         ! include clustering tag in output
 3.0      = lhe_version       ! Change the way clustering information pass to shower.        
#*********************************************************************
#**********************************************************
#
#**********************************************************
# Automatic ptj and mjj cuts if xqcut > 0
# (turn off for VBF and single top processes)
#**********************************************************
   T  = auto_ptj_mjj  ! Automatic setting of ptj and mjj
#**********************************************************
#                                                                    
#**********************************
# BW cutoff (M+/-bwcutoff*Gamma)
#**********************************
  15  = bwcutoff      ! (M+/-bwcutoff*Gamma)
#**********************************************************
# Apply pt/E/eta/dr/mij cuts on decay products or not
# (note that etmiss/ptll/ptheavy/ht/sorted cuts always apply)
#**********************************************************
   T  = cut_decays    ! Cut decay products 
#*************************************************************
# Number of helicities to sum per event (0 = all helicities)
# 0 gives more stable result, but longer run time (needed for
# long decay chains e.g.).
# Use >=2 if most helicities contribute, e.g. pure QCD.
#*************************************************************
   0  = nhel          ! Number of helicities used per event
#*******************                                                 
# Standard Cuts
#*******************                                                 
#                                                                    
#*********************************************************************
# Minimum and maximum pt's (for max, -1 means no cut)                *
#*********************************************************************
 20  = ptj       ! minimum pt for the jets 
  0  = ptb       ! minimum pt for the b 
 10  = pta       ! minimum pt for the photons 
 10  = ptl       ! minimum pt for the charged leptons 
  0  = misset    ! minimum missing Et (sum of neutrino's momenta)
  0  = ptheavy   ! minimum pt for one heavy final state
 1.0 = ptonium   ! minimum pt for the quarkonium states
 -1  = ptjmax    ! maximum pt for the jets
 -1  = ptbmax    ! maximum pt for the b
 -1  = ptamax    ! maximum pt for the photons
 -1  = ptlmax    ! maximum pt for the charged leptons
 -1  = missetmax ! maximum missing Et (sum of neutrino's momenta)
#*********************************************************************
# Minimum and maximum E's (in the center of mass frame)              *
#*********************************************************************
  0  = ej     ! minimum E for the jets 
  0  = eb     ! minimum E for the b 
  0  = ea     ! minimum E for the photons 
  0  = el     ! minimum E for the charged leptons 
 -1   = ejmax ! maximum E for the jets
 -1   = ebmax ! maximum E for the b
 -1   = eamax ! maximum E for the photons
 -1   = elmax ! maximum E for the charged leptons
#*********************************************************************
# Maximum and minimum absolute rapidity (for max, -1 means no cut)   *
#*********************************************************************
   5  = etaj    ! max rap for the jets 
  -1  = etab    ! max rap for the b
 2.5  = etaa    ! max rap for the photons 
 2.5  = etal    ! max rap for the charged leptons 
 0.6  = etaonium ! max rap for the quarkonium states
   0  = etajmin ! min rap for the jets
   0  = etabmin ! min rap for the b
   0  = etaamin ! min rap for the photons
   0  = etalmin ! main rap for the charged leptons
#*********************************************************************
# Minimum and maximum DeltaR distance                                *
#*********************************************************************
 0.4 = drjj    ! min distance between jets 
 0   = drbb    ! min distance between b's 
 0.4 = drll    ! min distance between leptons 
 0.4 = draa    ! min distance between gammas 
 0   = drbj    ! min distance between b and jet 
 0.4 = draj    ! min distance between gamma and jet 
 0.4 = drjl    ! min distance between jet and lepton 
 0   = drab    ! min distance between gamma and b 
 0   = drbl    ! min distance between b and lepton 
 0.4 = dral    ! min distance between gamma and lepton 
 -1  = drjjmax ! max distance between jets
 -1  = drbbmax ! max distance between b's
 -1  = drllmax ! max distance between leptons
 -1  = draamax ! max distance between gammas
 -1  = drbjmax ! max distance between b and jet
 -1  = drajmax ! max distance between gamma and jet
 -1  = drjlmax ! max distance between jet and lepton
 -1  = drabmax ! max distance between gamma and b
 -1  = drblmax ! max distance between b and lepton
 -1  = dralmax ! maxdistance between gamma and lepton
#*********************************************************************
# Minimum and maximum invariant mass for pairs                       *
# WARNING: for four lepton final state mmll cut require to have      *
#          different lepton masses for each flavor!                  *           
#*********************************************************************
 0   = mmjj    ! min invariant mass of a jet pair 
 0   = mmbb    ! min invariant mass of a b pair 
 0   = mmaa    ! min invariant mass of gamma gamma pair
 0   = mmll    ! min invariant mass of l+l- (same flavour) lepton pair
 -1  = mmjjmax ! max invariant mass of a jet pair
 -1  = mmbbmax ! max invariant mass of a b pair
 -1  = mmaamax ! max invariant mass of gamma gamma pair
 -1  = mmllmax ! max invariant mass of l+l- (same flavour) lepton pair
#*********************************************************************
# Minimum and maximum invariant mass for all letpons                 *
#*********************************************************************
 0   = mmnl    ! min invariant mass for all letpons (l+- and vl) 
 -1  = mmnlmax ! max invariant mass for all letpons (l+- and vl) 
#*********************************************************************
# Minimum and maximum pt for 4-momenta sum of leptons                *
#*********************************************************************
 0   = ptllmin  ! Minimum pt for 4-momenta sum of leptons(l and vl)
 -1  = ptllmax  ! Maximum pt for 4-momenta sum of leptons(l and vl)
#*********************************************************************
# Inclusive cuts                                                     *
#*********************************************************************
 0  = xptj ! minimum pt for at least one jet  
 0  = xptb ! minimum pt for at least one b 
 0  = xpta ! minimum pt for at least one photon 
 0  = xptl ! minimum pt for at least one charged lepton 
#*********************************************************************
# Control the pt's of the jets sorted by pt                          *
#*********************************************************************
 0   = ptj1min ! minimum pt for the leading jet in pt
 0   = ptj2min ! minimum pt for the second jet in pt
 0   = ptj3min ! minimum pt for the third jet in pt
 0   = ptj4min ! minimum pt for the fourth jet in pt
 -1  = ptj1max ! maximum pt for the leading jet in pt 
 -1  = ptj2max ! maximum pt for the second jet in pt
 -1  = ptj3max ! maximum pt for the third jet in pt
 -1  = ptj4max ! maximum pt for the fourth jet in pt
 0   = cutuse  ! reject event if fails any (0) / all (1) jet pt cuts
#*********************************************************************
# Control the pt's of leptons sorted by pt                           *
#*********************************************************************
 0   = ptl1min ! minimum pt for the leading lepton in pt
 0   = ptl2min ! minimum pt for the second lepton in pt
 0   = ptl3min ! minimum pt for the third lepton in pt
 0   = ptl4min ! minimum pt for the fourth lepton in pt
 -1  = ptl1max ! maximum pt for the leading lepton in pt 
 -1  = ptl2max ! maximum pt for the second lepton in pt
 -1  = ptl3max ! maximum pt for the third lepton in pt
 -1  = ptl4max ! maximum pt for the fourth lepton in pt
#*********************************************************************
# Control the Ht(k)=Sum of k leading jets                            *
#*********************************************************************
 0   = htjmin ! minimum jet HT=Sum(jet pt)
 -1  = htjmax ! maximum jet HT=Sum(jet pt)
 0   = ihtmin  !inclusive Ht for all partons (including b)
 -1  = ihtmax  !inclusive Ht for all partons (including b)
 0   = ht2min ! minimum Ht for the two leading jets
 0   = ht3min ! minimum Ht for the three leading jets
 0   = ht4min ! minimum Ht for the four leading jets
 -1  = ht2max ! maximum Ht for the two leading jets
 -1  = ht3max ! maximum Ht for the three leading jets
 -1  = ht4max ! maximum Ht for the four leading jets
#***********************************************************************
# Photon-isolation cuts, according to hep-ph/9801442                   *
# When ptgmin=0, all the other parameters are ignored                  *
# When ptgmin>0, pta and draj are not going to be used                 *
#***********************************************************************
   0 = ptgmin ! Min photon transverse momentum
 0.4 = R0gamma ! Radius of isolation code
 1.0 = xn ! n parameter of eq.(3.4) in hep-ph/9801442
 1.0 = epsgamma ! epsilon_gamma parameter of eq.(3.4) in hep-ph/9801442
 .true. = isoEM ! isolate photons from EM energy (photons and leptons)
#*********************************************************************
# WBF cuts                                                           *
#*********************************************************************
 0   = xetamin ! minimum rapidity for two jets in the WBF case  
 0   = deltaeta ! minimum rapidity for two jets in the WBF case 
#*********************************************************************
# KT DURHAM CUT                                                      *
#*********************************************************************
 -1    =  ktdurham        
 0.4  =  dparameter 
#*********************************************************************
# maximal pdg code for quark to be considered as a light jet         *
# (otherwise b cuts are applied)                                     *
#*********************************************************************
 4 = maxjetflavor    ! Maximum jet pdg code
#*********************************************************************
# Jet measure cuts                                                   *
#*********************************************************************
 0   = xqcut   ! minimum kt jet measure between partons
#*********************************************************************
#
#*********************************************************************
# Store info for systematics studies                                 *
# WARNING: If use_syst is T, matched Pythia output is                *
#          meaningful ONLY if plotted taking matchscale              *
#          reweighting into account!                                 *
#*********************************************************************
   F  = use_syst      ! Enable systematics studies
#
#**************************************
# Parameter of the systematics study
#  will be used by SysCalc (if installed)
#**************************************                                  
#
0.5 1 2 = sys_scalefact  # factorization/renormalization scale factor
0.5 1 2 = sys_alpsfact  # \alpha_s emission scale factors
30 50 = sys_matchscale # variation of merging scale
# PDF sets and number of members (0 or none for all members).
CT10nlo.LHgrid = sys_pdf # matching scales
# MSTW2008nlo68cl.LHgrid 1  = sys_pdf
</MGRunCard>
<slha>
######################################################################
## PARAM_CARD AUTOMATICALY GENERATED BY MG5 FOLLOWING UFO MODEL   ####
######################################################################
##                                                                  ##
##  Width set on Auto will be computed following the information    ##
##        present in the decay.py files of the model.               ##
##        See  arXiv:1402.1178 for more details.                    ##
##                                                                  ##
######################################################################

###################################
## INFORMATION FOR CKMBLOCK
###################################
Block ckmblock 
    1 2.277360e-01 # cabi 

###################################
## INFORMATION FOR FRBLOCK
###################################
Block frblock 
    1 8.000000e-01 # gz 

###################################
## INFORMATION FOR MASS
###################################
Block mass 
    1 5.040000e-03 # MD 
    2 2.550000e-03 # MU 
    3 1.010000e-01 # MS 
    4 1.270000e+00 # MC 
    5 4.700000e+00 # MB 
    6 1.720000e+02 # MT 
   11 5.110000e-04 # Me 
   13 1.056600e-01 # MM 
   15 1.777000e+00 # MTA 
   23 9.118760e+01 # MZ 
   25 1.200000e+02 # MH 
  10030 1.600000e+03 # MZph 
  10031 3.000000e+02 # MZpl 
## Dependent parameters, given by model restrictions.
## Those values should be edited following the 
## analytical expression. MG5 ignores those values 
## but they are important for interfacing the output of MG5
## to external program such as Pythia.
  12 0.000000 # ve : 0.0 
  14 0.000000 # vm : 0.0 
  16 0.000000 # vt : 0.0 
  21 0.000000 # g : 0.0 
  22 0.000000 # a : 0.0 
  24 79.824360 # w+ : cmath.sqrt(MZ__exp__2/2. + cmath.sqrt(MZ__exp__4/4. - (aEW*cmath.pi*MZ__exp__2)/(Gf*sqrt__2))) 

###################################
## INFORMATION FOR SMINPUTS
###################################
Block sminputs 
    1 1.279000e+02 # aEWM1 
    2 1.166370e-05 # Gf 
    3 1.184000e-01 # aS 

###################################
## INFORMATION FOR YUKAWA
###################################
Block yukawa 
    1 5.040000e-03 # ymdo 
    2 2.550000e-03 # ymup 
    3 1.010000e-01 # yms 
    4 1.270000e+00 # ymc 
    5 4.700000e+00 # ymb 
    6 1.720000e+02 # ymt 
   11 5.110000e-04 # yme 
   13 1.056600e-01 # ymm 
   15 1.777000e+00 # ymtau 

###################################
## INFORMATION FOR DECAY
###################################
DECAY   6 1.508336e+00 # WT 
DECAY  23 2.495200e+00 # WZ 
DECAY  24 2.085000e+00 # WW 
DECAY  25 5.753088e-03 # WH 
## Dependent parameters, given by model restrictions.
## Those values should be edited following the 
## analytical expression. MG5 ignores those values 
## but they are important for interfacing the output of MG5
## to external program such as Pythia.
DECAY  1 0.000000 # d : 0.0 
DECAY  2 0.000000 # u : 0.0 
DECAY  3 0.000000 # s : 0.0 
DECAY  4 0.000000 # c : 0.0 
DECAY  5 0.000000 # b : 0.0 
DECAY  11 0.000000 # e- : 0.0 
DECAY  12 0.000000 # ve : 0.0 
DECAY  13 0.000000 # mu- : 0.0 
DECAY  14 0.000000 # vm : 0.0 
DECAY  15 0.000000 # ta- : 0.0 
DECAY  16 0.000000 # vt : 0.0 
DECAY  21 0.000000 # g : 0.0 
DECAY  22 0.000000 # a : 0.0 
DECAY  10030 0.308725 # zph : (gz__exp__2*MZph*(5 + cmath.sqrt(1 - (4*MT__exp__2)/MZph__exp__2)))/(144.*cmath.pi) 
DECAY  10031 0.132629 # zpl : (5*gz__exp__2*MZpl)/(144.*cmath.pi) 
#===========================================================
# QUANTUM NUMBERS OF NEW STATE(S) (NON SM PDG CODE)
#===========================================================

Block QNUMBERS 10030  # zph 
        1 0  # 3 times electric charge
        2 3  # number of spin states (2S+1)
        3 1  # colour rep (1: singlet, 3: triplet, 8: octet)
        4 0  # Particle/Antiparticle distinction (0=own anti)
Block QNUMBERS 10031  # zpl 
        1 0  # 3 times electric charge
        2 3  # number of spin states (2S+1)
        3 1  # colour rep (1: singlet, 3: triplet, 8: octet)
        4 0  # Particle/Antiparticle distinction (0=own anti)
</slha>
## END BANNER##
<MGGenerationInfo>
#  Number of Events        :         3948
#  Integrated weight (pb)  :  0.97557E-01
#  Max wgt                 :  0.33805E-04
#  Average wgt             :  0.24710E-04
</MGGenerationInfo>
</header>
<init>
     2212     2212  0.40000000000E+04  0.40000000000E+04 0 0  247000  247000 2   1
  0.97682001075E-01  0.18868145067E-03  0.33804540000E-04   0
</init>
<event>
 5   0  0.3228393E-04  0.1602393E+04  0.7818609E-02  0.8819079E-01
        2   -1    0    0  501    0  0.00000000000E+00  0.00000000000E+00  0.81900812316E+03  0.81900812316E+03  0.25500000920E-02 0.  1.
       -2   -1    0    0    0  501  0.00000000000E+00  0.00000000000E+00 -0.78377229786E+03  0.78377229787E+03  0.25500000920E-02 0. -1.
    10030    2    1    2    0    0  0.00000000000E+00  0.00000000000E+00  0.35235825295E+02  0.16027804210E+04  0.16023930587E+04 0.  0.
        1    1    3    3  502    0 -0.14789559765E+03 -0.78682406096E+03  0.48458269598E+02  0.80206821070E+03  0.50400001928E-02 0. -1.
       -1    1    3    3    0  502  0.14789559765E+03  0.78682406096E+03 -0.13222444303E+02  0.80071221032E+03  0.50400001928E-02 0.  1.
</event>
<event>
 5   0  0.3228393E-04  0.1604707E+04  0.7818609E-02  0.8817662E-01
        2   -1    0    0  501    0  0.00000000000E+00  0.00000000000E+00  0.91730636636E+03  0.91730636636E+03  0.25500000920E-02 0. -1.
       -2   -1    0    0    0  501  0.00000000000E+00  0.00000000000E+00 -0.70180575951E+03  0.70180575952E+03  0.25500000920E-02 0.  1.
    10030    2    1    2    0    0  0.00000000000E+00  0.00000000000E+00  0.21550060685E+03  0.16191121259E+04  0.16047066911E+04 0.  0.
        1    1    3    3  502    0 -0.14765257479E+03 -0.35543913388E+03 -0.60258141430E+03  0.71501232271E+03  0.50400001928E-02 0.  1.
       -1    1    3    3    0  502  0.14765257479E+03  0.35543913388E+03  0.81808202115E+03  0.90409980317E+03  0.50400001928E-02 0. -1.
</event>
<event>
 5   0  0.3274900E-04  0.1609272E+04  0.7818609E-02  0.8814872E-01
        2   -1    0    0  501    0  0.00000000000E+00  0.00000000000E+00  0.14325006531E+04  0.14325006531E+04  0.25500000920E-02 0.  1.
       -2   -1    0    0    0  501  0.00000000000E+00  0.00000000000E+00 -0.45196431082E+03  0.45196431083E+03  0.25500000920E-02 0. -1.
    10030    2    1    2    0    0  0.00000000000E+00  0.00000000000E+00  0.98053634227E+03  0.18844649639E+04  0.16092720969E+04 0.  0.
        3    1    3    3  502    0  0.42109067056E+03  0.65968184796E+03  0.27137591595E+03  0.82833712420E+03  0.10100000352E+00 0. -1.
       -3    1    3    3    0  502 -0.42109067056E+03 -0.65968184796E+03  0.70916042632E+03  0.10561278397E+04  0.10100000352E+00 0.  1.
</event>
<event>
 5   0  0.3228393E-04  0.1616901E+04  0.7818609E-02  0.8810232E-01
        2   -1    0    0  501    0  0.00000000000E+00  0.00000000000E+00  0.84700568345E+03  0.84700568346E+03  0.25500000920E-02 0.  1.
       -2   -1    0    0    0  501  0.00000000000E+00  0.00000000000E+00 -0.77165021663E+03  0.77165021663E+03  0.25500000920E-02 0. -1.
    10030    2    1    2    0    0  0.00000000000E+00  0.00000000000E+00  0.75355466825E+02  0.16186559001E+04  0.16169008864E+04 0.  0.
        1    1    3    3  502    0  0.43244630033E+03 -0.11088077572E+03 -0.63706257934E+03  0.77791585606E+03  0.50400001928E-02 0. -1.
       -1    1    3    3    0  502 -0.43244630033E+03  0.11088077572E+03  0.71241804617E+03  0.84074004402E+03  0.50400001928E-02 0.  1.
</event>
<event>
 5   0  0.3274900E-04  0.1604423E+04  0.7818609E-02  0.8817835E-01
       -2   -1    0    0    0  501  0.00000000000E+00  0.00000000000E+00  0.94211245204E+03  0.94211245205E+03  0.25500000920E-02 0.  1.
        2   -1    0    0  501    0  0.00000000000E+00  0.00000000000E+00 -0.68308533663E+03  0.68308533663E+03  0.25500000920E-02 0. -1.
    10030    2    1    2    0    0  0.00000000000E+00  0.00000000000E+00  0.25902711542E+03  0.16251977887E+04  0.16044228887E+04 0.  0.
        3    1    3    3  502    0  0.69109016816E+03  0.14863208015E+03  0.51369499992E+03  0.87383046348E+03  0.10100000352E+00 0.  1.
       -3    1    3    3    0  502 -0.69109016816E+03 -0.14863208015E+03 -0.25466788450E+03  0.75136732519E+03  0.10100000352E+00 0. -1.
</event>
<event>
 5   0  0.1819811E-04  0.1603784E+04  0.7818609E-02  0.8818227E-01
        1   -1    0    0  501    0  0.00000000000E+00  0.00000000000E+00  0.24160921490E+04  0.24160921490E+04  0.50400001928E-02 0.  1.
       -1   -1    0    0    0  501  0.00000000000E+00  0.00000000000E+00 -0.26614494493E+03  0.26614494497E+03  0.50400001928E-02 0. -1.
    10030    2    1    2    0    0  0.00000000000E+00  0.00000000000E+00  0.21499472041E+04  0.26822370940E+04  0.16037839156E+04 0.  0.
        1    1    3    3  502    0  0.63450173146E+03  0.31518302505E+03  0.17031934088E+04  0.18446681475E+04  0.50400001928E-02 0.  1.
       -1    1    3    3    0  502 -0.63450173146E+03 -0.31518302505E+03  0.44675379525E+03  0.83756894648E+03  0.50400001928E-02 0. -1.
</event>
<event>
 5   0  0.1736537E-04  0.1585674E+04  0.7818609E-02  0.8829398E-01
       -1   -1    0    0    0  501  0.00000000000E+00  0.00000000000E+00  0.41812525831E+03  0.41812525834E+03  0.50400001928E-02 0.  1.
        1   -1    0    0  501    0  0.00000000000E+00  0.00000000000E+00 -0.15033545530E+04  0.15033545530E+04  0.50400001928E-02 0. -1.
    10030    2    1    2    0    0  0.00000000000E+00  0.00000000000E+00 -0.10852292947E+04  0.19214798113E+04  0.15856740028E+04 0.  0.
        3    1    3    3  502    0  0.48478867037E+03 -0.25764443346E+03  0.15052667790E+03  0.56926180266E+03  0.10100000352E+00 0.  1.
       -3    1    3    3    0  502 -0.48478867037E+03  0.25764443346E+03 -0.12357559726E+04  0.13522180087E+04  0.10100000352E+00 0. -1.
</event>
<event>
 5   0  0.3228393E-04  0.1591229E+04  0.7818609E-02  0.8825954E-01
       -2   -1    0    0    0  501  0.00000000000E+00  0.00000000000E+00  0.26423825959E+03  0.26423825960E+03  0.25500000920E-02 0. -1.
        2   -1    0    0  501    0  0.00000000000E+00  0.00000000000E+00 -0.23955749210E+04  0.23955749210E+04  0.25500000920E-02 0.  1.
    10030    2    1    2    0    0  0.00000000000E+00  0.00000000000E+00 -0.21313366614E+04  0.26598131806E+04  0.15912291449E+04 0.  0.
        1    1    3    3  502    0  0.11330387007E+03 -0.78676085358E+03 -0.10084403823E+04  0.12840492250E+04  0.50400001928E-02 0. -1.
       -1    1    3    3    0  502 -0.11330387007E+03  0.78676085358E+03 -0.11228962792E+04  0.13757639556E+04  0.50400001928E-02 0.  1.
</event>
<event>
 5   0  0.1761255E-04  0.1602114E+04  0.7818609E-02  0.8819251E-01
        1   -1    0    0  501    0  0.00000000000E+00  0.00000000000E+00  0.47489273111E+03  0.47489273114E+03  0.50400001928E-02 0.  1.
       -1   -1    0    0    0  501  0.00000000000E+00  0.00000000000E+00 -0.13512355805E+04  0.13512355805E+04  0.50400001928E-02 0. -1.
    10030    2    1    2    0    0  0.00000000000E+00  0.00000000000E+00 -0.87634284939E+03  0.18261283117E+04  0.16021135481E+04 0.  0.
        2    1    3    3  502    0  0.12794348365E+03  0.10422731102E+03  0.45530784919E+03  0.48429134301E+03  0.25500000920E-02 0.  1.
       -2    1    3    3    0  502 -0.12794348365E+03 -0.10422731102E+03 -0.13316506986E+04  0.13418369686E+04  0.25500000920E-02 0. -1.
</event>
<event>
 5   0  0.3228393E-04  0.1604822E+04  0.7818609E-02  0.8817591E-01
       -2   -1    0    0    0  501  0.00000000000E+00  0.00000000000E+00  0.35385151979E+03  0.35385151980E+03  0.25500000920E-02 0.  1.
        2   -1    0    0  501    0  0.00000000000E+00  0.00000000000E+00 -0.18195874042E+04  0.18195874042E+04  0.25500000920E-02 0. -1.
    10030    2    1    2    0    0  0.00000000000E+00  0.00000000000E+00 -0.14657358844E+04  0.21734389240E+04  0.16048224430E+04 0.  0.
        1    1    3    3  502    0  0.57817862285E+03  0.15392460797E+03 -0.14569915226E+04  0.15750579678E+04  0.50400001928E-02 0. -1.
       -1    1    3    3    0  502 -0.57817862285E+03 -0.15392460797E+03 -0.87443617624E+01  0.59838095620E+03  0.50400001928E-02 0.  1.
</event>
<event>
 5   0  0.1219463E-04  0.1589058E+04  0.7818609E-02  0.8827298E-01
       -4   -1    0    0    0  501  0.00000000000E+00  0.00000000000E+00  0.58008914179E+03  0.58009053200E+03  0.12699999809E+01 0.  1.
        4   -1    0    0  501    0  0.00000000000E+00  0.00000000000E+00 -0.10882370437E+04  0.10882377847E+04  0.12699999809E+01 0. -1.
    10030    2    1    2    0    0  0.00000000000E+00  0.00000000000E+00 -0.50814790188E+03  0.16683283167E+04  0.15890579229E+04 0.  0.
        4    1    3    3  502    0 -0.48164016430E+03  0.35476048893E+03 -0.80307696148E+03  0.10013822803E+04  0.12699999809E+01 0. -1.
       -4    1    3    3    0  502  0.48164016430E+03 -0.35476048893E+03  0.29492905961E+03  0.66694603640E+03  0.12699999809E+01 0.  1.
</event>
<event>
 5   0  0.3380454E-04  0.1540558E+04  0.7818609E-02  0.8857921E-01
       -2   -1    0    0    0  501  0.00000000000E+00  0.00000000000E+00  0.72774690416E+03  0.72774690416E+03  0.25500000920E-02 0. -1.
        2   -1    0    0  501    0  0.00000000000E+00  0.00000000000E+00 -0.81529730736E+03  0.81529730737E+03  0.25500000920E-02 0.  1.
    10030    2    1    2    0    0  0.00000000000E+00  0.00000000000E+00 -0.87550403204E+02  0.15430442115E+04  0.15405584590E+04 0.  0.
        5    1    3    3  502    0 -0.27532084509E+03 -0.53653647480E+03 -0.52375092322E+03  0.79875532931E+03  0.46999998093E+01 0.  1.
       -5    1    3    3    0  502  0.27532084509E+03  0.53653647480E+03  0.43620052002E+03  0.74428888222E+03  0.46999998093E+01 0. -1.
</event>
<event>
 5   0  0.1764099E-04  0.1605714E+04  0.7818609E-02  0.8817046E-01
        1   -1    0    0  501    0  0.00000000000E+00  0.00000000000E+00  0.13762394017E+04  0.13762394018E+04  0.50400001928E-02 0.  1.
       -1   -1    0    0    0  501  0.00000000000E+00  0.00000000000E+00 -0.46836256431E+03  0.46836256433E+03  0.50400001928E-02 0. -1.
    10030    2    1    2    0    0  0.00000000000E+00  0.00000000000E+00  0.90787683744E+03  0.18446019661E+04  0.16057135676E+04 0.  0.
        5    1    3    3  502    0 -0.68245503652E+03  0.17150202549E+03  0.99122293775E+01  0.70376001869E+03  0.46999998093E+01 0. -1.
       -5    1    3    3    0  502  0.68245503652E+03 -0.17150202549E+03  0.89796460806E+03  0.11408419474E+04  0.46999998093E+01 0.  1.
</event>
<event>
 5   0  0.1819811E-04  0.1536496E+04  0.7818609E-02  0.8860540E-01
       -1   -1    0    0    0  501  0.00000000000E+00  0.00000000000E+00  0.14063565289E+04  0.14063565289E+04  0.50400001928E-02 0.  1.
        1   -1    0    0  501    0  0.00000000000E+00  0.00000000000E+00 -0.41966949894E+03  0.41966949897E+03  0.50400001928E-02 0. -1.
    10030    2    1    2    0    0  0.00000000000E+00  0.00000000000E+00  0.98668702996E+03  0.18260260279E+04  0.15364959354E+04 0.  0.
        1    1    3    3  502    0 -0.70224999044E+03  0.22038903235E+02  0.12403988987E+03  0.71346104073E+03  0.50400001928E-02 0. -1.
       -1    1    3    3    0  502  0.70224999044E+03 -0.22038903235E+02  0.86264714009E+03  0.11125649872E+04  0.50400001928E-02 0.  1.
</event>
<event>
 5   0  0.1736537E-04  0.1600646E+04  0.7818609E-02  0.8820151E-01
        1   -1    0    0  501    0  0.00000000000E+00  0.00000000000E+00  0.12286327651E+04  0.12286327651E+04  0.50400001928E-02 0. -1.
       -1   -1    0    0    0  501  0.00000000000E+00  0.00000000000E+00 -0.52132510887E+03  0.52132510889E+03  0.50400001928E-02 0.  1.
    10030    2    1    2    0    0  0.00000000000E+00  0.00000000000E+00  0.70730765624E+03  0.17499578740E+04  0.16006462571E+04 0.  0.
        3    1    3    3  502    0  0.72954884553E+03  0.29026173731E+03  0.18419966996E+03  0.80648801775E+03  0.10100000352E+00 0. -1.
       -3    1    3    3    0  502 -0.72954884553E+03 -0.29026173731E+03  0.52310798628E+03  0.94346985626E+03  0.10100000352E+00 0.  1.
</event>
<event>
 5   0  0.1736537E-04  0.1599864E+04  0.7818609E-02  0.8820632E-01
        1   -1    0    0  501    0  0.00000000000E+00  0.00000000000E+00  0.85417284018E+03  0.85417284019E+03  0.50400001928E-02 0. -1.
       -1   -1    0    0    0  501  0.00000000000E+00  0.00000000000E+00 -0.74913512916E+03  0.74913512918E+03  0.50400001928E-02 0.  1.
    10030    2    1    2    0    0  0.00000000000E+00  0.00000000000E+00  0.10503771102E+03  0.16033079694E+04  0.15998635954E+04 0.  0.
        3    1    3    3  502    0  0.75721451002E+03 -0.20633201007E+02 -0.20511695773E+03  0.78477545816E+03  0.10100000352E+00 0.  1.
       -3    1    3    3    0  502 -0.75721451002E+03  0.20633201007E+02  0.31015466874E+03  0.81853251122E+03  0.10100000352E+00 0. -1.
</event>
<event>
 5   0  0.3228393E-04  0.1649312E+04  0.7818609E-02  0.8790813E-01
       -2   -1    0    0    0  501  0.00000000000E+00  0.00000000000E+00  0.79441880793E+03  0.79441880794E+03  0.25500000920E-02 0.  1.
        2   -1    0    0  501    0  0.00000000000E+00  0.00000000000E+00 -0.85604437505E+03  0.85604437505E+03  0.25500000920E-02 0. -1.
    10030    2    1    2    0    0  0.00000000000E+00  0.00000000000E+00 -0.61625567117E+02  0.16504631830E+04  0.16493122833E+04 0.  0.
        1    1    3    3  502    0  0.19158163030E+03 -0.55113876187E+03 -0.61397177690E+03  0.84700578437E+03  0.50400001928E-02 0. -1.
       -1    1    3    3    0  502 -0.19158163030E+03  0.55113876187E+03  0.55234620978E+03  0.80345739862E+03  0.50400001928E-02 0.  1.
</event>
<event>
 5   0  0.1787688E-04  0.1591303E+04  0.7818609E-02  0.8825909E-01
       -1   -1    0    0    0  501  0.00000000000E+00  0.00000000000E+00  0.46403644053E+03  0.46403644056E+03  0.50400001928E-02 0. -1.
        1   -1    0    0  501    0  0.00000000000E+00  0.00000000000E+00 -0.13642482721E+04  0.13642482721E+04  0.50400001928E-02 0.  1.
    10030    2    1    2    0    0  0.00000000000E+00  0.00000000000E+00 -0.90021183156E+03  0.18282847127E+04  0.15913025007E+04 0.  0.
        4    1    3    3  502    0  0.68109928861E+02 -0.23178158968E+03  0.42087930600E+03  0.48528617417E+03  0.12699999809E+01 0. -1.
       -4    1    3    3    0  502 -0.68109928861E+02  0.23178158968E+03 -0.13210911376E+04  0.13429985385E+04  0.12699999809E+01 0.  1.
</event>
<event>
 5   0  0.1819811E-04  0.1596614E+04  0.7818609E-02  0.8822631E-01
        1   -1    0    0  501    0  0.00000000000E+00  0.00000000000E+00  0.56837373782E+03  0.56837373784E+03  0.50400001928E-02 0. -1.
       -1   -1    0    0    0  501  0.00000000000E+00  0.00000000000E+00 -0.11212584688E+04  0.11212584688E+04  0.50400001928E-02 0.  1.
    10030    2    1    2    0    0  0.00000000000E+00  0.00000000000E+00 -0.55288473099E+03  0.16896322067E+04  0.15966137504E+04 0.  0.
        1    1    3    3  502    0  0.34932430093E+03  0.30591165143E+03  0.41076232157E+03  0.61994765146E+03  0.50400001928E-02 0. -1.
       -1    1    3    3    0  502 -0.34932430093E+03 -0.30591165143E+03 -0.96364705256E+03  0.10696845552E+04  0.50400001928E-02 0.  1.
</event>
<event>
 5   0  0.3210612E-04  0.1594714E+04  0.7818609E-02  0.8823802E-01
        2   -1    0    0  501    0  0.00000000000E+00  0.00000000000E+00  0.28752457467E+03  0.28752457469E+03  0.25500000920E-02 0.  1.
       -2   -1    0    0    0  501  0.00000000000E+00  0.00000000000E+00 -0.22112143705E+04  0.22112143705E+04  0.25500000920E-02 0. -1.
    10030    2    1    2    0    0  0.00000000000E+00  0.00000000000E+00 -0.19236897959E+04  0.24987389452E+04  0.15947143586E+04 0.  0.
        2    1    3    3  502    0  0.52260410118E+03 -0.30756178823E+03 -0.15058236894E+03  0.62480745033E+03  0.25500000920E-02 0.  1.
       -2    1    3    3    0  502 -0.52260410118E+03  0.30756178823E+03 -0.17731074269E+04  0.18739314949E+04  0.25500000920E-02 0. -1.
</event>
<event>
 5   0  0.1736537E-04  0.1598747E+04  0.7818609E-02  0.8821318E-01
       -1   -1    0    0    0  501  0.00000000000E+00  0.00000000000E+00  0.39243869553E+03  0.39243869556E+03  0.50400001928E-02 0.  1.
        1   -1    0    0  501    0  0.00000000000E+00  0.00000000000E+00 -0.16282745472E+04  0.16282745472E+04  0.50400001928E-02 0. -1.
    10030    2    1    2    0    0  0.00000000000E+00  0.00000000000E+00 -0.12358358516E+04  0.20207132427E+04  0.15987469334E+04 0.  0.
        3    1    3    3  502    0 -0.62681477865E+03  0.82809571343E+01 -0.12448511427E+04  0.13937789346E+04  0.10100000352E+00 0. -1.
       -3    1    3    3    0  502  0.62681477865E+03 -0.82809571343E+01  0.90152910486E+01  0.62693430809E+03  0.10100000352E+00 0.  1.
</event>
<event>
 5   0  0.3274900E-04  0.1598735E+04  0.7818609E-02  0.8821326E-01
       -2   -1    0    0    0  501  0.00000000000E+00  0.00000000000E+00  0.49787547859E+03  0.49787547860E+03  0.25500000920E-02 0. -1.
        2   -1    0    0  501    0  0.00000000000E+00  0.00000000000E+00 -0.12834298211E+04  0.12834298211E+04  0.25500000920E-02 0.  1.
    10030    2    1    2    0    0  0.00000000000E+00  0.00000000000E+00 -0.78555434253E+03  0.17813052997E+04  0.15987347953E+04 0.  0.
        3    1    3    3  502    0  0.68222696023E+03  0.12098539578E+03  0.51390858982E+02  0.69477487134E+03  0.10100000352E+00 0. -1.
       -3    1    3    3    0  502 -0.68222696023E+03 -0.12098539578E+03 -0.83694520152E+03  0.10865304284E+04  0.10100000352E+00 0.  1.
</event>
<event>
 5   0  0.1819811E-04  0.1604574E+04  0.7818609E-02  0.8817743E-01
       -1   -1    0    0    0  501  0.00000000000E+00  0.00000000000E+00  0.51729236887E+03  0.51729236889E+03  0.50400001928E-02 0. -1.
        1   -1    0    0  501    0  0.00000000000E+00  0.00000000000E+00 -0.12442959057E+04  0.12442959057E+04  0.50400001928E-02 0.  1.
    10030    2    1    2    0    0  0.00000000000E+00  0.00000000000E+00 -0.72700353684E+03  0.17615882746E+04  0.16045744316E+04 0.  0.
        1    1    3    3  502    0  0.16290188599E+03  0.72455090949E+03 -0.30228096391E+02  0.74325283904E+03  0.50400001928E-02 0. -1.
       -1    1    3    3    0  502 -0.16290188599E+03 -0.72455090949E+03 -0.69677544045E+03  0.10183354356E+04  0.50400001928E-02 0.  1.
</event>
<event>
 5   0  0.3210612E-04  0.1593748E+04  0.7818609E-02  0.8824398E-01
       -2   -1    0    0    0  501  0.00000000000E+00  0.00000000000E+00  0.12828712203E+04  0.12828712203E+04  0.25500000920E-02 0. -1.
        2   -1    0    0  501    0  0.00000000000E+00  0.00000000000E+00 -0.49498968350E+03  0.49498968350E+03  0.25500000920E-02 0.  1.
    10030    2    1    2    0    0  0.00000000000E+00  0.00000000000E+00  0.78788153676E+03  0.17778609038E+04  0.15937478085E+04 0.  0.
        2    1    3    3  502    0  0.32741118075E+03 -0.69521559321E+03  0.15866021360E+03  0.78466289941E+03  0.25500000920E-02 0. -1.
       -2    1    3    3    0  502 -0.32741118075E+03  0.69521559321E+03  0.62922132316E+03  0.99319800436E+03  0.25500000920E-02 0.  1.
</event>
<event>
 5   0  0.1761255E-04  0.1603336E+04  0.7818609E-02  0.8818501E-01
        1   -1    0    0  501    0  0.00000000000E+00  0.00000000000E+00  0.45373270911E+03  0.45373270914E+03  0.50400001928E-02 0.  1.
       -1   -1    0    0    0  501  0.00000000000E+00  0.00000000000E+00 -0.14164102796E+04  0.14164102796E+04  0.50400001928E-02 0. -1.
    10030    2    1    2    0    0  0.00000000000E+00  0.00000000000E+00 -0.96267757046E+03  0.18701429887E+04  0.16033361137E+04 0.  0.
        2    1    3    3  502    0 -0.51988997418E+02 -0.54076583285E+03 -0.11689664548E+04  0.12890357304E+04  0.25500000920E-02 0. -1.
       -2    1    3    3    0  502  0.51988997418E+02  0.54076583285E+03  0.20628888435E+03  0.58110725830E+03  0.25500000920E-02 0.  1.
</event>
<event>
 5   0  0.3274900E-04  0.1606252E+04  0.7818609E-02  0.8816716E-01
       -2   -1    0    0    0  501  0.00000000000E+00  0.00000000000E+00  0.45914912397E+03  0.45914912397E+03  0.25500000920E-02 0.  1.
        2   -1    0    0  501    0  0.00000000000E+00  0.00000000000E+00 -0.14047972526E+04  0.14047972526E+04  0.25500000920E-02 0. -1.
    10030    2    1    2    0    0  0.00000000000E+00  0.00000000000E+00 -0.94564812859E+03  0.18639463765E+04  0.16062520697E+04 0.  0.
        3    1    3    3  502    0 -0.25222763595E+03  0.45662556453E+03  0.23578645687E+03  0.57246916944E+03  0.10100000352E+00 0.  1.
       -3    1    3    3    0  502  0.25222763595E+03 -0.45662556453E+03 -0.11814345855E+04  0.12914772071E+04  0.10100000352E+00 0. -1.
</event>
<event>
 5   0  0.3380454E-04  0.1600362E+04  0.7818609E-02  0.8820326E-01
       -2   -1    0    0    0  501  0.00000000000E+00  0.00000000000E+00  0.63466408830E+03  0.63466408830E+03  0.25500000920E-02 0.  1.
        2   -1    0    0  501    0  0.00000000000E+00  0.00000000000E+00 -0.10088635839E+04  0.10088635839E+04  0.25500000920E-02 0. -1.
    10030    2    1    2    0    0  0.00000000000E+00  0.00000000000E+00 -0.37419949563E+03  0.16435276722E+04  0.16003618175E+04 0.  0.
        5    1    3    3  502    0 -0.29243430268E+03 -0.18193127202E+03  0.55463511154E+03  0.65288514003E+03  0.46999998093E+01 0.  1.
       -5    1    3    3    0  502  0.29243430268E+03  0.18193127202E+03 -0.92883460717E+03  0.99064253220E+03  0.46999998093E+01 0. -1.
</event>
<event>
 5   0  0.1761255E-04  0.1604708E+04  0.7818609E-02  0.8817661E-01
       -1   -1    0    0    0  501  0.00000000000E+00  0.00000000000E+00  0.49268455535E+03  0.49268455538E+03  0.50400001928E-02 0.  1.
        1   -1    0    0  501    0  0.00000000000E+00  0.00000000000E+00 -0.13066615715E+04  0.13066615715E+04  0.50400001928E-02 0. -1.
    10030    2    1    2    0    0  0.00000000000E+00  0.00000000000E+00 -0.81397701616E+03  0.17993461269E+04  0.16047080425E+04 0.  0.
        2    1    3    3  502    0  0.25100932041E+03  0.80621308761E+02  0.44273068054E+03  0.51528237876E+03  0.25500000920E-02 0.  1.
       -2    1    3    3    0  502 -0.25100932041E+03 -0.80621308761E+02 -0.12567076967E+04  0.12840637481E+04  0.25500000920E-02 0. -1.
</event>
<event>
 5   0  0.3274900E-04  0.1597632E+04  0.7818609E-02  0.8822004E-01
        2   -1    0    0  501    0  0.00000000000E+00  0.00000000000E+00  0.10018839018E+04  0.10018839018E+04  0.25500000920E-02 0. -1.
       -2   -1    0    0    0  501  0.00000000000E+00  0.00000000000E+00 -0.63690696344E+03  0.63690696344E+03  0.25500000920E-02 0.  1.
    10030    2    1    2    0    0  0.00000000000E+00  0.00000000000E+00  0.36497693836E+03  0.16387908652E+04  0.15976317894E+04 0.  0.
        3    1    3    3  502    0  0.35657612823E+03 -0.57067407620E+03 -0.25905600809E+03  0.72105857044E+03  0.10100000352E+00 0.  1.
       -3    1    3    3    0  502 -0.35657612823E+03  0.57067407620E+03  0.62403294644E+03  0.91773229480E+03  0.10100000352E+00 0. -1.
</event>
<event>
 5   0  0.3228393E-04  0.1581061E+04  0.7818609E-02  0.8832268E-01
       -2   -1    0    0    0  501  0.00000000000E+00  0.00000000000E+00  0.31985583057E+03  0.31985583058E+03  0.25500000920E-02 0.  1.
        2   -1    0    0  501    0  0.00000000000E+00  0.00000000000E+00 -0.19538127802E+04  0.19538127802E+04  0.25500000920E-02 0. -1.
    10030    2    1    2    0    0  0.00000000000E+00  0.00000000000E+00 -0.16339569496E+04  0.22736686107E+04  0.15810609218E+04 0.  0.
        1    1    3    3  502    0 -0.79044967967E+03 -0.10678976129E+02 -0.81166095062E+03  0.11330129017E+04  0.50400001928E-02 0. -1.
       -1    1    3    3    0  502  0.79044967967E+03  0.10678976129E+02 -0.82229599896E+03  0.11406557090E+04  0.50400001928E-02 0.  1.
</event>
<event>
 5   0  0.1764099E-04  0.1596762E+04  0.7818609E-02  0.8822540E-01
        1   -1    0    0  501    0  0.00000000000E+00  0.00000000000E+00  0.19994384344E+04  0.19994384344E+04  0.50400001928E-02 0. -1.
       -1   -1    0    0    0  501  0.00000000000E+00  0.00000000000E+00 -0.31879554461E+03  0.31879554465E+03  0.50400001928E-02 0.  1.
    10030    2    1    2    0    0  0.00000000000E+00  0.00000000000E+00  0.16806428898E+04  0.23182339790E+04  0.15967618040E+04 0.  0.
        5    1    3    3  502    0 -0.73268763336E+03 -0.29001152463E+03  0.10265422048E+04  0.12941208756E+04  0.46999998093E+01 0.  1.
       -5    1    3    3    0  502  0.73268763336E+03  0.29001152463E+03  0.65410068496E+03  0.10241131034E+04  0.46999998093E+01 0. -1.
</event>
<event>
 5   0  0.3274900E-04  0.1579877E+04  0.7818609E-02  0.8833007E-01
       -2   -1    0    0    0  501  0.00000000000E+00  0.00000000000E+00  0.46497394645E+03  0.46497394645E+03  0.25500000920E-02 0.  1.
        2   -1    0    0  501    0  0.00000000000E+00  0.00000000000E+00 -0.13420162371E+04  0.13420162371E+04  0.25500000920E-02 0. -1.
    10030    2    1    2    0    0  0.00000000000E+00  0.00000000000E+00 -0.87704229070E+03  0.18069901836E+04  0.15798766863E+04 0.  0.
        3    1    3    3  502    0  0.46989549350E+03  0.41677222458E+03 -0.98645176353E+03  0.11694391622E+04  0.10100000352E+00 0. -1.
       -3    1    3    3    0  502 -0.46989549350E+03 -0.41677222458E+03  0.10940947284E+03  0.63755102145E+03  0.10100000352E+00 0.  1.
</event>
<event>
 5   0  0.1787688E-04  0.1601627E+04  0.7818609E-02  0.8819549E-01
       -1   -1    0    0    0  501  0.00000000000E+00  0.00000000000E+00  0.33642983941E+03  0.33642983944E+03  0.50400001928E-02 0. -1.
        1   -1    0    0  501    0  0.00000000000E+00  0.00000000000E+00 -0.19061982832E+04  0.19061982832E+04  0.50400001928E-02 0.  1.
    10030    2    1    2    0    0  0.00000000000E+00  0.00000000000E+00 -0.15697684438E+04  0.22426281227E+04  0.16016266511E+04 0.  0.
        4    1    3    3  502    0 -0.83423641441E+02 -0.40024956892E+03 -0.17490457550E+04  0.17961965058E+04  0.12699999809E+01 0.  1.
       -4    1    3    3    0  502  0.83423641441E+02  0.40024956892E+03  0.17927731118E+03  0.44643161691E+03  0.12699999809E+01 0. -1.
</event>
<event>
 5   0  0.1819811E-04  0.1601545E+04  0.7818609E-02  0.8819600E-01
        1   -1    0    0  501    0  0.00000000000E+00  0.00000000000E+00  0.12153132579E+04  0.12153132579E+04  0.50400001928E-02 0.  1.
       -1   -1    0    0    0  501  0.00000000000E+00  0.00000000000E+00 -0.52763060290E+03  0.52763060292E+03  0.50400001928E-02 0. -1.
    10030    2    1    2    0    0  0.00000000000E+00  0.00000000000E+00  0.68768265500E+03  0.17429438608E+04  0.16015448380E+04 0.  0.
        1    1    3    3  502    0  0.63838014747E+03  0.72046644336E+02  0.86408057453E+03  0.10767335654E+04  0.50400001928E-02 0.  1.
       -1    1    3    3    0  502 -0.63838014747E+03 -0.72046644336E+02 -0.17639791953E+03  0.66621029539E+03  0.50400001928E-02 0. -1.
</event>
<event>
 5   0  0.1736537E-04  0.1604753E+04  0.7818609E-02  0.8817633E-01
        1   -1    0    0  501    0  0.00000000000E+00  0.00000000000E+00  0.14239319167E+04  0.14239319167E+04  0.50400001928E-02 0.  1.
       -1   -1    0    0    0  501  0.00000000000E+00  0.00000000000E+00 -0.45213414937E+03  0.45213414940E+03  0.50400001928E-02 0. -1.
    10030    2    1    2    0    0  0.00000000000E+00  0.00000000000E+00  0.97179776737E+03  0.18760660661E+04  0.16047532470E+04 0.  0.
        3    1    3    3  502    0  0.26449521359E+03  0.16046251909E+02  0.13713035363E+04  0.13966705407E+04  0.10100000352E+00 0.  1.
       -3    1    3    3    0  502 -0.26449521359E+03 -0.16046251909E+02 -0.39950576896E+03  0.47939552548E+03  0.10100000352E+00 0. -1.
</event>
<event>
 5   0  0.3263294E-04  0.1597694E+04  0.7818609E-02  0.8821966E-01
       -2   -1    0    0    0  501  0.00000000000E+00  0.00000000000E+00  0.43985339864E+03  0.43985339864E+03  0.25500000920E-02 0. -1.
        2   -1    0    0  501    0  0.00000000000E+00  0.00000000000E+00 -0.14508399243E+04  0.14508399243E+04  0.25500000920E-02 0.  1.
    10030    2    1    2    0    0  0.00000000000E+00  0.00000000000E+00 -0.10109865257E+04  0.18906933230E+04  0.15976944283E+04 0.  0.
        4    1    3    3  502    0  0.13120211118E+01 -0.87822279908E+02 -0.14451073519E+04  0.14477746184E+04  0.12699999809E+01 0.  1.
       -4    1    3    3    0  502 -0.13120211118E+01  0.87822279908E+02  0.43412082619E+03  0.44291870460E+03  0.12699999809E+01 0. -1.
</event>
<event>
 5   0  0.3263294E-04  0.1604816E+04  0.7818609E-02  0.8817595E-01
       -2   -1    0    0    0  501  0.00000000000E+00  0.00000000000E+00  0.11930778266E+04  0.11930778266E+04  0.25500000920E-02 0.  1.
        2   -1    0    0  501    0  0.00000000000E+00  0.00000000000E+00 -0.53966154322E+03  0.53966154322E+03  0.25500000920E-02 0. -1.
    10030    2    1    2    0    0  0.00000000000E+00  0.00000000000E+00  0.65341628343E+03  0.17327393699E+04  0.16048155297E+04 0.  0.
        4    1    3    3  502    0 -0.15589337836E+03 -0.77594221804E+03  0.18400814556E+03  0.81255749439E+03  0.12699999809E+01 0.  1.
       -4    1    3    3    0  502  0.15589337836E+03  0.77594221804E+03  0.46940813787E+03  0.92018187548E+03  0.12699999809E+01 0. -1.
</event>
<event>
 5   0  0.1219463E-04  0.1597168E+04  0.7818609E-02  0.8822290E-01
       -4   -1    0    0    0  501  0.00000000000E+00  0.00000000000E+00  0.14079604997E+04  0.14079610725E+04  0.12699999809E+01 0.  1.
        4   -1    0    0  501    0  0.00000000000E+00  0.00000000000E+00 -0.45294903342E+03  0.45295081385E+03  0.12699999809E+01 0. -1.
    10030    2    1    2    0    0  0.00000000000E+00  0.00000000000E+00  0.95501146626E+03  0.18609118863E+04  0.15971681652E+04 0.  0.
        3    1    3    3  502    0 -0.21903762946E+03  0.31551809533E+03  0.12932707649E+04  0.13491028253E+04  0.10100000352E+00 0.  1.
       -3    1    3    3    0  502  0.21903762946E+03 -0.31551809533E+03 -0.33825929867E+03  0.51180906101E+03  0.10100000352E+00 0. -1.
</event>
<event>
 5   0  0.1764099E-04  0.1603523E+04  0.7818609E-02  0.8818387E-01
       -1   -1    0    0    0  501  0.00000000000E+00  0.00000000000E+00  0.94461760378E+03  0.94461760379E+03  0.50400001928E-02 0. -1.
        1   -1    0    0  501    0  0.00000000000E+00  0.00000000000E+00 -0.68050950867E+03  0.68050950869E+03  0.50400001928E-02 0.  1.
    10030    2    1    2    0    0  0.00000000000E+00  0.00000000000E+00  0.26410809511E+03  0.16251271125E+04  0.16035226989E+04 0.  0.
        5    1    3    3  502    0  0.76181732541E+03 -0.17659170196E+03 -0.47101237957E+02  0.78344807301E+03  0.46999998093E+01 0.  1.
       -5    1    3    3    0  502 -0.76181732541E+03  0.17659170196E+03  0.31120933307E+03  0.84167903947E+03  0.46999998093E+01 0. -1.
</event>
<event>
 5   0  0.1764099E-04  0.1596174E+04  0.7818609E-02  0.8822902E-01
       -1   -1    0    0    0  501  0.00000000000E+00  0.00000000000E+00  0.33301748522E+03  0.33301748526E+03  0.50400001928E-02 0. -1.
        1   -1    0    0  501    0  0.00000000000E+00  0.00000000000E+00 -0.19126405364E+04  0.19126405364E+04  0.50400001928E-02 0.  1.
    10030    2    1    2    0    0  0.00000000000E+00  0.00000000000E+00 -0.15796230511E+04  0.22456580216E+04  0.15961738522E+04 0.  0.
        5    1    3    3  502    0 -0.45550127261E+03 -0.57282233447E+03 -0.12376256258E+04  0.14378268727E+04  0.46999998093E+01 0.  1.
       -5    1    3    3    0  502  0.45550127261E+03  0.57282233447E+03 -0.34199742534E+03  0.80783114892E+03  0.46999998093E+01 0. -1.
</event>
<event>
 5   0  0.3210612E-04  0.1600829E+04  0.7818609E-02  0.8820039E-01
        2   -1    0    0  501    0  0.00000000000E+00  0.00000000000E+00  0.12699966559E+04  0.12699966559E+04  0.25500000920E-02 0.  1.
       -2   -1    0    0    0  501  0.00000000000E+00  0.00000000000E+00 -0.50446095389E+03  0.50446095389E+03  0.25500000920E-02 0. -1.
    10030    2    1    2    0    0  0.00000000000E+00  0.00000000000E+00  0.76553570199E+03  0.17744576098E+04  0.16008294406E+04 0.  0.
        2    1    3    3  502    0 -0.57382040235E+02 -0.61509583629E+03  0.94691713082E+03  0.11306138328E+04  0.25500000920E-02 0.  1.
       -2    1    3    3    0  502  0.57382040235E+02  0.61509583629E+03 -0.18138142883E+03  0.64384377693E+03  0.25500000920E-02 0. -1.
</event>
<event>
 5   0  0.3274900E-04  0.1596955E+04  0.7818609E-02  0.8822421E-01
        2   -1    0    0  501    0  0.00000000000E+00  0.00000000000E+00  0.92668448615E+03  0.92668448615E+03  0.25500000920E-02 0. -1.
       -2   -1    0    0    0  501  0.00000000000E+00  0.00000000000E+00 -0.68800778893E+03  0.68800778894E+03  0.25500000920E-02 0.  1.
    10030    2    1    2    0    0  0.00000000000E+00  0.00000000000E+00  0.23867669721E+03  0.16146922751E+04  0.15969547825E+04 0.  0.
        3    1    3    3  502    0 -0.24115384676E+03 -0.75785798247E+02  0.88515932844E+03  0.92054642031E+03  0.10100000352E+00 0. -1.
       -3    1    3    3    0  502  0.24115384676E+03  0.75785798247E+02 -0.64648263123E+03  0.69414585478E+03  0.10100000352E+00 0.  1.
</event>
<event>
 5   0  0.3228393E-04  0.1585093E+04  0.7818609E-02  0.8829759E-01
       -2   -1    0    0    0  501  0.00000000000E+00  0.00000000000E+00  0.57788490419E+03  0.57788490420E+03  0.25500000920E-02 0.  1.
        2   -1    0    0  501    0  0.00000000000E+00  0.00000000000E+00 -0.10869457973E+04  0.10869457973E+04  0.25500000920E-02 0. -1.
    10030    2    1    2    0    0  0.00000000000E+00  0.00000000000E+00 -0.50906089306E+03  0.16648307015E+04  0.15850925120E+04 0.  0.
        1    1    3    3  502    0  0.75104584507E+03 -0.11698812838E+03 -0.49026131581E+03  0.90449557290E+03  0.50400001928E-02 0. -1.
       -1    1    3    3    0  502 -0.75104584507E+03  0.11698812838E+03 -0.18799577254E+02  0.76033512856E+03  0.50400001928E-02 0.  1.
</event>
<event>
 5   0  0.3210612E-04  0.1601618E+04  0.7818609E-02  0.8819555E-01
        2   -1    0    0  501    0  0.00000000000E+00  0.00000000000E+00  0.93539096519E+03  0.93539096519E+03  0.25500000920E-02 0.  1.
       -2   -1    0    0    0  501  0.00000000000E+00  0.00000000000E+00 -0.68558999448E+03  0.68558999448E+03  0.25500000920E-02 0. -1.
    10030    2    1    2    0    0  0.00000000000E+00  0.00000000000E+00  0.24980097071E+03  0.16209809597E+04  0.16016175407E+04 0.  0.
        2    1    3    3  502    0 -0.49515380000E+03 -0.60257884409E+03  0.30880069755E+03  0.83883038799E+03  0.25500000920E-02 0. -1.
       -2    1    3    3    0  502  0.49515380000E+03  0.60257884409E+03 -0.58999726843E+02  0.78215057168E+03  0.25500000920E-02 0.  1.
</event>
<event>
 5   0  0.3274900E-04  0.1656677E+04  0.7818609E-02  0.8786466E-01
        2   -1    0    0  501    0  0.00000000000E+00  0.00000000000E+00  0.10599602851E+04  0.10599602851E+04  0.25500000920E-02 0.  1.
       -2   -1    0    0    0  501  0.00000000000E+00  0.00000000000E+00 -0.64733046536E+03  0.64733046536E+03  0.25500000920E-02 0. -1.
    10030    2    1    2    0    0  0.00000000000E+00  0.00000000000E+00  0.41262981975E+03  0.17072907505E+04  0.16566768962E+04 0.  0.
        3    1    3    3  502    0 -0.18058760525E+03  0.47663047374E+03 -0.46659341852E+03  0.69101224308E+03  0.10100000352E+00 0. -1.
       -3    1    3    3    0  502  0.18058760525E+03 -0.47663047374E+03  0.87922323828E+03  0.10162785074E+04  0.10100000352E+00 0.  1.
</event>
<event>
 5   0  0.1736537E-04  0.1604738E+04  0.7818609E-02  0.8817642E-01
       -1   -1    0    0    0  501  0.00000000000E+00  0.00000000000E+00  0.90821699185E+03  0.90821699187E+03  0.50400001928E-02 0. -1.
        1   -1    0    0  501    0  0.00000000000E+00  0.00000000000E+00 -0.70885719888E+03  0.70885719890E+03  0.50400001928E-02 0.  1.
    10030    2    1    2    0    0  0.00000000000E+00  0.00000000000E+00  0.19935979297E+03  0.16170741908E+04  0.16047381753E+04 0.  0.
        3    1    3    3  502    0 -0.31302507622E+03 -0.40093282227E+03 -0.52562581967E+03  0.73144674367E+03  0.10100000352E+00 0.  1.
       -3    1    3    3    0  502  0.31302507622E+03  0.40093282227E+03  0.72498561264E+03  0.88562744710E+03  0.10100000352E+00 0. -1.
</event>
<event>
 5   0  0.3380454E-04  0.1401450E+04  0.7818609E-02  0.8952770E-01
       -2   -1    0    0    0  501  0.00000000000E+00  0.00000000000E+00  0.33794901209E+03  0.33794901210E+03  0.25500000920E-02 0. -1.
        2   -1    0    0  501    0  0.00000000000E+00  0.00000000000E+00 -0.14529270606E+04  0.14529270606E+04  0.25500000920E-02 0.  1.
    10030    2    1    2    0    0  0.00000000000E+00  0.00000000000E+00 -0.11149780485E+04  0.17908760727E+04  0.14014496277E+04 0.  0.
        5    1    3    3  502    0 -0.65239569804E+03 -0.17988779752E+03 -0.32530452495E+03  0.75088274082E+03  0.46999998093E+01 0.  1.
       -5    1    3    3    0  502  0.65239569804E+03  0.17988779752E+03 -0.78967352352E+03  0.10399933318E+04  0.46999998093E+01 0. -1.
</event>
<event>
 5   0  0.1764099E-04  0.1550925E+04  0.7818609E-02  0.8851277E-01
       -1   -1    0    0    0  501  0.00000000000E+00  0.00000000000E+00  0.94646326426E+03  0.94646326427E+03  0.50400001928E-02 0.  1.
        1   -1    0    0  501    0  0.00000000000E+00  0.00000000000E+00 -0.63535714789E+03  0.63535714791E+03  0.50400001928E-02 0. -1.
    10030    2    1    2    0    0  0.00000000000E+00  0.00000000000E+00  0.31110611637E+03  0.15818204122E+04  0.15509251435E+04 0.  0.
        5    1    3    3  502    0 -0.38466381375E+03  0.44387238827E+03  0.67193024014E+03  0.89246920636E+03  0.46999998093E+01 0.  1.
       -5    1    3    3    0  502  0.38466381375E+03 -0.44387238827E+03 -0.36082412378E+03  0.68935120583E+03  0.46999998093E+01 0. -1.
</event>
<event>
 5   0  0.1736537E-04  0.1606942E+04  0.7818609E-02  0.8816294E-01
        1   -1    0    0  501    0  0.00000000000E+00  0.00000000000E+00  0.11819153168E+04  0.11819153168E+04  0.50400001928E-02 0.  1.
       -1   -1    0    0    0  501  0.00000000000E+00  0.00000000000E+00 -0.54620317220E+03  0.54620317222E+03  0.50400001928E-02 0. -1.
    10030    2    1    2    0    0  0.00000000000E+00  0.00000000000E+00  0.63571214461E+03  0.17281184890E+04  0.16069423080E+04 0.  0.
        3    1    3    3  502    0 -0.10750906530E+03 -0.13948901663E+03  0.11609035238E+04  0.11741858399E+04  0.10100000352E+00 0.  1.
       -3    1    3    3    0  502  0.10750906530E+03  0.13948901663E+03 -0.52519137915E+03  0.55393264917E+03  0.10100000352E+00 0. -1.
</event>
<event>
 5   0  0.3274900E-04  0.1565124E+04  0.7818609E-02  0.8842265E-01
        2   -1    0    0  501    0  0.00000000000E+00  0.00000000000E+00  0.65272340737E+03  0.65272340737E+03  0.25500000920E-02 0.  1.
       -2   -1    0    0    0  501  0.00000000000E+00  0.00000000000E+00 -0.93822840345E+03  0.93822840345E+03  0.25500000920E-02 0. -1.
    10030    2    1    2    0    0  0.00000000000E+00  0.00000000000E+00 -0.28550499609E+03  0.15909518108E+04  0.15651244556E+04 0.  0.
        3    1    3    3  502    0 -0.63466531823E+03 -0.12472134918E+03 -0.59053065048E+03  0.87583214172E+03  0.10100000352E+00 0. -1.
       -3    1    3    3    0  502  0.63466531823E+03  0.12472134918E+03  0.30502565440E+03  0.71511966911E+03  0.10100000352E+00 0.  1.
</event>
<event>
 5   0  0.1819811E-04  0.1586631E+04  0.7818609E-02  0.8828803E-01
       -1   -1    0    0    0  501  0.00000000000E+00  0.00000000000E+00  0.11544808714E+04  0.11544808714E+04  0.50400001928E-02 0.  1.
        1   -1    0    0  501    0  0.00000000000E+00  0.00000000000E+00 -0.54513650209E+03  0.54513650211E+03  0.50400001928E-02 0. -1.
    10030    2    1    2    0    0  0.00000000000E+00  0.00000000000E+00  0.60934436933E+03  0.16996173735E+04  0.15866312287E+04 0.  0.
        1    1    3    3  502    0 -0.57105734471E+03 -0.20314402366E+03 -0.24361191426E+03  0.65323866243E+03  0.50400001928E-02 0. -1.
       -1    1    3    3    0  502  0.57105734471E+03  0.20314402366E+03  0.85295628359E+03  0.10463787111E+04  0.50400001928E-02 0.  1.
</event>
<event>
 5   0  0.1736537E-04  0.1619331E+04  0.7818609E-02  0.8808760E-01
       -1   -1    0    0    0  501  0.00000000000E+00  0.00000000000E+00  0.51883613237E+03  0.51883613239E+03  0.50400001928E-02 0. -1.
        1   -1    0    0  501    0  0.00000000000E+00  0.00000000000E+00 -0.12635162555E+04  0.12635162555E+04  0.50400001928E-02 0.  1.
    10030    2    1    2    0    0  0.00000000000E+00  0.00000000000E+00 -0.74468012312E+03  0.17823523879E+04  0.16193305866E+04 0.  0.
        3    1    3    3  502    0  0.43058796104E+03 -0.58275260944E+03  0.25353556729E+02  0.72501683363E+03  0.10100000352E+00 0.  1.
       -3    1    3    3    0  502 -0.43058796104E+03  0.58275260944E+03 -0.77003367985E+03  0.10573355543E+04  0.10100000352E+00 0. -1.
</event>
<event>
 5   0  0.1761255E-04  0.1598108E+04  0.7818609E-02  0.8821711E-01
        1   -1    0    0  501    0  0.00000000000E+00  0.00000000000E+00  0.72751654685E+03  0.72751654686E+03  0.50400001928E-02 0.  1.
       -1   -1    0    0    0  501  0.00000000000E+00  0.00000000000E+00 -0.87762559817E+03  0.87762559818E+03  0.50400001928E-02 0. -1.
    10030    2    1    2    0    0  0.00000000000E+00  0.00000000000E+00 -0.15010905132E+03  0.16051421450E+04  0.15981078119E+04 0.  0.
        2    1    3    3  502    0  0.71202416314E+03  0.31152715305E+03  0.11139545462E+03  0.78513471666E+03  0.25500000920E-02 0.  1.
       -2    1    3    3    0  502 -0.71202416314E+03 -0.31152715305E+03 -0.26150450595E+03  0.82000742839E+03  0.25500000920E-02 0. -1.
</event>
<event>
 5   0  0.1764099E-04  0.1606034E+04  0.7818609E-02  0.8816849E-01
        1   -1    0    0  501    0  0.00000000000E+00  0.00000000000E+00  0.84705251535E+03  0.84705251537E+03  0.50400001928E-02 0. -1.
       -1   -1    0    0    0  501  0.00000000000E+00  0.00000000000E+00 -0.76127105252E+03  0.76127105254E+03  0.50400001928E-02 0.  1.
    10030    2    1    2    0    0  0.00000000000E+00  0.00000000000E+00  0.85781462829E+02  0.16083235679E+04  0.16060343208E+04 0.  0.
        5    1    3    3  502    0 -0.69684330903E+03  0.22184309539E+03  0.37504032580E+03  0.82187729758E+03  0.46999998093E+01 0. -1.
       -5    1    3    3    0  502  0.69684330903E+03 -0.22184309539E+03 -0.28925886297E+03  0.78644627033E+03  0.46999998093E+01 0.  1.
</event>
<event>
 5   0  0.3263294E-04  0.1583435E+04  0.7818609E-02  0.8830790E-01
       -2   -1    0    0    0  501  0.00000000000E+00  0.00000000000E+00  0.94211475270E+03  0.94211475271E+03  0.25500000920E-02 0.  1.
        2   -1    0    0  501    0  0.00000000000E+00  0.00000000000E+00 -0.66532945290E+03  0.66532945290E+03  0.25500000920E-02 0. -1.
    10030    2    1    2    0    0  0.00000000000E+00  0.00000000000E+00  0.27678529980E+03  0.16074442056E+04  0.15834351177E+04 0.  0.
        4    1    3    3  502    0 -0.40781200830E+03 -0.56149537796E+03  0.52525805554E+03  0.87033633234E+03  0.12699999809E+01 0.  1.
       -4    1    3    3    0  502  0.40781200830E+03  0.56149537796E+03 -0.24847275574E+03  0.73710787327E+03  0.12699999809E+01 0. -1.
</event>
<event>
 5   0  0.3228393E-04  0.1595106E+04  0.7818609E-02  0.8823560E-01
       -2   -1    0    0    0  501  0.00000000000E+00  0.00000000000E+00  0.89135120217E+03  0.89135120217E+03  0.25500000920E-02 0.  1.
        2   -1    0    0  501    0  0.00000000000E+00  0.00000000000E+00 -0.71362516235E+03  0.71362516236E+03  0.25500000920E-02 0. -1.
    10030    2    1    2    0    0  0.00000000000E+00  0.00000000000E+00  0.17772603982E+03  0.16049763645E+04  0.15951058227E+04 0.  0.
        1    1    3    3  502    0  0.27944164891E+03  0.62716834451E+03 -0.31943473591E+03  0.75727558922E+03  0.50400001928E-02 0.  1.
       -1    1    3    3    0  502 -0.27944164891E+03 -0.62716834451E+03  0.49716077573E+03  0.84770077530E+03  0.50400001928E-02 0. -1.
</event>
<event>
 5   0  0.1787688E-04  0.1577328E+04  0.7818609E-02  0.8834598E-01
       -1   -1    0    0    0  501  0.00000000000E+00  0.00000000000E+00  0.31791348782E+03  0.31791348786E+03  0.50400001928E-02 0.  1.
        1   -1    0    0  501    0  0.00000000000E+00  0.00000000000E+00 -0.19564794653E+04  0.19564794653E+04  0.50400001928E-02 0. -1.
    10030    2    1    2    0    0  0.00000000000E+00  0.00000000000E+00 -0.16385659775E+04  0.22743929532E+04  0.15773283878E+04 0.  0.
        4    1    3    3  502    0  0.25614995311E+03  0.64682367117E+03 -0.28363863349E+03  0.75129631130E+03  0.12699999809E+01 0.  1.
       -4    1    3    3    0  502 -0.25614995311E+03 -0.64682367117E+03 -0.13549273440E+04  0.15230966419E+04  0.12699999809E+01 0. -1.
</event>
<event>
 5   0  0.3210612E-04  0.1600824E+04  0.7818609E-02  0.8820042E-01
        2   -1    0    0  501    0  0.00000000000E+00  0.00000000000E+00  0.75941788550E+03  0.75941788550E+03  0.25500000920E-02 0.  1.
       -2   -1    0    0    0  501  0.00000000000E+00  0.00000000000E+00 -0.84361875616E+03  0.84361875617E+03  0.25500000920E-02 0. -1.
    10030    2    1    2    0    0  0.00000000000E+00  0.00000000000E+00 -0.84200870668E+02  0.16030366417E+04  0.16008237529E+04 0.  0.
        2    1    3    3  502    0 -0.28322871781E+03 -0.26165908562E+03  0.66027858348E+03  0.76462526213E+03  0.25500000920E-02 0.  1.
       -2    1    3    3    0  502  0.28322871781E+03  0.26165908562E+03 -0.74447945415E+03  0.83841137954E+03  0.25500000920E-02 0. -1.
</event>
<event>
 5   0  0.1764099E-04  0.1592654E+04  0.7818609E-02  0.8825074E-01
        1   -1    0    0  501    0  0.00000000000E+00  0.00000000000E+00  0.11179987323E+04  0.11179987323E+04  0.50400001928E-02 0. -1.
       -1   -1    0    0    0  501  0.00000000000E+00  0.00000000000E+00 -0.56720676696E+03  0.56720676699E+03  0.50400001928E-02 0.  1.
    10030    2    1    2    0    0  0.00000000000E+00  0.00000000000E+00  0.55079196532E+03  0.16852054993E+04  0.15926536930E+04 0.  0.
        5    1    3    3  502    0 -0.69695563203E+01  0.66565734836E+03 -0.18699528863E+03  0.69147495118E+03  0.46999998093E+01 0.  1.
       -5    1    3    3    0  502  0.69695563203E+01 -0.66565734836E+03  0.73778725395E+03  0.99373054810E+03  0.46999998093E+01 0. -1.
</event>
<event>
 5   0  0.3210612E-04  0.1604389E+04  0.7818609E-02  0.8817856E-01
       -2   -1    0    0    0  501  0.00000000000E+00  0.00000000000E+00  0.64496836877E+03  0.64496836877E+03  0.25500000920E-02 0.  1.
        2   -1    0    0  501    0  0.00000000000E+00  0.00000000000E+00 -0.99774834229E+03  0.99774834229E+03  0.25500000920E-02 0. -1.
    10030    2    1    2    0    0  0.00000000000E+00  0.00000000000E+00 -0.35277997352E+03  0.16427167111E+04  0.16043891308E+04 0.  0.
        2    1    3    3  502    0  0.78011659502E+03  0.14169130812E+03 -0.51585527420E+02  0.79455609951E+03  0.25500000920E-02 0. -1.
       -2    1    3    3    0  502 -0.78011659502E+03 -0.14169130812E+03 -0.30119444610E+03  0.84816061155E+03  0.25500000920E-02 0.  1.
</event>
<event>
 5   0  0.1787688E-04  0.1602135E+04  0.7818609E-02  0.8819237E-01
        1   -1    0    0  501    0  0.00000000000E+00  0.00000000000E+00  0.11772657797E+04  0.11772657797E+04  0.50400001928E-02 0. -1.
       -1   -1    0    0    0  501  0.00000000000E+00  0.00000000000E+00 -0.54508433290E+03  0.54508433292E+03  0.50400001928E-02 0.  1.
    10030    2    1    2    0    0  0.00000000000E+00  0.00000000000E+00  0.63218144678E+03  0.17223501126E+04  0.16021349908E+04 0.  0.
        4    1    3    3  502    0  0.52291870083E+03  0.53921148090E+03  0.16785778072E+02  0.75131642073E+03  0.12699999809E+01 0. -1.
       -4    1    3    3    0  502 -0.52291870083E+03 -0.53921148090E+03  0.61539566871E+03  0.97103369188E+03  0.12699999809E+01 0.  1.
</event>
<event>
 5   0  0.1761255E-04  0.1602582E+04  0.7818609E-02  0.8818963E-01
       -1   -1    0    0    0  501  0.00000000000E+00  0.00000000000E+00  0.32276074103E+03  0.32276074107E+03  0.50400001928E-02 0.  1.
        1   -1    0    0  501    0  0.00000000000E+00  0.00000000000E+00 -0.19892977814E+04  0.19892977814E+04  0.50400001928E-02 0. -1.
    10030    2    1    2    0    0  0.00000000000E+00  0.00000000000E+00 -0.16665370404E+04  0.23120585225E+04  0.16025819494E+04 0.  0.
        2    1    3    3  502    0 -0.61934078874E+03 -0.41588837533E+03 -0.41136306003E+03  0.85191884619E+03  0.25500000920E-02 0.  1.
       -2    1    3    3    0  502  0.61934078874E+03  0.41588837533E+03 -0.12551739804E+04  0.14601396763E+04  0.25500000920E-02 0. -1.
</event>
<event>
 5   0  0.1761255E-04  0.1596550E+04  0.7818609E-02  0.8822670E-01
       -1   -1    0    0    0  501  0.00000000000E+00  0.00000000000E+00  0.32730242377E+03  0.32730242381E+03  0.50400001928E-02 0.  1.
        1   -1    0    0  501    0  0.00000000000E+00  0.00000000000E+00 -0.19469549900E+04  0.19469549900E+04  0.50400001928E-02 0. -1.
    10030    2    1    2    0    0  0.00000000000E+00  0.00000000000E+00 -0.16196525662E+04  0.22742574138E+04  0.15965501398E+04 0.  0.
        2    1    3    3  502    0 -0.22386318589E+03  0.53551687295E+03 -0.15905024194E+04  0.16931009992E+04  0.25500000920E-02 0. -1.
       -2    1    3    3    0  502  0.22386318589E+03 -0.53551687295E+03 -0.29150146807E+02  0.58115641464E+03  0.25500000920E-02 0.  1.
</event>
<event>
 5   0  0.3210612E-04  0.1601805E+04  0.7818609E-02  0.8819440E-01
        2   -1    0    0  501    0  0.00000000000E+00  0.00000000000E+00  0.11379020614E+04  0.11379020614E+04  0.25500000920E-02 0. -1.
       -2   -1    0    0    0  501  0.00000000000E+00  0.00000000000E+00 -0.56370831758E+03  0.56370831758E+03  0.25500000920E-02 0.  1.
    10030    2    1    2    0    0  0.00000000000E+00  0.00000000000E+00  0.57419374386E+03  0.17016103790E+04  0.16018050526E+04 0.  0.
        2    1    3    3  502    0 -0.35677655134E+03  0.77112400498E+02  0.10444033189E+04  0.11063517173E+04  0.25500000920E-02 0. -1.
       -2    1    3    3    0  502  0.35677655134E+03 -0.77112400498E+02 -0.47020957502E+03  0.59525866171E+03  0.25500000920E-02 0.  1.
</event>
<event>
 5   0  0.1219463E-04  0.1607723E+04  0.7818609E-02  0.8815817E-01
       -3   -1    0    0    0  501  0.00000000000E+00  0.00000000000E+00  0.51636639788E+03  0.51636640776E+03  0.10100000352E+00 0.  1.
        3   -1    0    0  501    0  0.00000000000E+00  0.00000000000E+00 -0.12514241580E+04  0.12514241621E+04  0.10100000352E+00 0. -1.
    10030    2    1    2    0    0  0.00000000000E+00  0.00000000000E+00 -0.73505776011E+03  0.17677905698E+04  0.16077231068E+04 0.  0.
        4    1    3    3  502    0 -0.15744369268E+03  0.56068478987E+03 -0.97680490884E+03  0.11372358563E+04  0.12699999809E+01 0.  1.
       -4    1    3    3    0  502  0.15744369268E+03 -0.56068478987E+03  0.24174714873E+03  0.63055471355E+03  0.12699999809E+01 0. -1.
</event>
<event>
 5   0  0.3380454E-04  0.1605214E+04  0.7818609E-02  0.8817351E-01
        2   -1    0    0  501    0  0.00000000000E+00  0.00000000000E+00  0.57268239373E+03  0.57268239374E+03  0.25500000920E-02 0.  1.
       -2   -1    0    0    0  501  0.00000000000E+00  0.00000000000E+00 -0.11248439128E+04  0.11248439128E+04  0.25500000920E-02 0. -1.
    10030    2    1    2    0    0  0.00000000000E+00  0.00000000000E+00 -0.55216151906E+03  0.16975263065E+04  0.16052143839E+04 0.  0.
        5    1    3    3  502    0  0.57528069519E+03  0.52711719922E+03 -0.77236173196E+02  0.78408413862E+03  0.46999998093E+01 0.  1.
       -5    1    3    3    0  502 -0.57528069519E+03 -0.52711719922E+03 -0.47492534586E+03  0.91344216791E+03  0.46999998093E+01 0. -1.
</event>
<event>
 5   0  0.3380454E-04  0.1594079E+04  0.7818609E-02  0.8824194E-01
       -2   -1    0    0    0  501  0.00000000000E+00  0.00000000000E+00  0.56319209106E+03  0.56319209107E+03  0.25500000920E-02 0. -1.
        2   -1    0    0  501    0  0.00000000000E+00  0.00000000000E+00 -0.11279846272E+04  0.11279846272E+04  0.25500000920E-02 0.  1.
    10030    2    1    2    0    0  0.00000000000E+00  0.00000000000E+00 -0.56479253611E+03  0.16911767182E+04  0.15940790707E+04 0.  0.
        5    1    3    3  502    0  0.46065662771E+03  0.19740128507E+03  0.37509338615E+03  0.62601033084E+03  0.46999998093E+01 0. -1.
       -5    1    3    3    0  502 -0.46065662771E+03 -0.19740128507E+03 -0.93988592226E+03  0.10651663874E+04  0.46999998093E+01 0.  1.
</event>
<event>
 5   0  0.3263294E-04  0.1622121E+04  0.7818609E-02  0.8807072E-01
        2   -1    0    0  501    0  0.00000000000E+00  0.00000000000E+00  0.18124958374E+04  0.18124958374E+04  0.25500000920E-02 0. -1.
       -2   -1    0    0    0  501  0.00000000000E+00  0.00000000000E+00 -0.36293544941E+03  0.36293544942E+03  0.25500000920E-02 0.  1.
    10030    2    1    2    0    0  0.00000000000E+00  0.00000000000E+00  0.14495603880E+04  0.21754312868E+04  0.16221208232E+04 0.  0.
        4    1    3    3  502    0  0.78320586654E+03  0.18537225515E+02  0.44326888098E+03  0.90013552971E+03  0.12699999809E+01 0.  1.
       -4    1    3    3    0  502 -0.78320586654E+03 -0.18537225515E+02  0.10062915070E+04  0.12752957571E+04  0.12699999809E+01 0. -1.
</event>
<event>
 5   0  0.1787688E-04  0.1597701E+04  0.7818609E-02  0.8821962E-01
        1   -1    0    0  501    0  0.00000000000E+00  0.00000000000E+00  0.58790035093E+03  0.58790035095E+03  0.50400001928E-02 0.  1.
       -1   -1    0    0    0  501  0.00000000000E+00  0.00000000000E+00 -0.10854935762E+04  0.10854935763E+04  0.50400001928E-02 0. -1.
    10030    2    1    2    0    0  0.00000000000E+00  0.00000000000E+00 -0.49759322532E+03  0.16733939272E+04  0.15977009162E+04 0.  0.
        4    1    3    3  502    0  0.64308737930E+03  0.36366085926E+03 -0.56708499456E+03  0.93134182872E+03  0.12699999809E+01 0. -1.
       -4    1    3    3    0  502 -0.64308737930E+03 -0.36366085926E+03  0.69491769235E+02  0.74205209849E+03  0.12699999809E+01 0.  1.
</event>
<event>
 5   0  0.1761255E-04  0.1630627E+04  0.7818609E-02  0.8801950E-01
        1   -1    0    0  501    0  0.00000000000E+00  0.00000000000E+00  0.16139359189E+04  0.16139359189E+04  0.50400001928E-02 0.  1.
       -1   -1    0    0    0  501  0.00000000000E+00  0.00000000000E+00 -0.41187288636E+03  0.41187288639E+03  0.50400001928E-02 0. -1.
    10030    2    1    2    0    0  0.00000000000E+00  0.00000000000E+00  0.12020630325E+04  0.20258088053E+04  0.16306274196E+04 0.  0.
        2    1    3    3  502    0 -0.15509086454E+03  0.19772691729E+03  0.15646232286E+04  0.15846750321E+04  0.25500000920E-02 0.  1.
       -2    1    3    3    0  502  0.15509086454E+03 -0.19772691729E+03 -0.36256019603E+03  0.44113377317E+03  0.25500000920E-02 0. -1.
</event>
<event>
 5   0  0.3210612E-04  0.1598615E+04  0.7818609E-02  0.8821399E-01
        2   -1    0    0  501    0  0.00000000000E+00  0.00000000000E+00  0.76385478864E+03  0.76385478865E+03  0.25500000920E-02 0.  1.
       -2   -1    0    0    0  501  0.00000000000E+00  0.00000000000E+00 -0.83640582490E+03  0.83640582491E+03  0.25500000920E-02 0. -1.
    10030    2    1    2    0    0  0.00000000000E+00  0.00000000000E+00 -0.72551036260E+02  0.16002606136E+04  0.15986151439E+04 0.  0.
        2    1    3    3  502    0  0.19292793448E+02  0.32912113976E+03 -0.76517310958E+03  0.83317634636E+03  0.25500000920E-02 0. -1.
       -2    1    3    3    0  502 -0.19292793448E+02 -0.32912113976E+03  0.69262207332E+03  0.76708426719E+03  0.25500000920E-02 0.  1.
</event>
<event>
 5   0  0.1761255E-04  0.1539568E+04  0.7818609E-02  0.8858559E-01
       -1   -1    0    0    0  501  0.00000000000E+00  0.00000000000E+00  0.36989412008E+03  0.36989412012E+03  0.50400001928E-02 0. -1.
        1   -1    0    0  501    0  0.00000000000E+00  0.00000000000E+00 -0.16019913033E+04  0.16019913033E+04  0.50400001928E-02 0.  1.
    10030    2    1    2    0    0  0.00000000000E+00  0.00000000000E+00 -0.12320971832E+04  0.19718854234E+04  0.15395676842E+04 0.  0.
        2    1    3    3  502    0 -0.45035413110E+02  0.27217423467E+02  0.36758784227E+03  0.37133515638E+03  0.25500000920E-02 0. -1.
       -2    1    3    3    0  502  0.45035413110E+02 -0.27217423467E+02 -0.15996850255E+04  0.16005502670E+04  0.25500000920E-02 0.  1.
</event>
<event>
 5   0  0.3274900E-04  0.1619662E+04  0.7818609E-02  0.8808559E-01
        2   -1    0    0  501    0  0.00000000000E+00  0.00000000000E+00  0.19045448074E+04  0.19045448074E+04  0.25500000920E-02 0.  1.
       -2   -1    0    0    0  501  0.00000000000E+00  0.00000000000E+00 -0.34434814254E+03  0.34434814255E+03  0.25500000920E-02 0. -1.
    10030    2    1    2    0    0  0.00000000000E+00  0.00000000000E+00  0.15601966649E+04  0.22488929500E+04  0.16196622695E+04 0.  0.
        3    1    3    3  502    0 -0.20406112243E+03  0.80700008387E+02  0.18624771795E+04  0.18753598821E+04  0.10100000352E+00 0.  1.
       -3    1    3    3    0  502  0.20406112243E+03 -0.80700008387E+02 -0.30228051465E+03  0.37353306785E+03  0.10100000352E+00 0. -1.
</event>
<event>
 5   0  0.3380454E-04  0.1605130E+04  0.7818609E-02  0.8817403E-01
       -2   -1    0    0    0  501  0.00000000000E+00  0.00000000000E+00  0.10117565827E+04  0.10117565827E+04  0.25500000920E-02 0.  1.
        2   -1    0    0  501    0  0.00000000000E+00  0.00000000000E+00 -0.63662617072E+03  0.63662617073E+03  0.25500000920E-02 0. -1.
    10030    2    1    2    0    0  0.00000000000E+00  0.00000000000E+00  0.37513041193E+03  0.16483827534E+04  0.16051301741E+04 0.  0.
        5    1    3    3  502    0 -0.53270531842E+02 -0.15314927896E+03  0.99474524124E+03  0.10078852297E+04  0.46999998093E+01 0.  1.
       -5    1    3    3    0  502  0.53270531842E+02  0.15314927896E+03 -0.61961482930E+03  0.64049752373E+03  0.46999998093E+01 0. -1.
</event>
<event>
 5   0  0.1764099E-04  0.1602680E+04  0.7818609E-02  0.8818903E-01
       -1   -1    0    0    0  501  0.00000000000E+00  0.00000000000E+00  0.72706085616E+03  0.72706085617E+03  0.50400001928E-02 0. -1.
        1   -1    0    0  501    0  0.00000000000E+00  0.00000000000E+00 -0.88320817495E+03  0.88320817497E+03  0.50400001928E-02 0.  1.
    10030    2    1    2    0    0  0.00000000000E+00  0.00000000000E+00 -0.15614731880E+03  0.16102690311E+04  0.16026803697E+04 0.  0.
        5    1    3    3  502    0 -0.71125353483E+03  0.29161659356E+03 -0.30542405864E+03  0.82718061754E+03  0.46999998093E+01 0. -1.
       -5    1    3    3    0  502  0.71125353483E+03 -0.29161659356E+03  0.14927673984E+03  0.78308841359E+03  0.46999998093E+01 0.  1.
</event>
<event>
 5   0  0.1736537E-04  0.1592118E+04  0.7818609E-02  0.8825405E-01
        1   -1    0    0  501    0  0.00000000000E+00  0.00000000000E+00  0.72588007319E+03  0.72588007320E+03  0.50400001928E-02 0. -1.
       -1   -1    0    0    0  501  0.00000000000E+00  0.00000000000E+00 -0.87302253268E+03  0.87302253270E+03  0.50400001928E-02 0.  1.
    10030    2    1    2    0    0  0.00000000000E+00  0.00000000000E+00 -0.14714245949E+03  0.15989026059E+04  0.15921176589E+04 0.  0.
        3    1    3    3  502    0 -0.25657479453E+03 -0.11772454106E+03  0.67392594514E+03  0.73066126385E+03  0.10100000352E+00 0. -1.
       -3    1    3    3    0  502  0.25657479453E+03  0.11772454106E+03 -0.82106840463E+03  0.86824134205E+03  0.10100000352E+00 0.  1.
</event>
<event>
 5   0  0.3274900E-04  0.1589282E+04  0.7818609E-02  0.8827160E-01
       -2   -1    0    0    0  501  0.00000000000E+00  0.00000000000E+00  0.43198788055E+03  0.43198788056E+03  0.25500000920E-02 0. -1.
        2   -1    0    0  501    0  0.00000000000E+00  0.00000000000E+00 -0.14617407159E+04  0.14617407159E+04  0.25500000920E-02 0.  1.
    10030    2    1    2    0    0  0.00000000000E+00  0.00000000000E+00 -0.10297528354E+04  0.18937285965E+04  0.15892819433E+04 0.  0.
        3    1    3    3  502    0 -0.31439546219E+03 -0.44601060895E+03  0.17343451990E+03  0.57258144646E+03  0.10100000352E+00 0. -1.
       -3    1    3    3    0  502  0.31439546219E+03  0.44601060895E+03 -0.12031873553E+04  0.13211471500E+04  0.10100000352E+00 0.  1.
</event>
<event>
 5   0  0.3228393E-04  0.1617286E+04  0.7818609E-02  0.8809998E-01
       -2   -1    0    0    0  501  0.00000000000E+00  0.00000000000E+00  0.71852370803E+03  0.71852370803E+03  0.25500000920E-02 0.  1.
        2   -1    0    0  501    0  0.00000000000E+00  0.00000000000E+00 -0.91006530045E+03  0.91006530045E+03  0.25500000920E-02 0. -1.
    10030    2    1    2    0    0  0.00000000000E+00  0.00000000000E+00 -0.19154159242E+03  0.16285890085E+04  0.16172859911E+04 0.  0.
        1    1    3    3  502    0  0.94197476603E+02  0.30974399232E+03  0.65041339196E+03  0.72653429777E+03  0.50400001928E-02 0.  1.
       -1    1    3    3    0  502 -0.94197476603E+02 -0.30974399232E+03 -0.84195498437E+03  0.90205471071E+03  0.50400001928E-02 0. -1.
</event>
<event>
 5   0  0.3228393E-04  0.1590423E+04  0.7818609E-02  0.8826453E-01
       -2   -1    0    0    0  501  0.00000000000E+00  0.00000000000E+00  0.36129755375E+03  0.36129755376E+03  0.25500000920E-02 0.  1.
        2   -1    0    0  501    0  0.00000000000E+00  0.00000000000E+00 -0.17502499619E+04  0.17502499619E+04  0.25500000920E-02 0. -1.
    10030    2    1    2    0    0  0.00000000000E+00  0.00000000000E+00 -0.13889524082E+04  0.21115475157E+04  0.15904226227E+04 0.  0.
        1    1    3    3  502    0  0.31927006116E+03  0.50869662204E+03 -0.13864624921E+04  0.15109546212E+04  0.50400001928E-02 0. -1.
       -1    1    3    3    0  502 -0.31927006116E+03 -0.50869662204E+03 -0.24899160798E+01  0.60059289451E+03  0.50400001928E-02 0.  1.
</event>
<event>
 5   0  0.3210612E-04  0.1602345E+04  0.7818609E-02  0.8819109E-01
       -2   -1    0    0    0  501  0.00000000000E+00  0.00000000000E+00  0.10543843389E+04  0.10543843389E+04  0.25500000920E-02 0.  1.
        2   -1    0    0  501    0  0.00000000000E+00  0.00000000000E+00 -0.60876990194E+03  0.60876990194E+03  0.25500000920E-02 0. -1.
    10030    2    1    2    0    0  0.00000000000E+00  0.00000000000E+00  0.44561443698E+03  0.16631542409E+04  0.16023450947E+04 0.  0.
        2    1    3    3  502    0 -0.76164129664E+03  0.24606015796E+03  0.25927435852E+03  0.84134788232E+03  0.25500000920E-02 0. -1.
       -2    1    3    3    0  502  0.76164129664E+03 -0.24606015796E+03  0.18634007845E+03  0.82180635854E+03  0.25500000920E-02 0.  1.
</event>
<event>
 5   0  0.1819811E-04  0.1593531E+04  0.7818609E-02  0.8824532E-01
       -1   -1    0    0    0  501  0.00000000000E+00  0.00000000000E+00  0.31716376174E+03  0.31716376178E+03  0.50400001928E-02 0. -1.
        1   -1    0    0  501    0  0.00000000000E+00  0.00000000000E+00 -0.20015997371E+04  0.20015997371E+04  0.50400001928E-02 0.  1.
    10030    2    1    2    0    0  0.00000000000E+00  0.00000000000E+00 -0.16844359754E+04  0.23187634989E+04  0.15935305484E+04 0.  0.
        1    1    3    3  502    0 -0.63460106139E+03  0.10224591437E+02 -0.14132591511E+03  0.65022770142E+03  0.50400001928E-02 0. -1.
       -1    1    3    3    0  502  0.63460106139E+03 -0.10224591437E+02 -0.15431100603E+04  0.16685357975E+04  0.50400001928E-02 0.  1.
</event>
<event>
 5   0  0.3228393E-04  0.1605330E+04  0.7818609E-02  0.8817281E-01
       -2   -1    0    0    0  501  0.00000000000E+00  0.00000000000E+00  0.71335614698E+03  0.71335614698E+03  0.25500000920E-02 0.  1.
        2   -1    0    0  501    0  0.00000000000E+00  0.00000000000E+00 -0.90315436600E+03  0.90315436601E+03  0.25500000920E-02 0. -1.
    10030    2    1    2    0    0  0.00000000000E+00  0.00000000000E+00 -0.18979821903E+03  0.16165105130E+04  0.16053295221E+04 0.  0.
        1    1    3    3  502    0 -0.50791074309E+03 -0.30367327580E+03 -0.64096750200E+03  0.87237040300E+03  0.50400001928E-02 0. -1.
       -1    1    3    3    0  502  0.50791074309E+03  0.30367327580E+03  0.45116928297E+03  0.74414010999E+03  0.50400001928E-02 0.  1.
</event>
<event>
 5   0  0.3263294E-04  0.1585013E+04  0.7818609E-02  0.8829808E-01
        2   -1    0    0  501    0  0.00000000000E+00  0.00000000000E+00  0.17919799268E+04  0.17919799268E+04  0.25500000920E-02 0. -1.
       -2   -1    0    0    0  501  0.00000000000E+00  0.00000000000E+00 -0.35048757692E+03  0.35048757693E+03  0.25500000920E-02 0.  1.
    10030    2    1    2    0    0  0.00000000000E+00  0.00000000000E+00  0.14414923499E+04  0.21424675037E+04  0.15850131892E+04 0.  0.
        4    1    3    3  502    0  0.64054684305E+02  0.47119152146E+03  0.15777096681E+04  0.16478148750E+04  0.12699999809E+01 0. -1.
       -4    1    3    3    0  502 -0.64054684305E+02 -0.47119152146E+03 -0.13621731820E+03  0.49465262878E+03  0.12699999809E+01 0.  1.
</event>
<event>
 5   0  0.3274900E-04  0.1599406E+04  0.7818609E-02  0.8820913E-01
        2   -1    0    0  501    0  0.00000000000E+00  0.00000000000E+00  0.75530366470E+03  0.75530366470E+03  0.25500000920E-02 0. -1.
       -2   -1    0    0    0  501  0.00000000000E+00  0.00000000000E+00 -0.84671209159E+03  0.84671209159E+03  0.25500000920E-02 0.  1.
    10030    2    1    2    0    0  0.00000000000E+00  0.00000000000E+00 -0.91408426892E+02  0.16020157563E+04  0.15994058218E+04 0.  0.
        3    1    3    3  502    0  0.21437656342E+02 -0.30200480481E+03  0.69567809402E+03  0.75870580329E+03  0.10100000352E+00 0. -1.
       -3    1    3    3    0  502 -0.21437656342E+02  0.30200480481E+03 -0.78708652091E+03  0.84330995301E+03  0.10100000352E+00 0.  1.
</event>
<event>
 5   0  0.1764099E-04  0.1602932E+04  0.7818609E-02  0.8818749E-01
       -1   -1    0    0    0  501  0.00000000000E+00  0.00000000000E+00  0.39439063213E+03  0.39439063216E+03  0.50400001928E-02 0.  1.
        1   -1    0    0  501    0  0.00000000000E+00  0.00000000000E+00 -0.16287098439E+04  0.16287098439E+04  0.50400001928E-02 0. -1.
    10030    2    1    2    0    0  0.00000000000E+00  0.00000000000E+00 -0.12343192118E+04  0.20231004761E+04  0.16029321944E+04 0.  0.
        5    1    3    3  502    0  0.13764867547E+03  0.44338720806E+03 -0.14416917806E+04  0.15146077560E+04  0.46999998093E+01 0. -1.
       -5    1    3    3    0  502 -0.13764867547E+03 -0.44338720806E+03  0.20737256883E+03  0.50849272013E+03  0.46999998093E+01 0.  1.
</event>
<event>
 5   0  0.1219463E-04  0.1703393E+04  0.7818609E-02  0.8759432E-01
       -4   -1    0    0    0  501  0.00000000000E+00  0.00000000000E+00  0.92776441589E+03  0.92776528513E+03  0.12699999809E+01 0. -1.
        4   -1    0    0  501    0  0.00000000000E+00  0.00000000000E+00 -0.78186346522E+03  0.78186449667E+03  0.12699999809E+01 0.  1.
    10030    2    1    2    0    0  0.00000000000E+00  0.00000000000E+00  0.14590095067E+03  0.17096297818E+04  0.17033927625E+04 0.  0.
        5    1    3    3  502    0  0.21060953883E+03  0.51929987152E+02 -0.75366185276E+03  0.78427124116E+03  0.46999998093E+01 0.  1.
       -5    1    3    3    0  502 -0.21060953883E+03 -0.51929987152E+02  0.89956280343E+03  0.92535854063E+03  0.46999998093E+01 0. -1.
</event>
<event>
 5   0  0.3228393E-04  0.1597907E+04  0.7818609E-02  0.8821835E-01
       -2   -1    0    0    0  501  0.00000000000E+00  0.00000000000E+00  0.53489400752E+03  0.53489400752E+03  0.25500000920E-02 0. -1.
        2   -1    0    0  501    0  0.00000000000E+00  0.00000000000E+00 -0.11933700045E+04  0.11933700045E+04  0.25500000920E-02 0.  1.
    10030    2    1    2    0    0  0.00000000000E+00  0.00000000000E+00 -0.65847599694E+03  0.17282640120E+04  0.15979067109E+04 0.  0.
        1    1    3    3  502    0 -0.33551798239E+03  0.10102221435E+03 -0.11058310440E+04  0.11600172853E+04  0.50400001928E-02 0.  1.
       -1    1    3    3    0  502  0.33551798239E+03 -0.10102221435E+03  0.44735504702E+03  0.56824672672E+03  0.50400001928E-02 0. -1.
</event>
<event>
 5   0  0.3263294E-04  0.1599764E+04  0.7818609E-02  0.8820693E-01
       -2   -1    0    0    0  501  0.00000000000E+00  0.00000000000E+00  0.15114661927E+04  0.15114661927E+04  0.25500000920E-02 0. -1.
        2   -1    0    0  501    0  0.00000000000E+00  0.00000000000E+00 -0.42330504458E+03  0.42330504459E+03  0.25500000920E-02 0.  1.
    10030    2    1    2    0    0  0.00000000000E+00  0.00000000000E+00  0.10881611481E+04  0.19347712373E+04  0.15997640627E+04 0.  0.
        4    1    3    3  502    0  0.42305844179E+03  0.40467824068E+03 -0.11509437148E+03  0.59665002379E+03  0.12699999809E+01 0.  1.
       -4    1    3    3    0  502 -0.42305844179E+03 -0.40467824068E+03  0.12032555196E+04  0.13381212135E+04  0.12699999809E+01 0. -1.
</event>
<event>
 5   0  0.3274900E-04  0.1601045E+04  0.7818609E-02  0.8819906E-01
        2   -1    0    0  501    0  0.00000000000E+00  0.00000000000E+00  0.12871518965E+04  0.12871518965E+04  0.25500000920E-02 0. -1.
       -2   -1    0    0    0  501  0.00000000000E+00  0.00000000000E+00 -0.49787148142E+03  0.49787148142E+03  0.25500000920E-02 0.  1.
    10030    2    1    2    0    0  0.00000000000E+00  0.00000000000E+00  0.78928041508E+03  0.17850233779E+04  0.16010449357E+04 0.  0.
        3    1    3    3  502    0  0.65601805300E+02  0.44787148059E+03  0.11307720694E+04  0.12180057237E+04  0.10100000352E+00 0. -1.
       -3    1    3    3    0  502 -0.65601805300E+02 -0.44787148059E+03 -0.34149165430E+03  0.56701765417E+03  0.10100000352E+00 0.  1.
</event>
<event>
 5   0  0.1819811E-04  0.1587839E+04  0.7818609E-02  0.8828054E-01
        1   -1    0    0  501    0  0.00000000000E+00  0.00000000000E+00  0.12888950843E+04  0.12888950843E+04  0.50400001928E-02 0. -1.
       -1   -1    0    0    0  501  0.00000000000E+00  0.00000000000E+00 -0.48902995420E+03  0.48902995422E+03  0.50400001928E-02 0.  1.
    10030    2    1    2    0    0  0.00000000000E+00  0.00000000000E+00  0.79986513014E+03  0.17779250386E+04  0.15878391658E+04 0.  0.
        1    1    3    3  502    0  0.61138213026E+03 -0.34125459698E+03 -0.19123871958E+02  0.70043453061E+03  0.50400001928E-02 0. -1.
       -1    1    3    3    0  502 -0.61138213026E+03  0.34125459698E+03  0.81898900210E+03  0.10774905080E+04  0.50400001928E-02 0.  1.
</event>
<event>
 5   0  0.3210612E-04  0.1588921E+04  0.7818609E-02  0.8827383E-01
        2   -1    0    0  501    0  0.00000000000E+00  0.00000000000E+00  0.44761348431E+03  0.44761348431E+03  0.25500000920E-02 0.  1.
       -2   -1    0    0    0  501  0.00000000000E+00  0.00000000000E+00 -0.14100723856E+04  0.14100723856E+04  0.25500000920E-02 0. -1.
    10030    2    1    2    0    0  0.00000000000E+00  0.00000000000E+00 -0.96245890125E+03  0.18576858699E+04  0.15889209088E+04 0.  0.
        2    1    3    3  502    0 -0.11914220499E+02 -0.67350605664E+03 -0.97368295788E+03  0.11839809371E+04  0.25500000920E-02 0. -1.
       -2    1    3    3    0  502  0.11914220499E+02  0.67350605664E+03  0.11224056625E+02  0.67370493276E+03  0.25500000920E-02 0.  1.
</event>
<event>
 5   0  0.1819811E-04  0.1600197E+04  0.7818609E-02  0.8820427E-01
        1   -1    0    0  501    0  0.00000000000E+00  0.00000000000E+00  0.15646524436E+04  0.15646524436E+04  0.50400001928E-02 0.  1.
       -1   -1    0    0    0  501  0.00000000000E+00  0.00000000000E+00 -0.40913716849E+03  0.40913716853E+03  0.50400001928E-02 0. -1.
    10030    2    1    2    0    0  0.00000000000E+00  0.00000000000E+00  0.11555152751E+04  0.19737896121E+04  0.16001968260E+04 0.  0.
        1    1    3    3  502    0  0.54793274031E+03  0.26516517391E+03  0.12182281921E+04  0.13618453603E+04  0.50400001928E-02 0.  1.
       -1    1    3    3    0  502 -0.54793274031E+03 -0.26516517391E+03 -0.62712916987E+02  0.61194425183E+03  0.50400001928E-02 0. -1.
</event>
<event>
 5   0  0.1761255E-04  0.1601784E+04  0.7818609E-02  0.8819453E-01
       -1   -1    0    0    0  501  0.00000000000E+00  0.00000000000E+00  0.39298470074E+03  0.39298470077E+03  0.50400001928E-02 0.  1.
        1   -1    0    0  501    0  0.00000000000E+00  0.00000000000E+00 -0.16321952221E+04  0.16321952221E+04  0.50400001928E-02 0. -1.
    10030    2    1    2    0    0  0.00000000000E+00  0.00000000000E+00 -0.12392105213E+04  0.20251799228E+04  0.16017836944E+04 0.  0.
        2    1    3    3  502    0  0.77804495829E+03  0.18957451191E+03 -0.63431164146E+03  0.10215888171E+04  0.25500000920E-02 0. -1.
       -2    1    3    3    0  502 -0.77804495829E+03 -0.18957451191E+03 -0.60489887986E+03  0.10035911058E+04  0.25500000920E-02 0.  1.
</event>
<event>
 5   0  0.3380454E-04  0.1594760E+04  0.7818609E-02  0.8823774E-01
       -2   -1    0    0    0  501  0.00000000000E+00  0.00000000000E+00  0.40863890556E+03  0.40863890557E+03  0.25500000920E-02 0. -1.
        2   -1    0    0  501    0  0.00000000000E+00  0.00000000000E+00 -0.15559331463E+04  0.15559331463E+04  0.25500000920E-02 0.  1.
    10030    2    1    2    0    0  0.00000000000E+00  0.00000000000E+00 -0.11472942407E+04  0.19645720518E+04  0.15947599418E+04 0.  0.
        5    1    3    3  502    0 -0.64258749130E+01 -0.57602276227E+03  0.10551453029E+03  0.58566109707E+03  0.46999998093E+01 0. -1.
       -5    1    3    3    0  502  0.64258749130E+01  0.57602276227E+03 -0.12528087710E+04  0.13789109548E+04  0.46999998093E+01 0.  1.
</event>
<event>
 5   0  0.1819811E-04  0.1606203E+04  0.7818609E-02  0.8816746E-01
       -1   -1    0    0    0  501  0.00000000000E+00  0.00000000000E+00  0.79060422626E+03  0.79060422627E+03  0.50400001928E-02 0.  1.
        1   -1    0    0  501    0  0.00000000000E+00  0.00000000000E+00 -0.81579655852E+03  0.81579655854E+03  0.50400001928E-02 0. -1.
    10030    2    1    2    0    0  0.00000000000E+00  0.00000000000E+00 -0.25192332263E+02  0.16064007848E+04  0.16062032337E+04 0.  0.
        1    1    3    3  502    0  0.50902085562E+03  0.46757497421E+03 -0.42160076385E+03  0.80961459478E+03  0.50400001928E-02 0. -1.
       -1    1    3    3    0  502 -0.50902085562E+03 -0.46757497421E+03  0.39640843159E+03  0.79678619003E+03  0.50400001928E-02 0.  1.
</event>
<event>
 5   0  0.3263294E-04  0.1655541E+04  0.7818609E-02  0.8787135E-01
       -2   -1    0    0    0  501  0.00000000000E+00  0.00000000000E+00  0.45884747704E+03  0.45884747704E+03  0.25500000920E-02 0. -1.
        2   -1    0    0  501    0  0.00000000000E+00  0.00000000000E+00 -0.14933154602E+04  0.14933154602E+04  0.25500000920E-02 0.  1.
    10030    2    1    2    0    0  0.00000000000E+00  0.00000000000E+00 -0.10344679831E+04  0.19521629372E+04  0.16555410370E+04 0.  0.
        4    1    3    3  502    0 -0.16999501624E+03  0.19831629469E+03 -0.14434447297E+04  0.14668885299E+04  0.12699999809E+01 0.  1.
       -4    1    3    3    0  502  0.16999501624E+03 -0.19831629469E+03  0.40897674661E+03  0.48527440737E+03  0.12699999809E+01 0. -1.
</event>
<event>
 5   0  0.1219463E-04  0.1594072E+04  0.7818609E-02  0.8824198E-01
       -3   -1    0    0    0  501  0.00000000000E+00  0.00000000000E+00  0.20177018460E+04  0.20177018485E+04  0.10100000352E+00 0. -1.
        3   -1    0    0  501    0  0.00000000000E+00  0.00000000000E+00 -0.31484645317E+03  0.31484646937E+03  0.10100000352E+00 0.  1.
    10030    2    1    2    0    0  0.00000000000E+00  0.00000000000E+00  0.17028553928E+04  0.23325483179E+04  0.15940718824E+04 0.  0.
        4    1    3    3  502    0  0.54932814432E+03 -0.57748041389E+03  0.84494292119E+03  0.11615400086E+04  0.12699999809E+01 0.  1.
       -4    1    3    3    0  502 -0.54932814432E+03  0.57748041389E+03  0.85791247162E+03  0.11710083093E+04  0.12699999809E+01 0. -1.
</event>
<event>
 5   0  0.3274900E-04  0.1600299E+04  0.7818609E-02  0.8820365E-01
       -2   -1    0    0    0  501  0.00000000000E+00  0.00000000000E+00  0.28548681043E+03  0.28548681045E+03  0.25500000920E-02 0.  1.
        2   -1    0    0  501    0  0.00000000000E+00  0.00000000000E+00 -0.22426214913E+04  0.22426214913E+04  0.25500000920E-02 0. -1.
    10030    2    1    2    0    0  0.00000000000E+00  0.00000000000E+00 -0.19571346809E+04  0.25281083018E+04  0.16002985429E+04 0.  0.
        3    1    3    3  502    0 -0.49278148257E+03  0.42897309237E+03 -0.17083255557E+04  0.18289963690E+04  0.10100000352E+00 0. -1.
       -3    1    3    3    0  502  0.49278148257E+03 -0.42897309237E+03 -0.24880912525E+03  0.69911193277E+03  0.10100000352E+00 0.  1.
</event>
<event>
 5   0  0.3274900E-04  0.1601681E+04  0.7818609E-02  0.8819516E-01
        2   -1    0    0  501    0  0.00000000000E+00  0.00000000000E+00  0.10609426873E+04  0.10609426873E+04  0.25500000920E-02 0. -1.
       -2   -1    0    0    0  501  0.00000000000E+00  0.00000000000E+00 -0.60450559857E+03  0.60450559857E+03  0.25500000920E-02 0.  1.
    10030    2    1    2    0    0  0.00000000000E+00  0.00000000000E+00  0.45643708870E+03  0.16654482858E+04  0.16016813593E+04 0.  0.
        3    1    3    3  502    0  0.15273255152E+03 -0.61954275325E+03 -0.27497478186E+03  0.69481767124E+03  0.10100000352E+00 0.  1.
       -3    1    3    3    0  502 -0.15273255152E+03  0.61954275325E+03  0.73141187057E+03  0.97063061461E+03  0.10100000352E+00 0. -1.
</event>
<event>
 5   0  0.1736537E-04  0.1592059E+04  0.7818609E-02  0.8825441E-01
       -1   -1    0    0    0  501  0.00000000000E+00  0.00000000000E+00  0.42600526560E+03  0.42600526563E+03  0.50400001928E-02 0. -1.
        1   -1    0    0  501    0  0.00000000000E+00  0.00000000000E+00 -0.14874530119E+04  0.14874530119E+04  0.50400001928E-02 0.  1.
    10030    2    1    2    0    0  0.00000000000E+00  0.00000000000E+00 -0.10614477463E+04  0.19134582775E+04  0.15920588123E+04 0.  0.
        3    1    3    3  502    0  0.72499061480E+03  0.26790497285E+03 -0.75964379474E+03  0.10837172930E+04  0.10100000352E+00 0.  1.
       -3    1    3    3    0  502 -0.72499061480E+03 -0.26790497285E+03 -0.30180395153E+03  0.82974098452E+03  0.10100000352E+00 0. -1.
</event>
<event>
 5   0  0.3210612E-04  0.1591674E+04  0.7818609E-02  0.8825679E-01
        2   -1    0    0  501    0  0.00000000000E+00  0.00000000000E+00  0.98039844799E+03  0.98039844799E+03  0.25500000920E-02 0. -1.
       -2   -1    0    0    0  501  0.00000000000E+00  0.00000000000E+00 -0.64601939898E+03  0.64601939899E+03  0.25500000920E-02 0.  1.
    10030    2    1    2    0    0  0.00000000000E+00  0.00000000000E+00  0.33437904900E+03  0.16264178470E+04  0.15916738562E+04 0.  0.
        2    1    3    3  502    0 -0.38136269523E+03  0.16270274439E+03 -0.52693730905E+03  0.67050176437E+03  0.25500000920E-02 0.  1.
       -2    1    3    3    0  502  0.38136269523E+03 -0.16270274439E+03  0.86131635805E+03  0.95591608261E+03  0.25500000920E-02 0. -1.
</event>
<event>
 5   0  0.3263294E-04  0.1600401E+04  0.7818609E-02  0.8820302E-01
       -2   -1    0    0    0  501  0.00000000000E+00  0.00000000000E+00  0.61750448856E+03  0.61750448856E+03  0.25500000920E-02 0.  1.
        2   -1    0    0  501    0  0.00000000000E+00  0.00000000000E+00 -0.10369493365E+04  0.10369493365E+04  0.25500000920E-02 0. -1.
    10030    2    1    2    0    0  0.00000000000E+00  0.00000000000E+00 -0.41944484795E+03  0.16544538251E+04  0.16004010369E+04 0.  0.
        4    1    3    3  502    0 -0.43502264158E+03 -0.65022552062E+03 -0.38357284418E+03  0.87130228168E+03  0.12699999809E+01 0. -1.
       -4    1    3    3    0  502  0.43502264158E+03  0.65022552062E+03 -0.35872003764E+02  0.78315154339E+03  0.12699999809E+01 0.  1.
</event>
<event>
 5   0  0.3263294E-04  0.1608510E+04  0.7818609E-02  0.8815337E-01
       -2   -1    0    0    0  501  0.00000000000E+00  0.00000000000E+00  0.87960427450E+03  0.87960427450E+03  0.25500000920E-02 0. -1.
        2   -1    0    0  501    0  0.00000000000E+00  0.00000000000E+00 -0.73536042280E+03  0.73536042280E+03  0.25500000920E-02 0.  1.
    10030    2    1    2    0    0  0.00000000000E+00  0.00000000000E+00  0.14424385170E+03  0.16149646973E+04  0.16085100823E+04 0.  0.
        4    1    3    3  502    0 -0.37819029750E+03  0.61585139084E+03 -0.28217329298E+03  0.77583775166E+03  0.12699999809E+01 0.  1.
       -4    1    3    3    0  502  0.37819029750E+03 -0.61585139084E+03  0.42641714468E+03  0.83912694564E+03  0.12699999809E+01 0. -1.
</event>
<event>
 5   0  0.1787688E-04  0.1605582E+04  0.7818609E-02  0.8817126E-01
       -1   -1    0    0    0  501  0.00000000000E+00  0.00000000000E+00  0.77305592572E+03  0.77305592573E+03  0.50400001928E-02 0. -1.
        1   -1    0    0  501    0  0.00000000000E+00  0.00000000000E+00 -0.83367012734E+03  0.83367012736E+03  0.50400001928E-02 0.  1.
    10030    2    1    2    0    0  0.00000000000E+00  0.00000000000E+00 -0.60614201626E+02  0.16067260531E+04  0.16055823019E+04 0.  0.
        4    1    3    3  502    0  0.60265057000E+03 -0.38663880687E+03  0.33298696729E+03  0.78965765353E+03  0.12699999809E+01 0. -1.
       -4    1    3    3    0  502 -0.60265057000E+03  0.38663880687E+03 -0.39360116891E+03  0.81706839956E+03  0.12699999809E+01 0.  1.
</event>
<event>
 5   0  0.1736537E-04  0.1426191E+04  0.7818609E-02  0.8935075E-01
       -1   -1    0    0    0  501  0.00000000000E+00  0.00000000000E+00  0.13442353872E+04  0.13442353873E+04  0.50400001928E-02 0. -1.
        1   -1    0    0  501    0  0.00000000000E+00  0.00000000000E+00 -0.37828575776E+03  0.37828575779E+03  0.50400001928E-02 0.  1.
    10030    2    1    2    0    0  0.00000000000E+00  0.00000000000E+00  0.96594962949E+03  0.17225211450E+04  0.14261908738E+04 0.  0.
        3    1    3    3  502    0 -0.24231627651E+03  0.56218560223E+03  0.41292636094E+02  0.61357552201E+03  0.10100000352E+00 0.  1.
       -3    1    3    3    0  502  0.24231627651E+03 -0.56218560223E+03  0.92465699339E+03  0.11089456230E+04  0.10100000352E+00 0. -1.
</event>
<event>
 5   0  0.1819811E-04  0.1602579E+04  0.7818609E-02  0.8818965E-01
       -1   -1    0    0    0  501  0.00000000000E+00  0.00000000000E+00  0.13717207266E+04  0.13717207266E+04  0.50400001928E-02 0.  1.
        1   -1    0    0  501    0  0.00000000000E+00  0.00000000000E+00 -0.46807261109E+03  0.46807261111E+03  0.50400001928E-02 0. -1.
    10030    2    1    2    0    0  0.00000000000E+00  0.00000000000E+00  0.90364811554E+03  0.18397933377E+04  0.16025790492E+04 0.  0.
        1    1    3    3  502    0 -0.64228350839E+03  0.36605499181E+03  0.96975187534E+02  0.74560616227E+03  0.50400001928E-02 0. -1.
       -1    1    3    3    0  502  0.64228350839E+03 -0.36605499181E+03  0.80667292800E+03  0.10941871755E+04  0.50400001928E-02 0.  1.
</event>
<event>
 5   0  0.1787688E-04  0.1603097E+04  0.7818609E-02  0.8818647E-01
        1   -1    0    0  501    0  0.00000000000E+00  0.00000000000E+00  0.12419860129E+04  0.12419860129E+04  0.50400001928E-02 0. -1.
       -1   -1    0    0    0  501  0.00000000000E+00  0.00000000000E+00 -0.51730080784E+03  0.51730080786E+03  0.50400001928E-02 0.  1.
    10030    2    1    2    0    0  0.00000000000E+00  0.00000000000E+00  0.72468520507E+03  0.17592868208E+04  0.16030974616E+04 0.  0.
        4    1    3    3  502    0 -0.33229387861E+03 -0.37084464534E+03 -0.32697413013E+03  0.59570014891E+03  0.12699999809E+01 0.  1.
       -4    1    3    3    0  502  0.33229387861E+03  0.37084464534E+03  0.10516593352E+04  0.11635866719E+04  0.12699999809E+01 0. -1.
</event>
<event>
 5   0  0.1819811E-04  0.1602424E+04  0.7818609E-02  0.8819060E-01
       -1   -1    0    0    0  501  0.00000000000E+00  0.00000000000E+00  0.15049985093E+04  0.15049985093E+04  0.50400001928E-02 0.  1.
        1   -1    0    0  501    0  0.00000000000E+00  0.00000000000E+00 -0.42653893451E+03  0.42653893454E+03  0.50400001928E-02 0. -1.
    10030    2    1    2    0    0  0.00000000000E+00  0.00000000000E+00  0.10784595748E+04  0.19315374438E+04  0.16024237400E+04 0.  0.
        1    1    3    3  502    0 -0.51921713751E+03 -0.50271836788E+03  0.95614012832E+03  0.11985475119E+04  0.50400001928E-02 0.  1.
       -1    1    3    3    0  502  0.51921713751E+03  0.50271836788E+03  0.12231944645E+03  0.73298993192E+03  0.50400001928E-02 0. -1.
</event>
<event>
 5   0  0.3210612E-04  0.1610854E+04  0.7818609E-02  0.8813908E-01
        2   -1    0    0  501    0  0.00000000000E+00  0.00000000000E+00  0.73293805390E+03  0.73293805390E+03  0.25500000920E-02 0.  1.
       -2   -1    0    0    0  501  0.00000000000E+00  0.00000000000E+00 -0.88508528576E+03  0.88508528577E+03  0.25500000920E-02 0. -1.
    10030    2    1    2    0    0  0.00000000000E+00  0.00000000000E+00 -0.15214723186E+03  0.16180233397E+04  0.16108540429E+04 0.  0.
        2    1    3    3  502    0 -0.68643410779E+03 -0.17508003987E+03  0.30886546648E+03  0.77281477799E+03  0.25500000920E-02 0.  1.
       -2    1    3    3    0  502  0.68643410779E+03  0.17508003987E+03 -0.46101269834E+03  0.84520856168E+03  0.25500000920E-02 0. -1.
</event>
<event>
 5   0  0.1787688E-04  0.1612143E+04  0.7818609E-02  0.8813123E-01
        1   -1    0    0  501    0  0.00000000000E+00  0.00000000000E+00  0.23418596468E+04  0.23418596468E+04  0.50400001928E-02 0.  1.
       -1   -1    0    0    0  501  0.00000000000E+00  0.00000000000E+00 -0.27745090707E+03  0.27745090712E+03  0.50400001928E-02 0. -1.
    10030    2    1    2    0    0  0.00000000000E+00  0.00000000000E+00  0.20644087397E+04  0.26193105539E+04  0.16121427769E+04 0.  0.
        4    1    3    3  502    0 -0.11922828407E+03  0.48665604353E+03  0.63006629630E+01  0.50108961243E+03  0.12699999809E+01 0. -1.
       -4    1    3    3    0  502  0.11922828407E+03 -0.48665604353E+03  0.20581080768E+04  0.21182209415E+04  0.12699999809E+01 0.  1.
</event>
<event>
 5   0  0.3210612E-04  0.1592076E+04  0.7818609E-02  0.8825431E-01
       -2   -1    0    0    0  501  0.00000000000E+00  0.00000000000E+00  0.46929998247E+03  0.46929998247E+03  0.25500000920E-02 0. -1.
        2   -1    0    0  501    0  0.00000000000E+00  0.00000000000E+00 -0.13502593552E+04  0.13502593552E+04  0.25500000920E-02 0.  1.
    10030    2    1    2    0    0  0.00000000000E+00  0.00000000000E+00 -0.88095937271E+03  0.18195593376E+04  0.15920762440E+04 0.  0.
        2    1    3    3  502    0  0.54332313661E+03  0.34480945857E+03 -0.97603189541E+03  0.11690730749E+04  0.25500000920E-02 0.  1.
       -2    1    3    3    0  502 -0.54332313661E+03 -0.34480945857E+03  0.95072522708E+02  0.65048626279E+03  0.25500000920E-02 0. -1.
</event>
<event>
 5   0  0.1819811E-04  0.1598650E+04  0.7818609E-02  0.8821377E-01
        1   -1    0    0  501    0  0.00000000000E+00  0.00000000000E+00  0.74258247948E+03  0.74258247949E+03  0.50400001928E-02 0. -1.
       -1   -1    0    0    0  501  0.00000000000E+00  0.00000000000E+00 -0.86040388389E+03  0.86040388391E+03  0.50400001928E-02 0.  1.
    10030    2    1    2    0    0  0.00000000000E+00  0.00000000000E+00 -0.11782140442E+03  0.16029863634E+04  0.15986504927E+04 0.  0.
        1    1    3    3  502    0  0.52389998862E+03 -0.17568800934E+03  0.52022254910E+03  0.75892619887E+03  0.50400001928E-02 0. -1.
       -1    1    3    3    0  502 -0.52389998862E+03  0.17568800934E+03 -0.63804395352E+03  0.84406016453E+03  0.50400001928E-02 0.  1.
</event>
<event>
 5   0  0.1736537E-04  0.1604529E+04  0.7818609E-02  0.8817771E-01
        1   -1    0    0  501    0  0.00000000000E+00  0.00000000000E+00  0.12250424536E+04  0.12250424537E+04  0.50400001928E-02 0. -1.
       -1   -1    0    0    0  501  0.00000000000E+00  0.00000000000E+00 -0.52539250541E+03  0.52539250544E+03  0.50400001928E-02 0.  1.
    10030    2    1    2    0    0  0.00000000000E+00  0.00000000000E+00  0.69964994823E+03  0.17504349591E+04  0.16045287458E+04 0.  0.
        3    1    3    3  502    0 -0.35991995334E+03  0.49443610848E+03  0.91629047027E+03  0.11016340927E+04  0.10100000352E+00 0. -1.
       -3    1    3    3    0  502  0.35991995334E+03 -0.49443610848E+03 -0.21664052204E+03  0.64880086635E+03  0.10100000352E+00 0.  1.
</event>
<event>
 5   0  0.3210612E-04  0.1533363E+04  0.7818609E-02  0.8862565E-01
        2   -1    0    0  501    0  0.00000000000E+00  0.00000000000E+00  0.15136273874E+04  0.15136273874E+04  0.25500000920E-02 0. -1.
       -2   -1    0    0    0  501  0.00000000000E+00  0.00000000000E+00 -0.38833882046E+03  0.38833882047E+03  0.25500000920E-02 0.  1.
    10030    2    1    2    0    0  0.00000000000E+00  0.00000000000E+00  0.11252885669E+04  0.19019662079E+04  0.15333626763E+04 0.  0.
        2    1    3    3  502    0  0.27284236033E+03 -0.25596743846E+03 -0.26743270649E+03  0.45987230364E+03  0.25500000920E-02 0.  1.
       -2    1    3    3    0  502 -0.27284236033E+03  0.25596743846E+03  0.13927212734E+04  0.14420939042E+04  0.25500000920E-02 0. -1.
</event>
<event>
 5   0  0.3228393E-04  0.1592213E+04  0.7818609E-02  0.8825346E-01
       -2   -1    0    0    0  501  0.00000000000E+00  0.00000000000E+00  0.43558104046E+03  0.43558104047E+03  0.25500000920E-02 0. -1.
        2   -1    0    0  501    0  0.00000000000E+00  0.00000000000E+00 -0.14550347646E+04  0.14550347646E+04  0.25500000920E-02 0.  1.
    10030    2    1    2    0    0  0.00000000000E+00  0.00000000000E+00 -0.10194537242E+04  0.18906158051E+04  0.15922129967E+04 0.  0.
        1    1    3    3  502    0 -0.23392957537E+03  0.15385581953E+03  0.37518801874E+03  0.46814603370E+03  0.50400001928E-02 0. -1.
       -1    1    3    3    0  502  0.23392957537E+03 -0.15385581953E+03 -0.13946417429E+04  0.14224697714E+04  0.50400001928E-02 0.  1.
</event>
<event>
 5   0  0.3380454E-04  0.1580593E+04  0.7818609E-02  0.8832560E-01
        2   -1    0    0  501    0  0.00000000000E+00  0.00000000000E+00  0.20859187401E+04  0.20859187401E+04  0.25500000920E-02 0.  1.
       -2   -1    0    0    0  501  0.00000000000E+00  0.00000000000E+00 -0.29942135798E+03  0.29942135799E+03  0.25500000920E-02 0. -1.
    10030    2    1    2    0    0  0.00000000000E+00  0.00000000000E+00  0.17864973822E+04  0.23853400981E+04  0.15805930809E+04 0.  0.
        5    1    3    3  502    0 -0.74591481299E+03 -0.10640251930E+03  0.53346417219E+03  0.92320989886E+03  0.46999998093E+01 0.  1.
       -5    1    3    3    0  502  0.74591481299E+03  0.10640251930E+03  0.12530332100E+04  0.14621301993E+04  0.46999998093E+01 0. -1.
</event>
<event>
 5   0  0.1787688E-04  0.1655761E+04  0.7818609E-02  0.8787006E-01
        1   -1    0    0  501    0  0.00000000000E+00  0.00000000000E+00  0.17346235626E+04  0.17346235626E+04  0.50400001928E-02 0. -1.
       -1   -1    0    0    0  501  0.00000000000E+00  0.00000000000E+00 -0.39512099282E+03  0.39512099286E+03  0.50400001928E-02 0.  1.
    10030    2    1    2    0    0  0.00000000000E+00  0.00000000000E+00  0.13395025698E+04  0.21297445555E+04  0.16557610749E+04 0.  0.
        4    1    3    3  502    0 -0.43534870524E+03 -0.44310111696E+03  0.13736998565E+04  0.15076206431E+04  0.12699999809E+01 0. -1.
       -4    1    3    3    0  502  0.43534870524E+03  0.44310111696E+03 -0.34197286673E+02  0.62212391236E+03  0.12699999809E+01 0.  1.
</event>
<event>
 5   0  0.1819811E-04  0.1602903E+04  0.7818609E-02  0.8818767E-01
       -1   -1    0    0    0  501  0.00000000000E+00  0.00000000000E+00  0.59041129831E+03  0.59041129833E+03  0.50400001928E-02 0.  1.
        1   -1    0    0  501    0  0.00000000000E+00  0.00000000000E+00 -0.10879272428E+04  0.10879272428E+04  0.50400001928E-02 0. -1.
    10030    2    1    2    0    0  0.00000000000E+00  0.00000000000E+00 -0.49751594448E+03  0.16783385411E+04  0.16029030363E+04 0.  0.
        1    1    3    3  502    0 -0.64271986526E+03  0.44925008937E+03 -0.42210937959E+03  0.89055645321E+03  0.50400001928E-02 0. -1.
       -1    1    3    3    0  502  0.64271986526E+03 -0.44925008937E+03 -0.75406564888E+02  0.78778208792E+03  0.50400001928E-02 0.  1.
</event>
<event>
 5   0  0.1736537E-04  0.1608584E+04  0.7818609E-02  0.8815292E-01
       -1   -1    0    0    0  501  0.00000000000E+00  0.00000000000E+00  0.64642472586E+03  0.64642472588E+03  0.50400001928E-02 0. -1.
        1   -1    0    0  501    0  0.00000000000E+00  0.00000000000E+00 -0.10007128116E+04  0.10007128116E+04  0.50400001928E-02 0.  1.
    10030    2    1    2    0    0  0.00000000000E+00  0.00000000000E+00 -0.35428808575E+03  0.16471375375E+04  0.16085838554E+04 0.  0.
        3    1    3    3  502    0  0.70192612119E+03 -0.13834974909E+03 -0.55343580394E+03  0.90450656822E+03  0.10100000352E+00 0.  1.
       -3    1    3    3    0  502 -0.70192612119E+03  0.13834974909E+03  0.19914771819E+03  0.74263096928E+03  0.10100000352E+00 0. -1.
</event>
<event>
 5   0  0.3274900E-04  0.1602137E+04  0.7818609E-02  0.8819236E-01
        2   -1    0    0  501    0  0.00000000000E+00  0.00000000000E+00  0.69919152504E+03  0.69919152504E+03  0.25500000920E-02 0. -1.
       -2   -1    0    0    0  501  0.00000000000E+00  0.00000000000E+00 -0.91778975757E+03  0.91778975757E+03  0.25500000920E-02 0.  1.
    10030    2    1    2    0    0  0.00000000000E+00  0.00000000000E+00 -0.21859823253E+03  0.16169812826E+04  0.16021370981E+04 0.  0.
        3    1    3    3  502    0 -0.65217005291E+03 -0.16451920828E+03 -0.54843790545E+03  0.86785741579E+03  0.10100000352E+00 0.  1.
       -3    1    3    3    0  502  0.65217005291E+03  0.16451920828E+03  0.32983967292E+03  0.74912386682E+03  0.10100000352E+00 0. -1.
</event>
<event>
 5   0  0.3210612E-04  0.1585750E+04  0.7818609E-02  0.8829350E-01
        2   -1    0    0  501    0  0.00000000000E+00  0.00000000000E+00  0.64701603294E+03  0.64701603295E+03  0.25500000920E-02 0.  1.
       -2   -1    0    0    0  501  0.00000000000E+00  0.00000000000E+00 -0.97161567148E+03  0.97161567148E+03  0.25500000920E-02 0. -1.
    10030    2    1    2    0    0  0.00000000000E+00  0.00000000000E+00 -0.32459963854E+03  0.16186317044E+04  0.15857501913E+04 0.  0.
        2    1    3    3  502    0 -0.58875752424E+03  0.52300320208E+03 -0.25631364589E+03  0.82816934066E+03  0.25500000920E-02 0. -1.
       -2    1    3    3    0  502  0.58875752424E+03 -0.52300320208E+03 -0.68285992647E+02  0.79046236377E+03  0.25500000920E-02 0.  1.
</event>
<event>
 5   0  0.1219463E-04  0.1610234E+04  0.7818609E-02  0.8814286E-01
       -4   -1    0    0    0  501  0.00000000000E+00  0.00000000000E+00  0.72754732465E+03  0.72754843310E+03  0.12699999809E+01 0. -1.
        4   -1    0    0  501    0  0.00000000000E+00  0.00000000000E+00 -0.89095432035E+03  0.89095522551E+03  0.12699999809E+01 0.  1.
    10030    2    1    2    0    0  0.00000000000E+00  0.00000000000E+00 -0.16340699570E+03  0.16185036586E+04  0.16102336000E+04 0.  0.
        5    1    3    3  502    0  0.79809056649E+03 -0.54761647490E+02  0.95569853669E+01  0.80003800930E+03  0.46999998093E+01 0.  1.
       -5    1    3    3    0  502 -0.79809056649E+03  0.54761647490E+02 -0.17296398107E+03  0.81846564931E+03  0.46999998093E+01 0. -1.
</event>
<event>
 5   0  0.1761255E-04  0.1613924E+04  0.7818609E-02  0.8812039E-01
       -1   -1    0    0    0  501  0.00000000000E+00  0.00000000000E+00  0.64851629292E+03  0.64851629294E+03  0.50400001928E-02 0.  1.
        1   -1    0    0  501    0  0.00000000000E+00  0.00000000000E+00 -0.10041194294E+04  0.10041194294E+04  0.50400001928E-02 0. -1.
    10030    2    1    2    0    0  0.00000000000E+00  0.00000000000E+00 -0.35560313648E+03  0.16526357224E+04  0.16139241742E+04 0.  0.
        2    1    3    3  502    0  0.44343831268E+03  0.46037839727E+01 -0.86816033655E+03  0.97486465827E+03  0.25500000920E-02 0. -1.
       -2    1    3    3    0  502 -0.44343831268E+03 -0.46037839727E+01  0.51255720006E+03  0.67777106409E+03  0.25500000920E-02 0.  1.
</event>
<event>
 5   0  0.3263294E-04  0.1596193E+04  0.7818609E-02  0.8822890E-01
        2   -1    0    0  501    0  0.00000000000E+00  0.00000000000E+00  0.10373852107E+04  0.10373852107E+04  0.25500000920E-02 0. -1.
       -2   -1    0    0    0  501  0.00000000000E+00  0.00000000000E+00 -0.61400329551E+03  0.61400329551E+03  0.25500000920E-02 0.  1.
    10030    2    1    2    0    0  0.00000000000E+00  0.00000000000E+00  0.42338191515E+03  0.16513885062E+04  0.15961928932E+04 0.  0.
        4    1    3    3  502    0  0.33575935932E+00  0.29633841883E+03 -0.55497349502E+03  0.62913731751E+03  0.12699999809E+01 0.  1.
       -4    1    3    3    0  502 -0.33575935932E+00 -0.29633841883E+03  0.97835541017E+03  0.10222511887E+04  0.12699999809E+01 0. -1.
</event>
<event>
 5   0  0.1736537E-04  0.1603321E+04  0.7818609E-02  0.8818511E-01
       -1   -1    0    0    0  501  0.00000000000E+00  0.00000000000E+00  0.13092157951E+04  0.13092157952E+04  0.50400001928E-02 0. -1.
        1   -1    0    0  501    0  0.00000000000E+00  0.00000000000E+00 -0.49087338129E+03  0.49087338132E+03  0.50400001928E-02 0.  1.
    10030    2    1    2    0    0  0.00000000000E+00  0.00000000000E+00  0.81834241386E+03  0.18000891765E+04  0.16033205347E+04 0.  0.
        3    1    3    3  502    0  0.71590684206E+02  0.24099567050E+03  0.12638118380E+04  0.12885746045E+04  0.10100000352E+00 0. -1.
       -3    1    3    3    0  502 -0.71590684206E+02 -0.24099567050E+03 -0.44546942417E+03  0.51151457197E+03  0.10100000352E+00 0.  1.
</event>
<event>
 5   0  0.3228393E-04  0.1595445E+04  0.7818609E-02  0.8823351E-01
       -2   -1    0    0    0  501  0.00000000000E+00  0.00000000000E+00  0.37285129101E+03  0.37285129102E+03  0.25500000920E-02 0. -1.
        2   -1    0    0  501    0  0.00000000000E+00  0.00000000000E+00 -0.17067420889E+04  0.17067420889E+04  0.25500000920E-02 0.  1.
    10030    2    1    2    0    0  0.00000000000E+00  0.00000000000E+00 -0.13338907979E+04  0.20795933799E+04  0.15954447546E+04 0.  0.
        1    1    3    3  502    0  0.57635753501E+03  0.38339455736E+03 -0.11837156486E+04  0.13712629695E+04  0.50400001928E-02 0.  1.
       -1    1    3    3    0  502 -0.57635753501E+03 -0.38339455736E+03 -0.15017514923E+03  0.70833041037E+03  0.50400001928E-02 0. -1.
</event>
<event>
 5   0  0.1761255E-04  0.1604604E+04  0.7818609E-02  0.8817725E-01
       -1   -1    0    0    0  501  0.00000000000E+00  0.00000000000E+00  0.48738855670E+03  0.48738855673E+03  0.50400001928E-02 0. -1.
        1   -1    0    0  501    0  0.00000000000E+00  0.00000000000E+00 -0.13206881620E+04  0.13206881620E+04  0.50400001928E-02 0.  1.
    10030    2    1    2    0    0  0.00000000000E+00  0.00000000000E+00 -0.83329960526E+03  0.18080767187E+04  0.16046037482E+04 0.  0.
        2    1    3    3  502    0 -0.53999485747E+03  0.11912754031E+03  0.23835538792E+03  0.60216202795E+03  0.25500000920E-02 0. -1.
       -2    1    3    3    0  502  0.53999485747E+03 -0.11912754031E+03 -0.10716549932E+04  0.12059146907E+04  0.25500000920E-02 0.  1.
</event>
<event>
 5   0  0.1787688E-04  0.1612081E+04  0.7818609E-02  0.8813160E-01
       -1   -1    0    0    0  501  0.00000000000E+00  0.00000000000E+00  0.33371639790E+03  0.33371639794E+03  0.50400001928E-02 0. -1.
        1   -1    0    0  501    0  0.00000000000E+00  0.00000000000E+00 -0.19468664793E+04  0.19468664793E+04  0.50400001928E-02 0.  1.
    10030    2    1    2    0    0  0.00000000000E+00  0.00000000000E+00 -0.16131500814E+04  0.22805828772E+04  0.16120809765E+04 0.  0.
        4    1    3    3  502    0  0.51349135687E+00 -0.27966563868E+03  0.26287869703E+03  0.38382281770E+03  0.12699999809E+01 0. -1.
       -4    1    3    3    0  502 -0.51349135687E+00  0.27966563868E+03 -0.18760287784E+04  0.18967600595E+04  0.12699999809E+01 0.  1.
</event>
<event>
 5   0  0.3263294E-04  0.1658841E+04  0.7818609E-02  0.8785193E-01
       -2   -1    0    0    0  501  0.00000000000E+00  0.00000000000E+00  0.51976167359E+03  0.51976167360E+03  0.25500000920E-02 0.  1.
        2   -1    0    0  501    0  0.00000000000E+00  0.00000000000E+00 -0.13235657820E+04  0.13235657820E+04  0.25500000920E-02 0. -1.
    10030    2    1    2    0    0  0.00000000000E+00  0.00000000000E+00 -0.80380410839E+03  0.18433274556E+04  0.16588414824E+04 0.  0.
        4    1    3    3  502    0  0.35249873567E+03  0.50848983705E+03 -0.10157104960E+04  0.11893219487E+04  0.12699999809E+01 0. -1.
       -4    1    3    3    0  502 -0.35249873567E+03 -0.50848983705E+03  0.21190638762E+03  0.65400550689E+03  0.12699999809E+01 0.  1.
</event>
<event>
 5   0  0.3210612E-04  0.1582583E+04  0.7818609E-02  0.8831320E-01
       -2   -1    0    0    0  501  0.00000000000E+00  0.00000000000E+00  0.44339764448E+03  0.44339764449E+03  0.25500000920E-02 0.  1.
        2   -1    0    0  501    0  0.00000000000E+00  0.00000000000E+00 -0.14121455048E+04  0.14121455048E+04  0.25500000920E-02 0. -1.
    10030    2    1    2    0    0  0.00000000000E+00  0.00000000000E+00 -0.96874786031E+03  0.18555431493E+04  0.15825826873E+04 0.  0.
        2    1    3    3  502    0  0.45946347667E+03  0.20444742649E+03 -0.12006768691E+04  0.13017412879E+04  0.25500000920E-02 0. -1.
       -2    1    3    3    0  502 -0.45946347667E+03 -0.20444742649E+03  0.23192900877E+03  0.55380186142E+03  0.25500000920E-02 0.  1.
</event>
<event>
 5   0  0.1764099E-04  0.1596132E+04  0.7818609E-02  0.8822928E-01
        1   -1    0    0  501    0  0.00000000000E+00  0.00000000000E+00  0.11077784553E+04  0.11077784553E+04  0.50400001928E-02 0.  1.
       -1   -1    0    0    0  501  0.00000000000E+00  0.00000000000E+00 -0.57494307163E+03  0.57494307165E+03  0.50400001928E-02 0. -1.
    10030    2    1    2    0    0  0.00000000000E+00  0.00000000000E+00  0.53283538363E+03  0.16827215269E+04  0.15961322599E+04 0.  0.
        5    1    3    3  502    0 -0.41695395347E+03 -0.22310536288E+03  0.94414581955E+03  0.10559640244E+04  0.46999998093E+01 0.  1.
       -5    1    3    3    0  502  0.41695395347E+03  0.22310536288E+03 -0.41131043592E+03  0.62675750252E+03  0.46999998093E+01 0. -1.
</event>
<event>
 5   0  0.3380454E-04  0.1562001E+04  0.7818609E-02  0.8844239E-01
        2   -1    0    0  501    0  0.00000000000E+00  0.00000000000E+00  0.11058629992E+04  0.11058629992E+04  0.25500000920E-02 0. -1.
       -2   -1    0    0    0  501  0.00000000000E+00  0.00000000000E+00 -0.55157061379E+03  0.55157061379E+03  0.25500000920E-02 0.  1.
    10030    2    1    2    0    0  0.00000000000E+00  0.00000000000E+00  0.55429238545E+03  0.16574336130E+04  0.15620006828E+04 0.  0.
        5    1    3    3  502    0 -0.73424665198E+03 -0.75572658017E+02  0.54790276424E+03  0.91926541415E+03  0.46999998093E+01 0. -1.
       -5    1    3    3    0  502  0.73424665198E+03  0.75572658017E+02  0.63896212050E+01  0.73816819889E+03  0.46999998093E+01 0.  1.
</event>
<event>
 5   0  0.3210612E-04  0.1613011E+04  0.7818609E-02  0.8812595E-01
        2   -1    0    0  501    0  0.00000000000E+00  0.00000000000E+00  0.57710547797E+03  0.57710547798E+03  0.25500000920E-02 0. -1.
       -2   -1    0    0    0  501  0.00000000000E+00  0.00000000000E+00 -0.11270916770E+04  0.11270916771E+04  0.25500000920E-02 0.  1.
    10030    2    1    2    0    0  0.00000000000E+00  0.00000000000E+00 -0.54998619908E+03  0.17041971550E+04  0.16130105778E+04 0.  0.
        2    1    3    3  502    0 -0.69685974394E+02 -0.47239979236E+03  0.41169825794E+03  0.63048644272E+03  0.25500000920E-02 0. -1.
       -2    1    3    3    0  502  0.69685974394E+02  0.47239979236E+03 -0.96168445702E+03  0.10737107123E+04  0.25500000920E-02 0.  1.
</event>
<event>
 5   0  0.3380454E-04  0.1596893E+04  0.7818609E-02  0.8822459E-01
       -2   -1    0    0    0  501  0.00000000000E+00  0.00000000000E+00  0.26599544040E+03  0.26599544041E+03  0.25500000920E-02 0. -1.
        2   -1    0    0  501    0  0.00000000000E+00  0.00000000000E+00 -0.23967197952E+04  0.23967197952E+04  0.25500000920E-02 0.  1.
    10030    2    1    2    0    0  0.00000000000E+00  0.00000000000E+00 -0.21307243548E+04  0.26627152356E+04  0.15968926544E+04 0.  0.
        5    1    3    3  502    0  0.59589569373E+02 -0.69361731687E+03 -0.17172388682E+04  0.18529941498E+04  0.46999998093E+01 0.  1.
       -5    1    3    3    0  502 -0.59589569373E+02  0.69361731687E+03 -0.41348548660E+03  0.80972108572E+03  0.46999998093E+01 0. -1.
</event>
<event>
 5   0  0.1736537E-04  0.1518158E+04  0.7818609E-02  0.8872467E-01
        1   -1    0    0  501    0  0.00000000000E+00  0.00000000000E+00  0.97475013695E+03  0.97475013696E+03  0.50400001928E-02 0. -1.
       -1   -1    0    0    0  501  0.00000000000E+00  0.00000000000E+00 -0.59112696256E+03  0.59112696258E+03  0.50400001928E-02 0.  1.
    10030    2    1    2    0    0  0.00000000000E+00  0.00000000000E+00  0.38362317439E+03  0.15658770995E+04  0.15181582101E+04 0.  0.
        3    1    3    3  502    0 -0.20047654465E+03 -0.97892415302E+02  0.94017034417E+03  0.96627845685E+03  0.10100000352E+00 0. -1.
       -3    1    3    3    0  502  0.20047654465E+03  0.97892415302E+02 -0.55654716978E+03  0.59959864269E+03  0.10100000352E+00 0.  1.
</event>
<event>
 5   0  0.3228393E-04  0.1598807E+04  0.7818609E-02  0.8821281E-01
       -2   -1    0    0    0  501  0.00000000000E+00  0.00000000000E+00  0.43392557833E+03  0.43392557834E+03  0.25500000920E-02 0.  1.
        2   -1    0    0  501    0  0.00000000000E+00  0.00000000000E+00 -0.14727081745E+04  0.14727081745E+04  0.25500000920E-02 0. -1.
    10030    2    1    2    0    0  0.00000000000E+00  0.00000000000E+00 -0.10387825961E+04  0.19066337528E+04  0.15988067379E+04 0.  0.
        1    1    3    3  502    0  0.38518595342E+03  0.67368857605E+03 -0.74822524617E+03  0.10779914356E+04  0.50400001928E-02 0. -1.
       -1    1    3    3    0  502 -0.38518595342E+03 -0.67368857605E+03 -0.29055734997E+03  0.82864231720E+03  0.50400001928E-02 0.  1.
</event>
<event>
 5   0  0.1736537E-04  0.1587177E+04  0.7818609E-02  0.8828465E-01
       -1   -1    0    0    0  501  0.00000000000E+00  0.00000000000E+00  0.53718159868E+03  0.53718159870E+03  0.50400001928E-02 0.  1.
        1   -1    0    0  501    0  0.00000000000E+00  0.00000000000E+00 -0.11723833762E+04  0.11723833763E+04  0.50400001928E-02 0. -1.
    10030    2    1    2    0    0  0.00000000000E+00  0.00000000000E+00 -0.63520177757E+03  0.17095649750E+04  0.15871770870E+04 0.  0.
        3    1    3    3  502    0 -0.72064406267E+03  0.58400756540E+02 -0.67000576059E+03  0.98572117906E+03  0.10100000352E+00 0. -1.
       -3    1    3    3    0  502  0.72064406267E+03 -0.58400756540E+02  0.34803983021E+02  0.72384379590E+03  0.10100000352E+00 0.  1.
</event>
<event>
 5   0  0.3210612E-04  0.1621497E+04  0.7818609E-02  0.8807450E-01
       -2   -1    0    0    0  501  0.00000000000E+00  0.00000000000E+00  0.37089604824E+03  0.37089604825E+03  0.25500000920E-02 0. -1.
        2   -1    0    0  501    0  0.00000000000E+00  0.00000000000E+00 -0.17722294599E+04  0.17722294599E+04  0.25500000920E-02 0.  1.
    10030    2    1    2    0    0  0.00000000000E+00  0.00000000000E+00 -0.14013334117E+04  0.21431255082E+04  0.16214967200E+04 0.  0.
        2    1    3    3  502    0  0.48838182788E+02  0.41706481546E+03  0.21596980225E+03  0.47219824638E+03  0.25500000920E-02 0. -1.
       -2    1    3    3    0  502 -0.48838182788E+02 -0.41706481546E+03 -0.16173032139E+04  0.16709272618E+04  0.25500000920E-02 0.  1.
</event>
<event>
 5   0  0.3274900E-04  0.1597279E+04  0.7818609E-02  0.8822221E-01
        2   -1    0    0  501    0  0.00000000000E+00  0.00000000000E+00  0.12878580173E+04  0.12878580173E+04  0.25500000920E-02 0. -1.
       -2   -1    0    0    0  501  0.00000000000E+00  0.00000000000E+00 -0.49526046284E+03  0.49526046285E+03  0.25500000920E-02 0.  1.
    10030    2    1    2    0    0  0.00000000000E+00  0.00000000000E+00  0.79259755449E+03  0.17831184802E+04  0.15972791337E+04 0.  0.
        3    1    3    3  502    0 -0.76930838352E+03  0.16835012793E+03  0.54460078974E+03  0.95747960025E+03  0.10100000352E+00 0.  1.
       -3    1    3    3    0  502  0.76930838352E+03 -0.16835012793E+03  0.24799676476E+03  0.82563887993E+03  0.10100000352E+00 0. -1.
</event>
<event>
 5   0  0.3228393E-04  0.1470575E+04  0.7818609E-02  0.8904259E-01
        2   -1    0    0  501    0  0.00000000000E+00  0.00000000000E+00  0.13695866323E+04  0.13695866323E+04  0.25500000920E-02 0. -1.
       -2   -1    0    0    0  501  0.00000000000E+00  0.00000000000E+00 -0.39475245246E+03  0.39475245247E+03  0.25500000920E-02 0.  1.
    10030    2    1    2    0    0  0.00000000000E+00  0.00000000000E+00  0.97483417986E+03  0.17643390848E+04  0.14705749651E+04 0.  0.
        1    1    3    3  502    0 -0.31145466864E+03  0.39496217111E+03 -0.15604947399E+03  0.52664083167E+03  0.50400001928E-02 0.  1.
       -1    1    3    3    0  502  0.31145466864E+03 -0.39496217111E+03  0.11308836538E+04  0.12376982531E+04  0.50400001928E-02 0. -1.
</event>
<event>
 5   0  0.3380454E-04  0.1592243E+04  0.7818609E-02  0.8825328E-01
       -2   -1    0    0    0  501  0.00000000000E+00  0.00000000000E+00  0.38976921163E+03  0.38976921164E+03  0.25500000920E-02 0. -1.
        2   -1    0    0  501    0  0.00000000000E+00  0.00000000000E+00 -0.16261146166E+04  0.16261146166E+04  0.25500000920E-02 0.  1.
    10030    2    1    2    0    0  0.00000000000E+00  0.00000000000E+00 -0.12363454050E+04  0.20158838282E+04  0.15922429615E+04 0.  0.
        5    1    3    3  502    0  0.70796367754E+03  0.12427170954E+03 -0.10514766412E+04  0.12736880479E+04  0.46999998093E+01 0.  1.
       -5    1    3    3    0  502 -0.70796367754E+03 -0.12427170954E+03 -0.18486876381E+03  0.74219578033E+03  0.46999998093E+01 0. -1.
</event>
<event>
 5   0  0.1787688E-04  0.1598553E+04  0.7818609E-02  0.8821438E-01
        1   -1    0    0  501    0  0.00000000000E+00  0.00000000000E+00  0.65478513009E+03  0.65478513011E+03  0.50400001928E-02 0.  1.
       -1   -1    0    0    0  501  0.00000000000E+00  0.00000000000E+00 -0.97565237116E+03  0.97565237117E+03  0.50400001928E-02 0. -1.
    10030    2    1    2    0    0  0.00000000000E+00  0.00000000000E+00 -0.32086724107E+03  0.16304375013E+04  0.15985526764E+04 0.  0.
        4    1    3    3  502    0  0.55648529862E+03  0.24102107612E+02  0.42422260301E+03  0.70015943111E+03  0.12699999809E+01 0.  1.
       -4    1    3    3    0  502 -0.55648529862E+03 -0.24102107612E+02 -0.74508984409E+03  0.93027807017E+03  0.12699999809E+01 0. -1.
</event>
<event>
 5   0  0.1764099E-04  0.1601808E+04  0.7818609E-02  0.8819438E-01
        1   -1    0    0  501    0  0.00000000000E+00  0.00000000000E+00  0.71192906613E+03  0.71192906615E+03  0.50400001928E-02 0.  1.
       -1   -1    0    0    0  501  0.00000000000E+00  0.00000000000E+00 -0.90099924763E+03  0.90099924765E+03  0.50400001928E-02 0. -1.
    10030    2    1    2    0    0  0.00000000000E+00  0.00000000000E+00 -0.18907018150E+03  0.16129283138E+04  0.16018084192E+04 0.  0.
        5    1    3    3  502    0 -0.15917499437E+03  0.62085897664E+03 -0.57810105171E+03  0.86314857568E+03  0.46999998093E+01 0. -1.
       -5    1    3    3    0  502  0.15917499437E+03 -0.62085897664E+03  0.38903087021E+03  0.74977973811E+03  0.46999998093E+01 0.  1.
</event>
<event>
 5   0  0.3263294E-04  0.1403380E+04  0.7818609E-02  0.8951376E-01
       -2   -1    0    0    0  501  0.00000000000E+00  0.00000000000E+00  0.27361988879E+03  0.27361988880E+03  0.25500000920E-02 0.  1.
        2   -1    0    0  501    0  0.00000000000E+00  0.00000000000E+00 -0.17994619854E+04  0.17994619854E+04  0.25500000920E-02 0. -1.
    10030    2    1    2    0    0  0.00000000000E+00  0.00000000000E+00 -0.15258420966E+04  0.20730818742E+04  0.14033796184E+04 0.  0.
        4    1    3    3  502    0  0.44017273915E+02 -0.63068178173E+03 -0.31323362379E+03  0.70555931443E+03  0.12699999809E+01 0.  1.
       -4    1    3    3    0  502 -0.44017273915E+02  0.63068178173E+03 -0.12126084729E+04  0.13675225598E+04  0.12699999809E+01 0. -1.
</event>
<event>
 5   0  0.1787688E-04  0.1607544E+04  0.7818609E-02  0.8815927E-01
       -1   -1    0    0    0  501  0.00000000000E+00  0.00000000000E+00  0.26932288541E+03  0.26932288546E+03  0.50400001928E-02 0.  1.
        1   -1    0    0  501    0  0.00000000000E+00  0.00000000000E+00 -0.23987924737E+04  0.23987924737E+04  0.50400001928E-02 0. -1.
    10030    2    1    2    0    0  0.00000000000E+00  0.00000000000E+00 -0.21294695883E+04  0.26681153591E+04  0.16075443516E+04 0.  0.
        4    1    3    3  502    0 -0.25346668941E+03 -0.32209879372E+03  0.82838988706E+02  0.41815894885E+03  0.12699999809E+01 0.  1.
       -4    1    3    3    0  502  0.25346668941E+03  0.32209879372E+03 -0.22123085770E+04  0.22499564103E+04  0.12699999809E+01 0. -1.
</event>
<event>
 5   0  0.1819811E-04  0.1659052E+04  0.7818609E-02  0.8785069E-01
        1   -1    0    0  501    0  0.00000000000E+00  0.00000000000E+00  0.98396056749E+03  0.98396056750E+03  0.50400001928E-02 0. -1.
       -1   -1    0    0    0  501  0.00000000000E+00  0.00000000000E+00 -0.69933005358E+03  0.69933005360E+03  0.50400001928E-02 0.  1.
    10030    2    1    2    0    0  0.00000000000E+00  0.00000000000E+00  0.28463051391E+03  0.16832906211E+04  0.16590517730E+04 0.  0.
        1    1    3    3  502    0 -0.74147146089E+03  0.36154730506E+03  0.53765805296E+02  0.82667233107E+03  0.50400001928E-02 0.  1.
       -1    1    3    3    0  502  0.74147146089E+03 -0.36154730506E+03  0.23086470861E+03  0.85661829003E+03  0.50400001928E-02 0. -1.
</event>
<event>
 5   0  0.3228393E-04  0.1594797E+04  0.7818609E-02  0.8823751E-01
        2   -1    0    0  501    0  0.00000000000E+00  0.00000000000E+00  0.41812609517E+03  0.41812609518E+03  0.25500000920E-02 0.  1.
       -2   -1    0    0    0  501  0.00000000000E+00  0.00000000000E+00 -0.15206996323E+04  0.15206996323E+04  0.25500000920E-02 0. -1.
    10030    2    1    2    0    0  0.00000000000E+00  0.00000000000E+00 -0.11025735372E+04  0.19388257275E+04  0.15947967886E+04 0.  0.
        1    1    3    3  502    0  0.34286500962E+03  0.32174851188E+03 -0.13342382099E+04  0.14146625465E+04  0.50400001928E-02 0. -1.
       -1    1    3    3    0  502 -0.34286500962E+03 -0.32174851188E+03  0.23166467272E+03  0.52416318102E+03  0.50400001928E-02 0.  1.
</event>
<event>
 5   0  0.1764099E-04  0.1607259E+04  0.7818609E-02  0.8816101E-01
       -1   -1    0    0    0  501  0.00000000000E+00  0.00000000000E+00  0.47922193130E+03  0.47922193132E+03  0.50400001928E-02 0. -1.
        1   -1    0    0  501    0  0.00000000000E+00  0.00000000000E+00 -0.13476434323E+04  0.13476434323E+04  0.50400001928E-02 0.  1.
    10030    2    1    2    0    0  0.00000000000E+00  0.00000000000E+00 -0.86842150102E+03  0.18268653636E+04  0.16072588943E+04 0.  0.
        5    1    3    3  502    0  0.75568827651E+03 -0.28939418506E+02 -0.12523031227E+03  0.76655527022E+03  0.46999998093E+01 0. -1.
       -5    1    3    3    0  502 -0.75568827651E+03  0.28939418506E+02 -0.74319118875E+03  0.10603100934E+04  0.46999998093E+01 0.  1.
</event>
<event>
 5   0  0.3263294E-04  0.1553211E+04  0.7818609E-02  0.8849819E-01
       -2   -1    0    0    0  501  0.00000000000E+00  0.00000000000E+00  0.46296966665E+03  0.46296966666E+03  0.25500000920E-02 0.  1.
        2   -1    0    0  501    0  0.00000000000E+00  0.00000000000E+00 -0.13027119132E+04  0.13027119132E+04  0.25500000920E-02 0. -1.
    10030    2    1    2    0    0  0.00000000000E+00  0.00000000000E+00 -0.83974224650E+03  0.17656815798E+04  0.15532109968E+04 0.  0.
        4    1    3    3  502    0  0.36601176727E+03 -0.68161727794E+03 -0.34320902630E+03  0.84638098750E+03  0.12699999809E+01 0. -1.
       -4    1    3    3    0  502 -0.36601176727E+03  0.68161727794E+03 -0.49653322020E+03  0.91930059231E+03  0.12699999809E+01 0.  1.
</event>
<event>
 5   0  0.3228393E-04  0.1613875E+04  0.7818609E-02  0.8812069E-01
        2   -1    0    0  501    0  0.00000000000E+00  0.00000000000E+00  0.15451060722E+04  0.15451060722E+04  0.25500000920E-02 0.  1.
       -2   -1    0    0    0  501  0.00000000000E+00  0.00000000000E+00 -0.42142617539E+03  0.42142617540E+03  0.25500000920E-02 0. -1.
    10030    2    1    2    0    0  0.00000000000E+00  0.00000000000E+00  0.11236798968E+04  0.19665322476E+04  0.16138750170E+04 0.  0.
        1    1    3    3  502    0 -0.50956674866E+03 -0.54096647868E+03  0.17874287474E+03  0.76436379931E+03  0.50400001928E-02 0. -1.
       -1    1    3    3    0  502  0.50956674866E+03  0.54096647868E+03  0.94493702210E+03  0.12021684483E+04  0.50400001928E-02 0.  1.
</event>
<event>
 5   0  0.3274900E-04  0.1601060E+04  0.7818609E-02  0.8819897E-01
       -2   -1    0    0    0  501  0.00000000000E+00  0.00000000000E+00  0.99193472849E+03  0.99193472849E+03  0.25500000920E-02 0.  1.
        2   -1    0    0  501    0  0.00000000000E+00  0.00000000000E+00 -0.64605862321E+03  0.64605862322E+03  0.25500000920E-02 0. -1.
    10030    2    1    2    0    0  0.00000000000E+00  0.00000000000E+00  0.34587610528E+03  0.16379933517E+04  0.16010596304E+04 0.  0.
        3    1    3    3  502    0 -0.39255519712E+03 -0.21061806232E+03  0.85340416906E+03  0.96268283299E+03  0.10100000352E+00 0.  1.
       -3    1    3    3    0  502  0.39255519712E+03  0.21061806232E+03 -0.50752806378E+03  0.67531051872E+03  0.10100000352E+00 0. -1.
</event>
<event>
 5   0  0.3210612E-04  0.1591744E+04  0.7818609E-02  0.8825636E-01
        2   -1    0    0  501    0  0.00000000000E+00  0.00000000000E+00  0.87682888197E+03  0.87682888197E+03  0.25500000920E-02 0. -1.
       -2   -1    0    0    0  501  0.00000000000E+00  0.00000000000E+00 -0.72238973992E+03  0.72238973993E+03  0.25500000920E-02 0.  1.
    10030    2    1    2    0    0  0.00000000000E+00  0.00000000000E+00  0.15443914205E+03  0.15992186219E+04  0.15917439342E+04 0.  0.
        2    1    3    3  502    0 -0.16611132722E+03 -0.29100185577E+03  0.80250782677E+03  0.86965157685E+03  0.25500000920E-02 0. -1.
       -2    1    3    3    0  502  0.16611132722E+03  0.29100185577E+03 -0.64806868472E+03  0.72956704505E+03  0.25500000920E-02 0.  1.
</event>
<event>
 5   0  0.3228393E-04  0.1607736E+04  0.7818609E-02  0.8815810E-01
        2   -1    0    0  501    0  0.00000000000E+00  0.00000000000E+00  0.14210972850E+04  0.14210972850E+04  0.25500000920E-02 0.  1.
       -2   -1    0    0    0  501  0.00000000000E+00  0.00000000000E+00 -0.45472143270E+03  0.45472143271E+03  0.25500000920E-02 0. -1.
    10030    2    1    2    0    0  0.00000000000E+00  0.00000000000E+00  0.96637585232E+03  0.18758187177E+04  0.16077355423E+04 0.  0.
        1    1    3    3  502    0  0.38853035688E+03 -0.99861154015E+02 -0.32958709481E+03  0.51918757823E+03  0.50400001928E-02 0. -1.
       -1    1    3    3    0  502 -0.38853035688E+03  0.99861154015E+02  0.12959629471E+04  0.13566311395E+04  0.50400001928E-02 0.  1.
</event>
<event>
 5   0  0.3380454E-04  0.1621904E+04  0.7818609E-02  0.8807203E-01
        2   -1    0    0  501    0  0.00000000000E+00  0.00000000000E+00  0.28883109048E+04  0.28883109048E+04  0.25500000920E-02 0. -1.
       -2   -1    0    0    0  501  0.00000000000E+00  0.00000000000E+00 -0.22769128777E+03  0.22769128779E+03  0.25500000920E-02 0.  1.
    10030    2    1    2    0    0  0.00000000000E+00  0.00000000000E+00  0.26606196170E+04  0.31160021926E+04  0.16219041025E+04 0.  0.
        5    1    3    3  502    0 -0.67594356602E+03 -0.44783681257E+03  0.13057346415E+04  0.15370174232E+04  0.46999998093E+01 0. -1.
       -5    1    3    3    0  502  0.67594356602E+03  0.44783681257E+03  0.13548849755E+04  0.15789847694E+04  0.46999998093E+01 0.  1.
</event>
<event>
 5   0  0.3210612E-04  0.1620753E+04  0.7818609E-02  0.8807899E-01
       -2   -1    0    0    0  501  0.00000000000E+00  0.00000000000E+00  0.56420688667E+03  0.56420688667E+03  0.25500000920E-02 0. -1.
        2   -1    0    0  501    0  0.00000000000E+00  0.00000000000E+00 -0.11639526659E+04  0.11639526659E+04  0.25500000920E-02 0.  1.
    10030    2    1    2    0    0  0.00000000000E+00  0.00000000000E+00 -0.59974577923E+03  0.17281595526E+04  0.16207530470E+04 0.  0.
        2    1    3    3  502    0  0.66370599356E+03  0.14208238494E+03 -0.77195106702E+03  0.10279112315E+04  0.25500000920E-02 0.  1.
       -2    1    3    3    0  502 -0.66370599356E+03 -0.14208238494E+03  0.17220528779E+03  0.70024832106E+03  0.25500000920E-02 0. -1.
</event>
<event>
 5   0  0.1736537E-04  0.1584369E+04  0.7818609E-02  0.8830209E-01
        1   -1    0    0  501    0  0.00000000000E+00  0.00000000000E+00  0.99480396878E+03  0.99480396879E+03  0.50400001928E-02 0. -1.
       -1   -1    0    0    0  501  0.00000000000E+00  0.00000000000E+00 -0.63083416876E+03  0.63083416878E+03  0.50400001928E-02 0.  1.
    10030    2    1    2    0    0  0.00000000000E+00  0.00000000000E+00  0.36396980001E+03  0.16256381376E+04  0.15843690665E+04 0.  0.
        3    1    3    3  502    0 -0.68656169531E+03 -0.47148175338E+02 -0.22062135713E+03  0.72267814781E+03  0.10100000352E+00 0.  1.
       -3    1    3    3    0  502  0.68656169531E+03  0.47148175338E+02  0.58459115714E+03  0.90295998976E+03  0.10100000352E+00 0. -1.
</event>
<event>
 5   0  0.1819811E-04  0.1609299E+04  0.7818609E-02  0.8814855E-01
       -1   -1    0    0    0  501  0.00000000000E+00  0.00000000000E+00  0.39601635887E+03  0.39601635890E+03  0.50400001928E-02 0. -1.
        1   -1    0    0  501    0  0.00000000000E+00  0.00000000000E+00 -0.16349353500E+04  0.16349353500E+04  0.50400001928E-02 0.  1.
    10030    2    1    2    0    0  0.00000000000E+00  0.00000000000E+00 -0.12389189911E+04  0.20309517089E+04  0.16092994057E+04 0.  0.
        1    1    3    3  502    0  0.54583093515E+03 -0.10019993682E+03  0.11585995156E+03  0.56691707110E+03  0.50400001928E-02 0. -1.
       -1    1    3    3    0  502 -0.54583093515E+03  0.10019993682E+03 -0.13547789426E+04  0.14640346378E+04  0.50400001928E-02 0.  1.
</event>
<event>
 5   0  0.3210612E-04  0.1583915E+04  0.7818609E-02  0.8830491E-01
       -2   -1    0    0    0  501  0.00000000000E+00  0.00000000000E+00  0.39176004371E+03  0.39176004371E+03  0.25500000920E-02 0.  1.
        2   -1    0    0  501    0  0.00000000000E+00  0.00000000000E+00 -0.16009713700E+04  0.16009713700E+04  0.25500000920E-02 0. -1.
    10030    2    1    2    0    0  0.00000000000E+00  0.00000000000E+00 -0.12092113263E+04  0.19927314137E+04  0.15839149143E+04 0.  0.
        2    1    3    3  502    0 -0.59761640669E+03 -0.38446933554E+03 -0.16474618839E+03  0.72945414256E+03  0.25500000920E-02 0.  1.
       -2    1    3    3    0  502  0.59761640669E+03  0.38446933554E+03 -0.10444651379E+04  0.12632772712E+04  0.25500000920E-02 0. -1.
</event>
<event>
 5   0  0.3380454E-04  0.1581584E+04  0.7818609E-02  0.8831942E-01
        2   -1    0    0  501    0  0.00000000000E+00  0.00000000000E+00  0.22476098030E+04  0.22476098030E+04  0.25500000920E-02 0. -1.
       -2   -1    0    0    0  501  0.00000000000E+00  0.00000000000E+00 -0.27822993557E+03  0.27822993559E+03  0.25500000920E-02 0.  1.
    10030    2    1    2    0    0  0.00000000000E+00  0.00000000000E+00  0.19693798674E+04  0.25258397386E+04  0.15815844343E+04 0.  0.
        5    1    3    3  502    0  0.68716569910E+03 -0.37732543227E+03  0.81903644321E+03  0.11337609824E+04  0.46999998093E+01 0. -1.
       -5    1    3    3    0  502 -0.68716569910E+03  0.37732543227E+03  0.11503434242E+04  0.13920787562E+04  0.46999998093E+01 0.  1.
</event>
<event>
 5   0  0.3380454E-04  0.1592734E+04  0.7818609E-02  0.8825024E-01
        2   -1    0    0  501    0  0.00000000000E+00  0.00000000000E+00  0.57126590269E+03  0.57126590269E+03  0.25500000920E-02 0.  1.
       -2   -1    0    0    0  501  0.00000000000E+00  0.00000000000E+00 -0.11101665307E+04  0.11101665307E+04  0.25500000920E-02 0. -1.
    10030    2    1    2    0    0  0.00000000000E+00  0.00000000000E+00 -0.53890062803E+03  0.16814324334E+04  0.15927338576E+04 0.  0.
        5    1    3    3  502    0 -0.69642538300E+03  0.18430223216E+03 -0.62776721147E+03  0.95555710906E+03  0.46999998093E+01 0.  1.
       -5    1    3    3    0  502  0.69642538300E+03 -0.18430223216E+03  0.88866583437E+02  0.72587532436E+03  0.46999998093E+01 0. -1.
</event>
<event>
 5   0  0.1787688E-04  0.1566087E+04  0.7818609E-02  0.8841657E-01
        1   -1    0    0  501    0  0.00000000000E+00  0.00000000000E+00  0.20863071033E+04  0.20863071033E+04  0.50400001928E-02 0.  1.
       -1   -1    0    0    0  501  0.00000000000E+00  0.00000000000E+00 -0.29389601285E+03  0.29389601290E+03  0.50400001928E-02 0. -1.
    10030    2    1    2    0    0  0.00000000000E+00  0.00000000000E+00  0.17924110904E+04  0.23802031162E+04  0.15660872764E+04 0.  0.
        4    1    3    3  502    0  0.17734347803E+03 -0.73368312539E+03  0.57953081956E+03  0.95162977119E+03  0.12699999809E+01 0. -1.
       -4    1    3    3    0  502 -0.17734347803E+03  0.73368312539E+03  0.12128802709E+04  0.14285733450E+04  0.12699999809E+01 0.  1.
</event>
<event>
 5   0  0.1764099E-04  0.1593211E+04  0.7818609E-02  0.8824730E-01
        1   -1    0    0  501    0  0.00000000000E+00  0.00000000000E+00  0.43894243623E+03  0.43894243626E+03  0.50400001928E-02 0.  1.
       -1   -1    0    0    0  501  0.00000000000E+00  0.00000000000E+00 -0.14457020267E+04  0.14457020267E+04  0.50400001928E-02 0. -1.
    10030    2    1    2    0    0  0.00000000000E+00  0.00000000000E+00 -0.10067595904E+04  0.18846444629E+04  0.15932105569E+04 0.  0.
        5    1    3    3  502    0 -0.53803934492E+02 -0.50474349930E+03 -0.12295987951E+04  0.13302616849E+04  0.46999998093E+01 0. -1.
       -5    1    3    3    0  502  0.53803934492E+02  0.50474349930E+03  0.22283920464E+03  0.55438277803E+03  0.46999998093E+01 0.  1.
</event>
<event>
 5   0  0.3228393E-04  0.1617226E+04  0.7818609E-02  0.8810035E-01
        2   -1    0    0  501    0  0.00000000000E+00  0.00000000000E+00  0.17998098617E+04  0.17998098618E+04  0.25500000920E-02 0.  1.
       -2   -1    0    0    0  501  0.00000000000E+00  0.00000000000E+00 -0.36329119523E+03  0.36329119524E+03  0.25500000920E-02 0. -1.
    10030    2    1    2    0    0  0.00000000000E+00  0.00000000000E+00  0.14365186665E+04  0.21631010570E+04  0.16172261139E+04 0.  0.
        1    1    3    3  502    0 -0.10726790782E+03  0.79568798973E+03  0.84675554468E+03  0.11668850558E+04  0.50400001928E-02 0. -1.
       -1    1    3    3    0  502  0.10726790782E+03 -0.79568798973E+03  0.58976312184E+03  0.99621600116E+03  0.50400001928E-02 0.  1.
</event>
<event>
 5   0  0.3263294E-04  0.1601106E+04  0.7818609E-02  0.8819869E-01
        2   -1    0    0  501    0  0.00000000000E+00  0.00000000000E+00  0.20206455037E+04  0.20206455037E+04  0.25500000920E-02 0. -1.
       -2   -1    0    0    0  501  0.00000000000E+00  0.00000000000E+00 -0.31716833141E+03  0.31716833142E+03  0.25500000920E-02 0.  1.
    10030    2    1    2    0    0  0.00000000000E+00  0.00000000000E+00  0.17034771723E+04  0.23378138351E+04  0.16011055715E+04 0.  0.
        4    1    3    3  502    0  0.11202196258E+03  0.74060332655E+03  0.12643134672E+04  0.14695347439E+04  0.12699999809E+01 0. -1.
       -4    1    3    3    0  502 -0.11202196258E+03 -0.74060332655E+03  0.43916370505E+03  0.86827909115E+03  0.12699999809E+01 0.  1.
</event>
<event>
 5   0  0.3210612E-04  0.1622417E+04  0.7818609E-02  0.8806893E-01
       -2   -1    0    0    0  501  0.00000000000E+00  0.00000000000E+00  0.92902501527E+03  0.92902501528E+03  0.25500000920E-02 0. -1.
        2   -1    0    0  501    0  0.00000000000E+00  0.00000000000E+00 -0.70833346737E+03  0.70833346738E+03  0.25500000920E-02 0.  1.
    10030    2    1    2    0    0  0.00000000000E+00  0.00000000000E+00  0.22069154790E+03  0.16373584827E+04  0.16224173450E+04 0.  0.
        2    1    3    3  502    0 -0.16015330360E+01  0.19925800260E+03 -0.68325027617E+03  0.71171430814E+03  0.25500000920E-02 0.  1.
       -2    1    3    3    0  502  0.16015330360E+01 -0.19925800260E+03  0.90394182407E+03  0.92564417452E+03  0.25500000920E-02 0. -1.
</event>
<event>
 5   0  0.3210612E-04  0.1582641E+04  0.7818609E-02  0.8831284E-01
       -2   -1    0    0    0  501  0.00000000000E+00  0.00000000000E+00  0.43723417884E+03  0.43723417885E+03  0.25500000920E-02 0.  1.
        2   -1    0    0  501    0  0.00000000000E+00  0.00000000000E+00 -0.14321580257E+04  0.14321580257E+04  0.25500000920E-02 0. -1.
    10030    2    1    2    0    0  0.00000000000E+00  0.00000000000E+00 -0.99492384685E+03  0.18693922045E+04  0.15826413849E+04 0.  0.
        2    1    3    3  502    0  0.18669717384E+03  0.29597292597E+03 -0.13357976056E+04  0.13808732928E+04  0.25500000920E-02 0. -1.
       -2    1    3    3    0  502 -0.18669717384E+03 -0.29597292597E+03  0.34087375880E+03  0.48851891169E+03  0.25500000920E-02 0.  1.
</event>
<event>
 5   0  0.1219463E-04  0.1555245E+04  0.7818609E-02  0.8848524E-01
       -4   -1    0    0    0  501  0.00000000000E+00  0.00000000000E+00  0.53448551346E+03  0.53448702229E+03  0.12699999809E+01 0. -1.
        4   -1    0    0  501    0  0.00000000000E+00  0.00000000000E+00 -0.11313588693E+04  0.11313595822E+04  0.12699999809E+01 0.  1.
    10030    2    1    2    0    0  0.00000000000E+00  0.00000000000E+00 -0.59687335588E+03  0.16658466044E+04  0.15552450310E+04 0.  0.
        3    1    3    3  502    0 -0.23440577914E+03  0.29546552538E+03 -0.10268350435E+04  0.10939086629E+04  0.10100000352E+00 0.  1.
       -3    1    3    3    0  502  0.23440577914E+03 -0.29546552538E+03  0.42996168761E+03  0.57193794156E+03  0.10100000352E+00 0. -1.
</event>
<event>
 5   0  0.1736537E-04  0.1603125E+04  0.7818609E-02  0.8818631E-01
        1   -1    0    0  501    0  0.00000000000E+00  0.00000000000E+00  0.84839681992E+03  0.84839681994E+03  0.50400001928E-02 0. -1.
       -1   -1    0    0    0  501  0.00000000000E+00  0.00000000000E+00 -0.75731324292E+03  0.75731324294E+03  0.50400001928E-02 0.  1.
    10030    2    1    2    0    0  0.00000000000E+00  0.00000000000E+00  0.91083577001E+02  0.16057100629E+04  0.16031246327E+04 0.  0.
        3    1    3    3  502    0  0.17072649418E+02 -0.68396846605E+03 -0.37274133405E+03  0.77912800631E+03  0.10100000352E+00 0.  1.
       -3    1    3    3    0  502 -0.17072649418E+02  0.68396846605E+03  0.46382491105E+03  0.82658205656E+03  0.10100000352E+00 0. -1.
</event>
<event>
 5   0  0.3380454E-04  0.1599883E+04  0.7818609E-02  0.8820620E-01
        2   -1    0    0  501    0  0.00000000000E+00  0.00000000000E+00  0.64103821101E+03  0.64103821101E+03  0.25500000920E-02 0. -1.
       -2   -1    0    0    0  501  0.00000000000E+00  0.00000000000E+00 -0.99823486297E+03  0.99823486298E+03  0.25500000920E-02 0.  1.
    10030    2    1    2    0    0  0.00000000000E+00  0.00000000000E+00 -0.35719665197E+03  0.16392730740E+04  0.15998833592E+04 0.  0.
        5    1    3    3  502    0  0.28703451973E+03 -0.60026899684E+03 -0.63357236310E+03  0.91877511578E+03  0.46999998093E+01 0.  1.
       -5    1    3    3    0  502 -0.28703451973E+03  0.60026899684E+03  0.27637571113E+03  0.72049795821E+03  0.46999998093E+01 0. -1.
</event>
<event>
 5   0  0.3228393E-04  0.1581929E+04  0.7818609E-02  0.8831727E-01
        2   -1    0    0  501    0  0.00000000000E+00  0.00000000000E+00  0.83579394037E+03  0.83579394037E+03  0.25500000920E-02 0.  1.
       -2   -1    0    0    0  501  0.00000000000E+00  0.00000000000E+00 -0.74853984149E+03  0.74853984150E+03  0.25500000920E-02 0. -1.
    10030    2    1    2    0    0  0.00000000000E+00  0.00000000000E+00  0.87254098875E+02  0.15843337819E+04  0.15819292824E+04 0.  0.
        1    1    3    3  502    0  0.15387489460E+03 -0.77567880259E+03  0.60082959700E+02  0.79307316816E+03  0.50400001928E-02 0.  1.
       -1    1    3    3    0  502 -0.15387489460E+03  0.77567880259E+03  0.27171139175E+02  0.79126061371E+03  0.50400001928E-02 0. -1.
</event>
<event>
 5   0  0.1787688E-04  0.1602290E+04  0.7818609E-02  0.8819142E-01
       -1   -1    0    0    0  501  0.00000000000E+00  0.00000000000E+00  0.48823097162E+03  0.48823097164E+03  0.50400001928E-02 0. -1.
        1   -1    0    0  501    0  0.00000000000E+00  0.00000000000E+00 -0.13146102377E+04  0.13146102378E+04  0.50400001928E-02 0.  1.
    10030    2    1    2    0    0  0.00000000000E+00  0.00000000000E+00 -0.82637926613E+03  0.18028412094E+04  0.16022901531E+04 0.  0.
        4    1    3    3  502    0  0.26145727280E+03 -0.40944276837E+03  0.30359321231E+03  0.57286450190E+03  0.12699999809E+01 0. -1.
       -4    1    3    3    0  502 -0.26145727280E+03  0.40944276837E+03 -0.11299724784E+04  0.12299767075E+04  0.12699999809E+01 0.  1.
</event>
<event>
 5   0  0.1736537E-04  0.1604909E+04  0.7818609E-02  0.8817538E-01
        1   -1    0    0  501    0  0.00000000000E+00  0.00000000000E+00  0.12399347126E+04  0.12399347127E+04  0.50400001928E-02 0.  1.
       -1   -1    0    0    0  501  0.00000000000E+00  0.00000000000E+00 -0.51932810964E+03  0.51932810966E+03  0.50400001928E-02 0. -1.
    10030    2    1    2    0    0  0.00000000000E+00  0.00000000000E+00  0.72060660301E+03  0.17592628223E+04  0.16049086584E+04 0.  0.
        3    1    3    3  502    0 -0.53420833037E+03 -0.59873967631E+03  0.35145206026E+03  0.87600587960E+03  0.10100000352E+00 0.  1.
       -3    1    3    3    0  502  0.53420833037E+03  0.59873967631E+03  0.36915454274E+03  0.88325694271E+03  0.10100000352E+00 0. -1.
</event>
<event>
 5   0  0.3380454E-04  0.1665584E+04  0.7818609E-02  0.8781240E-01
        2   -1    0    0  501    0  0.00000000000E+00  0.00000000000E+00  0.59070387536E+03  0.59070387536E+03  0.25500000920E-02 0.  1.
       -2   -1    0    0    0  501  0.00000000000E+00  0.00000000000E+00 -0.11740949623E+04  0.11740949623E+04  0.25500000920E-02 0. -1.
    10030    2    1    2    0    0  0.00000000000E+00  0.00000000000E+00 -0.58339108693E+03  0.17647988377E+04  0.16655839147E+04 0.  0.
        5    1    3    3  502    0  0.11508752504E+03 -0.48553305259E+03  0.41475315786E+03  0.64886805710E+03  0.46999998093E+01 0.  1.
       -5    1    3    3    0  502 -0.11508752504E+03  0.48553305259E+03 -0.99814424479E+03  0.11159307806E+04  0.46999998093E+01 0. -1.
</event>
<event>
 5   0  0.3380454E-04  0.1594318E+04  0.7818609E-02  0.8824046E-01
       -2   -1    0    0    0  501  0.00000000000E+00  0.00000000000E+00  0.47181589726E+03  0.47181589726E+03  0.25500000920E-02 0.  1.
        2   -1    0    0  501    0  0.00000000000E+00  0.00000000000E+00 -0.13468441227E+04  0.13468441227E+04  0.25500000920E-02 0. -1.
    10030    2    1    2    0    0  0.00000000000E+00  0.00000000000E+00 -0.87502822546E+03  0.18186600200E+04  0.15943179962E+04 0.  0.
        5    1    3    3  502    0 -0.36807512400E+03  0.70674381400E+03 -0.41267214135E+03  0.89737756924E+03  0.46999998093E+01 0. -1.
       -5    1    3    3    0  502  0.36807512400E+03 -0.70674381400E+03 -0.46235608410E+03  0.92128245074E+03  0.46999998093E+01 0.  1.
</event>
<event>
 5   0  0.3210612E-04  0.1603794E+04  0.7818609E-02  0.8818220E-01
        2   -1    0    0  501    0  0.00000000000E+00  0.00000000000E+00  0.15320652282E+04  0.15320652282E+04  0.25500000920E-02 0.  1.
       -2   -1    0    0    0  501  0.00000000000E+00  0.00000000000E+00 -0.41972050578E+03  0.41972050579E+03  0.25500000920E-02 0. -1.
    10030    2    1    2    0    0  0.00000000000E+00  0.00000000000E+00  0.11123447225E+04  0.19517857340E+04  0.16037944912E+04 0.  0.
        2    1    3    3  502    0 -0.33246335077E+03  0.70422933378E+03  0.78889367174E+03  0.11085233689E+04  0.25500000920E-02 0.  1.
       -2    1    3    3    0  502  0.33246335077E+03 -0.70422933378E+03  0.32345105072E+03  0.84326236509E+03  0.25500000920E-02 0. -1.
</event>
<event>
 5   0  0.3263294E-04  0.1602146E+04  0.7818609E-02  0.8819231E-01
       -2   -1    0    0    0  501  0.00000000000E+00  0.00000000000E+00  0.80852074278E+03  0.80852074279E+03  0.25500000920E-02 0.  1.
        2   -1    0    0  501    0  0.00000000000E+00  0.00000000000E+00 -0.79369345333E+03  0.79369345334E+03  0.25500000920E-02 0. -1.
    10030    2    1    2    0    0  0.00000000000E+00  0.00000000000E+00  0.14827289448E+02  0.16022141961E+04  0.16021455869E+04 0.  0.
        4    1    3    3  502    0  0.31023287810E+03  0.43304626245E+03  0.60572222789E+03  0.80664399479E+03  0.12699999809E+01 0.  1.
       -4    1    3    3    0  502 -0.31023287810E+03 -0.43304626245E+03 -0.59089493844E+03  0.79557020133E+03  0.12699999809E+01 0. -1.
</event>
<event>
 5   0  0.1819811E-04  0.1567365E+04  0.7818609E-02  0.8840852E-01
       -1   -1    0    0    0  501  0.00000000000E+00  0.00000000000E+00  0.55919843331E+03  0.55919843334E+03  0.50400001928E-02 0. -1.
        1   -1    0    0  501    0  0.00000000000E+00  0.00000000000E+00 -0.10982827303E+04  0.10982827303E+04  0.50400001928E-02 0.  1.
    10030    2    1    2    0    0  0.00000000000E+00  0.00000000000E+00 -0.53908429700E+03  0.16574811637E+04  0.15673646444E+04 0.  0.
        1    1    3    3  502    0 -0.56633996866E+03 -0.53221699313E+03 -0.37614532970E+03  0.86341253000E+03  0.50400001928E-02 0.  1.
       -1    1    3    3    0  502  0.56633996866E+03  0.53221699313E+03 -0.16293896730E+03  0.79406863366E+03  0.50400001928E-02 0. -1.
</event>
<event>
 5   0  0.1819811E-04  0.1566110E+04  0.7818609E-02  0.8841643E-01
        1   -1    0    0  501    0  0.00000000000E+00  0.00000000000E+00  0.83842068615E+03  0.83842068616E+03  0.50400001928E-02 0. -1.
       -1   -1    0    0    0  501  0.00000000000E+00  0.00000000000E+00 -0.73134525094E+03  0.73134525095E+03  0.50400001928E-02 0.  1.
    10030    2    1    2    0    0  0.00000000000E+00  0.00000000000E+00  0.10707543521E+03  0.15697659371E+04  0.15661098137E+04 0.  0.
        1    1    3    3  502    0  0.54713462814E+03 -0.36079789217E+03  0.48307468792E+03  0.81418215065E+03  0.50400001928E-02 0.  1.
       -1    1    3    3    0  502 -0.54713462814E+03  0.36079789217E+03 -0.37599925271E+03  0.75558378646E+03  0.50400001928E-02 0. -1.
</event>
<event>
 5   0  0.1764099E-04  0.1610110E+04  0.7818609E-02  0.8814361E-01
        1   -1    0    0  501    0  0.00000000000E+00  0.00000000000E+00  0.12978033516E+04  0.12978033516E+04  0.50400001928E-02 0.  1.
       -1   -1    0    0    0  501  0.00000000000E+00  0.00000000000E+00 -0.49939281331E+03  0.49939281334E+03  0.50400001928E-02 0. -1.
    10030    2    1    2    0    0  0.00000000000E+00  0.00000000000E+00  0.79841053831E+03  0.17971961650E+04  0.16101101415E+04 0.  0.
        5    1    3    3  502    0  0.60859863605E+03  0.50379157735E+03  0.22666988259E+03  0.82194864735E+03  0.46999998093E+01 0. -1.
       -5    1    3    3    0  502 -0.60859863605E+03 -0.50379157735E+03  0.57174065572E+03  0.97524751761E+03  0.46999998093E+01 0.  1.
</event>
<event>
 5   0  0.3228393E-04  0.1581705E+04  0.7818609E-02  0.8831867E-01
        2   -1    0    0  501    0  0.00000000000E+00  0.00000000000E+00  0.15771176829E+04  0.15771176829E+04  0.25500000920E-02 0.  1.
       -2   -1    0    0    0  501  0.00000000000E+00  0.00000000000E+00 -0.39657650009E+03  0.39657650010E+03  0.25500000920E-02 0. -1.
    10030    2    1    2    0    0  0.00000000000E+00  0.00000000000E+00  0.11805411828E+04  0.19736941830E+04  0.15817051696E+04 0.  0.
        1    1    3    3  502    0 -0.25892782244E+03  0.46628653049E+02 -0.34036898346E+03  0.43019634290E+03  0.50400001928E-02 0. -1.
       -1    1    3    3    0  502  0.25892782244E+03 -0.46628653049E+02  0.15209101663E+04  0.15434978401E+04  0.50400001928E-02 0.  1.
</event>
<event>
 5   0  0.1219463E-04  0.1582149E+04  0.7818609E-02  0.8831591E-01
       -3   -1    0    0    0  501  0.00000000000E+00  0.00000000000E+00  0.10337038076E+04  0.10337038125E+04  0.10100000352E+00 0. -1.
        3   -1    0    0  501    0  0.00000000000E+00  0.00000000000E+00 -0.60539438052E+03  0.60539438894E+03  0.10100000352E+00 0.  1.
    10030    2    1    2    0    0  0.00000000000E+00  0.00000000000E+00  0.42830942704E+03  0.16390982014E+04  0.15821485229E+04 0.  0.
        5    1    3    3  502    0 -0.51293054253E+03 -0.59507001121E+03  0.11824630483E+03  0.79448746894E+03  0.46999998093E+01 0. -1.
       -5    1    3    3    0  502  0.51293054253E+03  0.59507001121E+03  0.31006312221E+03  0.84461073250E+03  0.46999998093E+01 0.  1.
</event>
<event>
 5   0  0.3263294E-04  0.1595912E+04  0.7818609E-02  0.8823063E-01
        2   -1    0    0  501    0  0.00000000000E+00  0.00000000000E+00  0.20902118894E+04  0.20902118894E+04  0.25500000920E-02 0. -1.
       -2   -1    0    0    0  501  0.00000000000E+00  0.00000000000E+00 -0.30462636389E+03  0.30462636390E+03  0.25500000920E-02 0.  1.
    10030    2    1    2    0    0  0.00000000000E+00  0.00000000000E+00  0.17855855255E+04  0.23948382533E+04  0.15959118367E+04 0.  0.
        4    1    3    3  502    0  0.53085171558E+03 -0.30497866682E+03  0.16607706636E+04  0.17700215652E+04  0.12699999809E+01 0. -1.
       -4    1    3    3    0  502 -0.53085171558E+03  0.30497866682E+03  0.12481486194E+03  0.62481668817E+03  0.12699999809E+01 0.  1.
</event>
<event>
 5   0  0.1787688E-04  0.1610168E+04  0.7818609E-02  0.8814326E-01
       -1   -1    0    0    0  501  0.00000000000E+00  0.00000000000E+00  0.48601442072E+03  0.48601442075E+03  0.50400001928E-02 0. -1.
        1   -1    0    0  501    0  0.00000000000E+00  0.00000000000E+00 -0.13336238374E+04  0.13336238374E+04  0.50400001928E-02 0.  1.
    10030    2    1    2    0    0  0.00000000000E+00  0.00000000000E+00 -0.84760941670E+03  0.18196382582E+04  0.16101682109E+04 0.  0.
        4    1    3    3  502    0 -0.51715148550E+03  0.28173434652E+03  0.19655189951E+03  0.62084954946E+03  0.12699999809E+01 0. -1.
       -4    1    3    3    0  502  0.51715148550E+03 -0.28173434652E+03 -0.10441613162E+04  0.11987887087E+04  0.12699999809E+01 0.  1.
</event>
<event>
 5   0  0.1764099E-04  0.1602744E+04  0.7818609E-02  0.8818864E-01
        1   -1    0    0  501    0  0.00000000000E+00  0.00000000000E+00  0.97273191138E+03  0.97273191139E+03  0.50400001928E-02 0.  1.
       -1   -1    0    0    0  501  0.00000000000E+00  0.00000000000E+00 -0.66019910005E+03  0.66019910007E+03  0.50400001928E-02 0. -1.
    10030    2    1    2    0    0  0.00000000000E+00  0.00000000000E+00  0.31253281133E+03  0.16329310115E+04  0.16027435634E+04 0.  0.
        5    1    3    3  502    0 -0.39913523900E+03 -0.51572278580E+02 -0.54975454425E+03  0.68133749923E+03  0.46999998093E+01 0. -1.
       -5    1    3    3    0  502  0.39913523900E+03  0.51572278580E+02  0.86228735558E+03  0.95159351223E+03  0.46999998093E+01 0.  1.
</event>
<event>
 5   0  0.3228393E-04  0.1597828E+04  0.7818609E-02  0.8821883E-01
       -2   -1    0    0    0  501  0.00000000000E+00  0.00000000000E+00  0.29077510353E+03  0.29077510354E+03  0.25500000920E-02 0. -1.
        2   -1    0    0  501    0  0.00000000000E+00  0.00000000000E+00 -0.21950432490E+04  0.21950432490E+04  0.25500000920E-02 0.  1.
    10030    2    1    2    0    0  0.00000000000E+00  0.00000000000E+00 -0.19042681455E+04  0.24858183526E+04  0.15978284363E+04 0.  0.
        1    1    3    3  502    0  0.66305080267E+03  0.44434447091E+03 -0.89856679362E+03  0.12018738113E+04  0.50400001928E-02 0. -1.
       -1    1    3    3    0  502 -0.66305080267E+03 -0.44434447091E+03 -0.10057013519E+04  0.12839445412E+04  0.50400001928E-02 0.  1.
</event>
<event>
 5   0  0.1736537E-04  0.1592832E+04  0.7818609E-02  0.8824963E-01
        1   -1    0    0  501    0  0.00000000000E+00  0.00000000000E+00  0.86150507012E+03  0.86150507014E+03  0.50400001928E-02 0. -1.
       -1   -1    0    0    0  501  0.00000000000E+00  0.00000000000E+00 -0.73624498704E+03  0.73624498706E+03  0.50400001928E-02 0.  1.
    10030    2    1    2    0    0  0.00000000000E+00  0.00000000000E+00  0.12526008308E+03  0.15977500572E+04  0.15928324321E+04 0.  0.
        3    1    3    3  502    0 -0.68888578645E+03  0.66305732999E+02 -0.33269163463E+03  0.76788268046E+03  0.10100000352E+00 0.  1.
       -3    1    3    3    0  502  0.68888578645E+03 -0.66305732999E+02  0.45795171772E+03  0.82986737673E+03  0.10100000352E+00 0. -1.
</event>
<event>
 5   0  0.3210612E-04  0.1605626E+04  0.7818609E-02  0.8817099E-01
       -2   -1    0    0    0  501  0.00000000000E+00  0.00000000000E+00  0.48979489783E+03  0.48979489784E+03  0.25500000920E-02 0. -1.
        2   -1    0    0  501    0  0.00000000000E+00  0.00000000000E+00 -0.13158740547E+04  0.13158740547E+04  0.25500000920E-02 0.  1.
    10030    2    1    2    0    0  0.00000000000E+00  0.00000000000E+00 -0.82607915690E+03  0.18056689526E+04  0.16056256079E+04 0.  0.
        2    1    3    3  502    0  0.72737007270E+03 -0.30169953439E+03 -0.58877282284E+03  0.98323103522E+03  0.25500000920E-02 0.  1.
       -2    1    3    3    0  502 -0.72737007270E+03  0.30169953439E+03 -0.23730633406E+03  0.82243791735E+03  0.25500000920E-02 0. -1.
</event>
<event>
 5   0  0.3210612E-04  0.1598398E+04  0.7818609E-02  0.8821533E-01
        2   -1    0    0  501    0  0.00000000000E+00  0.00000000000E+00  0.75919288131E+03  0.75919288131E+03  0.25500000920E-02 0. -1.
       -2   -1    0    0    0  501  0.00000000000E+00  0.00000000000E+00 -0.84131367607E+03  0.84131367608E+03  0.25500000920E-02 0.  1.
    10030    2    1    2    0    0  0.00000000000E+00  0.00000000000E+00 -0.82120794762E+02  0.16005065574E+04  0.15983983907E+04 0.  0.
        2    1    3    3  502    0  0.42317698058E+02 -0.60305553247E+03  0.48236473136E+03  0.77339672670E+03  0.25500000920E-02 0. -1.
       -2    1    3    3    0  502 -0.42317698058E+02  0.60305553247E+03 -0.56448552612E+03  0.82710983069E+03  0.25500000920E-02 0.  1.
</event>
<event>
 5   0  0.3263294E-04  0.1598534E+04  0.7818609E-02  0.8821449E-01
       -2   -1    0    0    0  501  0.00000000000E+00  0.00000000000E+00  0.46264200917E+03  0.46264200918E+03  0.25500000920E-02 0.  1.
        2   -1    0    0  501    0  0.00000000000E+00  0.00000000000E+00 -0.13808259185E+04  0.13808259185E+04  0.25500000920E-02 0. -1.
    10030    2    1    2    0    0  0.00000000000E+00  0.00000000000E+00 -0.91818390928E+03  0.18434679276E+04  0.15985344253E+04 0.  0.
        4    1    3    3  502    0 -0.47126425603E+03  0.19702546318E+03 -0.11680361570E+04  0.12748408172E+04  0.12699999809E+01 0. -1.
       -4    1    3    3    0  502  0.47126425603E+03 -0.19702546318E+03  0.24985224772E+03  0.56862711046E+03  0.12699999809E+01 0.  1.
</event>
<event>
 5   0  0.3274900E-04  0.1589676E+04  0.7818609E-02  0.8826916E-01
        2   -1    0    0  501    0  0.00000000000E+00  0.00000000000E+00  0.68514667289E+03  0.68514667290E+03  0.25500000920E-02 0. -1.
       -2   -1    0    0    0  501  0.00000000000E+00  0.00000000000E+00 -0.92209033941E+03  0.92209033941E+03  0.25500000920E-02 0.  1.
    10030    2    1    2    0    0  0.00000000000E+00  0.00000000000E+00 -0.23694366652E+03  0.16072370123E+04  0.15896755998E+04 0.  0.
        3    1    3    3  502    0  0.44450882295E+03  0.20084519533E+03 -0.75297158422E+03  0.89715834891E+03  0.10100000352E+00 0.  1.
       -3    1    3    3    0  502 -0.44450882295E+03 -0.20084519533E+03  0.51602791770E+03  0.71007866340E+03  0.10100000352E+00 0. -1.
</event>
<event>
 5   0  0.3228393E-04  0.1574183E+04  0.7818609E-02  0.8836567E-01
       -2   -1    0    0    0  501  0.00000000000E+00  0.00000000000E+00  0.74313725980E+03  0.74313725980E+03  0.25500000920E-02 0. -1.
        2   -1    0    0  501    0  0.00000000000E+00  0.00000000000E+00 -0.83364546479E+03  0.83364546479E+03  0.25500000920E-02 0.  1.
    10030    2    1    2    0    0  0.00000000000E+00  0.00000000000E+00 -0.90508204990E+02  0.15767827246E+04  0.15741829707E+04 0.  0.
        1    1    3    3  502    0 -0.35265356709E+03  0.68926340086E+02 -0.74669457942E+03  0.82865443563E+03  0.50400001928E-02 0.  1.
       -1    1    3    3    0  502  0.35265356709E+03 -0.68926340086E+02  0.65618637443E+03  0.74812828896E+03  0.50400001928E-02 0. -1.
</event>
<event>
 5   0  0.3380454E-04  0.1597773E+04  0.7818609E-02  0.8821917E-01
        2   -1    0    0  501    0  0.00000000000E+00  0.00000000000E+00  0.13055307953E+04  0.13055307953E+04  0.25500000920E-02 0. -1.
       -2   -1    0    0    0  501  0.00000000000E+00  0.00000000000E+00 -0.48885861738E+03  0.48885861739E+03  0.25500000920E-02 0.  1.
    10030    2    1    2    0    0  0.00000000000E+00  0.00000000000E+00  0.81667217793E+03  0.17943894127E+04  0.15977734252E+04 0.  0.
        5    1    3    3  502    0 -0.29661909708E+03  0.18995415325E+03 -0.39692923857E+03  0.53069801160E+03  0.46999998093E+01 0.  1.
       -5    1    3    3    0  502  0.29661909708E+03 -0.18995415325E+03  0.12136014165E+04  0.12636914011E+04  0.46999998093E+01 0. -1.
</event>
<event>
 5   0  0.1787688E-04  0.1504950E+04  0.7818609E-02  0.8881168E-01
        1   -1    0    0  501    0  0.00000000000E+00  0.00000000000E+00  0.11455512598E+04  0.11455512598E+04  0.50400001928E-02 0.  1.
       -1   -1    0    0    0  501  0.00000000000E+00  0.00000000000E+00 -0.49427640268E+03  0.49427640271E+03  0.50400001928E-02 0. -1.
    10030    2    1    2    0    0  0.00000000000E+00  0.00000000000E+00  0.65127485712E+03  0.16398276625E+04  0.15049504388E+04 0.  0.
        4    1    3    3  502    0  0.32378029604E+03 -0.59017436259E+03  0.69204534476E+03  0.96543660095E+03  0.12699999809E+01 0.  1.
       -4    1    3    3    0  502 -0.32378029604E+03  0.59017436259E+03 -0.40770487632E+02  0.67439106157E+03  0.12699999809E+01 0. -1.
</event>
<event>
 5   0  0.1764099E-04  0.1608491E+04  0.7818609E-02  0.8815348E-01
       -1   -1    0    0    0  501  0.00000000000E+00  0.00000000000E+00  0.99551808982E+03  0.99551808984E+03  0.50400001928E-02 0.  1.
        1   -1    0    0  501    0  0.00000000000E+00  0.00000000000E+00 -0.64972320213E+03  0.64972320215E+03  0.50400001928E-02 0. -1.
    10030    2    1    2    0    0  0.00000000000E+00  0.00000000000E+00  0.34579488769E+03  0.16452412920E+04  0.16084914686E+04 0.  0.
        5    1    3    3  502    0  0.57641351550E+03 -0.17727446211E+02  0.74626002444E+03  0.94312932161E+03  0.46999998093E+01 0.  1.
       -5    1    3    3    0  502 -0.57641351550E+03  0.17727446211E+02 -0.40046513675E+03  0.70211197038E+03  0.46999998093E+01 0. -1.
</event>
<event>
 5   0  0.3263294E-04  0.1601053E+04  0.7818609E-02  0.8819902E-01
        2   -1    0    0  501    0  0.00000000000E+00  0.00000000000E+00  0.58612383115E+03  0.58612383116E+03  0.25500000920E-02 0. -1.
       -2   -1    0    0    0  501  0.00000000000E+00  0.00000000000E+00 -0.10933567826E+04  0.10933567826E+04  0.25500000920E-02 0.  1.
    10030    2    1    2    0    0  0.00000000000E+00  0.00000000000E+00 -0.50723295143E+03  0.16794806137E+04  0.16010527365E+04 0.  0.
        4    1    3    3  502    0  0.49938388170E+03  0.63782426740E+02 -0.90651045029E+03  0.10369258742E+04  0.12699999809E+01 0.  1.
       -4    1    3    3    0  502 -0.49938388170E+03 -0.63782426740E+02  0.39927749887E+03  0.64255473951E+03  0.12699999809E+01 0. -1.
</event>
<event>
 5   0  0.3210612E-04  0.1604302E+04  0.7818609E-02  0.8817909E-01
        2   -1    0    0  501    0  0.00000000000E+00  0.00000000000E+00  0.63694366840E+03  0.63694366841E+03  0.25500000920E-02 0. -1.
       -2   -1    0    0    0  501  0.00000000000E+00  0.00000000000E+00 -0.10102095135E+04  0.10102095135E+04  0.25500000920E-02 0.  1.
    10030    2    1    2    0    0  0.00000000000E+00  0.00000000000E+00 -0.37326584508E+03  0.16471531819E+04  0.16043024071E+04 0.  0.
        2    1    3    3  502    0  0.25158449192E+03 -0.70248688652E+03 -0.48888343578E+03  0.89207039862E+03  0.25500000920E-02 0. -1.
       -2    1    3    3    0  502 -0.25158449192E+03  0.70248688652E+03  0.11561759070E+03  0.75508278327E+03  0.25500000920E-02 0.  1.
</event>
<event>
 5   0  0.1764099E-04  0.1605929E+04  0.7818609E-02  0.8816914E-01
       -1   -1    0    0    0  501  0.00000000000E+00  0.00000000000E+00  0.57141263332E+03  0.57141263334E+03  0.50400001928E-02 0. -1.
        1   -1    0    0  501    0  0.00000000000E+00  0.00000000000E+00 -0.11283473827E+04  0.11283473827E+04  0.50400001928E-02 0.  1.
    10030    2    1    2    0    0  0.00000000000E+00  0.00000000000E+00 -0.55693474936E+03  0.16997600160E+04  0.16059289514E+04 0.  0.
        5    1    3    3  502    0 -0.36484816465E+03  0.71226199148E+03 -0.20907346777E+03  0.82714275229E+03  0.46999998093E+01 0.  1.
       -5    1    3    3    0  502  0.36484816465E+03 -0.71226199148E+03 -0.34786128160E+03  0.87261726374E+03  0.46999998093E+01 0. -1.
</event>
<event>
 5   0  0.1761255E-04  0.1605012E+04  0.7818609E-02  0.8817475E-01
       -1   -1    0    0    0  501  0.00000000000E+00  0.00000000000E+00  0.36731381736E+03  0.36731381739E+03  0.50400001928E-02 0.  1.
        1   -1    0    0  501    0  0.00000000000E+00  0.00000000000E+00 -0.17533113416E+04  0.17533113416E+04  0.50400001928E-02 0. -1.
    10030    2    1    2    0    0  0.00000000000E+00  0.00000000000E+00 -0.13859975242E+04  0.21206251590E+04  0.16050115039E+04 0.  0.
        2    1    3    3  502    0  0.17078778280E+03 -0.75623728738E+03 -0.41917043873E+03  0.88134395005E+03  0.25500000920E-02 0.  1.
       -2    1    3    3    0  502 -0.17078778280E+03  0.75623728738E+03 -0.96682708551E+03  0.12392812090E+04  0.25500000920E-02 0. -1.
</event>
<event>
 5   0  0.3380454E-04  0.1596531E+04  0.7818609E-02  0.8822682E-01
        2   -1    0    0  501    0  0.00000000000E+00  0.00000000000E+00  0.14879321896E+04  0.14879321896E+04  0.25500000920E-02 0.  1.
       -2   -1    0    0    0  501  0.00000000000E+00  0.00000000000E+00 -0.42826397136E+03  0.42826397137E+03  0.25500000920E-02 0. -1.
    10030    2    1    2    0    0  0.00000000000E+00  0.00000000000E+00  0.10596682182E+04  0.19161961610E+04  0.15965309250E+04 0.  0.
        5    1    3    3  502    0 -0.36184200469E+03 -0.37223240254E+03  0.12576486056E+04  0.13605839566E+04  0.46999998093E+01 0.  1.
       -5    1    3    3    0  502  0.36184200469E+03  0.37223240254E+03 -0.19798038735E+03  0.55561220436E+03  0.46999998093E+01 0. -1.
</event>
<event>
 5   0  0.1761255E-04  0.1596435E+04  0.7818609E-02  0.8822741E-01
        1   -1    0    0  501    0  0.00000000000E+00  0.00000000000E+00  0.14608655431E+04  0.14608655431E+04  0.50400001928E-02 0. -1.
       -1   -1    0    0    0  501  0.00000000000E+00  0.00000000000E+00 -0.43614662424E+03  0.43614662427E+03  0.50400001928E-02 0.  1.
    10030    2    1    2    0    0  0.00000000000E+00  0.00000000000E+00  0.10247189189E+04  0.18970121674E+04  0.15964354984E+04 0.  0.
        2    1    3    3  502    0 -0.57475225194E+02  0.63599090376E+02  0.14553801385E+04  0.14579024636E+04  0.25500000920E-02 0. -1.
       -2    1    3    3    0  502  0.57475225194E+02 -0.63599090376E+02 -0.43066121966E+03  0.43910970376E+03  0.25500000920E-02 0.  1.
</event>
<event>
 5   0  0.1736537E-04  0.1610363E+04  0.7818609E-02  0.8814207E-01
        1   -1    0    0  501    0  0.00000000000E+00  0.00000000000E+00  0.10521210609E+04  0.10521210610E+04  0.50400001928E-02 0. -1.
       -1   -1    0    0    0  501  0.00000000000E+00  0.00000000000E+00 -0.61620030739E+03  0.61620030741E+03  0.50400001928E-02 0.  1.
    10030    2    1    2    0    0  0.00000000000E+00  0.00000000000E+00  0.43592075354E+03  0.16683213684E+04  0.16103630910E+04 0.  0.
        3    1    3    3  502    0 -0.60848416194E+03 -0.47449493338E+03 -0.20360058361E+02  0.77188921441E+03  0.10100000352E+00 0.  1.
       -3    1    3    3    0  502  0.60848416194E+03  0.47449493338E+03  0.45628081191E+03  0.89643215396E+03  0.10100000352E+00 0. -1.
</event>
<event>
 5   0  0.1819811E-04  0.1592132E+04  0.7818609E-02  0.8825396E-01
       -1   -1    0    0    0  501  0.00000000000E+00  0.00000000000E+00  0.10032474280E+04  0.10032474280E+04  0.50400001928E-02 0.  1.
        1   -1    0    0  501    0  0.00000000000E+00  0.00000000000E+00 -0.63166956559E+03  0.63166956561E+03  0.50400001928E-02 0. -1.
    10030    2    1    2    0    0  0.00000000000E+00  0.00000000000E+00  0.37157786242E+03  0.16349169936E+04  0.15921317371E+04 0.  0.
        1    1    3    3  502    0 -0.31863521270E+03  0.48370317023E+03 -0.37498497093E+03  0.69000788699E+03  0.50400001928E-02 0. -1.
       -1    1    3    3    0  502  0.31863521270E+03 -0.48370317023E+03  0.74656283335E+03  0.94490910665E+03  0.50400001928E-02 0.  1.
</event>
<event>
 5   0  0.3228393E-04  0.1589093E+04  0.7818609E-02  0.8827277E-01
       -2   -1    0    0    0  501  0.00000000000E+00  0.00000000000E+00  0.48789838326E+03  0.48789838327E+03  0.25500000920E-02 0. -1.
        2   -1    0    0  501    0  0.00000000000E+00  0.00000000000E+00 -0.12939260759E+04  0.12939260759E+04  0.25500000920E-02 0.  1.
    10030    2    1    2    0    0  0.00000000000E+00  0.00000000000E+00 -0.80602769264E+03  0.17818244592E+04  0.15890933774E+04 0.  0.
        1    1    3    3  502    0  0.47000727878E+03  0.52688574787E+02 -0.11189001384E+04  0.12147511876E+04  0.50400001928E-02 0.  1.
       -1    1    3    3    0  502 -0.47000727878E+03 -0.52688574787E+02  0.31287244574E+03  0.56707327159E+03  0.50400001928E-02 0. -1.
</event>
<event>
 5   0  0.3274900E-04  0.1530495E+04  0.7818609E-02  0.8864423E-01
       -2   -1    0    0    0  501  0.00000000000E+00  0.00000000000E+00  0.13859095457E+04  0.13859095457E+04  0.25500000920E-02 0. -1.
        2   -1    0    0  501    0  0.00000000000E+00  0.00000000000E+00 -0.42254129397E+03  0.42254129398E+03  0.25500000920E-02 0.  1.
    10030    2    1    2    0    0  0.00000000000E+00  0.00000000000E+00  0.96336825170E+03  0.18084508397E+04  0.15304953613E+04 0.  0.
        3    1    3    3  502    0 -0.74379953182E+03  0.17422619115E+03  0.42868923633E+03  0.87599485202E+03  0.10100000352E+00 0. -1.
       -3    1    3    3    0  502  0.74379953182E+03 -0.17422619115E+03  0.53467901537E+03  0.93245598764E+03  0.10100000352E+00 0.  1.
</event>
<event>
 5   0  0.3380454E-04  0.1576516E+04  0.7818609E-02  0.8835107E-01
       -2   -1    0    0    0  501  0.00000000000E+00  0.00000000000E+00  0.16021195055E+04  0.16021195055E+04  0.25500000920E-02 0. -1.
        2   -1    0    0  501    0  0.00000000000E+00  0.00000000000E+00 -0.38783023474E+03  0.38783023475E+03  0.25500000920E-02 0.  1.
    10030    2    1    2    0    0  0.00000000000E+00  0.00000000000E+00  0.12142892707E+04  0.19899497402E+04  0.15765156313E+04 0.  0.
        5    1    3    3  502    0  0.57046030684E+03  0.10034459022E+03  0.12819849114E+04  0.14067698467E+04  0.46999998093E+01 0. -1.
       -5    1    3    3    0  502 -0.57046030684E+03 -0.10034459022E+03 -0.67695640665E+02  0.58317989354E+03  0.46999998093E+01 0.  1.
</event>
<event>
 5   0  0.3263294E-04  0.1597197E+04  0.7818609E-02  0.8822272E-01
       -2   -1    0    0    0  501  0.00000000000E+00  0.00000000000E+00  0.95536642009E+03  0.95536642009E+03  0.25500000920E-02 0.  1.
        2   -1    0    0  501    0  0.00000000000E+00  0.00000000000E+00 -0.66755499115E+03  0.66755499116E+03  0.25500000920E-02 0. -1.
    10030    2    1    2    0    0  0.00000000000E+00  0.00000000000E+00  0.28781142893E+03  0.16229214112E+04  0.15971970725E+04 0.  0.
        4    1    3    3  502    0  0.67170449421E+03 -0.43191443619E+03  0.13924916830E+03  0.81063490642E+03  0.12699999809E+01 0.  1.
       -4    1    3    3    0  502 -0.67170449421E+03  0.43191443619E+03  0.14856226064E+03  0.81228650483E+03  0.12699999809E+01 0. -1.
</event>
<event>
 5   0  0.3228393E-04  0.1593994E+04  0.7818609E-02  0.8824246E-01
       -2   -1    0    0    0  501  0.00000000000E+00  0.00000000000E+00  0.49931446626E+03  0.49931446627E+03  0.25500000920E-02 0. -1.
        2   -1    0    0  501    0  0.00000000000E+00  0.00000000000E+00 -0.12721522833E+04  0.12721522833E+04  0.25500000920E-02 0.  1.
    10030    2    1    2    0    0  0.00000000000E+00  0.00000000000E+00 -0.77283781700E+03  0.17714667495E+04  0.15939937746E+04 0.  0.
        1    1    3    3  502    0 -0.49842582821E+03  0.42798481115E+03 -0.88788355373E+03  0.11045073607E+04  0.50400001928E-02 0.  1.
       -1    1    3    3    0  502  0.49842582821E+03 -0.42798481115E+03  0.11504573673E+03  0.66695938885E+03  0.50400001928E-02 0. -1.
</event>
<event>
 5   0  0.1761255E-04  0.1579934E+04  0.7818609E-02  0.8832971E-01
       -1   -1    0    0    0  501  0.00000000000E+00  0.00000000000E+00  0.86619085688E+03  0.86619085689E+03  0.50400001928E-02 0.  1.
        1   -1    0    0  501    0  0.00000000000E+00  0.00000000000E+00 -0.72045112712E+03  0.72045112713E+03  0.50400001928E-02 0. -1.
    10030    2    1    2    0    0  0.00000000000E+00  0.00000000000E+00  0.14573972976E+03  0.15866419840E+04  0.15799344026E+04 0.  0.
        2    1    3    3  502    0 -0.52980574974E+03  0.14021593670E+03 -0.49848627762E+03  0.74083953076E+03  0.25500000920E-02 0. -1.
       -2    1    3    3    0  502  0.52980574974E+03 -0.14021593670E+03  0.64422600738E+03  0.84580245326E+03  0.25500000920E-02 0.  1.
</event>
<event>
 5   0  0.1736537E-04  0.1599711E+04  0.7818609E-02  0.8820726E-01
        1   -1    0    0  501    0  0.00000000000E+00  0.00000000000E+00  0.16811058510E+04  0.16811058510E+04  0.50400001928E-02 0.  1.
       -1   -1    0    0    0  501  0.00000000000E+00  0.00000000000E+00 -0.38056411887E+03  0.38056411890E+03  0.50400001928E-02 0. -1.
    10030    2    1    2    0    0  0.00000000000E+00  0.00000000000E+00  0.13005417321E+04  0.20616699699E+04  0.15997106825E+04 0.  0.
        3    1    3    3  502    0 -0.48397029904E+02 -0.57945079090E+03 -0.57575113868E+02  0.58431189917E+03  0.10100000352E+00 0. -1.
       -3    1    3    3    0  502  0.48397029904E+02  0.57945079090E+03  0.13581168460E+04  0.14773580707E+04  0.10100000352E+00 0.  1.
</event>
<event>
 5   0  0.3274900E-04  0.1593665E+04  0.7818609E-02  0.8824450E-01
        2   -1    0    0  501    0  0.00000000000E+00  0.00000000000E+00  0.91637166267E+03  0.91637166267E+03  0.25500000920E-02 0. -1.
       -2   -1    0    0    0  501  0.00000000000E+00  0.00000000000E+00 -0.69288667204E+03  0.69288667205E+03  0.25500000920E-02 0.  1.
    10030    2    1    2    0    0  0.00000000000E+00  0.00000000000E+00  0.22348499063E+03  0.16092583347E+04  0.15936645967E+04 0.  0.
        3    1    3    3  502    0 -0.15329512719E+03  0.78192955613E+03  0.11713088051E+03  0.80537747681E+03  0.10100000352E+00 0. -1.
       -3    1    3    3    0  502  0.15329512719E+03 -0.78192955613E+03  0.10635411012E+03  0.80388085791E+03  0.10100000352E+00 0.  1.
</event>
<event>
 5   0  0.3274900E-04  0.1620986E+04  0.7818609E-02  0.8807758E-01
        2   -1    0    0  501    0  0.00000000000E+00  0.00000000000E+00  0.18361678418E+04  0.18361678418E+04  0.25500000920E-02 0. -1.
       -2   -1    0    0    0  501  0.00000000000E+00  0.00000000000E+00 -0.35775524658E+03  0.35775524659E+03  0.25500000920E-02 0.  1.
    10030    2    1    2    0    0  0.00000000000E+00  0.00000000000E+00  0.14784125952E+04  0.21939230884E+04  0.16209857236E+04 0.  0.
        3    1    3    3  502    0 -0.42177060048E+03  0.15855565251E+03  0.16510221757E+04  0.17114042682E+04  0.10100000352E+00 0. -1.
       -3    1    3    3    0  502  0.42177060048E+03 -0.15855565251E+03 -0.17260958048E+03  0.48251882020E+03  0.10100000352E+00 0.  1.
</event>
<event>
 5   0  0.1761255E-04  0.1587976E+04  0.7818609E-02  0.8827969E-01
       -1   -1    0    0    0  501  0.00000000000E+00  0.00000000000E+00  0.11987962807E+04  0.11987962807E+04  0.50400001928E-02 0.  1.
        1   -1    0    0  501    0  0.00000000000E+00  0.00000000000E+00 -0.52587520978E+03  0.52587520981E+03  0.50400001928E-02 0. -1.
    10030    2    1    2    0    0  0.00000000000E+00  0.00000000000E+00  0.67292107091E+03  0.17246714905E+04  0.15879763797E+04 0.  0.
        2    1    3    3  502    0 -0.75006843796E+03 -0.13664805488E+03  0.57722272680E+03  0.95627476641E+03  0.25500000920E-02 0.  1.
       -2    1    3    3    0  502  0.75006843796E+03  0.13664805488E+03  0.95698344106E+02  0.76839672410E+03  0.25500000920E-02 0. -1.
</event>
<event>
 5   0  0.1819811E-04  0.1594175E+04  0.7818609E-02  0.8824134E-01
        1   -1    0    0  501    0  0.00000000000E+00  0.00000000000E+00  0.12152290558E+04  0.12152290558E+04  0.50400001928E-02 0.  1.
       -1   -1    0    0    0  501  0.00000000000E+00  0.00000000000E+00 -0.52282220005E+03  0.52282220007E+03  0.50400001928E-02 0. -1.
    10030    2    1    2    0    0  0.00000000000E+00  0.00000000000E+00  0.69240685578E+03  0.17380512559E+04  0.15941753085E+04 0.  0.
        1    1    3    3  502    0  0.27000063147E+03 -0.21090620928E+03  0.11308562298E+04  0.11816165125E+04  0.50400001928E-02 0.  1.
       -1    1    3    3    0  502 -0.27000063147E+03  0.21090620928E+03 -0.43844937400E+03  0.55643474343E+03  0.50400001928E-02 0. -1.
</event>
<event>
 5   0  0.3380454E-04  0.1453558E+04  0.7818609E-02  0.8915938E-01
       -2   -1    0    0    0  501  0.00000000000E+00  0.00000000000E+00  0.69501704092E+03  0.69501704093E+03  0.25500000920E-02 0.  1.
        2   -1    0    0  501    0  0.00000000000E+00  0.00000000000E+00 -0.75999244884E+03  0.75999244885E+03  0.25500000920E-02 0. -1.
    10030    2    1    2    0    0  0.00000000000E+00  0.00000000000E+00 -0.64975407920E+02  0.14550094898E+04  0.14535579836E+04 0.  0.
        5    1    3    3  502    0  0.72278403875E+03  0.73922900397E+02 -0.15027492072E+02  0.72672503562E+03  0.46999998093E+01 0.  1.
       -5    1    3    3    0  502 -0.72278403875E+03 -0.73922900397E+02 -0.49947915847E+02  0.72828445416E+03  0.46999998093E+01 0. -1.
</event>
<event>
 5   0  0.1787688E-04  0.1600788E+04  0.7818609E-02  0.8820064E-01
        1   -1    0    0  501    0  0.00000000000E+00  0.00000000000E+00  0.92598171480E+03  0.92598171481E+03  0.50400001928E-02 0. -1.
       -1   -1    0    0    0  501  0.00000000000E+00  0.00000000000E+00 -0.69183949939E+03  0.69183949941E+03  0.50400001928E-02 0.  1.
    10030    2    1    2    0    0  0.00000000000E+00  0.00000000000E+00  0.23414221541E+03  0.16178212142E+04  0.16007882134E+04 0.  0.
        4    1    3    3  502    0 -0.52788605293E+03 -0.49362778354E+03 -0.23053194851E+03  0.75860310159E+03  0.12699999809E+01 0.  1.
       -4    1    3    3    0  502  0.52788605293E+03  0.49362778354E+03  0.46467416392E+03  0.85921811263E+03  0.12699999809E+01 0. -1.
</event>
<event>
 5   0  0.1819811E-04  0.1557288E+04  0.7818609E-02  0.8847226E-01
       -1   -1    0    0    0  501  0.00000000000E+00  0.00000000000E+00  0.71956349295E+03  0.71956349297E+03  0.50400001928E-02 0.  1.
        1   -1    0    0  501    0  0.00000000000E+00  0.00000000000E+00 -0.84257584919E+03  0.84257584921E+03  0.50400001928E-02 0. -1.
    10030    2    1    2    0    0  0.00000000000E+00  0.00000000000E+00 -0.12301235624E+03  0.15621393422E+04  0.15572884398E+04 0.  0.
        1    1    3    3  502    0  0.11019878887E+03  0.36582767925E+03 -0.74208339222E+03  0.83466246173E+03  0.50400001928E-02 0. -1.
       -1    1    3    3    0  502 -0.11019878887E+03 -0.36582767925E+03  0.61907103598E+03  0.72747688045E+03  0.50400001928E-02 0.  1.
</event>
<event>
 5   0  0.3263294E-04  0.1597839E+04  0.7818609E-02  0.8821877E-01
        2   -1    0    0  501    0  0.00000000000E+00  0.00000000000E+00  0.57470789395E+03  0.57470789395E+03  0.25500000920E-02 0. -1.
       -2   -1    0    0    0  501  0.00000000000E+00  0.00000000000E+00 -0.11106030127E+04  0.11106030127E+04  0.25500000920E-02 0.  1.
    10030    2    1    2    0    0  0.00000000000E+00  0.00000000000E+00 -0.53589511870E+03  0.16853109066E+04  0.15978389386E+04 0.  0.
        4    1    3    3  502    0  0.36969016585E+03  0.20865865680E+03 -0.98180074745E+03  0.10696464717E+04  0.12699999809E+01 0.  1.
       -4    1    3    3    0  502 -0.36969016585E+03 -0.20865865680E+03  0.44590562875E+03  0.61566443493E+03  0.12699999809E+01 0. -1.
</event>
<event>
 5   0  0.1736537E-04  0.1590824E+04  0.7818609E-02  0.8826205E-01
        1   -1    0    0  501    0  0.00000000000E+00  0.00000000000E+00  0.17757991122E+04  0.17757991122E+04  0.50400001928E-02 0.  1.
       -1   -1    0    0    0  501  0.00000000000E+00  0.00000000000E+00 -0.35627905878E+03  0.35627905881E+03  0.50400001928E-02 0. -1.
    10030    2    1    2    0    0  0.00000000000E+00  0.00000000000E+00  0.14195200534E+04  0.21320781710E+04  0.15908237317E+04 0.  0.
        3    1    3    3  502    0 -0.36590297598E+03 -0.52808752115E+03  0.81250229469E+02  0.64758244866E+03  0.10100000352E+00 0. -1.
       -3    1    3    3    0  502  0.36590297598E+03  0.52808752115E+03  0.13382698240E+04  0.14844957224E+04  0.10100000352E+00 0.  1.
</event>
<event>
 5   0  0.1819811E-04  0.1615106E+04  0.7818609E-02  0.8811321E-01
       -1   -1    0    0    0  501  0.00000000000E+00  0.00000000000E+00  0.67672179566E+03  0.67672179568E+03  0.50400001928E-02 0. -1.
        1   -1    0    0  501    0  0.00000000000E+00  0.00000000000E+00 -0.96367844568E+03  0.96367844570E+03  0.50400001928E-02 0.  1.
    10030    2    1    2    0    0  0.00000000000E+00  0.00000000000E+00 -0.28695665002E+03  0.16404002414E+04  0.16151064463E+04 0.  0.
        1    1    3    3  502    0  0.27055360074E+03 -0.59359442580E+03  0.33998965530E+03  0.73562664372E+03  0.50400001928E-02 0. -1.
       -1    1    3    3    0  502 -0.27055360074E+03  0.59359442580E+03 -0.62694630532E+03  0.90477359765E+03  0.50400001928E-02 0.  1.
</event>
<event>
 5   0  0.1819811E-04  0.1592601E+04  0.7818609E-02  0.8825107E-01
        1   -1    0    0  501    0  0.00000000000E+00  0.00000000000E+00  0.11289995634E+04  0.11289995634E+04  0.50400001928E-02 0. -1.
       -1   -1    0    0    0  501  0.00000000000E+00  0.00000000000E+00 -0.56164262266E+03  0.56164262269E+03  0.50400001928E-02 0.  1.
    10030    2    1    2    0    0  0.00000000000E+00  0.00000000000E+00  0.56735694069E+03  0.16906421861E+04  0.15926007356E+04 0.  0.
        1    1    3    3  502    0  0.66629634887E+03  0.21323414198E+03 -0.12009800501E+03  0.70981909996E+03  0.50400001928E-02 0.  1.
       -1    1    3    3    0  502 -0.66629634887E+03 -0.21323414198E+03  0.68745494571E+03  0.98082308610E+03  0.50400001928E-02 0. -1.
</event>
<event>
 5   0  0.1764099E-04  0.1617986E+04  0.7818609E-02  0.8809574E-01
       -1   -1    0    0    0  501  0.00000000000E+00  0.00000000000E+00  0.91191484040E+03  0.91191484041E+03  0.50400001928E-02 0. -1.
        1   -1    0    0  501    0  0.00000000000E+00  0.00000000000E+00 -0.71768743044E+03  0.71768743045E+03  0.50400001928E-02 0.  1.
    10030    2    1    2    0    0  0.00000000000E+00  0.00000000000E+00  0.19422740996E+03  0.16296022709E+04  0.16179861787E+04 0.  0.
        5    1    3    3  502    0  0.74877867193E+03  0.76751073489E+02  0.39570034631E+03  0.85038878220E+03  0.46999998093E+01 0. -1.
       -5    1    3    3    0  502 -0.74877867193E+03 -0.76751073489E+02 -0.20147293635E+03  0.77921348866E+03  0.46999998093E+01 0.  1.
</event>
<event>
 5   0  0.1764099E-04  0.1597581E+04  0.7818609E-02  0.8822036E-01
        1   -1    0    0  501    0  0.00000000000E+00  0.00000000000E+00  0.15263955622E+04  0.15263955622E+04  0.50400001928E-02 0.  1.
       -1   -1    0    0    0  501  0.00000000000E+00  0.00000000000E+00 -0.41802132550E+03  0.41802132553E+03  0.50400001928E-02 0. -1.
    10030    2    1    2    0    0  0.00000000000E+00  0.00000000000E+00  0.11083742367E+04  0.19444168878E+04  0.15975805409E+04 0.  0.
        5    1    3    3  502    0 -0.32765981308E+02  0.36193257410E+03 -0.31156020100E+03  0.47870726606E+03  0.46999998093E+01 0. -1.
       -5    1    3    3    0  502  0.32765981308E+02 -0.36193257410E+03  0.14199344377E+04  0.14657096217E+04  0.46999998093E+01 0.  1.
</event>
<event>
 5   0  0.1761255E-04  0.1598160E+04  0.7818609E-02  0.8821679E-01
       -1   -1    0    0    0  501  0.00000000000E+00  0.00000000000E+00  0.40304638960E+03  0.40304638964E+03  0.50400001928E-02 0. -1.
        1   -1    0    0  501    0  0.00000000000E+00  0.00000000000E+00 -0.15842568137E+04  0.15842568138E+04  0.50400001928E-02 0.  1.
    10030    2    1    2    0    0  0.00000000000E+00  0.00000000000E+00 -0.11812104241E+04  0.19873032034E+04  0.15981601785E+04 0.  0.
        2    1    3    3  502    0 -0.69431712915E+03  0.16930395762E+03 -0.14608617522E+03  0.72943901492E+03  0.25500000920E-02 0. -1.
       -2    1    3    3    0  502  0.69431712915E+03 -0.16930395762E+03 -0.10351242489E+04  0.12578641885E+04  0.25500000920E-02 0.  1.
</event>
<event>
 5   0  0.1761255E-04  0.1604562E+04  0.7818609E-02  0.8817750E-01
       -1   -1    0    0    0  501  0.00000000000E+00  0.00000000000E+00  0.71426005700E+03  0.71426005702E+03  0.50400001928E-02 0. -1.
        1   -1    0    0  501    0  0.00000000000E+00  0.00000000000E+00 -0.90114907629E+03  0.90114907630E+03  0.50400001928E-02 0.  1.
    10030    2    1    2    0    0  0.00000000000E+00  0.00000000000E+00 -0.18688901928E+03  0.16154091333E+04  0.16045619846E+04 0.  0.
        2    1    3    3  502    0 -0.69915476334E+02 -0.20990877847E+03 -0.86982891169E+03  0.89752560116E+03  0.25500000920E-02 0.  1.
       -2    1    3    3    0  502  0.69915476334E+02  0.20990877847E+03  0.68293989241E+03  0.71788353217E+03  0.25500000920E-02 0. -1.
</event>
<event>
 5   0  0.1761255E-04  0.1599260E+04  0.7818609E-02  0.8821003E-01
        1   -1    0    0  501    0  0.00000000000E+00  0.00000000000E+00  0.86144109896E+03  0.86144109898E+03  0.50400001928E-02 0.  1.
       -1   -1    0    0    0  501  0.00000000000E+00  0.00000000000E+00 -0.74225392445E+03  0.74225392447E+03  0.50400001928E-02 0. -1.
    10030    2    1    2    0    0  0.00000000000E+00  0.00000000000E+00  0.11918717451E+03  0.16036950235E+04  0.15992598743E+04 0.  0.
        2    1    3    3  502    0 -0.77142797298E+02 -0.37849028676E+03 -0.64249245113E+03  0.74966823203E+03  0.25500000920E-02 0. -1.
       -2    1    3    3    0  502  0.77142797298E+02  0.37849028676E+03  0.76167962564E+03  0.85402679142E+03  0.25500000920E-02 0.  1.
</event>
<event>
 5   0  0.3380454E-04  0.1607804E+04  0.7818609E-02  0.8815768E-01
       -2   -1    0    0    0  501  0.00000000000E+00  0.00000000000E+00  0.35036659340E+03  0.35036659341E+03  0.25500000920E-02 0.  1.
        2   -1    0    0  501    0  0.00000000000E+00  0.00000000000E+00 -0.18445202456E+04  0.18445202456E+04  0.25500000920E-02 0. -1.
    10030    2    1    2    0    0  0.00000000000E+00  0.00000000000E+00 -0.14941536522E+04  0.21948868390E+04  0.16078038126E+04 0.  0.
        5    1    3    3  502    0 -0.54084227317E+03 -0.55729581290E+03 -0.46351003018E+03  0.90440733389E+03  0.46999998093E+01 0. -1.
       -5    1    3    3    0  502  0.54084227317E+03  0.55729581290E+03 -0.10306436220E+04  0.12904795051E+04  0.46999998093E+01 0.  1.
</event>
<event>
 5   0  0.1819811E-04  0.1603170E+04  0.7818609E-02  0.8818603E-01
       -1   -1    0    0    0  501  0.00000000000E+00  0.00000000000E+00  0.70361795663E+03  0.70361795665E+03  0.50400001928E-02 0. -1.
        1   -1    0    0  501    0  0.00000000000E+00  0.00000000000E+00 -0.91319251386E+03  0.91319251387E+03  0.50400001928E-02 0.  1.
    10030    2    1    2    0    0  0.00000000000E+00  0.00000000000E+00 -0.20957455723E+03  0.16168104705E+04  0.16031701727E+04 0.  0.
        1    1    3    3  502    0 -0.10281402649E+03 -0.43647633593E+03 -0.77486220217E+03  0.89526183223E+03  0.50400001928E-02 0.  1.
       -1    1    3    3    0  502  0.10281402649E+03  0.43647633593E+03  0.56528764494E+03  0.72154863829E+03  0.50400001928E-02 0. -1.
</event>
<event>
 5   0  0.1219463E-04  0.1548360E+04  0.7818609E-02  0.8852916E-01
        3   -1    0    0  501    0  0.00000000000E+00  0.00000000000E+00  0.10393280457E+04  0.10393280506E+04  0.10100000352E+00 0. -1.
       -3   -1    0    0    0  501  0.00000000000E+00  0.00000000000E+00 -0.57667513983E+03  0.57667514867E+03  0.10100000352E+00 0.  1.
    10030    2    1    2    0    0  0.00000000000E+00  0.00000000000E+00  0.46265290585E+03  0.16160031993E+04  0.15483599803E+04 0.  0.
        1    1    3    3  502    0 -0.37571592412E+03 -0.58304732603E+03 -0.12756838504E+03  0.70525196414E+03  0.50400001928E-02 0.  1.
       -1    1    3    3    0  502  0.37571592412E+03  0.58304732603E+03  0.59022129090E+03  0.91075123513E+03  0.50400001928E-02 0. -1.
</event>
<event>
 5   0  0.3274900E-04  0.1595067E+04  0.7818609E-02  0.8823584E-01
        2   -1    0    0  501    0  0.00000000000E+00  0.00000000000E+00  0.10605637710E+04  0.10605637710E+04  0.25500000920E-02 0. -1.
       -2   -1    0    0    0  501  0.00000000000E+00  0.00000000000E+00 -0.59973711863E+03  0.59973711864E+03  0.25500000920E-02 0.  1.
    10030    2    1    2    0    0  0.00000000000E+00  0.00000000000E+00  0.46082665232E+03  0.16603008896E+04  0.15950667198E+04 0.  0.
        3    1    3    3  502    0  0.11562310912E+03 -0.22542938971E+03 -0.55673665839E+03  0.61167215901E+03  0.10100000352E+00 0.  1.
       -3    1    3    3    0  502 -0.11562310912E+03  0.22542938971E+03  0.10175633107E+04  0.10486287306E+04  0.10100000352E+00 0. -1.
</event>
<event>
 5   0  0.1787688E-04  0.1574697E+04  0.7818609E-02  0.8836245E-01
        1   -1    0    0  501    0  0.00000000000E+00  0.00000000000E+00  0.47033625164E+03  0.47033625166E+03  0.50400001928E-02 0. -1.
       -1   -1    0    0    0  501  0.00000000000E+00  0.00000000000E+00 -0.13180302582E+04  0.13180302582E+04  0.50400001928E-02 0.  1.
    10030    2    1    2    0    0  0.00000000000E+00  0.00000000000E+00 -0.84769400655E+03  0.17883665099E+04  0.15746966834E+04 0.  0.
        4    1    3    3  502    0  0.40836755303E+03  0.52907766966E+03  0.48835321101E+02  0.67012964446E+03  0.12699999809E+01 0. -1.
       -4    1    3    3    0  502 -0.40836755303E+03 -0.52907766966E+03 -0.89652932765E+03  0.11182368654E+04  0.12699999809E+01 0.  1.
</event>
<event>
 5   0  0.3263294E-04  0.1591127E+04  0.7818609E-02  0.8826018E-01
       -2   -1    0    0    0  501  0.00000000000E+00  0.00000000000E+00  0.31779759314E+03  0.31779759315E+03  0.25500000920E-02 0. -1.
        2   -1    0    0  501    0  0.00000000000E+00  0.00000000000E+00 -0.19915862995E+04  0.19915862995E+04  0.25500000920E-02 0.  1.
    10030    2    1    2    0    0  0.00000000000E+00  0.00000000000E+00 -0.16737887064E+04  0.23093838927E+04  0.15911270629E+04 0.  0.
        4    1    3    3  502    0  0.45211361556E+03  0.65276283060E+03 -0.90820125854E+03  0.12063735629E+04  0.12699999809E+01 0. -1.
       -4    1    3    3    0  502 -0.45211361556E+03 -0.65276283060E+03 -0.76558744785E+03  0.11030103298E+04  0.12699999809E+01 0.  1.
</event>
<event>
 5   0  0.3228393E-04  0.1602028E+04  0.7818609E-02  0.8819303E-01
       -2   -1    0    0    0  501  0.00000000000E+00  0.00000000000E+00  0.15291340899E+04  0.15291340899E+04  0.25500000920E-02 0. -1.
        2   -1    0    0  501    0  0.00000000000E+00  0.00000000000E+00 -0.41959940341E+03  0.41959940342E+03  0.25500000920E-02 0.  1.
    10030    2    1    2    0    0  0.00000000000E+00  0.00000000000E+00  0.11095346865E+04  0.19487334933E+04  0.16020284041E+04 0.  0.
        1    1    3    3  502    0 -0.31956489233E+03 -0.40544669595E+01  0.14482212726E+04  0.14830654111E+04  0.50400001928E-02 0. -1.
       -1    1    3    3    0  502  0.31956489233E+03  0.40544669595E+01 -0.33868658615E+03  0.46566808220E+03  0.50400001928E-02 0.  1.
</event>
<event>
 5   0  0.1736537E-04  0.1644919E+04  0.7818609E-02  0.8793418E-01
        1   -1    0    0  501    0  0.00000000000E+00  0.00000000000E+00  0.80613614914E+03  0.80613614916E+03  0.50400001928E-02 0. -1.
       -1   -1    0    0    0  501  0.00000000000E+00  0.00000000000E+00 -0.83911314772E+03  0.83911314774E+03  0.50400001928E-02 0.  1.
    10030    2    1    2    0    0  0.00000000000E+00  0.00000000000E+00 -0.32976998576E+02  0.16452492969E+04  0.16449187720E+04 0.  0.
        3    1    3    3  502    0 -0.76006298226E+03 -0.27635468464E+03 -0.16609055219E+03  0.82562323759E+03  0.10100000352E+00 0.  1.
       -3    1    3    3    0  502  0.76006298226E+03  0.27635468464E+03  0.13311355362E+03  0.81962605930E+03  0.10100000352E+00 0. -1.
</event>
<event>
 5   0  0.3274900E-04  0.1599325E+04  0.7818609E-02  0.8820963E-01
       -2   -1    0    0    0  501  0.00000000000E+00  0.00000000000E+00  0.89503962180E+03  0.89503962180E+03  0.25500000920E-02 0.  1.
        2   -1    0    0  501    0  0.00000000000E+00  0.00000000000E+00 -0.71444877300E+03  0.71444877300E+03  0.25500000920E-02 0. -1.
    10030    2    1    2    0    0  0.00000000000E+00  0.00000000000E+00  0.18059084880E+03  0.16094883948E+04  0.15993248070E+04 0.  0.
        3    1    3    3  502    0  0.46958929330E+03 -0.37076981329E+03  0.62420971528E+03  0.86465145445E+03  0.10100000352E+00 0.  1.
       -3    1    3    3    0  502 -0.46958929330E+03  0.37076981329E+03 -0.44361886648E+03  0.74483694036E+03  0.10100000352E+00 0. -1.
</event>
<event>
 5   0  0.1787688E-04  0.1500550E+04  0.7818609E-02  0.8884087E-01
        1   -1    0    0  501    0  0.00000000000E+00  0.00000000000E+00  0.12313093992E+04  0.12313093992E+04  0.50400001928E-02 0.  1.
       -1   -1    0    0    0  501  0.00000000000E+00  0.00000000000E+00 -0.45716571768E+03  0.45716571771E+03  0.50400001928E-02 0. -1.
    10030    2    1    2    0    0  0.00000000000E+00  0.00000000000E+00  0.77414368151E+03  0.16884751169E+04  0.15005498262E+04 0.  0.
        4    1    3    3  502    0  0.97707139016E+02 -0.73556412601E+03  0.26222844414E+03  0.78699849955E+03  0.12699999809E+01 0. -1.
       -4    1    3    3    0  502 -0.97707139016E+02  0.73556412601E+03  0.51191523737E+03  0.90147661735E+03  0.12699999809E+01 0.  1.
</event>
<event>
 5   0  0.3210612E-04  0.1616284E+04  0.7818609E-02  0.8810606E-01
        2   -1    0    0  501    0  0.00000000000E+00  0.00000000000E+00  0.15031693276E+04  0.15031693276E+04  0.25500000920E-02 0.  1.
       -2   -1    0    0    0  501  0.00000000000E+00  0.00000000000E+00 -0.43447782632E+03  0.43447782633E+03  0.25500000920E-02 0. -1.
    10030    2    1    2    0    0  0.00000000000E+00  0.00000000000E+00  0.10686915013E+04  0.19376471539E+04  0.16162843092E+04 0.  0.
        2    1    3    3  502    0 -0.80361651114E+03  0.83000701410E+02  0.51021596789E+03  0.95551501679E+03  0.25500000920E-02 0.  1.
       -2    1    3    3    0  502  0.80361651114E+03 -0.83000701410E+02  0.55847553338E+03  0.98213213714E+03  0.25500000920E-02 0. -1.
</event>
<event>
 5   0  0.1787688E-04  0.1590151E+04  0.7818609E-02  0.8826621E-01
        1   -1    0    0  501    0  0.00000000000E+00  0.00000000000E+00  0.45592828491E+03  0.45592828494E+03  0.50400001928E-02 0.  1.
       -1   -1    0    0    0  501  0.00000000000E+00  0.00000000000E+00 -0.13865018978E+04  0.13865018978E+04  0.50400001928E-02 0. -1.
    10030    2    1    2    0    0  0.00000000000E+00  0.00000000000E+00 -0.93057361287E+03  0.18424301827E+04  0.15901514800E+04 0.  0.
        4    1    3    3  502    0  0.47373881678E+03  0.61200291438E+03 -0.67630056885E+03  0.10277938052E+04  0.12699999809E+01 0. -1.
       -4    1    3    3    0  502 -0.47373881678E+03 -0.61200291438E+03 -0.25427304402E+03  0.81463637750E+03  0.12699999809E+01 0.  1.
</event>
<event>
 5   0  0.1787688E-04  0.1588261E+04  0.7818609E-02  0.8827792E-01
        1   -1    0    0  501    0  0.00000000000E+00  0.00000000000E+00  0.59868581737E+03  0.59868581739E+03  0.50400001928E-02 0. -1.
       -1   -1    0    0    0  501  0.00000000000E+00  0.00000000000E+00 -0.10533792366E+04  0.10533792366E+04  0.50400001928E-02 0.  1.
    10030    2    1    2    0    0  0.00000000000E+00  0.00000000000E+00 -0.45469341921E+03  0.16520650540E+04  0.15882609474E+04 0.  0.
        4    1    3    3  502    0 -0.28584013239E+03  0.71602771363E+03 -0.29327491529E+02  0.77153223046E+03  0.12699999809E+01 0. -1.
       -4    1    3    3    0  502  0.28584013239E+03 -0.71602771363E+03 -0.42536592768E+03  0.88053282353E+03  0.12699999809E+01 0.  1.
</event>
<event>
 5   0  0.1761255E-04  0.1596205E+04  0.7818609E-02  0.8822883E-01
        1   -1    0    0  501    0  0.00000000000E+00  0.00000000000E+00  0.15495934729E+04  0.15495934729E+04  0.50400001928E-02 0. -1.
       -1   -1    0    0    0  501  0.00000000000E+00  0.00000000000E+00 -0.41105468232E+03  0.41105468235E+03  0.50400001928E-02 0.  1.
    10030    2    1    2    0    0  0.00000000000E+00  0.00000000000E+00  0.11385387906E+04  0.19606481552E+04  0.15962050655E+04 0.  0.
        2    1    3    3  502    0 -0.38551669269E+03 -0.33988300237E+03  0.13192723186E+04  0.14158471055E+04  0.25500000920E-02 0. -1.
       -2    1    3    3    0  502  0.38551669269E+03  0.33988300237E+03 -0.18073352800E+03  0.54480104973E+03  0.25500000920E-02 0.  1.
</event>
<event>
 5   0  0.3210612E-04  0.1622143E+04  0.7818609E-02  0.8807059E-01
       -2   -1    0    0    0  501  0.00000000000E+00  0.00000000000E+00  0.53839160902E+03  0.53839160902E+03  0.25500000920E-02 0. -1.
        2   -1    0    0  501    0  0.00000000000E+00  0.00000000000E+00 -0.12218561289E+04  0.12218561289E+04  0.25500000920E-02 0.  1.
    10030    2    1    2    0    0  0.00000000000E+00  0.00000000000E+00 -0.68346451990E+03  0.17602477379E+04  0.16221431346E+04 0.  0.
        2    1    3    3  502    0 -0.72472569323E+03  0.24908715250E+03 -0.53474927293E+02  0.76820004415E+03  0.25500000920E-02 0. -1.
       -2    1    3    3    0  502  0.72472569323E+03 -0.24908715250E+03 -0.62998959260E+03  0.99204769380E+03  0.25500000920E-02 0.  1.
</event>
<event>
 5   0  0.3228393E-04  0.1598636E+04  0.7818609E-02  0.8821386E-01
        2   -1    0    0  501    0  0.00000000000E+00  0.00000000000E+00  0.31855755802E+03  0.31855755803E+03  0.25500000920E-02 0. -1.
       -2   -1    0    0    0  501  0.00000000000E+00  0.00000000000E+00 -0.20056323439E+04  0.20056323439E+04  0.25500000920E-02 0.  1.
    10030    2    1    2    0    0  0.00000000000E+00  0.00000000000E+00 -0.16870747859E+04  0.23241899019E+04  0.15986360959E+04 0.  0.
        1    1    3    3  502    0 -0.79428790023E+03  0.88586201465E+02 -0.86241282698E+03  0.11757961846E+04  0.50400001928E-02 0.  1.
       -1    1    3    3    0  502  0.79428790023E+03 -0.88586201465E+02 -0.82466195889E+03  0.11483937173E+04  0.50400001928E-02 0. -1.
</event>
<event>
 5   0  0.3380454E-04  0.1598741E+04  0.7818609E-02  0.8821322E-01
       -2   -1    0    0    0  501  0.00000000000E+00  0.00000000000E+00  0.87477434440E+03  0.87477434440E+03  0.25500000920E-02 0. -1.
        2   -1    0    0  501    0  0.00000000000E+00  0.00000000000E+00 -0.73046606705E+03  0.73046606705E+03  0.25500000920E-02 0.  1.
    10030    2    1    2    0    0  0.00000000000E+00  0.00000000000E+00  0.14430827735E+03  0.16052404115E+04  0.15987407231E+04 0.  0.
        5    1    3    3  502    0  0.28309209511E+02  0.25256658829E+03 -0.68880536864E+03  0.73421129025E+03  0.46999998093E+01 0.  1.
       -5    1    3    3    0  502 -0.28309209511E+02 -0.25256658829E+03  0.83311364599E+03  0.87102912121E+03  0.46999998093E+01 0. -1.
</event>
<event>
 5   0  0.3228393E-04  0.1606152E+04  0.7818609E-02  0.8816777E-01
       -2   -1    0    0    0  501  0.00000000000E+00  0.00000000000E+00  0.57568544195E+03  0.57568544195E+03  0.25500000920E-02 0.  1.
        2   -1    0    0  501    0  0.00000000000E+00  0.00000000000E+00 -0.11202842577E+04  0.11202842577E+04  0.25500000920E-02 0. -1.
    10030    2    1    2    0    0  0.00000000000E+00  0.00000000000E+00 -0.54459881578E+03  0.16959696997E+04  0.16061523440E+04 0.  0.
        1    1    3    3  502    0  0.72678953094E+03 -0.15247228915E+03 -0.59510826481E+03  0.95164314116E+03  0.50400001928E-02 0. -1.
       -1    1    3    3    0  502 -0.72678953094E+03  0.15247228915E+03  0.50509449035E+02  0.74432655852E+03  0.50400001928E-02 0.  1.
</event>
<event>
 5   0  0.1819811E-04  0.1598201E+04  0.7818609E-02  0.8821654E-01
       -1   -1    0    0    0  501  0.00000000000E+00  0.00000000000E+00  0.89993610170E+03  0.89993610172E+03  0.50400001928E-02 0.  1.
        1   -1    0    0  501    0  0.00000000000E+00  0.00000000000E+00 -0.70956347277E+03  0.70956347279E+03  0.50400001928E-02 0. -1.
    10030    2    1    2    0    0  0.00000000000E+00  0.00000000000E+00  0.19037262893E+03  0.16094995745E+04  0.15982012209E+04 0.  0.
        1    1    3    3  502    0 -0.78965379068E+03 -0.10782518601E+03  0.36616714448E+02  0.79782213787E+03  0.50400001928E-02 0.  1.
       -1    1    3    3    0  502  0.78965379068E+03  0.10782518601E+03  0.15375591448E+03  0.81167743663E+03  0.50400001928E-02 0. -1.
</event>
<event>
 5   0  0.3380454E-04  0.1604016E+04  0.7818609E-02  0.8818085E-01
        2   -1    0    0  501    0  0.00000000000E+00  0.00000000000E+00  0.10184071198E+04  0.10184071198E+04  0.25500000920E-02 0.  1.
       -2   -1    0    0    0  501  0.00000000000E+00  0.00000000000E+00 -0.63159112639E+03  0.63159112640E+03  0.25500000920E-02 0. -1.
    10030    2    1    2    0    0  0.00000000000E+00  0.00000000000E+00  0.38681599344E+03  0.16499982462E+04  0.16040160846E+04 0.  0.
        5    1    3    3  502    0  0.21439394344E+03  0.60995021922E+03 -0.29473837246E+03  0.71056092709E+03  0.46999998093E+01 0. -1.
       -5    1    3    3    0  502 -0.21439394344E+03 -0.60995021922E+03  0.68155436589E+03  0.93943731913E+03  0.46999998093E+01 0.  1.
</event>
<event>
 5   0  0.1219463E-04  0.1596481E+04  0.7818609E-02  0.8822713E-01
        3   -1    0    0  501    0  0.00000000000E+00  0.00000000000E+00  0.77786836957E+03  0.77786837613E+03  0.10100000352E+00 0.  1.
       -3   -1    0    0    0  501  0.00000000000E+00  0.00000000000E+00 -0.81914594350E+03  0.81914594973E+03  0.10100000352E+00 0. -1.
    10030    2    1    2    0    0  0.00000000000E+00  0.00000000000E+00 -0.41277573935E+02  0.15970143259E+04  0.15964807919E+04 0.  0.
        5    1    3    3  502    0 -0.37473875654E+03  0.59749098316E+03 -0.39458322921E+03  0.80817239831E+03  0.46999998093E+01 0. -1.
       -5    1    3    3    0  502  0.37473875654E+03 -0.59749098316E+03  0.35330565527E+03  0.78884192755E+03  0.46999998093E+01 0.  1.
</event>
<event>
 5   0  0.3263294E-04  0.1593794E+04  0.7818609E-02  0.8824370E-01
       -2   -1    0    0    0  501  0.00000000000E+00  0.00000000000E+00  0.31449629512E+03  0.31449629513E+03  0.25500000920E-02 0.  1.
        2   -1    0    0  501    0  0.00000000000E+00  0.00000000000E+00 -0.20192433152E+04  0.20192433152E+04  0.25500000920E-02 0. -1.
    10030    2    1    2    0    0  0.00000000000E+00  0.00000000000E+00 -0.17047470201E+04  0.23337396104E+04  0.15937936398E+04 0.  0.
        4    1    3    3  502    0 -0.74173268075E+03  0.24120790559E+03 -0.61313580951E+03  0.99211176649E+03  0.12699999809E+01 0.  1.
       -4    1    3    3    0  502  0.74173268075E+03 -0.24120790559E+03 -0.10916112106E+04  0.13416278439E+04  0.12699999809E+01 0. -1.
</event>
<event>
 5   0  0.3263294E-04  0.1597088E+04  0.7818609E-02  0.8822339E-01
        2   -1    0    0  501    0  0.00000000000E+00  0.00000000000E+00  0.10423436550E+04  0.10423436550E+04  0.25500000920E-02 0. -1.
       -2   -1    0    0    0  501  0.00000000000E+00  0.00000000000E+00 -0.61176775800E+03  0.61176775800E+03  0.25500000920E-02 0.  1.
    10030    2    1    2    0    0  0.00000000000E+00  0.00000000000E+00  0.43057589703E+03  0.16541114130E+04  0.15970876506E+04 0.  0.
        4    1    3    3  502    0  0.63231669095E+03 -0.33071247620E+02  0.71923315033E+03  0.95823590128E+03  0.12699999809E+01 0. -1.
       -4    1    3    3    0  502 -0.63231669095E+03  0.33071247620E+02 -0.28865725331E+03  0.69587551175E+03  0.12699999809E+01 0.  1.
</event>
<event>
 5   0  0.1761255E-04  0.1603723E+04  0.7818609E-02  0.8818264E-01
        1   -1    0    0  501    0  0.00000000000E+00  0.00000000000E+00  0.13733518100E+04  0.13733518100E+04  0.50400001928E-02 0. -1.
       -1   -1    0    0    0  501  0.00000000000E+00  0.00000000000E+00 -0.46818411204E+03  0.46818411206E+03  0.50400001928E-02 0.  1.
    10030    2    1    2    0    0  0.00000000000E+00  0.00000000000E+00  0.90516769795E+03  0.18415359221E+04  0.16037225417E+04 0.  0.
        2    1    3    3  502    0 -0.35765206743E+03  0.62170700575E+03  0.86428469295E+03  0.11231307283E+04  0.25500000920E-02 0.  1.
       -2    1    3    3    0  502  0.35765206743E+03 -0.62170700575E+03  0.40883004995E+02  0.71840519377E+03  0.25500000920E-02 0. -1.
</event>
<event>
 5   0  0.1736537E-04  0.1554233E+04  0.7818609E-02  0.8849168E-01
       -1   -1    0    0    0  501  0.00000000000E+00  0.00000000000E+00  0.27340581776E+03  0.27340581780E+03  0.50400001928E-02 0. -1.
        1   -1    0    0  501    0  0.00000000000E+00  0.00000000000E+00 -0.22088416116E+04  0.22088416116E+04  0.50400001928E-02 0.  1.
    10030    2    1    2    0    0  0.00000000000E+00  0.00000000000E+00 -0.19354357938E+04  0.24822474294E+04  0.15542331192E+04 0.  0.
        3    1    3    3  502    0  0.77027347775E+03 -0.10285275022E+03 -0.97282314408E+03  0.12451043324E+04  0.10100000352E+00 0. -1.
       -3    1    3    3    0  502 -0.77027347775E+03  0.10285275022E+03 -0.96261264976E+03  0.12371430970E+04  0.10100000352E+00 0.  1.
</event>
<event>
 5   0  0.1764099E-04  0.1596696E+04  0.7818609E-02  0.8822580E-01
       -1   -1    0    0    0  501  0.00000000000E+00  0.00000000000E+00  0.36871660162E+03  0.36871660166E+03  0.50400001928E-02 0.  1.
        1   -1    0    0  501    0  0.00000000000E+00  0.00000000000E+00 -0.17285901496E+04  0.17285901496E+04  0.50400001928E-02 0. -1.
    10030    2    1    2    0    0  0.00000000000E+00  0.00000000000E+00 -0.13598735480E+04  0.20973067513E+04  0.15966964466E+04 0.  0.
        5    1    3    3  502    0 -0.52210649339E+03 -0.47743299081E+03 -0.11657655016E+04  0.13636600551E+04  0.46999998093E+01 0. -1.
       -5    1    3    3    0  502  0.52210649339E+03  0.47743299081E+03 -0.19410804641E+03  0.73364669619E+03  0.46999998093E+01 0.  1.
</event>
<event>
 5   0  0.3263294E-04  0.1601652E+04  0.7818609E-02  0.8819534E-01
       -2   -1    0    0    0  501  0.00000000000E+00  0.00000000000E+00  0.58132128289E+03  0.58132128290E+03  0.25500000920E-02 0.  1.
        2   -1    0    0  501    0  0.00000000000E+00  0.00000000000E+00 -0.11032152831E+04  0.11032152831E+04  0.25500000920E-02 0. -1.
    10030    2    1    2    0    0  0.00000000000E+00  0.00000000000E+00 -0.52189400018E+03  0.16845365660E+04  0.16016523014E+04 0.  0.
        4    1    3    3  502    0 -0.11183892855E+03  0.21397092590E+03 -0.10640244494E+04  0.10910733911E+04  0.12699999809E+01 0. -1.
       -4    1    3    3    0  502  0.11183892855E+03 -0.21397092590E+03  0.54213044919E+03  0.59346317485E+03  0.12699999809E+01 0.  1.
</event>
<event>
 5   0  0.3380454E-04  0.1597012E+04  0.7818609E-02  0.8822386E-01
       -2   -1    0    0    0  501  0.00000000000E+00  0.00000000000E+00  0.25741486580E+03  0.25741486581E+03  0.25500000920E-02 0.  1.
        2   -1    0    0  501    0  0.00000000000E+00  0.00000000000E+00 -0.24769809278E+04  0.24769809278E+04  0.25500000920E-02 0. -1.
    10030    2    1    2    0    0  0.00000000000E+00  0.00000000000E+00 -0.22195660620E+04  0.27343957936E+04  0.15970118511E+04 0.  0.
        5    1    3    3  502    0  0.62083988687E+03 -0.70094421318E+02 -0.19611318505E+04  0.20582554793E+04  0.46999998093E+01 0.  1.
       -5    1    3    3    0  502 -0.62083988687E+03  0.70094421318E+02 -0.25843421157E+03  0.67614031439E+03  0.46999998093E+01 0. -1.
</event>
<event>
 5   0  0.3228393E-04  0.1469925E+04  0.7818609E-02  0.8904703E-01
        2   -1    0    0  501    0  0.00000000000E+00  0.00000000000E+00  0.13809747763E+04  0.13809747763E+04  0.25500000920E-02 0.  1.
       -2   -1    0    0    0  501  0.00000000000E+00  0.00000000000E+00 -0.39115100384E+03  0.39115100385E+03  0.25500000920E-02 0. -1.
    10030    2    1    2    0    0  0.00000000000E+00  0.00000000000E+00  0.98982377243E+03  0.17721257801E+04  0.14699247192E+04 0.  0.
        1    1    3    3  502    0  0.49414923460E+03 -0.43852390314E+03  0.10671396330E+03  0.66923430102E+03  0.50400001928E-02 0.  1.
       -1    1    3    3    0  502 -0.49414923460E+03  0.43852390314E+03  0.88310980913E+03  0.11028914791E+04  0.50400001928E-02 0. -1.
</event>
<event>
 5   0  0.3228393E-04  0.1574794E+04  0.7818609E-02  0.8836185E-01
       -2   -1    0    0    0  501  0.00000000000E+00  0.00000000000E+00  0.49695462793E+03  0.49695462794E+03  0.25500000920E-02 0.  1.
        2   -1    0    0  501    0  0.00000000000E+00  0.00000000000E+00 -0.12475864806E+04  0.12475864806E+04  0.25500000920E-02 0. -1.
    10030    2    1    2    0    0  0.00000000000E+00  0.00000000000E+00 -0.75063185263E+03  0.17445411085E+04  0.15747937964E+04 0.  0.
        1    1    3    3  502    0  0.71789019006E+02  0.88396794421E+02 -0.12384161659E+04  0.12436407264E+04  0.50400001928E-02 0. -1.
       -1    1    3    3    0  502 -0.71789019006E+02 -0.88396794421E+02  0.48778431323E+03  0.50090038208E+03  0.50400001928E-02 0.  1.
</event>
<event>
 5   0  0.1219463E-04  0.1598482E+04  0.7818609E-02  0.8821481E-01
       -3   -1    0    0    0  501  0.00000000000E+00  0.00000000000E+00  0.74912769494E+03  0.74912770175E+03  0.10100000352E+00 0. -1.
        3   -1    0    0  501    0  0.00000000000E+00  0.00000000000E+00 -0.85270622763E+03  0.85270623361E+03  0.10100000352E+00 0.  1.
    10030    2    1    2    0    0  0.00000000000E+00  0.00000000000E+00 -0.10357853269E+03  0.16018339354E+04  0.15984816058E+04 0.  0.
        2    1    3    3  502    0  0.34349622260E+02 -0.79848732054E+03 -0.46883757156E+02  0.80059976536E+03  0.25500000920E-02 0.  1.
       -2    1    3    3    0  502 -0.34349622260E+02  0.79848732054E+03 -0.56694775532E+02  0.80123417001E+03  0.25500000920E-02 0. -1.
</event>
<event>
 5   0  0.1219463E-04  0.1605958E+04  0.7818609E-02  0.8816896E-01
       -3   -1    0    0    0  501  0.00000000000E+00  0.00000000000E+00  0.52587583452E+03  0.52587584422E+03  0.10100000352E+00 0.  1.
        3   -1    0    0  501    0  0.00000000000E+00  0.00000000000E+00 -0.12260986427E+04  0.12260986468E+04  0.10100000352E+00 0. -1.
    10030    2    1    2    0    0  0.00000000000E+00  0.00000000000E+00 -0.70022280814E+03  0.17519744910E+04  0.16059584790E+04 0.  0.
        2    1    3    3  502    0 -0.26861047478E+03  0.48833332538E+03  0.28050782708E+03  0.62394363920E+03  0.25500000920E-02 0.  1.
       -2    1    3    3    0  502  0.26861047478E+03 -0.48833332538E+03 -0.98073063522E+03  0.11280308518E+04  0.25500000920E-02 0. -1.
</event>
<event>
 5   0  0.3263294E-04  0.1583636E+04  0.7818609E-02  0.8830665E-01
       -2   -1    0    0    0  501  0.00000000000E+00  0.00000000000E+00  0.67008836204E+03  0.67008836205E+03  0.25500000920E-02 0. -1.
        2   -1    0    0  501    0  0.00000000000E+00  0.00000000000E+00 -0.93566131912E+03  0.93566131912E+03  0.25500000920E-02 0.  1.
    10030    2    1    2    0    0  0.00000000000E+00  0.00000000000E+00 -0.26557295708E+03  0.16057496812E+04  0.15836360197E+04 0.  0.
        4    1    3    3  502    0 -0.19990980760E+03  0.52572670884E+03 -0.69790342435E+03  0.89633883448E+03  0.12699999809E+01 0.  1.
       -4    1    3    3    0  502  0.19990980760E+03 -0.52572670884E+03  0.43233046728E+03  0.70941084669E+03  0.12699999809E+01 0. -1.
</event>
<event>
 5   0  0.1787688E-04  0.1596507E+04  0.7818609E-02  0.8822697E-01
       -1   -1    0    0    0  501  0.00000000000E+00  0.00000000000E+00  0.34646468114E+03  0.34646468118E+03  0.50400001928E-02 0.  1.
        1   -1    0    0  501    0  0.00000000000E+00  0.00000000000E+00 -0.18391725659E+04  0.18391725659E+04  0.50400001928E-02 0. -1.
    10030    2    1    2    0    0  0.00000000000E+00  0.00000000000E+00 -0.14927078848E+04  0.21856372471E+04  0.15965066071E+04 0.  0.
        4    1    3    3  502    0  0.19571956369E+03  0.74886991390E+03 -0.10135549507E+04  0.12753068441E+04  0.12699999809E+01 0. -1.
       -4    1    3    3    0  502 -0.19571956369E+03 -0.74886991390E+03 -0.47915293411E+03  0.91033040305E+03  0.12699999809E+01 0.  1.
</event>
<event>
 5   0  0.3263294E-04  0.1544464E+04  0.7818609E-02  0.8855411E-01
        2   -1    0    0  501    0  0.00000000000E+00  0.00000000000E+00  0.14572936827E+04  0.14572936827E+04  0.25500000920E-02 0.  1.
       -2   -1    0    0    0  501  0.00000000000E+00  0.00000000000E+00 -0.40921229898E+03  0.40921229899E+03  0.25500000920E-02 0. -1.
    10030    2    1    2    0    0  0.00000000000E+00  0.00000000000E+00  0.10480813837E+04  0.18665059817E+04  0.15444643061E+04 0.  0.
        4    1    3    3  502    0  0.24659529202E+03  0.10101368558E+03 -0.35188393409E+03  0.44140335147E+03  0.12699999809E+01 0. -1.
       -4    1    3    3    0  502 -0.24659529202E+03 -0.10101368558E+03  0.13999653178E+04  0.14251026302E+04  0.12699999809E+01 0.  1.
</event>
<event>
 5   0  0.1736537E-04  0.1589476E+04  0.7818609E-02  0.8827039E-01
        1   -1    0    0  501    0  0.00000000000E+00  0.00000000000E+00  0.66183667054E+03  0.66183667055E+03  0.50400001928E-02 0.  1.
       -1   -1    0    0    0  501  0.00000000000E+00  0.00000000000E+00 -0.95432721505E+03  0.95432721507E+03  0.50400001928E-02 0. -1.
    10030    2    1    2    0    0  0.00000000000E+00  0.00000000000E+00 -0.29249054452E+03  0.16161638856E+04  0.15894763246E+04 0.  0.
        3    1    3    3  502    0  0.50195067805E+03  0.54935578337E+03 -0.42996885867E+03  0.85942974672E+03  0.10100000352E+00 0. -1.
       -3    1    3    3    0  502 -0.50195067805E+03 -0.54935578337E+03  0.13747831415E+03  0.75673413890E+03  0.10100000352E+00 0.  1.
</event>
<event>
 5   0  0.1787688E-04  0.1595177E+04  0.7818609E-02  0.8823517E-01
        1   -1    0    0  501    0  0.00000000000E+00  0.00000000000E+00  0.64830258003E+03  0.64830258005E+03  0.50400001928E-02 0. -1.
       -1   -1    0    0    0  501  0.00000000000E+00  0.00000000000E+00 -0.98125041491E+03  0.98125041493E+03  0.50400001928E-02 0.  1.
    10030    2    1    2    0    0  0.00000000000E+00  0.00000000000E+00 -0.33294783488E+03  0.16295529950E+04  0.15951766995E+04 0.  0.
        4    1    3    3  502    0 -0.55726173976E+02 -0.57286234874E+03  0.39757431571E+03  0.69953100466E+03  0.12699999809E+01 0. -1.
       -4    1    3    3    0  502  0.55726173976E+02  0.57286234874E+03 -0.73052215059E+03  0.93002199032E+03  0.12699999809E+01 0.  1.
</event>
<event>
 5   0  0.1761255E-04  0.1615772E+04  0.7818609E-02  0.8810917E-01
        1   -1    0    0  501    0  0.00000000000E+00  0.00000000000E+00  0.12394584879E+04  0.12394584879E+04  0.50400001928E-02 0.  1.
       -1   -1    0    0    0  501  0.00000000000E+00  0.00000000000E+00 -0.52658460808E+03  0.52658460810E+03  0.50400001928E-02 0. -1.
    10030    2    1    2    0    0  0.00000000000E+00  0.00000000000E+00  0.71287387978E+03  0.17660430960E+04  0.16157719667E+04 0.  0.
        2    1    3    3  502    0 -0.47244689047E+03  0.64526763170E+03  0.23132092102E+03  0.83251771713E+03  0.25500000920E-02 0. -1.
       -2    1    3    3    0  502  0.47244689047E+03 -0.64526763170E+03  0.48155295876E+03  0.93352537884E+03  0.25500000920E-02 0.  1.
</event>
<event>
 5   0  0.3228393E-04  0.1551028E+04  0.7818609E-02  0.8851212E-01
        2   -1    0    0  501    0  0.00000000000E+00  0.00000000000E+00  0.25124287119E+04  0.25124287119E+04  0.25500000920E-02 0. -1.
       -2   -1    0    0    0  501  0.00000000000E+00  0.00000000000E+00 -0.23937863929E+03  0.23937863930E+03  0.25500000920E-02 0.  1.
    10030    2    1    2    0    0  0.00000000000E+00  0.00000000000E+00  0.22730500726E+04  0.27518073512E+04  0.15510277449E+04 0.  0.
        1    1    3    3  502    0 -0.57034431768E+03  0.42431895756E+03  0.58657819056E+03  0.92163614953E+03  0.50400001928E-02 0.  1.
       -1    1    3    3    0  502  0.57034431768E+03 -0.42431895756E+03  0.16864718821E+04  0.18301712017E+04  0.50400001928E-02 0. -1.
</event>
<event>
 5   0  0.1819811E-04  0.1620277E+04  0.7818609E-02  0.8808187E-01
        1   -1    0    0  501    0  0.00000000000E+00  0.00000000000E+00  0.59528562960E+03  0.59528562962E+03  0.50400001928E-02 0. -1.
       -1   -1    0    0    0  501  0.00000000000E+00  0.00000000000E+00 -0.11025369515E+04  0.11025369515E+04  0.50400001928E-02 0.  1.
    10030    2    1    2    0    0  0.00000000000E+00  0.00000000000E+00 -0.50725132185E+03  0.16978225811E+04  0.16202770175E+04 0.  0.
        1    1    3    3  502    0  0.74632215966E+03  0.30467672221E+03 -0.33810505048E+03  0.87415084295E+03  0.50400001928E-02 0. -1.
       -1    1    3    3    0  502 -0.74632215966E+03 -0.30467672221E+03 -0.16914627137E+03  0.82367173813E+03  0.50400001928E-02 0.  1.
</event>
<event>
 5   0  0.3228393E-04  0.1617267E+04  0.7818609E-02  0.8810010E-01
       -2   -1    0    0    0  501  0.00000000000E+00  0.00000000000E+00  0.49151307047E+03  0.49151307047E+03  0.25500000920E-02 0. -1.
        2   -1    0    0  501    0  0.00000000000E+00  0.00000000000E+00 -0.13303567907E+04  0.13303567907E+04  0.25500000920E-02 0.  1.
    10030    2    1    2    0    0  0.00000000000E+00  0.00000000000E+00 -0.83884372022E+03  0.18218698612E+04  0.16172665223E+04 0.  0.
        1    1    3    3  502    0  0.80614920848E+03  0.32437407231E+02 -0.48070057539E+03  0.93914949551E+03  0.50400001928E-02 0. -1.
       -1    1    3    3    0  502 -0.80614920848E+03 -0.32437407231E+02 -0.35814314483E+03  0.88272036565E+03  0.50400001928E-02 0.  1.
</event>
<event>
 5   0  0.3210612E-04  0.1594338E+04  0.7818609E-02  0.8824034E-01
        2   -1    0    0  501    0  0.00000000000E+00  0.00000000000E+00  0.78956297470E+03  0.78956297471E+03  0.25500000920E-02 0. -1.
       -2   -1    0    0    0  501  0.00000000000E+00  0.00000000000E+00 -0.80484858529E+03  0.80484858529E+03  0.25500000920E-02 0.  1.
    10030    2    1    2    0    0  0.00000000000E+00  0.00000000000E+00 -0.15285610588E+02  0.15944115600E+04  0.15943382868E+04 0.  0.
        2    1    3    3  502    0  0.17316688569E+03 -0.30676156046E+03 -0.72279049929E+03  0.80406189509E+03  0.25500000920E-02 0.  1.
       -2    1    3    3    0  502 -0.17316688569E+03  0.30676156046E+03  0.70750488870E+03  0.79034966491E+03  0.25500000920E-02 0. -1.
</event>
<event>
 5   0  0.3263294E-04  0.1586974E+04  0.7818609E-02  0.8828591E-01
        2   -1    0    0  501    0  0.00000000000E+00  0.00000000000E+00  0.14148975303E+04  0.14148975303E+04  0.25500000920E-02 0.  1.
       -2   -1    0    0    0  501  0.00000000000E+00  0.00000000000E+00 -0.44499435612E+03  0.44499435613E+03  0.25500000920E-02 0. -1.
    10030    2    1    2    0    0  0.00000000000E+00  0.00000000000E+00  0.96990317422E+03  0.18598918865E+04  0.15869737433E+04 0.  0.
        4    1    3    3  502    0  0.25392736145E+03 -0.50527721926E+03 -0.16740287516E+03  0.58975376956E+03  0.12699999809E+01 0. -1.
       -4    1    3    3    0  502 -0.25392736145E+03  0.50527721926E+03  0.11373060494E+04  0.12701381169E+04  0.12699999809E+01 0.  1.
</event>
<event>
 5   0  0.1761255E-04  0.1602969E+04  0.7818609E-02  0.8818726E-01
        1   -1    0    0  501    0  0.00000000000E+00  0.00000000000E+00  0.64267290393E+03  0.64267290395E+03  0.50400001928E-02 0. -1.
       -1   -1    0    0    0  501  0.00000000000E+00  0.00000000000E+00 -0.99954003239E+03  0.99954003240E+03  0.50400001928E-02 0.  1.
    10030    2    1    2    0    0  0.00000000000E+00  0.00000000000E+00 -0.35686712847E+03  0.16422129363E+04  0.16029688646E+04 0.  0.
        2    1    3    3  502    0  0.93154859074E+02  0.45685952941E+02  0.63576373622E+03  0.64417432607E+03  0.25500000920E-02 0. -1.
       -2    1    3    3    0  502 -0.93154859074E+02 -0.45685952941E+02 -0.99263086469E+03  0.99803861028E+03  0.25500000920E-02 0.  1.
</event>
<event>
 5   0  0.1819811E-04  0.1585769E+04  0.7818609E-02  0.8829338E-01
       -1   -1    0    0    0  501  0.00000000000E+00  0.00000000000E+00  0.12436559694E+04  0.12436559694E+04  0.50400001928E-02 0. -1.
        1   -1    0    0  501    0  0.00000000000E+00  0.00000000000E+00 -0.50549841512E+03  0.50549841514E+03  0.50400001928E-02 0.  1.
    10030    2    1    2    0    0  0.00000000000E+00  0.00000000000E+00  0.73815755431E+03  0.17491543846E+04  0.15857693672E+04 0.  0.
        1    1    3    3  502    0 -0.50928840097E+03 -0.60723018266E+03  0.39524997344E+03  0.88562165264E+03  0.50400001928E-02 0. -1.
       -1    1    3    3    0  502  0.50928840097E+03  0.60723018266E+03  0.34290758087E+03  0.86353273194E+03  0.50400001928E-02 0.  1.
</event>
<event>
 5   0  0.3263294E-04  0.1587540E+04  0.7818609E-02  0.8828239E-01
       -2   -1    0    0    0  501  0.00000000000E+00  0.00000000000E+00  0.96113393904E+03  0.96113393905E+03  0.25500000920E-02 0. -1.
        2   -1    0    0  501    0  0.00000000000E+00  0.00000000000E+00 -0.65554962222E+03  0.65554962222E+03  0.25500000920E-02 0.  1.
    10030    2    1    2    0    0  0.00000000000E+00  0.00000000000E+00  0.30558431682E+03  0.16166835613E+04  0.15875402239E+04 0.  0.
        4    1    3    3  502    0  0.11342910915E+03  0.42482748492E+02 -0.64608219077E+03  0.65733914903E+03  0.12699999809E+01 0.  1.
       -4    1    3    3    0  502 -0.11342910915E+03 -0.42482748492E+02  0.95166650759E+03  0.95934441224E+03  0.12699999809E+01 0. -1.
</event>
<event>
 5   0  0.3274900E-04  0.1601521E+04  0.7818609E-02  0.8819614E-01
        2   -1    0    0  501    0  0.00000000000E+00  0.00000000000E+00  0.11181745783E+04  0.11181745783E+04  0.25500000920E-02 0.  1.
       -2   -1    0    0    0  501  0.00000000000E+00  0.00000000000E+00 -0.57345005732E+03  0.57345005733E+03  0.25500000920E-02 0. -1.
    10030    2    1    2    0    0  0.00000000000E+00  0.00000000000E+00  0.54472452093E+03  0.16916246356E+04  0.16015208722E+04 0.  0.
        3    1    3    3  502    0  0.73931021853E+03  0.22887500720E+03  0.48948473814E+03  0.91572850082E+03  0.10100000352E+00 0.  1.
       -3    1    3    3    0  502 -0.73931021853E+03 -0.22887500720E+03  0.55239782791E+02  0.77589613477E+03  0.10100000352E+00 0. -1.
</event>
<event>
 5   0  0.1761255E-04  0.1595163E+04  0.7818609E-02  0.8823525E-01
       -1   -1    0    0    0  501  0.00000000000E+00  0.00000000000E+00  0.48199455674E+03  0.48199455677E+03  0.50400001928E-02 0.  1.
        1   -1    0    0  501    0  0.00000000000E+00  0.00000000000E+00 -0.13198004006E+04  0.13198004006E+04  0.50400001928E-02 0. -1.
    10030    2    1    2    0    0  0.00000000000E+00  0.00000000000E+00 -0.83780584389E+03  0.18017949574E+04  0.15951634513E+04 0.  0.
        2    1    3    3  502    0 -0.20326809099E+03  0.44981159756E+03 -0.11265447397E+04  0.12299396085E+04  0.25500000920E-02 0. -1.
       -2    1    3    3    0  502  0.20326809099E+03 -0.44981159756E+03  0.28873889578E+03  0.57185534889E+03  0.25500000920E-02 0.  1.
</event>
<event>
 5   0  0.1736537E-04  0.1598668E+04  0.7818609E-02  0.8821367E-01
        1   -1    0    0  501    0  0.00000000000E+00  0.00000000000E+00  0.13206429715E+04  0.13206429715E+04  0.50400001928E-02 0.  1.
       -1   -1    0    0    0  501  0.00000000000E+00  0.00000000000E+00 -0.48380563176E+03  0.48380563179E+03  0.50400001928E-02 0. -1.
    10030    2    1    2    0    0  0.00000000000E+00  0.00000000000E+00  0.83683733971E+03  0.18044486033E+04  0.15986675792E+04 0.  0.
        3    1    3    3  502    0  0.29509221512E+03  0.61840450823E+03 -0.46185086034E+02  0.68675805317E+03  0.10100000352E+00 0. -1.
       -3    1    3    3    0  502 -0.29509221512E+03 -0.61840450823E+03  0.88302242574E+03  0.11176905501E+04  0.10100000352E+00 0.  1.
</event>
<event>
 5   0  0.3210612E-04  0.1588657E+04  0.7818609E-02  0.8827547E-01
        2   -1    0    0  501    0  0.00000000000E+00  0.00000000000E+00  0.52630280757E+03  0.52630280757E+03  0.25500000920E-02 0.  1.
       -2   -1    0    0    0  501  0.00000000000E+00  0.00000000000E+00 -0.11988499239E+04  0.11988499239E+04  0.25500000920E-02 0. -1.
    10030    2    1    2    0    0  0.00000000000E+00  0.00000000000E+00 -0.67254711630E+03  0.17251527314E+04  0.15886573964E+04 0.  0.
        2    1    3    3  502    0  0.67825647891E+03  0.19871945923E+03  0.57417725614E+02  0.70909665765E+03  0.25500000920E-02 0. -1.
       -2    1    3    3    0  502 -0.67825647891E+03 -0.19871945923E+03 -0.72996484192E+03  0.10160560738E+04  0.25500000920E-02 0.  1.
</event>
<event>
 5   0  0.3263294E-04  0.1593515E+04  0.7818609E-02  0.8824542E-01
        2   -1    0    0  501    0  0.00000000000E+00  0.00000000000E+00  0.82125286935E+03  0.82125286935E+03  0.25500000920E-02 0. -1.
       -2   -1    0    0    0  501  0.00000000000E+00  0.00000000000E+00 -0.77299272719E+03  0.77299272720E+03  0.25500000920E-02 0.  1.
    10030    2    1    2    0    0  0.00000000000E+00  0.00000000000E+00  0.48260142158E+02  0.15942455965E+04  0.15935149766E+04 0.  0.
        4    1    3    3  502    0 -0.75309808715E+03 -0.32318516533E+02 -0.23409612936E+03  0.78930591412E+03  0.12699999809E+01 0. -1.
       -4    1    3    3    0  502  0.75309808715E+03  0.32318516533E+02  0.28235627152E+03  0.80493968243E+03  0.12699999809E+01 0.  1.
</event>
<event>
 5   0  0.1819811E-04  0.1598722E+04  0.7818609E-02  0.8821333E-01
       -1   -1    0    0    0  501  0.00000000000E+00  0.00000000000E+00  0.45672139204E+03  0.45672139207E+03  0.50400001928E-02 0. -1.
        1   -1    0    0  501    0  0.00000000000E+00  0.00000000000E+00 -0.13990548000E+04  0.13990548000E+04  0.50400001928E-02 0.  1.
    10030    2    1    2    0    0  0.00000000000E+00  0.00000000000E+00 -0.94233340799E+03  0.18557761921E+04  0.15987223097E+04 0.  0.
        1    1    3    3  502    0 -0.20400527753E+03  0.72043855200E+03 -0.79603862628E+03  0.10928528515E+04  0.50400001928E-02 0. -1.
       -1    1    3    3    0  502  0.20400527753E+03 -0.72043855200E+03 -0.14629478171E+03  0.76292334061E+03  0.50400001928E-02 0.  1.
</event>
<event>
 5   0  0.1819811E-04  0.1610043E+04  0.7818609E-02  0.8814402E-01
       -1   -1    0    0    0  501  0.00000000000E+00  0.00000000000E+00  0.10015514183E+04  0.10015514183E+04  0.50400001928E-02 0. -1.
        1   -1    0    0  501    0  0.00000000000E+00  0.00000000000E+00 -0.64705603519E+03  0.64705603521E+03  0.50400001928E-02 0.  1.
    10030    2    1    2    0    0  0.00000000000E+00  0.00000000000E+00  0.35449538307E+03  0.16486074535E+04  0.16100433407E+04 0.  0.
        1    1    3    3  502    0 -0.69901061194E+02  0.27056732732E+03  0.95029232201E+03  0.99052932025E+03  0.50400001928E-02 0. -1.
       -1    1    3    3    0  502  0.69901061194E+02 -0.27056732732E+03 -0.59579693894E+03  0.65807813323E+03  0.50400001928E-02 0.  1.
</event>
<event>
 5   0  0.3274900E-04  0.1615125E+04  0.7818609E-02  0.8811309E-01
        2   -1    0    0  501    0  0.00000000000E+00  0.00000000000E+00  0.10756540049E+04  0.10756540049E+04  0.25500000920E-02 0.  1.
       -2   -1    0    0    0  501  0.00000000000E+00  0.00000000000E+00 -0.60628933711E+03  0.60628933712E+03  0.25500000920E-02 0. -1.
    10030    2    1    2    0    0  0.00000000000E+00  0.00000000000E+00  0.46936466775E+03  0.16819433420E+04  0.16151254485E+04 0.  0.
        3    1    3    3  502    0  0.53947505778E+03 -0.96809007822E+02 -0.38294075971E+03  0.66861719812E+03  0.10100000352E+00 0. -1.
       -3    1    3    3    0  502 -0.53947505778E+03  0.96809007822E+02  0.85230542746E+03  0.10133261439E+04  0.10100000352E+00 0.  1.
</event>
<event>
 5   0  0.1787688E-04  0.1631230E+04  0.7818609E-02  0.8801588E-01
       -1   -1    0    0    0  501  0.00000000000E+00  0.00000000000E+00  0.91763876038E+03  0.91763876039E+03  0.50400001928E-02 0. -1.
        1   -1    0    0  501    0  0.00000000000E+00  0.00000000000E+00 -0.72493462981E+03  0.72493462982E+03  0.50400001928E-02 0.  1.
    10030    2    1    2    0    0  0.00000000000E+00  0.00000000000E+00  0.19270413058E+03  0.16425733902E+04  0.16312303517E+04 0.  0.
        4    1    3    3  502    0  0.71193131830E+03  0.12477513228E+03  0.47688392965E+03  0.86593009583E+03  0.12699999809E+01 0. -1.
       -4    1    3    3    0  502 -0.71193131830E+03 -0.12477513228E+03 -0.28417979907E+03  0.77664329438E+03  0.12699999809E+01 0.  1.
</event>
<event>
 5   0  0.1819811E-04  0.1588793E+04  0.7818609E-02  0.8827463E-01
       -1   -1    0    0    0  501  0.00000000000E+00  0.00000000000E+00  0.21709161476E+03  0.21709161481E+03  0.50400001928E-02 0. -1.
        1   -1    0    0  501    0  0.00000000000E+00  0.00000000000E+00 -0.29069087046E+04  0.29069087046E+04  0.50400001928E-02 0.  1.
    10030    2    1    2    0    0  0.00000000000E+00  0.00000000000E+00 -0.26898170899E+04  0.31240003195E+04  0.15887926293E+04 0.  0.
        1    1    3    3  502    0  0.23277023403E+03 -0.63015865244E+03 -0.21786259809E+04  0.22798449670E+04  0.50400001928E-02 0.  1.
       -1    1    3    3    0  502 -0.23277023403E+03  0.63015865244E+03 -0.51119110901E+03  0.84415535243E+03  0.50400001928E-02 0. -1.
</event>
<event>
 5   0  0.1819811E-04  0.1595718E+04  0.7818609E-02  0.8823183E-01
       -1   -1    0    0    0  501  0.00000000000E+00  0.00000000000E+00  0.72833006980E+03  0.72833006982E+03  0.50400001928E-02 0. -1.
        1   -1    0    0  501    0  0.00000000000E+00  0.00000000000E+00 -0.87402575448E+03  0.87402575450E+03  0.50400001928E-02 0.  1.
    10030    2    1    2    0    0  0.00000000000E+00  0.00000000000E+00 -0.14569568468E+03  0.16023558243E+04  0.15957183195E+04 0.  0.
        1    1    3    3  502    0 -0.58983298873E+03  0.13829676253E+03 -0.59418974642E+03  0.84858140676E+03  0.50400001928E-02 0.  1.
       -1    1    3    3    0  502  0.58983298873E+03 -0.13829676253E+03  0.44849406174E+03  0.75377441756E+03  0.50400001928E-02 0. -1.
</event>
<event>
 5   0  0.1736537E-04  0.1604679E+04  0.7818609E-02  0.8817679E-01
       -1   -1    0    0    0  501  0.00000000000E+00  0.00000000000E+00  0.11886248396E+04  0.11886248396E+04  0.50400001928E-02 0.  1.
        1   -1    0    0  501    0  0.00000000000E+00  0.00000000000E+00 -0.54159123116E+03  0.54159123118E+03  0.50400001928E-02 0. -1.
    10030    2    1    2    0    0  0.00000000000E+00  0.00000000000E+00  0.64703360846E+03  0.17302160708E+04  0.16046791459E+04 0.  0.
        3    1    3    3  502    0 -0.50214439818E+03 -0.43657483262E+03 -0.15988975314E+03  0.68433275858E+03  0.10100000352E+00 0. -1.
       -3    1    3    3    0  502  0.50214439818E+03  0.43657483262E+03  0.80692336160E+03  0.10458833122E+04  0.10100000352E+00 0.  1.
</event>
<event>
 5   0  0.3380454E-04  0.1606797E+04  0.7818609E-02  0.8816383E-01
       -2   -1    0    0    0  501  0.00000000000E+00  0.00000000000E+00  0.33856066961E+03  0.33856066962E+03  0.25500000920E-02 0.  1.
        2   -1    0    0  501    0  0.00000000000E+00  0.00000000000E+00 -0.19064501652E+04  0.19064501652E+04  0.25500000920E-02 0. -1.
    10030    2    1    2    0    0  0.00000000000E+00  0.00000000000E+00 -0.15678894956E+04  0.22450108348E+04  0.16067968689E+04 0.  0.
        5    1    3    3  502    0  0.45006341294E+03  0.56999643798E+03 -0.12638444778E+04  0.14576618157E+04  0.46999998093E+01 0. -1.
       -5    1    3    3    0  502 -0.45006341294E+03 -0.56999643798E+03 -0.30404501775E+03  0.78734901905E+03  0.46999998093E+01 0.  1.
</event>
<event>
 5   0  0.1787688E-04  0.1461583E+04  0.7818609E-02  0.8910409E-01
        1   -1    0    0  501    0  0.00000000000E+00  0.00000000000E+00  0.99953539605E+03  0.99953539606E+03  0.50400001928E-02 0.  1.
       -1   -1    0    0    0  501  0.00000000000E+00  0.00000000000E+00 -0.53430450371E+03  0.53430450373E+03  0.50400001928E-02 0. -1.
    10030    2    1    2    0    0  0.00000000000E+00  0.00000000000E+00  0.46523089234E+03  0.15338398998E+04  0.14615830647E+04 0.  0.
        4    1    3    3  502    0 -0.29233206258E+03  0.56443041033E+03  0.61101719812E+03  0.88169345706E+03  0.12699999809E+01 0.  1.
       -4    1    3    3    0  502  0.29233206258E+03 -0.56443041033E+03 -0.14578630578E+03  0.65214644273E+03  0.12699999809E+01 0. -1.
</event>
<event>
 5   0  0.1819811E-04  0.1617073E+04  0.7818609E-02  0.8810127E-01
        1   -1    0    0  501    0  0.00000000000E+00  0.00000000000E+00  0.88836079271E+03  0.88836079273E+03  0.50400001928E-02 0. -1.
       -1   -1    0    0    0  501  0.00000000000E+00  0.00000000000E+00 -0.73588508205E+03  0.73588508207E+03  0.50400001928E-02 0.  1.
    10030    2    1    2    0    0  0.00000000000E+00  0.00000000000E+00  0.15247571066E+03  0.16242458748E+04  0.16170732264E+04 0.  0.
        1    1    3    3  502    0  0.24505744038E+03 -0.23706302369E+03 -0.66014388192E+03  0.74299526994E+03  0.50400001928E-02 0.  1.
       -1    1    3    3    0  502 -0.24505744038E+03  0.23706302369E+03  0.81261959258E+03  0.88125060486E+03  0.50400001928E-02 0. -1.
</event>
<event>
 5   0  0.1819811E-04  0.1590341E+04  0.7818609E-02  0.8826504E-01
       -1   -1    0    0    0  501  0.00000000000E+00  0.00000000000E+00  0.82266796534E+03  0.82266796536E+03  0.50400001928E-02 0. -1.
        1   -1    0    0  501    0  0.00000000000E+00  0.00000000000E+00 -0.76859195405E+03  0.76859195407E+03  0.50400001928E-02 0.  1.
    10030    2    1    2    0    0  0.00000000000E+00  0.00000000000E+00  0.54076011291E+02  0.15912599194E+04  0.15903408176E+04 0.  0.
        1    1    3    3  502    0 -0.39493088844E+03  0.33696254012E+03 -0.57562380941E+03  0.77514961786E+03  0.50400001928E-02 0.  1.
       -1    1    3    3    0  502  0.39493088844E+03 -0.33696254012E+03  0.62969982070E+03  0.81611030156E+03  0.50400001928E-02 0. -1.
</event>
<event>
 5   0  0.3380454E-04  0.1580283E+04  0.7818609E-02  0.8832753E-01
       -2   -1    0    0    0  501  0.00000000000E+00  0.00000000000E+00  0.87134284520E+03  0.87134284520E+03  0.25500000920E-02 0. -1.
        2   -1    0    0  501    0  0.00000000000E+00  0.00000000000E+00 -0.71650733880E+03  0.71650733880E+03  0.25500000920E-02 0.  1.
    10030    2    1    2    0    0  0.00000000000E+00  0.00000000000E+00  0.15483550640E+03  0.15878501840E+04  0.15802829407E+04 0.  0.
        5    1    3    3  502    0  0.20157225987E+03  0.31488883777E+03  0.77682210261E+03  0.86212587550E+03  0.46999998093E+01 0. -1.
       -5    1    3    3    0  502 -0.20157225987E+03 -0.31488883777E+03 -0.62198659621E+03  0.72572430851E+03  0.46999998093E+01 0.  1.
</event>
<event>
 5   0  0.3263294E-04  0.1601968E+04  0.7818609E-02  0.8819340E-01
       -2   -1    0    0    0  501  0.00000000000E+00  0.00000000000E+00  0.65521847662E+03  0.65521847662E+03  0.25500000920E-02 0.  1.
        2   -1    0    0  501    0  0.00000000000E+00  0.00000000000E+00 -0.97917830738E+03  0.97917830739E+03  0.25500000920E-02 0. -1.
    10030    2    1    2    0    0  0.00000000000E+00  0.00000000000E+00 -0.32395983077E+03  0.16343967840E+04  0.16019684378E+04 0.  0.
        4    1    3    3  502    0 -0.30837744980E+03 -0.58088461382E+03 -0.62845577075E+03  0.90966029639E+03  0.12699999809E+01 0. -1.
       -4    1    3    3    0  502  0.30837744980E+03  0.58088461382E+03  0.30449593998E+03  0.72473648762E+03  0.12699999809E+01 0.  1.
</event>
<event>
 5   0  0.1764099E-04  0.1579945E+04  0.7818609E-02  0.8832964E-01
        1   -1    0    0  501    0  0.00000000000E+00  0.00000000000E+00  0.70927351175E+03  0.70927351177E+03  0.50400001928E-02 0. -1.
       -1   -1    0    0    0  501  0.00000000000E+00  0.00000000000E+00 -0.87985341549E+03  0.87985341550E+03  0.50400001928E-02 0.  1.
    10030    2    1    2    0    0  0.00000000000E+00  0.00000000000E+00 -0.17057990373E+03  0.15891269273E+04  0.15799452166E+04 0.  0.
        5    1    3    3  502    0  0.70234835671E+03  0.28526518527E+02 -0.44783949244E+03  0.83348022017E+03  0.46999998093E+01 0. -1.
       -5    1    3    3    0  502 -0.70234835671E+03 -0.28526518527E+02  0.27725958870E+03  0.75564670710E+03  0.46999998093E+01 0.  1.
</event>
<event>
 5   0  0.3263294E-04  0.1596344E+04  0.7818609E-02  0.8822797E-01
        2   -1    0    0  501    0  0.00000000000E+00  0.00000000000E+00  0.14330772905E+04  0.14330772905E+04  0.25500000920E-02 0.  1.
       -2   -1    0    0    0  501  0.00000000000E+00  0.00000000000E+00 -0.44455272373E+03  0.44455272374E+03  0.25500000920E-02 0. -1.
    10030    2    1    2    0    0  0.00000000000E+00  0.00000000000E+00  0.98852456677E+03  0.18776300142E+04  0.15963438387E+04 0.  0.
        4    1    3    3  502    0  0.74049173172E+03 -0.20939484029E+03  0.24502138744E+03  0.80759599868E+03  0.12699999809E+01 0.  1.
       -4    1    3    3    0  502 -0.74049173172E+03  0.20939484029E+03  0.74350317933E+03  0.10700340156E+04  0.12699999809E+01 0. -1.
</event>
<event>
 5   0  0.1736537E-04  0.1602083E+04  0.7818609E-02  0.8819269E-01
        1   -1    0    0  501    0  0.00000000000E+00  0.00000000000E+00  0.45116645727E+03  0.45116645730E+03  0.50400001928E-02 0.  1.
       -1   -1    0    0    0  501  0.00000000000E+00  0.00000000000E+00 -0.14222412737E+04  0.14222412737E+04  0.50400001928E-02 0. -1.
    10030    2    1    2    0    0  0.00000000000E+00  0.00000000000E+00 -0.97107481640E+03  0.18734077310E+04  0.16020830901E+04 0.  0.
        3    1    3    3  502    0  0.53347844368E+03 -0.18331414088E+03  0.17952193242E+03  0.59197251502E+03  0.10100000352E+00 0.  1.
       -3    1    3    3    0  502 -0.53347844368E+03  0.18331414088E+03 -0.11505967488E+04  0.12814352160E+04  0.10100000352E+00 0. -1.
</event>
<event>
 5   0  0.3210612E-04  0.1547533E+04  0.7818609E-02  0.8853445E-01
       -2   -1    0    0    0  501  0.00000000000E+00  0.00000000000E+00  0.89310120818E+03  0.89310120819E+03  0.25500000920E-02 0. -1.
        2   -1    0    0  501    0  0.00000000000E+00  0.00000000000E+00 -0.67037730466E+03  0.67037730467E+03  0.25500000920E-02 0.  1.
    10030    2    1    2    0    0  0.00000000000E+00  0.00000000000E+00  0.22272390352E+03  0.15634785129E+04  0.15475332381E+04 0.  0.
        2    1    3    3  502    0 -0.69694775882E+03  0.31144090618E+03 -0.16365224639E+02  0.76354399818E+03  0.25500000920E-02 0.  1.
       -2    1    3    3    0  502  0.69694775882E+03 -0.31144090618E+03  0.23908912816E+03  0.79993451468E+03  0.25500000920E-02 0. -1.
</event>
<event>
 5   0  0.3228393E-04  0.1613312E+04  0.7818609E-02  0.8812411E-01
       -2   -1    0    0    0  501  0.00000000000E+00  0.00000000000E+00  0.42411092115E+03  0.42411092115E+03  0.25500000920E-02 0. -1.
        2   -1    0    0  501    0  0.00000000000E+00  0.00000000000E+00 -0.15342544786E+04  0.15342544786E+04  0.25500000920E-02 0.  1.
    10030    2    1    2    0    0  0.00000000000E+00  0.00000000000E+00 -0.11101435575E+04  0.19583653998E+04  0.16133122205E+04 0.  0.
        1    1    3    3  502    0  0.12959513950E+03 -0.54971693511E+03  0.14405332150E+03  0.58286788245E+03  0.50400001928E-02 0. -1.
       -1    1    3    3    0  502 -0.12959513950E+03  0.54971693511E+03 -0.12541968790E+04  0.13754975173E+04  0.50400001928E-02 0.  1.
</event>
<event>
 5   0  0.1787688E-04  0.1602546E+04  0.7818609E-02  0.8818985E-01
        1   -1    0    0  501    0  0.00000000000E+00  0.00000000000E+00  0.12472264510E+04  0.12472264510E+04  0.50400001928E-02 0.  1.
       -1   -1    0    0    0  501  0.00000000000E+00  0.00000000000E+00 -0.51477322411E+03  0.51477322413E+03  0.50400001928E-02 0. -1.
    10030    2    1    2    0    0  0.00000000000E+00  0.00000000000E+00  0.73245322688E+03  0.17619996751E+04  0.16025464504E+04 0.  0.
        4    1    3    3  502    0  0.37118197034E+03  0.50069866293E+03 -0.18742586645E+03  0.65084965582E+03  0.12699999809E+01 0. -1.
       -4    1    3    3    0  502 -0.37118197034E+03 -0.50069866293E+03  0.91987909333E+03  0.11111500193E+04  0.12699999809E+01 0.  1.
</event>
<event>
 5   0  0.3228393E-04  0.1602799E+04  0.7818609E-02  0.8818830E-01
        2   -1    0    0  501    0  0.00000000000E+00  0.00000000000E+00  0.59139257886E+03  0.59139257886E+03  0.25500000920E-02 0. -1.
       -2   -1    0    0    0  501  0.00000000000E+00  0.00000000000E+00 -0.10859814895E+04  0.10859814895E+04  0.25500000920E-02 0.  1.
    10030    2    1    2    0    0  0.00000000000E+00  0.00000000000E+00 -0.49458891067E+03  0.16773740684E+04  0.16027992933E+04 0.  0.
        1    1    3    3  502    0 -0.93578032331E+02 -0.39911559892E+03  0.47336081326E+03  0.62619531218E+03  0.50400001928E-02 0. -1.
       -1    1    3    3    0  502  0.93578032331E+02  0.39911559892E+03 -0.96794972392E+03  0.10511787562E+04  0.50400001928E-02 0.  1.
</event>
<event>
 5   0  0.1219463E-04  0.1594021E+04  0.7818609E-02  0.8824230E-01
       -4   -1    0    0    0  501  0.00000000000E+00  0.00000000000E+00  0.79442459382E+03  0.79442560896E+03  0.12699999809E+01 0.  1.
        4   -1    0    0  501    0  0.00000000000E+00  0.00000000000E+00 -0.79960253899E+03  0.79960354755E+03  0.12699999809E+01 0. -1.
    10030    2    1    2    0    0  0.00000000000E+00  0.00000000000E+00 -0.51779451721E+01  0.15940291565E+04  0.15940207466E+04 0.  0.
        5    1    3    3  502    0 -0.52686176950E+03  0.42778319360E+03 -0.42046874341E+03  0.79837199291E+03  0.46999998093E+01 0. -1.
       -5    1    3    3    0  502  0.52686176950E+03 -0.42778319360E+03  0.41529079824E+03  0.79565716360E+03  0.46999998093E+01 0.  1.
</event>
<event>
 5   0  0.3263294E-04  0.1610050E+04  0.7818609E-02  0.8814398E-01
       -2   -1    0    0    0  501  0.00000000000E+00  0.00000000000E+00  0.14063507476E+04  0.14063507476E+04  0.25500000920E-02 0. -1.
        2   -1    0    0  501    0  0.00000000000E+00  0.00000000000E+00 -0.46081342256E+03  0.46081342256E+03  0.25500000920E-02 0.  1.
    10030    2    1    2    0    0  0.00000000000E+00  0.00000000000E+00  0.94553732508E+03  0.18671641702E+04  0.16100500630E+04 0.  0.
        4    1    3    3  502    0  0.14621105175E+02  0.60103821633E+03  0.10936140676E+04  0.12479799902E+04  0.12699999809E+01 0. -1.
       -4    1    3    3    0  502 -0.14621105175E+02 -0.60103821633E+03 -0.14807674250E+03  0.61918418001E+03  0.12699999809E+01 0.  1.
</event>
<event>
 5   0  0.3274900E-04  0.1586662E+04  0.7818609E-02  0.8828784E-01
       -2   -1    0    0    0  501  0.00000000000E+00  0.00000000000E+00  0.67013927602E+03  0.67013927603E+03  0.25500000920E-02 0. -1.
        2   -1    0    0  501    0  0.00000000000E+00  0.00000000000E+00 -0.93916859556E+03  0.93916859557E+03  0.25500000920E-02 0.  1.
    10030    2    1    2    0    0  0.00000000000E+00  0.00000000000E+00 -0.26902931954E+03  0.16093078716E+04  0.15866616056E+04 0.  0.
        3    1    3    3  502    0  0.67799939309E+03 -0.86423755932E+02 -0.54303063308E+03  0.87294588680E+03  0.10100000352E+00 0. -1.
       -3    1    3    3    0  502 -0.67799939309E+03  0.86423755932E+02  0.27400131354E+03  0.73636198479E+03  0.10100000352E+00 0.  1.
</event>
<event>
 5   0  0.1761255E-04  0.1599991E+04  0.7818609E-02  0.8820554E-01
        1   -1    0    0  501    0  0.00000000000E+00  0.00000000000E+00  0.61819508817E+03  0.61819508819E+03  0.50400001928E-02 0.  1.
       -1   -1    0    0    0  501  0.00000000000E+00  0.00000000000E+00 -0.10352596732E+04  0.10352596732E+04  0.50400001928E-02 0. -1.
    10030    2    1    2    0    0  0.00000000000E+00  0.00000000000E+00 -0.41706458501E+03  0.16534547614E+04  0.15999905562E+04 0.  0.
        2    1    3    3  502    0 -0.37462839088E+03  0.59020014638E+03 -0.61051597813E+03  0.92812305412E+03  0.25500000920E-02 0. -1.
       -2    1    3    3    0  502  0.37462839088E+03 -0.59020014638E+03  0.19345139312E+03  0.72533170725E+03  0.25500000920E-02 0.  1.
</event>
<event>
 5   0  0.1787688E-04  0.1601880E+04  0.7818609E-02  0.8819394E-01
       -1   -1    0    0    0  501  0.00000000000E+00  0.00000000000E+00  0.73663994310E+03  0.73663994311E+03  0.50400001928E-02 0. -1.
        1   -1    0    0  501    0  0.00000000000E+00  0.00000000000E+00 -0.87085290093E+03  0.87085290095E+03  0.50400001928E-02 0.  1.
    10030    2    1    2    0    0  0.00000000000E+00  0.00000000000E+00 -0.13421295783E+03  0.16074928441E+04  0.16018801845E+04 0.  0.
        4    1    3    3  502    0 -0.17745249820E+03  0.40666096993E+03 -0.73625683905E+03  0.85961519271E+03  0.12699999809E+01 0.  1.
       -4    1    3    3    0  502  0.17745249820E+03 -0.40666096993E+03  0.60204388122E+03  0.74787765135E+03  0.12699999809E+01 0. -1.
</event>
<event>
 5   0  0.1736537E-04  0.1573416E+04  0.7818609E-02  0.8837048E-01
        1   -1    0    0  501    0  0.00000000000E+00  0.00000000000E+00  0.16021921501E+04  0.16021921502E+04  0.50400001928E-02 0.  1.
       -1   -1    0    0    0  501  0.00000000000E+00  0.00000000000E+00 -0.38628903394E+03  0.38628903398E+03  0.50400001928E-02 0. -1.
    10030    2    1    2    0    0  0.00000000000E+00  0.00000000000E+00  0.12159031162E+04  0.19884811841E+04  0.15734157212E+04 0.  0.
        3    1    3    3  502    0 -0.50267532221E+03 -0.42494974099E+03  0.63425048661E+02  0.66127718011E+03  0.10100000352E+00 0. -1.
       -3    1    3    3    0  502  0.50267532221E+03  0.42494974099E+03  0.11524780675E+04  0.13272040040E+04  0.10100000352E+00 0.  1.
</event>
<event>
 5   0  0.1736537E-04  0.1594592E+04  0.7818609E-02  0.8823877E-01
        1   -1    0    0  501    0  0.00000000000E+00  0.00000000000E+00  0.11568647821E+04  0.11568647821E+04  0.50400001928E-02 0. -1.
       -1   -1    0    0    0  501  0.00000000000E+00  0.00000000000E+00 -0.54948585693E+03  0.54948585695E+03  0.50400001928E-02 0.  1.
    10030    2    1    2    0    0  0.00000000000E+00  0.00000000000E+00  0.60737892513E+03  0.17063506390E+04  0.15945919053E+04 0.  0.
        3    1    3    3  502    0 -0.25763160044E+03 -0.50570962244E+03 -0.29552489606E+03  0.63988376926E+03  0.10100000352E+00 0.  1.
       -3    1    3    3    0  502  0.25763160044E+03  0.50570962244E+03  0.90290382119E+03  0.10664668698E+04  0.10100000352E+00 0. -1.
</event>
<event>
 5   0  0.3228393E-04  0.1604269E+04  0.7818609E-02  0.8817930E-01
       -2   -1    0    0    0  501  0.00000000000E+00  0.00000000000E+00  0.62066719123E+03  0.62066719123E+03  0.25500000920E-02 0. -1.
        2   -1    0    0  501    0  0.00000000000E+00  0.00000000000E+00 -0.10366585614E+04  0.10366585614E+04  0.25500000920E-02 0.  1.
    10030    2    1    2    0    0  0.00000000000E+00  0.00000000000E+00 -0.41599137018E+03  0.16573257526E+04  0.16042692512E+04 0.  0.
        1    1    3    3  502    0  0.51496373610E+03 -0.55265591096E+02  0.42477931745E+03  0.66983535560E+03  0.50400001928E-02 0. -1.
       -1    1    3    3    0  502 -0.51496373610E+03  0.55265591096E+02 -0.84077068763E+03  0.98749039705E+03  0.50400001928E-02 0.  1.
</event>
<event>
 5   0  0.3380454E-04  0.1634335E+04  0.7818609E-02  0.8799728E-01
        2   -1    0    0  501    0  0.00000000000E+00  0.00000000000E+00  0.21260603124E+04  0.21260603124E+04  0.25500000920E-02 0. -1.
       -2   -1    0    0    0  501  0.00000000000E+00  0.00000000000E+00 -0.31408460962E+03  0.31408460963E+03  0.25500000920E-02 0.  1.
    10030    2    1    2    0    0  0.00000000000E+00  0.00000000000E+00  0.18119757028E+04  0.24401449221E+04  0.16343351226E+04 0.  0.
        5    1    3    3  502    0 -0.94198009039E+02 -0.71937331813E+03  0.34461376229E+03  0.80321352759E+03  0.46999998093E+01 0.  1.
       -5    1    3    3    0  502  0.94198009039E+02  0.71937331813E+03  0.14673619405E+04  0.16369313945E+04  0.46999998093E+01 0. -1.
</event>
<event>
 5   0  0.3210612E-04  0.1594267E+04  0.7818609E-02  0.8824078E-01
       -2   -1    0    0    0  501  0.00000000000E+00  0.00000000000E+00  0.41615135051E+03  0.41615135052E+03  0.25500000920E-02 0. -1.
        2   -1    0    0  501    0  0.00000000000E+00  0.00000000000E+00 -0.15269012666E+04  0.15269012666E+04  0.25500000920E-02 0.  1.
    10030    2    1    2    0    0  0.00000000000E+00  0.00000000000E+00 -0.11107499161E+04  0.19430526171E+04  0.15942672602E+04 0.  0.
        2    1    3    3  502    0 -0.20035389698E+03  0.60527076020E+03 -0.11385145868E+04  0.13048792440E+04  0.25500000920E-02 0.  1.
       -2    1    3    3    0  502  0.20035389698E+03 -0.60527076020E+03  0.27764670689E+02  0.63817337310E+03  0.25500000920E-02 0. -1.
</event>
<event>
 5   0  0.1819811E-04  0.1601148E+04  0.7818609E-02  0.8819843E-01
        1   -1    0    0  501    0  0.00000000000E+00  0.00000000000E+00  0.83523423861E+03  0.83523423863E+03  0.50400001928E-02 0. -1.
       -1   -1    0    0    0  501  0.00000000000E+00  0.00000000000E+00 -0.76735214597E+03  0.76735214599E+03  0.50400001928E-02 0.  1.
    10030    2    1    2    0    0  0.00000000000E+00  0.00000000000E+00  0.67882092640E+02  0.16025863846E+04  0.16011480699E+04 0.  0.
        1    1    3    3  502    0 -0.36320465292E+03 -0.70568379942E+03  0.13897119907E+03  0.80574204239E+03  0.50400001928E-02 0. -1.
       -1    1    3    3    0  502  0.36320465292E+03  0.70568379942E+03 -0.71089106434E+02  0.79684434223E+03  0.50400001928E-02 0.  1.
</event>
<event>
 5   0  0.3210612E-04  0.1585528E+04  0.7818609E-02  0.8829488E-01
        2   -1    0    0  501    0  0.00000000000E+00  0.00000000000E+00  0.10946180479E+04  0.10946180479E+04  0.25500000920E-02 0.  1.
       -2   -1    0    0    0  501  0.00000000000E+00  0.00000000000E+00 -0.57415004682E+03  0.57415004683E+03  0.25500000920E-02 0. -1.
    10030    2    1    2    0    0  0.00000000000E+00  0.00000000000E+00  0.52046800105E+03  0.16687680947E+04  0.15855283075E+04 0.  0.
        2    1    3    3  502    0 -0.12601643501E+03 -0.78248088329E+03  0.27901835895E+03  0.84024265497E+03  0.25500000920E-02 0.  1.
       -2    1    3    3    0  502  0.12601643501E+03  0.78248088329E+03  0.24144964210E+03  0.82852543973E+03  0.25500000920E-02 0. -1.
</event>
<event>
 5   0  0.1819811E-04  0.1612563E+04  0.7818609E-02  0.8812867E-01
        1   -1    0    0  501    0  0.00000000000E+00  0.00000000000E+00  0.83125736814E+03  0.83125736815E+03  0.50400001928E-02 0. -1.
       -1   -1    0    0    0  501  0.00000000000E+00  0.00000000000E+00 -0.78205566486E+03  0.78205566487E+03  0.50400001928E-02 0.  1.
    10030    2    1    2    0    0  0.00000000000E+00  0.00000000000E+00  0.49201703280E+02  0.16133130330E+04  0.16125625988E+04 0.  0.
        1    1    3    3  502    0 -0.49329982369E+03 -0.58422716090E+03  0.28049994928E+03  0.81446074992E+03  0.50400001928E-02 0. -1.
       -1    1    3    3    0  502  0.49329982369E+03  0.58422716090E+03 -0.23129824600E+03  0.79885228310E+03  0.50400001928E-02 0.  1.
</event>
<event>
 5   0  0.1764099E-04  0.1493119E+04  0.7818609E-02  0.8889042E-01
       -1   -1    0    0    0  501  0.00000000000E+00  0.00000000000E+00  0.68780151537E+03  0.68780151538E+03  0.50400001928E-02 0. -1.
        1   -1    0    0  501    0  0.00000000000E+00  0.00000000000E+00 -0.81033661817E+03  0.81033661819E+03  0.50400001928E-02 0.  1.
    10030    2    1    2    0    0  0.00000000000E+00  0.00000000000E+00 -0.12253510281E+03  0.14981381336E+04  0.14931185538E+04 0.  0.
        5    1    3    3  502    0  0.70380643399E+03 -0.24578981126E+03 -0.10105608014E+03  0.75232343389E+03  0.46999998093E+01 0.  1.
       -5    1    3    3    0  502 -0.70380643399E+03  0.24578981126E+03 -0.21479022665E+02  0.74581469968E+03  0.46999998093E+01 0. -1.
</event>
<event>
 5   0  0.3263294E-04  0.1606304E+04  0.7818609E-02  0.8816685E-01
       -2   -1    0    0    0  501  0.00000000000E+00  0.00000000000E+00  0.44616848479E+03  0.44616848480E+03  0.25500000920E-02 0.  1.
        2   -1    0    0  501    0  0.00000000000E+00  0.00000000000E+00 -0.14457607184E+04  0.14457607184E+04  0.25500000920E-02 0. -1.
    10030    2    1    2    0    0  0.00000000000E+00  0.00000000000E+00 -0.99959223359E+03  0.18919292032E+04  0.16063036688E+04 0.  0.
        4    1    3    3  502    0  0.19034647140E+03  0.24402459301E+03  0.37311646329E+03  0.48476518981E+03  0.12699999809E+01 0.  1.
       -4    1    3    3    0  502 -0.19034647140E+03 -0.24402459301E+03 -0.13727086969E+04  0.14071640134E+04  0.12699999809E+01 0. -1.
</event>
<event>
 5   0  0.1736537E-04  0.1635754E+04  0.7818609E-02  0.8798879E-01
       -1   -1    0    0    0  501  0.00000000000E+00  0.00000000000E+00  0.51748119968E+03  0.51748119970E+03  0.50400001928E-02 0.  1.
        1   -1    0    0  501    0  0.00000000000E+00  0.00000000000E+00 -0.12926507661E+04  0.12926507661E+04  0.50400001928E-02 0. -1.
    10030    2    1    2    0    0  0.00000000000E+00  0.00000000000E+00 -0.77516956642E+03  0.18101319658E+04  0.16357536113E+04 0.  0.
        3    1    3    3  502    0  0.52906259499E+03 -0.45388095431E+03  0.85813378866E+02  0.70233830616E+03  0.10100000352E+00 0.  1.
       -3    1    3    3    0  502 -0.52906259499E+03  0.45388095431E+03 -0.86098294528E+03  0.11077936597E+04  0.10100000352E+00 0. -1.
</event>
<event>
 5   0  0.1219463E-04  0.1616514E+04  0.7818609E-02  0.8810466E-01
       -3   -1    0    0    0  501  0.00000000000E+00  0.00000000000E+00  0.17170130746E+04  0.17170130776E+04  0.10100000352E+00 0. -1.
        3   -1    0    0  501    0  0.00000000000E+00  0.00000000000E+00 -0.38047444690E+03  0.38047446031E+03  0.10100000352E+00 0.  1.
    10030    2    1    2    0    0  0.00000000000E+00  0.00000000000E+00  0.13365386277E+04  0.20974875379E+04  0.16165142957E+04 0.  0.
        1    1    3    3  502    0  0.77872435871E+02  0.89993026573E+02 -0.36904397444E+03  0.38775806400E+03  0.50400001928E-02 0.  1.
       -1    1    3    3    0  502 -0.77872435871E+02 -0.89993026573E+02  0.17055826022E+04  0.17097294739E+04  0.50400001928E-02 0. -1.
</event>
<event>
 5   0  0.1819811E-04  0.1598951E+04  0.7818609E-02  0.8821193E-01
       -1   -1    0    0    0  501  0.00000000000E+00  0.00000000000E+00  0.85482173408E+03  0.85482173409E+03  0.50400001928E-02 0. -1.
        1   -1    0    0  501    0  0.00000000000E+00  0.00000000000E+00 -0.74771258840E+03  0.74771258842E+03  0.50400001928E-02 0.  1.
    10030    2    1    2    0    0  0.00000000000E+00  0.00000000000E+00  0.10710914568E+03  0.16025343225E+04  0.15989508703E+04 0.  0.
        1    1    3    3  502    0 -0.69838272659E+03 -0.13826556466E+03 -0.31099838927E+03  0.77690140772E+03  0.50400001928E-02 0.  1.
       -1    1    3    3    0  502  0.69838272659E+03  0.13826556466E+03  0.41810753495E+03  0.82563291478E+03  0.50400001928E-02 0. -1.
</event>
<event>
 5   0  0.1761255E-04  0.1598474E+04  0.7818609E-02  0.8821486E-01
        1   -1    0    0  501    0  0.00000000000E+00  0.00000000000E+00  0.13761073810E+04  0.13761073810E+04  0.50400001928E-02 0.  1.
       -1   -1    0    0    0  501  0.00000000000E+00  0.00000000000E+00 -0.46419319539E+03  0.46419319542E+03  0.50400001928E-02 0. -1.
    10030    2    1    2    0    0  0.00000000000E+00  0.00000000000E+00  0.91191418564E+03  0.18403005765E+04  0.15984738752E+04 0.  0.
        2    1    3    3  502    0  0.46290716449E+03 -0.51840066592E+03  0.15892903555E+01  0.69499986994E+03  0.25500000920E-02 0. -1.
       -2    1    3    3    0  502 -0.46290716449E+03  0.51840066592E+03  0.91032489528E+03  0.11453007065E+04  0.25500000920E-02 0.  1.
</event>
<event>
 5   0  0.1787688E-04  0.1603428E+04  0.7818609E-02  0.8818445E-01
       -1   -1    0    0    0  501  0.00000000000E+00  0.00000000000E+00  0.60041344392E+03  0.60041344394E+03  0.50400001928E-02 0.  1.
        1   -1    0    0  501    0  0.00000000000E+00  0.00000000000E+00 -0.10705043618E+04  0.10705043618E+04  0.50400001928E-02 0. -1.
    10030    2    1    2    0    0  0.00000000000E+00  0.00000000000E+00 -0.47009091787E+03  0.16709178057E+04  0.16034278414E+04 0.  0.
        4    1    3    3  502    0 -0.27954073145E+02 -0.23817375121E+03 -0.10322522187E+04  0.10597426206E+04  0.12699999809E+01 0. -1.
       -4    1    3    3    0  502  0.27954073145E+02  0.23817375121E+03  0.56216130080E+03  0.61117518519E+03  0.12699999809E+01 0.  1.
</event>
<event>
 5   0  0.1219463E-04  0.1594306E+04  0.7818609E-02  0.8824053E-01
        3   -1    0    0  501    0  0.00000000000E+00  0.00000000000E+00  0.11962761977E+04  0.11962762020E+04  0.10100000352E+00 0.  1.
       -3   -1    0    0    0  501  0.00000000000E+00  0.00000000000E+00 -0.53119273028E+03  0.53119273989E+03  0.10100000352E+00 0. -1.
    10030    2    1    2    0    0  0.00000000000E+00  0.00000000000E+00  0.66508346746E+03  0.17274689419E+04  0.15943064092E+04 0.  0.
        2    1    3    3  502    0 -0.30379794410E+03  0.62335200719E+03 -0.93480639745E+02  0.69971390277E+03  0.25500000920E-02 0. -1.
       -2    1    3    3    0  502  0.30379794410E+03 -0.62335200719E+03  0.75856410721E+03  0.10277550391E+04  0.25500000920E-02 0.  1.
</event>
<event>
 5   0  0.3228393E-04  0.1572065E+04  0.7818609E-02  0.8837896E-01
        2   -1    0    0  501    0  0.00000000000E+00  0.00000000000E+00  0.48413836307E+03  0.48413836308E+03  0.25500000920E-02 0.  1.
       -2   -1    0    0    0  501  0.00000000000E+00  0.00000000000E+00 -0.12761788166E+04  0.12761788166E+04  0.25500000920E-02 0. -1.
    10030    2    1    2    0    0  0.00000000000E+00  0.00000000000E+00 -0.79204045349E+03  0.17603171796E+04  0.15720650410E+04 0.  0.
        1    1    3    3  502    0 -0.76731616276E+03 -0.12907587316E+03 -0.27126775811E+03  0.82402722726E+03  0.50400001928E-02 0.  1.
       -1    1    3    3    0  502  0.76731616276E+03  0.12907587316E+03 -0.52077269538E+03  0.93628995238E+03  0.50400001928E-02 0. -1.
</event>
<event>
 5   0  0.1761255E-04  0.1601392E+04  0.7818609E-02  0.8819693E-01
        1   -1    0    0  501    0  0.00000000000E+00  0.00000000000E+00  0.20917976135E+04  0.20917976136E+04  0.50400001928E-02 0. -1.
       -1   -1    0    0    0  501  0.00000000000E+00  0.00000000000E+00 -0.30648942698E+03  0.30648942702E+03  0.50400001928E-02 0.  1.
    10030    2    1    2    0    0  0.00000000000E+00  0.00000000000E+00  0.17853081866E+04  0.23982870406E+04  0.16013917097E+04 0.  0.
        2    1    3    3  502    0 -0.53427025942E+03  0.45474045817E+03  0.31479474879E+03  0.76897940692E+03  0.25500000920E-02 0.  1.
       -2    1    3    3    0  502  0.53427025942E+03 -0.45474045817E+03  0.14705134378E+04  0.16293076337E+04  0.25500000920E-02 0. -1.
</event>
<event>
 5   0  0.3274900E-04  0.1629123E+04  0.7818609E-02  0.8802854E-01
       -2   -1    0    0    0  501  0.00000000000E+00  0.00000000000E+00  0.40180977101E+03  0.40180977102E+03  0.25500000920E-02 0. -1.
        2   -1    0    0  501    0  0.00000000000E+00  0.00000000000E+00 -0.16513056494E+04  0.16513056494E+04  0.25500000920E-02 0.  1.
    10030    2    1    2    0    0  0.00000000000E+00  0.00000000000E+00 -0.12494958784E+04  0.20531154204E+04  0.16291233776E+04 0.  0.
        3    1    3    3  502    0 -0.32333472094E+03 -0.56027686327E+03 -0.88185483816E+00  0.64688197775E+03  0.10100000352E+00 0. -1.
       -3    1    3    3    0  502  0.32333472094E+03  0.56027686327E+03 -0.12486140235E+04  0.14062334426E+04  0.10100000352E+00 0.  1.
</event>
<event>
 5   0  0.1787688E-04  0.1602305E+04  0.7818609E-02  0.8819133E-01
        1   -1    0    0  501    0  0.00000000000E+00  0.00000000000E+00  0.76122893093E+03  0.76122893095E+03  0.50400001928E-02 0. -1.
       -1   -1    0    0    0  501  0.00000000000E+00  0.00000000000E+00 -0.84316952784E+03  0.84316952786E+03  0.50400001928E-02 0.  1.
    10030    2    1    2    0    0  0.00000000000E+00  0.00000000000E+00 -0.81940596912E+02  0.16043984588E+04  0.16023046381E+04 0.  0.
        4    1    3    3  502    0  0.92070197915E+01 -0.71467127824E+03  0.32144689677E+03  0.78368968700E+03  0.12699999809E+01 0. -1.
       -4    1    3    3    0  502 -0.92070197915E+01  0.71467127824E+03 -0.40338749369E+03  0.82070877181E+03  0.12699999809E+01 0.  1.
</event>
<event>
 5   0  0.3228393E-04  0.1618658E+04  0.7818609E-02  0.8809167E-01
       -2   -1    0    0    0  501  0.00000000000E+00  0.00000000000E+00  0.25430122309E+03  0.25430122310E+03  0.25500000920E-02 0. -1.
        2   -1    0    0  501    0  0.00000000000E+00  0.00000000000E+00 -0.25757374720E+04  0.25757374720E+04  0.25500000920E-02 0.  1.
    10030    2    1    2    0    0  0.00000000000E+00  0.00000000000E+00 -0.23214362489E+04  0.28300386951E+04  0.16186577025E+04 0.  0.
        1    1    3    3  502    0 -0.16870380659E+03  0.57260552783E+03 -0.21162317451E+04  0.21988121484E+04  0.50400001928E-02 0.  1.
       -1    1    3    3    0  502  0.16870380659E+03 -0.57260552783E+03 -0.20520450378E+03  0.63122654669E+03  0.50400001928E-02 0. -1.
</event>
<event>
 5   0  0.1736537E-04  0.1594432E+04  0.7818609E-02  0.8823976E-01
        1   -1    0    0  501    0  0.00000000000E+00  0.00000000000E+00  0.81790866123E+03  0.81790866124E+03  0.50400001928E-02 0. -1.
       -1   -1    0    0    0  501  0.00000000000E+00  0.00000000000E+00 -0.77704649554E+03  0.77704649556E+03  0.50400001928E-02 0.  1.
    10030    2    1    2    0    0  0.00000000000E+00  0.00000000000E+00  0.40862165685E+02  0.15949551568E+04  0.15944316340E+04 0.  0.
        3    1    3    3  502    0 -0.30611210144E+03  0.31668228724E+03  0.68514965085E+03  0.81450742413E+03  0.10100000352E+00 0. -1.
       -3    1    3    3    0  502  0.30611210144E+03 -0.31668228724E+03 -0.64428748517E+03  0.78044773268E+03  0.10100000352E+00 0.  1.
</event>
<event>
 5   0  0.3263294E-04  0.1596709E+04  0.7818609E-02  0.8822572E-01
       -2   -1    0    0    0  501  0.00000000000E+00  0.00000000000E+00  0.25687622891E+03  0.25687622892E+03  0.25500000920E-02 0.  1.
        2   -1    0    0  501    0  0.00000000000E+00  0.00000000000E+00 -0.24812346601E+04  0.24812346601E+04  0.25500000920E-02 0. -1.
    10030    2    1    2    0    0  0.00000000000E+00  0.00000000000E+00 -0.22243584312E+04  0.27381108890E+04  0.15967093694E+04 0.  0.
        4    1    3    3  502    0  0.42044503518E+03 -0.45160397614E+03 -0.24342995422E+03  0.66330983287E+03  0.12699999809E+01 0.  1.
       -4    1    3    3    0  502 -0.42044503518E+03  0.45160397614E+03 -0.19809284770E+04  0.20748010562E+04  0.12699999809E+01 0. -1.
</event>
<event>
 5   0  0.3210612E-04  0.1608154E+04  0.7818609E-02  0.8815555E-01
        2   -1    0    0  501    0  0.00000000000E+00  0.00000000000E+00  0.84107421345E+03  0.84107421345E+03  0.25500000920E-02 0. -1.
       -2   -1    0    0    0  501  0.00000000000E+00  0.00000000000E+00 -0.76870679268E+03  0.76870679268E+03  0.25500000920E-02 0.  1.
    10030    2    1    2    0    0  0.00000000000E+00  0.00000000000E+00  0.72367420766E+02  0.16097810061E+04  0.16081535512E+04 0.  0.
        2    1    3    3  502    0  0.26874826694E+03 -0.30579582017E+02 -0.72180034453E+03  0.77081546377E+03  0.25500000920E-02 0.  1.
       -2    1    3    3    0  502 -0.26874826694E+03  0.30579582017E+02  0.79416776530E+03  0.83896554236E+03  0.25500000920E-02 0. -1.
</event>
<event>
 5   0  0.3380454E-04  0.1592232E+04  0.7818609E-02  0.8825335E-01
       -2   -1    0    0    0  501  0.00000000000E+00  0.00000000000E+00  0.43130034336E+03  0.43130034337E+03  0.25500000920E-02 0.  1.
        2   -1    0    0  501    0  0.00000000000E+00  0.00000000000E+00 -0.14695104510E+04  0.14695104510E+04  0.25500000920E-02 0. -1.
    10030    2    1    2    0    0  0.00000000000E+00  0.00000000000E+00 -0.10382101076E+04  0.19008107944E+04  0.15922315938E+04 0.  0.
        5    1    3    3  502    0  0.29831242083E+03  0.69342877038E+02 -0.13963508658E+04  0.14295511762E+04  0.46999998093E+01 0. -1.
       -5    1    3    3    0  502 -0.29831242083E+03 -0.69342877038E+02  0.35814075817E+03  0.47125961813E+03  0.46999998093E+01 0.  1.
</event>
<event>
 5   0  0.3210612E-04  0.1598354E+04  0.7818609E-02  0.8821560E-01
       -2   -1    0    0    0  501  0.00000000000E+00  0.00000000000E+00  0.97868982951E+03  0.97868982952E+03  0.25500000920E-02 0. -1.
        2   -1    0    0  501    0  0.00000000000E+00  0.00000000000E+00 -0.65259044055E+03  0.65259044056E+03  0.25500000920E-02 0.  1.
    10030    2    1    2    0    0  0.00000000000E+00  0.00000000000E+00  0.32609938896E+03  0.16312802701E+04  0.15983536868E+04 0.  0.
        2    1    3    3  502    0  0.11996324316E+03  0.96098179406E+02  0.96346168608E+03  0.97564566331E+03  0.25500000920E-02 0. -1.
       -2    1    3    3    0  502 -0.11996324316E+03 -0.96098179406E+02 -0.63736229711E+03  0.65563460676E+03  0.25500000920E-02 0.  1.
</event>
<event>
 5   0  0.3274900E-04  0.1605681E+04  0.7818609E-02  0.8817066E-01
        2   -1    0    0  501    0  0.00000000000E+00  0.00000000000E+00  0.20629048716E+04  0.20629048716E+04  0.25500000920E-02 0.  1.
       -2   -1    0    0    0  501  0.00000000000E+00  0.00000000000E+00 -0.31244916557E+03  0.31244916558E+03  0.25500000920E-02 0. -1.
    10030    2    1    2    0    0  0.00000000000E+00  0.00000000000E+00  0.17504557060E+04  0.23753540372E+04  0.16056810465E+04 0.  0.
        3    1    3    3  502    0 -0.54772354236E+03 -0.15618115913E+03  0.38176499537E+02  0.57083367861E+03  0.10100000352E+00 0. -1.
       -3    1    3    3    0  502  0.54772354236E+03  0.15618115913E+03  0.17122792065E+04  0.18045203586E+04  0.10100000352E+00 0.  1.
</event>
<event>
 5   0  0.3274900E-04  0.1526153E+04  0.7818609E-02  0.8867246E-01
        2   -1    0    0  501    0  0.00000000000E+00  0.00000000000E+00  0.14203949688E+04  0.14203949688E+04  0.25500000920E-02 0. -1.
       -2   -1    0    0    0  501  0.00000000000E+00  0.00000000000E+00 -0.40994615205E+03  0.40994615206E+03  0.25500000920E-02 0.  1.
    10030    2    1    2    0    0  0.00000000000E+00  0.00000000000E+00  0.10104488167E+04  0.18303411208E+04  0.15261526160E+04 0.  0.
        3    1    3    3  502    0 -0.33042184553E+03 -0.48679378330E+03  0.10880218235E+04  0.12369067394E+04  0.10100000352E+00 0. -1.
       -3    1    3    3    0  502  0.33042184553E+03  0.48679378330E+03 -0.77573006757E+02  0.59343438141E+03  0.10100000352E+00 0.  1.
</event>
<event>
 5   0  0.3210612E-04  0.1601643E+04  0.7818609E-02  0.8819539E-01
       -2   -1    0    0    0  501  0.00000000000E+00  0.00000000000E+00  0.88738264586E+03  0.88738264586E+03  0.25500000920E-02 0. -1.
        2   -1    0    0  501    0  0.00000000000E+00  0.00000000000E+00 -0.72270427658E+03  0.72270427658E+03  0.25500000920E-02 0.  1.
    10030    2    1    2    0    0  0.00000000000E+00  0.00000000000E+00  0.16467836928E+03  0.16100869224E+04  0.16016431976E+04 0.  0.
        2    1    3    3  502    0 -0.27347598809E+03  0.63164960895E+03 -0.32914120319E+03  0.76295758479E+03  0.25500000920E-02 0.  1.
       -2    1    3    3    0  502  0.27347598809E+03 -0.63164960895E+03  0.49381957247E+03  0.84712933765E+03  0.25500000920E-02 0. -1.
</event>
<event>
 5   0  0.1219463E-04  0.1575588E+04  0.7818609E-02  0.8835687E-01
       -3   -1    0    0    0  501  0.00000000000E+00  0.00000000000E+00  0.74067265081E+03  0.74067265770E+03  0.10100000352E+00 0. -1.
        3   -1    0    0  501    0  0.00000000000E+00  0.00000000000E+00 -0.83791335479E+03  0.83791336087E+03  0.10100000352E+00 0.  1.
    10030    2    1    2    0    0  0.00000000000E+00  0.00000000000E+00 -0.97240703975E+02  0.15785860186E+04  0.15755881643E+04 0.  0.
        3    1    3    3  502    0 -0.19784226893E+03  0.60839586555E+03 -0.50920408799E+03  0.81766491060E+03  0.10100000352E+00 0.  1.
       -3    1    3    3    0  502  0.19784226893E+03 -0.60839586555E+03  0.41196338402E+03  0.76092110798E+03  0.10100000352E+00 0. -1.
</event>
<event>
 5   0  0.3380454E-04  0.1588507E+04  0.7818609E-02  0.8827640E-01
       -2   -1    0    0    0  501  0.00000000000E+00  0.00000000000E+00  0.88290209651E+03  0.88290209651E+03  0.25500000920E-02 0.  1.
        2   -1    0    0  501    0  0.00000000000E+00  0.00000000000E+00 -0.71450593221E+03  0.71450593221E+03  0.25500000920E-02 0. -1.
    10030    2    1    2    0    0  0.00000000000E+00  0.00000000000E+00  0.16839616430E+03  0.15974080287E+04  0.15885072055E+04 0.  0.
        5    1    3    3  502    0 -0.38055005268E+03  0.16873253369E+03  0.76439610141E+03  0.87040938666E+03  0.46999998093E+01 0.  1.
       -5    1    3    3    0  502  0.38055005268E+03 -0.16873253369E+03 -0.59599993712E+03  0.72699864207E+03  0.46999998093E+01 0. -1.
</event>
<event>
 5   0  0.3274900E-04  0.1570781E+04  0.7818609E-02  0.8838702E-01
       -2   -1    0    0    0  501  0.00000000000E+00  0.00000000000E+00  0.77149212806E+03  0.77149212806E+03  0.25500000920E-02 0. -1.
        2   -1    0    0  501    0  0.00000000000E+00  0.00000000000E+00 -0.79953881279E+03  0.79953881280E+03  0.25500000920E-02 0.  1.
    10030    2    1    2    0    0  0.00000000000E+00  0.00000000000E+00 -0.28046684736E+02  0.15710309409E+04  0.15707805705E+04 0.  0.
        3    1    3    3  502    0  0.44867588188E+03  0.44306886796E+03 -0.48230499914E+03  0.79387542545E+03  0.10100000352E+00 0.  1.
       -3    1    3    3    0  502 -0.44867588188E+03 -0.44306886796E+03  0.45425831440E+03  0.77715551541E+03  0.10100000352E+00 0. -1.
</event>
<event>
 5   0  0.1787688E-04  0.1610217E+04  0.7818609E-02  0.8814296E-01
        1   -1    0    0  501    0  0.00000000000E+00  0.00000000000E+00  0.84348851335E+03  0.84348851336E+03  0.50400001928E-02 0. -1.
       -1   -1    0    0    0  501  0.00000000000E+00  0.00000000000E+00 -0.76847485557E+03  0.76847485558E+03  0.50400001928E-02 0.  1.
    10030    2    1    2    0    0  0.00000000000E+00  0.00000000000E+00  0.75013657777E+02  0.16119633689E+04  0.16102170208E+04 0.  0.
        4    1    3    3  502    0 -0.71004241958E+03 -0.30793824338E+03 -0.18457131929E+03  0.79564714801E+03  0.12699999809E+01 0.  1.
       -4    1    3    3    0  502  0.71004241958E+03  0.30793824338E+03  0.25958497707E+03  0.81631622093E+03  0.12699999809E+01 0. -1.
</event>
<event>
 5   0  0.3228393E-04  0.1595582E+04  0.7818609E-02  0.8823267E-01
        2   -1    0    0  501    0  0.00000000000E+00  0.00000000000E+00  0.11132791495E+04  0.11132791495E+04  0.25500000920E-02 0. -1.
       -2   -1    0    0    0  501  0.00000000000E+00  0.00000000000E+00 -0.57170778254E+03  0.57170778255E+03  0.25500000920E-02 0.  1.
    10030    2    1    2    0    0  0.00000000000E+00  0.00000000000E+00  0.54157136696E+03  0.16849869321E+04  0.15955818424E+04 0.  0.
        1    1    3    3  502    0 -0.56367818637E+03 -0.44525531586E+03 -0.95773302272E+02  0.72467780396E+03  0.50400001928E-02 0.  1.
       -1    1    3    3    0  502  0.56367818637E+03  0.44525531586E+03  0.63734466923E+03  0.96030912810E+03  0.50400001928E-02 0. -1.
</event>
<event>
 5   0  0.3210612E-04  0.1648700E+04  0.7818609E-02  0.8791176E-01
       -2   -1    0    0    0  501  0.00000000000E+00  0.00000000000E+00  0.59052861813E+03  0.59052861814E+03  0.25500000920E-02 0.  1.
        2   -1    0    0  501    0  0.00000000000E+00  0.00000000000E+00 -0.11507535552E+04  0.11507535552E+04  0.25500000920E-02 0. -1.
    10030    2    1    2    0    0  0.00000000000E+00  0.00000000000E+00 -0.56022493705E+03  0.17412821733E+04  0.16486999809E+04 0.  0.
        2    1    3    3  502    0 -0.68483825730E+03  0.41313883442E+03 -0.69236248593E+02  0.80279561116E+03  0.25500000920E-02 0.  1.
       -2    1    3    3    0  502  0.68483825730E+03 -0.41313883442E+03 -0.49098868846E+03  0.93848656217E+03  0.25500000920E-02 0. -1.
</event>
<event>
 5   0  0.1761255E-04  0.1537954E+04  0.7818609E-02  0.8859599E-01
       -1   -1    0    0    0  501  0.00000000000E+00  0.00000000000E+00  0.81599369205E+03  0.81599369207E+03  0.50400001928E-02 0.  1.
        1   -1    0    0  501    0  0.00000000000E+00  0.00000000000E+00 -0.72466896563E+03  0.72466896565E+03  0.50400001928E-02 0. -1.
    10030    2    1    2    0    0  0.00000000000E+00  0.00000000000E+00  0.91324726424E+02  0.15406626577E+04  0.15379535816E+04 0.  0.
        2    1    3    3  502    0 -0.13472672861E+03 -0.22421972172E+02 -0.71242110491E+03  0.72539497307E+03  0.25500000920E-02 0. -1.
       -2    1    3    3    0  502  0.13472672861E+03  0.22421972172E+02  0.80374583133E+03  0.81526768464E+03  0.25500000920E-02 0.  1.
</event>
<event>
 5   0  0.3380454E-04  0.1603213E+04  0.7818609E-02  0.8818577E-01
        2   -1    0    0  501    0  0.00000000000E+00  0.00000000000E+00  0.21311912092E+04  0.21311912092E+04  0.25500000920E-02 0. -1.
       -2   -1    0    0    0  501  0.00000000000E+00  0.00000000000E+00 -0.30150886657E+03  0.30150886658E+03  0.25500000920E-02 0.  1.
    10030    2    1    2    0    0  0.00000000000E+00  0.00000000000E+00  0.18296823426E+04  0.24327000757E+04  0.16032130812E+04 0.  0.
        5    1    3    3  502    0 -0.65489789019E+03 -0.22667789347E+03  0.15261006329E+04  0.16760904945E+04  0.46999998093E+01 0. -1.
       -5    1    3    3    0  502  0.65489789019E+03  0.22667789347E+03  0.30358170966E+03  0.75660958123E+03  0.46999998093E+01 0.  1.
</event>
<event>
 5   0  0.1736537E-04  0.1600520E+04  0.7818609E-02  0.8820229E-01
       -1   -1    0    0    0  501  0.00000000000E+00  0.00000000000E+00  0.41326466019E+03  0.41326466022E+03  0.50400001928E-02 0.  1.
        1   -1    0    0  501    0  0.00000000000E+00  0.00000000000E+00 -0.15496513813E+04  0.15496513813E+04  0.50400001928E-02 0. -1.
    10030    2    1    2    0    0  0.00000000000E+00  0.00000000000E+00 -0.11363867211E+04  0.19629160415E+04  0.16005201049E+04 0.  0.
        3    1    3    3  502    0 -0.12731634595E+03  0.21100468967E+03 -0.15019552368E+04  0.15220387560E+04  0.10100000352E+00 0. -1.
       -3    1    3    3    0  502  0.12731634595E+03 -0.21100468967E+03  0.36556851574E+03  0.44087728555E+03  0.10100000352E+00 0.  1.
</event>
<event>
 5   0  0.1736537E-04  0.1611738E+04  0.7818609E-02  0.8813369E-01
       -1   -1    0    0    0  501  0.00000000000E+00  0.00000000000E+00  0.42142621298E+03  0.42142621301E+03  0.50400001928E-02 0. -1.
        1   -1    0    0  501    0  0.00000000000E+00  0.00000000000E+00 -0.15410176248E+04  0.15410176248E+04  0.50400001928E-02 0.  1.
    10030    2    1    2    0    0  0.00000000000E+00  0.00000000000E+00 -0.11195914118E+04  0.19624438378E+04  0.16117384674E+04 0.  0.
        3    1    3    3  502    0  0.65300202970E+03 -0.47118589661E+03 -0.59824956073E+03  0.10031601802E+04  0.10100000352E+00 0. -1.
       -3    1    3    3    0  502 -0.65300202970E+03  0.47118589661E+03 -0.52134185111E+03  0.95928365767E+03  0.10100000352E+00 0.  1.
</event>
<event>
 5   0  0.1787688E-04  0.1604464E+04  0.7818609E-02  0.8817810E-01
        1   -1    0    0  501    0  0.00000000000E+00  0.00000000000E+00  0.16735959035E+04  0.16735959036E+04  0.50400001928E-02 0. -1.
       -1   -1    0    0    0  501  0.00000000000E+00  0.00000000000E+00 -0.38454681373E+03  0.38454681376E+03  0.50400001928E-02 0.  1.
    10030    2    1    2    0    0  0.00000000000E+00  0.00000000000E+00  0.12890490898E+04  0.20581427173E+04  0.16044637387E+04 0.  0.
        4    1    3    3  502    0  0.43697182796E+03 -0.23054668841E+03  0.14552841927E+04  0.15368636401E+04  0.12699999809E+01 0. -1.
       -4    1    3    3    0  502 -0.43697182796E+03  0.23054668841E+03 -0.16623510288E+03  0.52127907717E+03  0.12699999809E+01 0.  1.
</event>
<event>
 5   0  0.3263294E-04  0.1603383E+04  0.7818609E-02  0.8818472E-01
       -2   -1    0    0    0  501  0.00000000000E+00  0.00000000000E+00  0.49700200605E+03  0.49700200606E+03  0.25500000920E-02 0.  1.
        2   -1    0    0  501    0  0.00000000000E+00  0.00000000000E+00 -0.12931724220E+04  0.12931724220E+04  0.25500000920E-02 0. -1.
    10030    2    1    2    0    0  0.00000000000E+00  0.00000000000E+00 -0.79617041595E+03  0.17901744281E+04  0.16033830334E+04 0.  0.
        4    1    3    3  502    0 -0.64496855736E+03 -0.31916103549E+03 -0.79260500981E+03  0.10705477668E+04  0.12699999809E+01 0. -1.
       -4    1    3    3    0  502  0.64496855736E+03  0.31916103549E+03 -0.35654061364E+01  0.71962666125E+03  0.12699999809E+01 0.  1.
</event>
<event>
 5   0  0.3210612E-04  0.1600452E+04  0.7818609E-02  0.8820271E-01
       -2   -1    0    0    0  501  0.00000000000E+00  0.00000000000E+00  0.75632860511E+03  0.75632860511E+03  0.25500000920E-02 0.  1.
        2   -1    0    0  501    0  0.00000000000E+00  0.00000000000E+00 -0.84667098798E+03  0.84667098799E+03  0.25500000920E-02 0. -1.
    10030    2    1    2    0    0  0.00000000000E+00  0.00000000000E+00 -0.90342382872E+02  0.16029995931E+04  0.16004517954E+04 0.  0.
        2    1    3    3  502    0  0.79362390776E+03  0.84504648061E+02  0.13072432276E+02  0.79821728308E+03  0.25500000920E-02 0. -1.
       -2    1    3    3    0  502 -0.79362390776E+03 -0.84504648061E+02 -0.10341481515E+03  0.80478231002E+03  0.25500000920E-02 0.  1.
</event>
<event>
 5   0  0.3263294E-04  0.1613514E+04  0.7818609E-02  0.8812288E-01
        2   -1    0    0  501    0  0.00000000000E+00  0.00000000000E+00  0.23529900612E+04  0.23529900612E+04  0.25500000920E-02 0. -1.
       -2   -1    0    0    0  501  0.00000000000E+00  0.00000000000E+00 -0.27660857366E+03  0.27660857368E+03  0.25500000920E-02 0.  1.
    10030    2    1    2    0    0  0.00000000000E+00  0.00000000000E+00  0.20763814875E+04  0.26295986349E+04  0.16135144557E+04 0.  0.
        4    1    3    3  502    0  0.76657443478E+03 -0.81482462683E+02  0.14258476486E+04  0.16209006403E+04  0.12699999809E+01 0. -1.
       -4    1    3    3    0  502 -0.76657443478E+03  0.81482462683E+02  0.65053383895E+03  0.10086979946E+04  0.12699999809E+01 0.  1.
</event>
<event>
 5   0  0.3228393E-04  0.1606608E+04  0.7818609E-02  0.8816499E-01
       -2   -1    0    0    0  501  0.00000000000E+00  0.00000000000E+00  0.60160172404E+03  0.60160172404E+03  0.25500000920E-02 0.  1.
        2   -1    0    0  501    0  0.00000000000E+00  0.00000000000E+00 -0.10726314669E+04  0.10726314669E+04  0.25500000920E-02 0. -1.
    10030    2    1    2    0    0  0.00000000000E+00  0.00000000000E+00 -0.47102974281E+03  0.16742331909E+04  0.16066075311E+04 0.  0.
        1    1    3    3  502    0  0.14915008708E+03 -0.35222423444E+03  0.50061044958E+03  0.63001466813E+03  0.50400001928E-02 0.  1.
       -1    1    3    3    0  502 -0.14915008708E+03  0.35222423444E+03 -0.97164019239E+03  0.10442185228E+04  0.50400001928E-02 0. -1.
</event>
<event>
 5   0  0.3274900E-04  0.1597039E+04  0.7818609E-02  0.8822369E-01
        2   -1    0    0  501    0  0.00000000000E+00  0.00000000000E+00  0.12935019539E+04  0.12935019539E+04  0.25500000920E-02 0.  1.
       -2   -1    0    0    0  501  0.00000000000E+00  0.00000000000E+00 -0.49295121924E+03  0.49295121925E+03  0.25500000920E-02 0. -1.
    10030    2    1    2    0    0  0.00000000000E+00  0.00000000000E+00  0.80055073469E+03  0.17864531732E+04  0.15970389667E+04 0.  0.
        3    1    3    3  502    0 -0.75317701392E+03  0.26524983443E+03  0.39969831454E+03  0.89296799596E+03  0.10100000352E+00 0.  1.
       -3    1    3    3    0  502  0.75317701392E+03 -0.26524983443E+03  0.40085242015E+03  0.89348517722E+03  0.10100000352E+00 0. -1.
</event>
<event>
 5   0  0.1819811E-04  0.1591652E+04  0.7818609E-02  0.8825693E-01
        1   -1    0    0  501    0  0.00000000000E+00  0.00000000000E+00  0.14522342520E+04  0.14522342520E+04  0.50400001928E-02 0.  1.
       -1   -1    0    0    0  501  0.00000000000E+00  0.00000000000E+00 -0.43611363891E+03  0.43611363894E+03  0.50400001928E-02 0. -1.
    10030    2    1    2    0    0  0.00000000000E+00  0.00000000000E+00  0.10161206131E+04  0.18883478910E+04  0.15916521784E+04 0.  0.
        1    1    3    3  502    0 -0.63249618498E+03  0.17580371490E+02  0.10807138088E+04  0.12523189809E+04  0.50400001928E-02 0.  1.
       -1    1    3    3    0  502  0.63249618498E+03 -0.17580371490E+02 -0.64593195664E+02  0.63602891005E+03  0.50400001928E-02 0. -1.
</event>
<event>
 5   0  0.3210612E-04  0.1601970E+04  0.7818609E-02  0.8819339E-01
        2   -1    0    0  501    0  0.00000000000E+00  0.00000000000E+00  0.88817274623E+03  0.88817274623E+03  0.25500000920E-02 0.  1.
       -2   -1    0    0    0  501  0.00000000000E+00  0.00000000000E+00 -0.72235619325E+03  0.72235619326E+03  0.25500000920E-02 0. -1.
    10030    2    1    2    0    0  0.00000000000E+00  0.00000000000E+00  0.16581655298E+03  0.16105289395E+04  0.16019701420E+04 0.  0.
        2    1    3    3  502    0 -0.11847760707E+03  0.61439760521E+03 -0.41981907627E+03  0.75350475610E+03  0.25500000920E-02 0. -1.
       -2    1    3    3    0  502  0.11847760707E+03 -0.61439760521E+03  0.58563562925E+03  0.85702418339E+03  0.25500000920E-02 0.  1.
</event>
<event>
 5   0  0.1761255E-04  0.1586743E+04  0.7818609E-02  0.8828734E-01
       -1   -1    0    0    0  501  0.00000000000E+00  0.00000000000E+00  0.35936975004E+03  0.35936975008E+03  0.50400001928E-02 0.  1.
        1   -1    0    0  501    0  0.00000000000E+00  0.00000000000E+00 -0.17515062514E+04  0.17515062514E+04  0.50400001928E-02 0. -1.
    10030    2    1    2    0    0  0.00000000000E+00  0.00000000000E+00 -0.13921365013E+04  0.21108760015E+04  0.15867430338E+04 0.  0.
        2    1    3    3  502    0 -0.43746751385E+03 -0.72799361821E+02 -0.15712133700E+04  0.16326019193E+04  0.25500000920E-02 0. -1.
       -2    1    3    3    0  502  0.43746751385E+03  0.72799361821E+02  0.17907686870E+03  0.47827408216E+03  0.25500000920E-02 0.  1.
</event>
<event>
 5   0  0.3210612E-04  0.1597895E+04  0.7818609E-02  0.8821842E-01
       -2   -1    0    0    0  501  0.00000000000E+00  0.00000000000E+00  0.15239374830E+04  0.15239374830E+04  0.25500000920E-02 0.  1.
        2   -1    0    0  501    0  0.00000000000E+00  0.00000000000E+00 -0.41886058078E+03  0.41886058079E+03  0.25500000920E-02 0. -1.
    10030    2    1    2    0    0  0.00000000000E+00  0.00000000000E+00  0.11050769022E+04  0.19427980637E+04  0.15978952897E+04 0.  0.
        2    1    3    3  502    0  0.17733362477E+03  0.76856445901E+03  0.70718935375E+03  0.10593655291E+04  0.25500000920E-02 0.  1.
       -2    1    3    3    0  502 -0.17733362477E+03 -0.76856445901E+03  0.39788754843E+03  0.88343253467E+03  0.25500000920E-02 0. -1.
</event>
<event>
 5   0  0.3263294E-04  0.1625974E+04  0.7818609E-02  0.8804748E-01
       -2   -1    0    0    0  501  0.00000000000E+00  0.00000000000E+00  0.11756926050E+04  0.11756926050E+04  0.25500000920E-02 0. -1.
        2   -1    0    0  501    0  0.00000000000E+00  0.00000000000E+00 -0.56217758873E+03  0.56217758873E+03  0.25500000920E-02 0.  1.
    10030    2    1    2    0    0  0.00000000000E+00  0.00000000000E+00  0.61351501628E+03  0.17378701937E+04  0.16259742111E+04 0.  0.
        4    1    3    3  502    0  0.62491901208E+03 -0.23839866070E+03  0.80071871839E+03  0.10433167170E+04  0.12699999809E+01 0. -1.
       -4    1    3    3    0  502 -0.62491901208E+03  0.23839866070E+03 -0.18720370211E+03  0.69455347675E+03  0.12699999809E+01 0.  1.
</event>
<event>
 5   0  0.1819811E-04  0.1587783E+04  0.7818609E-02  0.8828089E-01
        1   -1    0    0  501    0  0.00000000000E+00  0.00000000000E+00  0.62682866039E+03  0.62682866041E+03  0.50400001928E-02 0.  1.
       -1   -1    0    0    0  501  0.00000000000E+00  0.00000000000E+00 -0.10054801118E+04  0.10054801118E+04  0.50400001928E-02 0. -1.
    10030    2    1    2    0    0  0.00000000000E+00  0.00000000000E+00 -0.37865145144E+03  0.16323087723E+04  0.15877830476E+04 0.  0.
        1    1    3    3  502    0 -0.68028740767E+03  0.40921173971E+03 -0.18489838234E+03  0.81512736230E+03  0.50400001928E-02 0.  1.
       -1    1    3    3    0  502  0.68028740767E+03 -0.40921173971E+03 -0.19375306910E+03  0.81718140995E+03  0.50400001928E-02 0. -1.
</event>
<event>
 5   0  0.1736537E-04  0.1594881E+04  0.7818609E-02  0.8823699E-01
        1   -1    0    0  501    0  0.00000000000E+00  0.00000000000E+00  0.86552268728E+03  0.86552268729E+03  0.50400001928E-02 0.  1.
       -1   -1    0    0    0  501  0.00000000000E+00  0.00000000000E+00 -0.73471408430E+03  0.73471408432E+03  0.50400001928E-02 0. -1.
    10030    2    1    2    0    0  0.00000000000E+00  0.00000000000E+00  0.13080860298E+03  0.16002367716E+04  0.15948814484E+04 0.  0.
        3    1    3    3  502    0  0.59818802456E+03  0.52468307611E+03  0.12402164577E+02  0.79578581727E+03  0.10100000352E+00 0. -1.
       -3    1    3    3    0  502 -0.59818802456E+03 -0.52468307611E+03  0.11840643840E+03  0.80445095434E+03  0.10100000352E+00 0.  1.
</event>
<event>
 5   0  0.3274900E-04  0.1640344E+04  0.7818609E-02  0.8796139E-01
        2   -1    0    0  501    0  0.00000000000E+00  0.00000000000E+00  0.11541859331E+04  0.11541859331E+04  0.25500000920E-02 0. -1.
       -2   -1    0    0    0  501  0.00000000000E+00  0.00000000000E+00 -0.58281967165E+03  0.58281967165E+03  0.25500000920E-02 0.  1.
    10030    2    1    2    0    0  0.00000000000E+00  0.00000000000E+00  0.57136626150E+03  0.17370056048E+04  0.16403441914E+04 0.  0.
        3    1    3    3  502    0  0.15499049658E+03  0.11083427173E+03 -0.55905698638E+03  0.59063610967E+03  0.10100000352E+00 0.  1.
       -3    1    3    3    0  502 -0.15499049658E+03 -0.11083427173E+03  0.11304232479E+04  0.11463694951E+04  0.10100000352E+00 0. -1.
</event>
<event>
 5   0  0.1764099E-04  0.1611372E+04  0.7818609E-02  0.8813592E-01
        1   -1    0    0  501    0  0.00000000000E+00  0.00000000000E+00  0.18592054113E+04  0.18592054113E+04  0.50400001928E-02 0.  1.
       -1   -1    0    0    0  501  0.00000000000E+00  0.00000000000E+00 -0.34914395272E+03  0.34914395276E+03  0.50400001928E-02 0. -1.
    10030    2    1    2    0    0  0.00000000000E+00  0.00000000000E+00  0.15100614586E+04  0.22083493641E+04  0.16113724911E+04 0.  0.
        5    1    3    3  502    0  0.69134384565E+03  0.40631989736E+03  0.64837920256E+03  0.10312467465E+04  0.46999998093E+01 0.  1.
       -5    1    3    3    0  502 -0.69134384565E+03 -0.40631989736E+03  0.86168225605E+03  0.11771026176E+04  0.46999998093E+01 0. -1.
</event>
<event>
 5   0  0.1787688E-04  0.1598734E+04  0.7818609E-02  0.8821326E-01
       -1   -1    0    0    0  501  0.00000000000E+00  0.00000000000E+00  0.73145421347E+03  0.73145421348E+03  0.50400001928E-02 0.  1.
        1   -1    0    0  501    0  0.00000000000E+00  0.00000000000E+00 -0.87358494872E+03  0.87358494874E+03  0.50400001928E-02 0. -1.
    10030    2    1    2    0    0  0.00000000000E+00  0.00000000000E+00 -0.14213073526E+03  0.16050391622E+04  0.15987337384E+04 0.  0.
        4    1    3    3  502    0  0.25088796535E+02  0.11080313889E+03 -0.86543760994E+03  0.87286347896E+03  0.12699999809E+01 0. -1.
       -4    1    3    3    0  502 -0.25088796535E+02 -0.11080313889E+03  0.72330687468E+03  0.73217568326E+03  0.12699999809E+01 0.  1.
</event>
<event>
 5   0  0.3263294E-04  0.1603818E+04  0.7818609E-02  0.8818206E-01
        2   -1    0    0  501    0  0.00000000000E+00  0.00000000000E+00  0.10028828269E+04  0.10028828269E+04  0.25500000920E-02 0. -1.
       -2   -1    0    0    0  501  0.00000000000E+00  0.00000000000E+00 -0.64120958495E+03  0.64120958496E+03  0.25500000920E-02 0.  1.
    10030    2    1    2    0    0  0.00000000000E+00  0.00000000000E+00  0.36167324190E+03  0.16440924118E+04  0.16038180460E+04 0.  0.
        4    1    3    3  502    0 -0.46815687153E+03 -0.42921573167E+03  0.68268026047E+03  0.93244353803E+03  0.12699999809E+01 0. -1.
       -4    1    3    3    0  502  0.46815687153E+03  0.42921573167E+03 -0.32100701858E+03  0.71164887378E+03  0.12699999809E+01 0.  1.
</event>
<event>
 5   0  0.3228393E-04  0.1602764E+04  0.7818609E-02  0.8818852E-01
        2   -1    0    0  501    0  0.00000000000E+00  0.00000000000E+00  0.13274455131E+04  0.13274455131E+04  0.25500000920E-02 0. -1.
       -2   -1    0    0    0  501  0.00000000000E+00  0.00000000000E+00 -0.48379597145E+03  0.48379597146E+03  0.25500000920E-02 0.  1.
    10030    2    1    2    0    0  0.00000000000E+00  0.00000000000E+00  0.84364954166E+03  0.18112414846E+04  0.16027636027E+04 0.  0.
        1    1    3    3  502    0  0.10057850450E+03  0.51782881115E+03 -0.25992938472E+03  0.58806972230E+03  0.50400001928E-02 0.  1.
       -1    1    3    3    0  502 -0.10057850450E+03 -0.51782881115E+03  0.11035789264E+04  0.12231717623E+04  0.50400001928E-02 0. -1.
</event>
<event>
 5   0  0.1761255E-04  0.1597490E+04  0.7818609E-02  0.8822092E-01
        1   -1    0    0  501    0  0.00000000000E+00  0.00000000000E+00  0.18368262390E+04  0.18368262390E+04  0.50400001928E-02 0.  1.
       -1   -1    0    0    0  501  0.00000000000E+00  0.00000000000E+00 -0.34733456632E+03  0.34733456635E+03  0.50400001928E-02 0. -1.
    10030    2    1    2    0    0  0.00000000000E+00  0.00000000000E+00  0.14894916727E+04  0.21841608054E+04  0.15974895870E+04 0.  0.
        2    1    3    3  502    0 -0.54132095793E+03  0.10530626072E+03 -0.45275501343E+02  0.55332418984E+03  0.25500000920E-02 0. -1.
       -2    1    3    3    0  502  0.54132095793E+03 -0.10530626072E+03  0.15347671741E+04  0.16308366156E+04  0.25500000920E-02 0.  1.
</event>
<event>
 5   0  0.3210612E-04  0.1613645E+04  0.7818609E-02  0.8812209E-01
        2   -1    0    0  501    0  0.00000000000E+00  0.00000000000E+00  0.90376785619E+03  0.90376785620E+03  0.25500000920E-02 0.  1.
       -2   -1    0    0    0  501  0.00000000000E+00  0.00000000000E+00 -0.72027658237E+03  0.72027658238E+03  0.25500000920E-02 0. -1.
    10030    2    1    2    0    0  0.00000000000E+00  0.00000000000E+00  0.18349127382E+03  0.16240444386E+04  0.16136453423E+04 0.  0.
        2    1    3    3  502    0 -0.71508006915E+03  0.37062400123E+03  0.43887459937E+02  0.80661500404E+03  0.25500000920E-02 0. -1.
       -2    1    3    3    0  502  0.71508006915E+03 -0.37062400123E+03  0.13960381388E+03  0.81742943454E+03  0.25500000920E-02 0.  1.
</event>
<event>
 5   0  0.3228393E-04  0.1603441E+04  0.7818609E-02  0.8818437E-01
        2   -1    0    0  501    0  0.00000000000E+00  0.00000000000E+00  0.70605108704E+03  0.70605108705E+03  0.25500000920E-02 0.  1.
       -2   -1    0    0    0  501  0.00000000000E+00  0.00000000000E+00 -0.91035355438E+03  0.91035355438E+03  0.25500000920E-02 0. -1.
    10030    2    1    2    0    0  0.00000000000E+00  0.00000000000E+00 -0.20430246734E+03  0.16164046414E+04  0.16034414447E+04 0.  0.
        1    1    3    3  502    0 -0.17333781591E+03 -0.78274277947E+03 -0.97227135238E+02  0.80757994842E+03  0.50400001928E-02 0. -1.
       -1    1    3    3    0  502  0.17333781591E+03  0.78274277947E+03 -0.10707533210E+03  0.80882469300E+03  0.50400001928E-02 0.  1.
</event>
<event>
 5   0  0.3274900E-04  0.1630781E+04  0.7818609E-02  0.8801858E-01
       -2   -1    0    0    0  501  0.00000000000E+00  0.00000000000E+00  0.26916838928E+03  0.26916838929E+03  0.25500000920E-02 0. -1.
        2   -1    0    0  501    0  0.00000000000E+00  0.00000000000E+00 -0.24700596614E+04  0.24700596614E+04  0.25500000920E-02 0.  1.
    10030    2    1    2    0    0  0.00000000000E+00  0.00000000000E+00 -0.22008912721E+04  0.27392280507E+04  0.16307813839E+04 0.  0.
        3    1    3    3  502    0 -0.67381281693E+03 -0.82576026192E+02 -0.18591424144E+04  0.19792051535E+04  0.10100000352E+00 0.  1.
       -3    1    3    3    0  502  0.67381281693E+03  0.82576026192E+02 -0.34174885775E+03  0.76002289724E+03  0.10100000352E+00 0. -1.
</event>
<event>
 5   0  0.3210612E-04  0.1622119E+04  0.7818609E-02  0.8807074E-01
        2   -1    0    0  501    0  0.00000000000E+00  0.00000000000E+00  0.13166748464E+04  0.13166748464E+04  0.25500000920E-02 0.  1.
       -2   -1    0    0    0  501  0.00000000000E+00  0.00000000000E+00 -0.49960515259E+03  0.49960515259E+03  0.25500000920E-02 0. -1.
    10030    2    1    2    0    0  0.00000000000E+00  0.00000000000E+00  0.81706969383E+03  0.18162799990E+04  0.16221190309E+04 0.  0.
        2    1    3    3  502    0 -0.59435131722E+03  0.20332057855E+03 -0.16593002393E+03  0.64971187367E+03  0.25500000920E-02 0. -1.
       -2    1    3    3    0  502  0.59435131722E+03 -0.20332057855E+03  0.98299971777E+03  0.11665681253E+04  0.25500000920E-02 0.  1.
</event>
<event>
 5   0  0.1764099E-04  0.1582142E+04  0.7818609E-02  0.8831594E-01
       -1   -1    0    0    0  501  0.00000000000E+00  0.00000000000E+00  0.35092510254E+03  0.35092510258E+03  0.50400001928E-02 0.  1.
        1   -1    0    0  501    0  0.00000000000E+00  0.00000000000E+00 -0.17832678467E+04  0.17832678467E+04  0.50400001928E-02 0. -1.
    10030    2    1    2    0    0  0.00000000000E+00  0.00000000000E+00 -0.14323427442E+04  0.21341929493E+04  0.15821421580E+04 0.  0.
        5    1    3    3  502    0  0.10642472587E+03 -0.63161005843E+03 -0.13423897293E+04  0.14873768061E+04  0.46999998093E+01 0. -1.
       -5    1    3    3    0  502 -0.10642472587E+03  0.63161005843E+03 -0.89953014924E+02  0.64681614318E+03  0.46999998093E+01 0.  1.
</event>
<event>
 5   0  0.3263294E-04  0.1606229E+04  0.7818609E-02  0.8816731E-01
       -2   -1    0    0    0  501  0.00000000000E+00  0.00000000000E+00  0.54347715414E+03  0.54347715415E+03  0.25500000920E-02 0. -1.
        2   -1    0    0  501    0  0.00000000000E+00  0.00000000000E+00 -0.11867886943E+04  0.11867886943E+04  0.25500000920E-02 0.  1.
    10030    2    1    2    0    0  0.00000000000E+00  0.00000000000E+00 -0.64331154020E+03  0.17302658485E+04  0.16062285543E+04 0.  0.
        4    1    3    3  502    0  0.53061282455E+03  0.22056445601E+03 -0.92604613263E+03  0.10898448061E+04  0.12699999809E+01 0.  1.
       -4    1    3    3    0  502 -0.53061282455E+03 -0.22056445601E+03  0.28273459243E+03  0.64042104235E+03  0.12699999809E+01 0. -1.
</event>
<event>
 5   0  0.1736537E-04  0.1605936E+04  0.7818609E-02  0.8816910E-01
        1   -1    0    0  501    0  0.00000000000E+00  0.00000000000E+00  0.18391928260E+04  0.18391928260E+04  0.50400001928E-02 0.  1.
       -1   -1    0    0    0  501  0.00000000000E+00  0.00000000000E+00 -0.35056536831E+03  0.35056536834E+03  0.50400001928E-02 0. -1.
    10030    2    1    2    0    0  0.00000000000E+00  0.00000000000E+00  0.14886274576E+04  0.21897581943E+04  0.16059356282E+04 0.  0.
        3    1    3    3  502    0 -0.80843744899E+02 -0.18206113868E+03 -0.31633786898E+03  0.37383368877E+03  0.10100000352E+00 0. -1.
       -3    1    3    3    0  502  0.80843744899E+02  0.18206113868E+03  0.18049653266E+04  0.18159245055E+04  0.10100000352E+00 0.  1.
</event>
<event>
 5   0  0.1736537E-04  0.1596824E+04  0.7818609E-02  0.8822502E-01
        1   -1    0    0  501    0  0.00000000000E+00  0.00000000000E+00  0.94878306431E+03  0.94878306432E+03  0.50400001928E-02 0. -1.
       -1   -1    0    0    0  501  0.00000000000E+00  0.00000000000E+00 -0.67187288147E+03  0.67187288149E+03  0.50400001928E-02 0.  1.
    10030    2    1    2    0    0  0.00000000000E+00  0.00000000000E+00  0.27691018284E+03  0.16206559458E+04  0.15968238617E+04 0.  0.
        3    1    3    3  502    0 -0.73093293029E+03 -0.26525521993E+02  0.46338168479E+03  0.86584591464E+03  0.10100000352E+00 0.  1.
       -3    1    3    3    0  502  0.73093293029E+03  0.26525521993E+02 -0.18647150196E+03  0.75481003116E+03  0.10100000352E+00 0. -1.
</event>
<event>
 5   0  0.3274900E-04  0.1621429E+04  0.7818609E-02  0.8807490E-01
        2   -1    0    0  501    0  0.00000000000E+00  0.00000000000E+00  0.17702974225E+04  0.17702974225E+04  0.25500000920E-02 0. -1.
       -2   -1    0    0    0  501  0.00000000000E+00  0.00000000000E+00 -0.37126982544E+03  0.37126982545E+03  0.25500000920E-02 0.  1.
    10030    2    1    2    0    0  0.00000000000E+00  0.00000000000E+00  0.13990275971E+04  0.21415672480E+04  0.16214290179E+04 0.  0.
        3    1    3    3  502    0 -0.40405381770E+03 -0.70251463169E+03  0.67082772585E+03  0.10520437934E+04  0.10100000352E+00 0. -1.
       -3    1    3    3    0  502  0.40405381770E+03  0.70251463169E+03  0.72819987123E+03  0.10895234545E+04  0.10100000352E+00 0.  1.
</event>
<event>
 5   0  0.1219463E-04  0.1605778E+04  0.7818609E-02  0.8817006E-01
        3   -1    0    0  501    0  0.00000000000E+00  0.00000000000E+00  0.28418592561E+03  0.28418594356E+03  0.10100000352E+00 0. -1.
       -3   -1    0    0    0  501  0.00000000000E+00  0.00000000000E+00 -0.22683411661E+04  0.22683411684E+04  0.10100000352E+00 0.  1.
    10030    2    1    2    0    0  0.00000000000E+00  0.00000000000E+00 -0.19841552405E+04  0.25525271120E+04  0.16057778921E+04 0.  0.
        1    1    3    3  502    0 -0.14027456671E+03  0.46500790269E+02  0.26238055606E+03  0.30113590584E+03  0.50400001928E-02 0. -1.
       -1    1    3    3    0  502  0.14027456671E+03 -0.46500790269E+02 -0.22465357966E+04  0.22513912061E+04  0.50400001928E-02 0.  1.
</event>
<event>
 5   0  0.1736537E-04  0.1543048E+04  0.7818609E-02  0.8856321E-01
       -1   -1    0    0    0  501  0.00000000000E+00  0.00000000000E+00  0.24030058046E+04  0.24030058046E+04  0.50400001928E-02 0. -1.
        1   -1    0    0  501    0  0.00000000000E+00  0.00000000000E+00 -0.24771022165E+03  0.24771022170E+03  0.50400001928E-02 0.  1.
    10030    2    1    2    0    0  0.00000000000E+00  0.00000000000E+00  0.21552955830E+04  0.26507160263E+04  0.15430477641E+04 0.  0.
        3    1    3    3  502    0 -0.33298293737E+03  0.33027346725E+02 -0.11656999953E+03  0.35434025625E+03  0.10100000352E+00 0.  1.
       -3    1    3    3    0  502  0.33298293737E+03 -0.33027346725E+02  0.22718655825E+04  0.22963757701E+04  0.10100000352E+00 0. -1.
</event>
<event>
 5   0  0.1787688E-04  0.1572664E+04  0.7818609E-02  0.8837520E-01
       -1   -1    0    0    0  501  0.00000000000E+00  0.00000000000E+00  0.10024823686E+04  0.10024823687E+04  0.50400001928E-02 0.  1.
        1   -1    0    0  501    0  0.00000000000E+00  0.00000000000E+00 -0.61678724185E+03  0.61678724187E+03  0.50400001928E-02 0. -1.
    10030    2    1    2    0    0  0.00000000000E+00  0.00000000000E+00  0.38569512679E+03  0.16192696105E+04  0.15726644082E+04 0.  0.
        4    1    3    3  502    0 -0.18444399618E+03  0.85313149564E+02  0.97497602345E+03  0.99593061024E+03  0.12699999809E+01 0.  1.
       -4    1    3    3    0  502  0.18444399618E+03 -0.85313149564E+02 -0.58928089665E+03  0.62333900028E+03  0.12699999809E+01 0. -1.
</event>
<event>
 5   0  0.1764099E-04  0.1587696E+04  0.7818609E-02  0.8828143E-01
        1   -1    0    0  501    0  0.00000000000E+00  0.00000000000E+00  0.16590776380E+04  0.16590776380E+04  0.50400001928E-02 0.  1.
       -1   -1    0    0    0  501  0.00000000000E+00  0.00000000000E+00 -0.37984647094E+03  0.37984647097E+03  0.50400001928E-02 0. -1.
    10030    2    1    2    0    0  0.00000000000E+00  0.00000000000E+00  0.12792311671E+04  0.20389241090E+04  0.15876961748E+04 0.  0.
        5    1    3    3  502    0  0.39498290376E+03 -0.34725724565E+03 -0.12399788915E+03  0.54036714873E+03  0.46999998093E+01 0. -1.
       -5    1    3    3    0  502 -0.39498290376E+03  0.34725724565E+03  0.14032290562E+04  0.14985569603E+04  0.46999998093E+01 0.  1.
</event>
<event>
 5   0  0.1787688E-04  0.1604499E+04  0.7818609E-02  0.8817789E-01
        1   -1    0    0  501    0  0.00000000000E+00  0.00000000000E+00  0.60916259880E+03  0.60916259882E+03  0.50400001928E-02 0.  1.
       -1   -1    0    0    0  501  0.00000000000E+00  0.00000000000E+00 -0.10565394914E+04  0.10565394914E+04  0.50400001928E-02 0. -1.
    10030    2    1    2    0    0  0.00000000000E+00  0.00000000000E+00 -0.44737689258E+03  0.16657020902E+04  0.16044991023E+04 0.  0.
        4    1    3    3  502    0 -0.19029182573E+02 -0.63172079209E+01 -0.10562782935E+04  0.10564693385E+04  0.12699999809E+01 0. -1.
       -4    1    3    3    0  502  0.19029182573E+02  0.63172079209E+01  0.60890140090E+03  0.60923275177E+03  0.12699999809E+01 0.  1.
</event>
<event>
 5   0  0.3228393E-04  0.1600799E+04  0.7818609E-02  0.8820057E-01
       -2   -1    0    0    0  501  0.00000000000E+00  0.00000000000E+00  0.70104171991E+03  0.70104171991E+03  0.25500000920E-02 0.  1.
        2   -1    0    0  501    0  0.00000000000E+00  0.00000000000E+00 -0.91383962144E+03  0.91383962144E+03  0.25500000920E-02 0. -1.
    10030    2    1    2    0    0  0.00000000000E+00  0.00000000000E+00 -0.21279790153E+03  0.16148813414E+04  0.16007994252E+04 0.  0.
        1    1    3    3  502    0  0.21098787540E+03 -0.59839410664E+03  0.38579497281E+03  0.74258275734E+03  0.50400001928E-02 0.  1.
       -1    1    3    3    0  502 -0.21098787540E+03  0.59839410664E+03 -0.59859287435E+03  0.87229858401E+03  0.50400001928E-02 0. -1.
</event>
<event>
 5   0  0.1819811E-04  0.1599137E+04  0.7818609E-02  0.8821078E-01
       -1   -1    0    0    0  501  0.00000000000E+00  0.00000000000E+00  0.55870147150E+03  0.55870147152E+03  0.50400001928E-02 0.  1.
        1   -1    0    0  501    0  0.00000000000E+00  0.00000000000E+00 -0.11442777797E+04  0.11442777797E+04  0.50400001928E-02 0. -1.
    10030    2    1    2    0    0  0.00000000000E+00  0.00000000000E+00 -0.58557630819E+03  0.17029792512E+04  0.15991368664E+04 0.  0.
        1    1    3    3  502    0 -0.56955310107E+03 -0.54926912429E+03 -0.17033261596E+03  0.80938279320E+03  0.50400001928E-02 0. -1.
       -1    1    3    3    0  502  0.56955310107E+03  0.54926912429E+03 -0.41524369223E+03  0.89359645803E+03  0.50400001928E-02 0.  1.
</event>
<event>
 5   0  0.3274900E-04  0.1595855E+04  0.7818609E-02  0.8823099E-01
        2   -1    0    0  501    0  0.00000000000E+00  0.00000000000E+00  0.17538871656E+04  0.17538871656E+04  0.25500000920E-02 0.  1.
       -2   -1    0    0    0  501  0.00000000000E+00  0.00000000000E+00 -0.36301546690E+03  0.36301546691E+03  0.25500000920E-02 0. -1.
    10030    2    1    2    0    0  0.00000000000E+00  0.00000000000E+00  0.13908716987E+04  0.21169026325E+04  0.15958548409E+04 0.  0.
        3    1    3    3  502    0  0.72515543601E+03  0.18645224595E+03  0.32956849570E+03  0.81806494239E+03  0.10100000352E+00 0. -1.
       -3    1    3    3    0  502 -0.72515543601E+03 -0.18645224595E+03  0.10613032030E+04  0.12988376901E+04  0.10100000352E+00 0.  1.
</event>
<event>
 5   0  0.3263294E-04  0.1595133E+04  0.7818609E-02  0.8823544E-01
        2   -1    0    0  501    0  0.00000000000E+00  0.00000000000E+00  0.98145781378E+03  0.98145781379E+03  0.25500000920E-02 0. -1.
       -2   -1    0    0    0  501  0.00000000000E+00  0.00000000000E+00 -0.64813013010E+03  0.64813013011E+03  0.25500000920E-02 0.  1.
    10030    2    1    2    0    0  0.00000000000E+00  0.00000000000E+00  0.33332768368E+03  0.16295879439E+04  0.15951330735E+04 0.  0.
        4    1    3    3  502    0 -0.29073131451E+03 -0.28560006723E+02 -0.59150542829E+03  0.65971255545E+03  0.12699999809E+01 0.  1.
       -4    1    3    3    0  502  0.29073131451E+03  0.28560006723E+02  0.92483311197E+03  0.96987538845E+03  0.12699999809E+01 0. -1.
</event>
<event>
 5   0  0.1787688E-04  0.1622193E+04  0.7818609E-02  0.8807029E-01
       -1   -1    0    0    0  501  0.00000000000E+00  0.00000000000E+00  0.13686235555E+04  0.13686235555E+04  0.50400001928E-02 0. -1.
        1   -1    0    0  501    0  0.00000000000E+00  0.00000000000E+00 -0.48068577176E+03  0.48068577178E+03  0.50400001928E-02 0.  1.
    10030    2    1    2    0    0  0.00000000000E+00  0.00000000000E+00  0.88793778374E+03  0.18493093273E+04  0.16221934164E+04 0.  0.
        4    1    3    3  502    0 -0.13602786114E+03  0.11442051238E+03 -0.45820740709E+03  0.49147866025E+03  0.12699999809E+01 0.  1.
       -4    1    3    3    0  502  0.13602786114E+03 -0.11442051238E+03  0.13461451908E+04  0.13578306670E+04  0.12699999809E+01 0. -1.
</event>
<event>
 5   0  0.1819811E-04  0.1599147E+04  0.7818609E-02  0.8821072E-01
       -1   -1    0    0    0  501  0.00000000000E+00  0.00000000000E+00  0.32395376422E+03  0.32395376426E+03  0.50400001928E-02 0.  1.
        1   -1    0    0  501    0  0.00000000000E+00  0.00000000000E+00 -0.19734848451E+04  0.19734848451E+04  0.50400001928E-02 0. -1.
    10030    2    1    2    0    0  0.00000000000E+00  0.00000000000E+00 -0.16495310809E+04  0.22974386094E+04  0.15991470780E+04 0.  0.
        1    1    3    3  502    0  0.68287340301E+02  0.26328850756E+03  0.25544397755E+03  0.37314290124E+03  0.50400001928E-02 0.  1.
       -1    1    3    3    0  502 -0.68287340301E+02 -0.26328850756E+03 -0.19049750585E+04  0.19242957082E+04  0.50400001928E-02 0. -1.
</event>
<event>
 5   0  0.3210612E-04  0.1596182E+04  0.7818609E-02  0.8822897E-01
       -2   -1    0    0    0  501  0.00000000000E+00  0.00000000000E+00  0.24890149030E+03  0.24890149031E+03  0.25500000920E-02 0. -1.
        2   -1    0    0  501    0  0.00000000000E+00  0.00000000000E+00 -0.25590404445E+04  0.25590404445E+04  0.25500000920E-02 0.  1.
    10030    2    1    2    0    0  0.00000000000E+00  0.00000000000E+00 -0.23101389542E+04  0.28079419348E+04  0.15961816693E+04 0.  0.
        2    1    3    3  502    0  0.91957134785E+02  0.40420223371E+03  0.44665274990E+02  0.41692990678E+03  0.25500000920E-02 0. -1.
       -2    1    3    3    0  502 -0.91957134785E+02 -0.40420223371E+03 -0.23548042291E+04  0.23910120280E+04  0.25500000920E-02 0.  1.
</event>
<event>
 5   0  0.3274900E-04  0.1604114E+04  0.7818609E-02  0.8818025E-01
       -2   -1    0    0    0  501  0.00000000000E+00  0.00000000000E+00  0.44089275782E+03  0.44089275783E+03  0.25500000920E-02 0.  1.
        2   -1    0    0  501    0  0.00000000000E+00  0.00000000000E+00 -0.14590743453E+04  0.14590743453E+04  0.25500000920E-02 0. -1.
    10030    2    1    2    0    0  0.00000000000E+00  0.00000000000E+00 -0.10181815875E+04  0.18999671031E+04  0.16041138513E+04 0.  0.
        3    1    3    3  502    0  0.53545301286E+03  0.79209066728E+02 -0.12101229891E+04  0.13256627264E+04  0.10100000352E+00 0. -1.
       -3    1    3    3    0  502 -0.53545301286E+03 -0.79209066728E+02  0.19194140165E+03  0.57430437670E+03  0.10100000352E+00 0.  1.
</event>
<event>
 5   0  0.1787688E-04  0.1595649E+04  0.7818609E-02  0.8823225E-01
        1   -1    0    0  501    0  0.00000000000E+00  0.00000000000E+00  0.67445791938E+03  0.67445791940E+03  0.50400001928E-02 0.  1.
       -1   -1    0    0    0  501  0.00000000000E+00  0.00000000000E+00 -0.94375688510E+03  0.94375688511E+03  0.50400001928E-02 0. -1.
    10030    2    1    2    0    0  0.00000000000E+00  0.00000000000E+00 -0.26929896572E+03  0.16182148045E+04  0.15956494667E+04 0.  0.
        4    1    3    3  502    0 -0.71213937569E+03 -0.11168965158E+03 -0.48139941123E+03  0.86681259492E+03  0.12699999809E+01 0. -1.
       -4    1    3    3    0  502  0.71213937569E+03  0.11168965158E+03  0.21210044552E+03  0.75140220959E+03  0.12699999809E+01 0.  1.
</event>
<event>
 5   0  0.1761255E-04  0.1597959E+04  0.7818609E-02  0.8821803E-01
       -1   -1    0    0    0  501  0.00000000000E+00  0.00000000000E+00  0.59004009566E+03  0.59004009568E+03  0.50400001928E-02 0. -1.
        1   -1    0    0  501    0  0.00000000000E+00  0.00000000000E+00 -0.10819067931E+04  0.10819067931E+04  0.50400001928E-02 0.  1.
    10030    2    1    2    0    0  0.00000000000E+00  0.00000000000E+00 -0.49186669741E+03  0.16719468888E+04  0.15979591831E+04 0.  0.
        2    1    3    3  502    0  0.62821846764E+03  0.43922404923E+03 -0.48173954817E+03  0.90534479663E+03  0.25500000920E-02 0. -1.
       -2    1    3    3    0  502 -0.62821846764E+03 -0.43922404923E+03 -0.10127149245E+02  0.76660209213E+03  0.25500000920E-02 0.  1.
</event>
<event>
 5   0  0.1819811E-04  0.1605032E+04  0.7818609E-02  0.8817462E-01
        1   -1    0    0  501    0  0.00000000000E+00  0.00000000000E+00  0.87295095464E+03  0.87295095465E+03  0.50400001928E-02 0. -1.
       -1   -1    0    0    0  501  0.00000000000E+00  0.00000000000E+00 -0.73776459083E+03  0.73776459085E+03  0.50400001928E-02 0.  1.
    10030    2    1    2    0    0  0.00000000000E+00  0.00000000000E+00  0.13518636380E+03  0.16107155455E+04  0.16050324656E+04 0.  0.
        1    1    3    3  502    0 -0.55684732587E+03 -0.31869331874E+03 -0.41618002369E+03  0.76475498553E+03  0.50400001928E-02 0. -1.
       -1    1    3    3    0  502  0.55684732587E+03  0.31869331874E+03  0.55136638749E+03  0.84596055997E+03  0.50400001928E-02 0.  1.
</event>
<event>
 5   0  0.3210612E-04  0.1591691E+04  0.7818609E-02  0.8825669E-01
       -2   -1    0    0    0  501  0.00000000000E+00  0.00000000000E+00  0.45017532667E+03  0.45017532667E+03  0.25500000920E-02 0. -1.
        2   -1    0    0  501    0  0.00000000000E+00  0.00000000000E+00 -0.14069409310E+04  0.14069409310E+04  0.25500000920E-02 0.  1.
    10030    2    1    2    0    0  0.00000000000E+00  0.00000000000E+00 -0.95676560433E+03  0.18571162577E+04  0.15916910419E+04 0.  0.
        2    1    3    3  502    0 -0.64702416149E+03  0.39977956437E+03 -0.20498770171E+03  0.78770801919E+03  0.25500000920E-02 0. -1.
       -2    1    3    3    0  502  0.64702416149E+03 -0.39977956437E+03 -0.75177790263E+03  0.10694082385E+04  0.25500000920E-02 0.  1.
</event>
<event>
 5   0  0.1764099E-04  0.1584203E+04  0.7818609E-02  0.8830312E-01
        1   -1    0    0  501    0  0.00000000000E+00  0.00000000000E+00  0.88060837545E+03  0.88060837546E+03  0.50400001928E-02 0.  1.
       -1   -1    0    0    0  501  0.00000000000E+00  0.00000000000E+00 -0.71249050715E+03  0.71249050717E+03  0.50400001928E-02 0. -1.
    10030    2    1    2    0    0  0.00000000000E+00  0.00000000000E+00  0.16811786829E+03  0.15930988826E+04  0.15842034062E+04 0.  0.
        5    1    3    3  502    0 -0.59691383568E+03  0.31121964608E+03 -0.33570464360E+03  0.75225228020E+03  0.46999998093E+01 0. -1.
       -5    1    3    3    0  502  0.59691383568E+03 -0.31121964608E+03  0.50382251189E+03  0.84084660243E+03  0.46999998093E+01 0.  1.
</event>
<event>
 5   0  0.1736537E-04  0.1547914E+04  0.7818609E-02  0.8853201E-01
       -1   -1    0    0    0  501  0.00000000000E+00  0.00000000000E+00  0.29675564265E+03  0.29675564269E+03  0.50400001928E-02 0.  1.
        1   -1    0    0  501    0  0.00000000000E+00  0.00000000000E+00 -0.20185286084E+04  0.20185286084E+04  0.50400001928E-02 0. -1.
    10030    2    1    2    0    0  0.00000000000E+00  0.00000000000E+00 -0.17217729658E+04  0.23152842511E+04  0.15479144091E+04 0.  0.
        3    1    3    3  502    0  0.56814444125E+03  0.14062906376E+03 -0.16183375489E+04  0.17209244818E+04  0.10100000352E+00 0. -1.
       -3    1    3    3    0  502 -0.56814444125E+03 -0.14062906376E+03 -0.10343541685E+03  0.59435976929E+03  0.10100000352E+00 0.  1.
</event>
<event>
 5   0  0.3274900E-04  0.1590889E+04  0.7818609E-02  0.8826165E-01
        2   -1    0    0  501    0  0.00000000000E+00  0.00000000000E+00  0.22969704371E+04  0.22969704371E+04  0.25500000920E-02 0.  1.
       -2   -1    0    0    0  501  0.00000000000E+00  0.00000000000E+00 -0.27546371066E+03  0.27546371067E+03  0.25500000920E-02 0. -1.
    10030    2    1    2    0    0  0.00000000000E+00  0.00000000000E+00  0.20215067264E+04  0.25724341477E+04  0.15908890595E+04 0.  0.
        3    1    3    3  502    0  0.55062528516E+02  0.30670801267E+03  0.21941680100E+04  0.22161847742E+04  0.10100000352E+00 0.  1.
       -3    1    3    3    0  502 -0.55062528516E+02 -0.30670801267E+03 -0.17266128361E+03  0.35624937353E+03  0.10100000352E+00 0. -1.
</event>
<event>
 5   0  0.3274900E-04  0.1595601E+04  0.7818609E-02  0.8823255E-01
        2   -1    0    0  501    0  0.00000000000E+00  0.00000000000E+00  0.70363274319E+03  0.70363274320E+03  0.25500000920E-02 0.  1.
       -2   -1    0    0    0  501  0.00000000000E+00  0.00000000000E+00 -0.90457065270E+03  0.90457065270E+03  0.25500000920E-02 0. -1.
    10030    2    1    2    0    0  0.00000000000E+00  0.00000000000E+00 -0.20093790951E+03  0.16082033959E+04  0.15956008646E+04 0.  0.
        3    1    3    3  502    0  0.62277165914E+03  0.47909922851E+03  0.38843262015E+02  0.78669525192E+03  0.10100000352E+00 0.  1.
       -3    1    3    3    0  502 -0.62277165914E+03 -0.47909922851E+03 -0.23978117152E+03  0.82150814397E+03  0.10100000352E+00 0. -1.
</event>
<event>
 5   0  0.1819811E-04  0.1597160E+04  0.7818609E-02  0.8822294E-01
        1   -1    0    0  501    0  0.00000000000E+00  0.00000000000E+00  0.19549973787E+04  0.19549973787E+04  0.50400001928E-02 0. -1.
       -1   -1    0    0    0  501  0.00000000000E+00  0.00000000000E+00 -0.32620519900E+03  0.32620519904E+03  0.50400001928E-02 0.  1.
    10030    2    1    2    0    0  0.00000000000E+00  0.00000000000E+00  0.16287921797E+04  0.22812025778E+04  0.15971603664E+04 0.  0.
        1    1    3    3  502    0  0.33024399489E+03  0.64433574797E+03  0.33320839120E+03  0.79703041614E+03  0.50400001928E-02 0.  1.
       -1    1    3    3    0  502 -0.33024399489E+03 -0.64433574797E+03  0.12955837885E+04  0.14841721617E+04  0.50400001928E-02 0. -1.
</event>
<event>
 5   0  0.3228393E-04  0.1599375E+04  0.7818609E-02  0.8820932E-01
       -2   -1    0    0    0  501  0.00000000000E+00  0.00000000000E+00  0.46884976101E+03  0.46884976102E+03  0.25500000920E-02 0. -1.
        2   -1    0    0  501    0  0.00000000000E+00  0.00000000000E+00 -0.13639760170E+04  0.13639760170E+04  0.25500000920E-02 0.  1.
    10030    2    1    2    0    0  0.00000000000E+00  0.00000000000E+00 -0.89512625595E+03  0.18328257780E+04  0.15993746648E+04 0.  0.
        1    1    3    3  502    0  0.17518719501E+03  0.73328528458E+03 -0.14199237667E+03  0.76717644446E+03  0.50400001928E-02 0. -1.
       -1    1    3    3    0  502 -0.17518719501E+03 -0.73328528458E+03 -0.75313387928E+03  0.10656493335E+04  0.50400001928E-02 0.  1.
</event>
<event>
 5   0  0.1761255E-04  0.1597634E+04  0.7818609E-02  0.8822003E-01
        1   -1    0    0  501    0  0.00000000000E+00  0.00000000000E+00  0.82542857938E+03  0.82542857939E+03  0.50400001928E-02 0. -1.
       -1   -1    0    0    0  501  0.00000000000E+00  0.00000000000E+00 -0.77306347449E+03  0.77306347451E+03  0.50400001928E-02 0.  1.
    10030    2    1    2    0    0  0.00000000000E+00  0.00000000000E+00  0.52365104885E+02  0.15984920539E+04  0.15976341077E+04 0.  0.
        2    1    3    3  502    0 -0.13885420360E+03 -0.18958105697E+03  0.79006305333E+03  0.82427003783E+03  0.25500000920E-02 0. -1.
       -2    1    3    3    0  502  0.13885420360E+03  0.18958105697E+03 -0.73769794845E+03  0.77422201607E+03  0.25500000920E-02 0.  1.
</event>
<event>
 5   0  0.1819811E-04  0.1582428E+04  0.7818609E-02  0.8831417E-01
        1   -1    0    0  501    0  0.00000000000E+00  0.00000000000E+00  0.23063394712E+04  0.23063394712E+04  0.50400001928E-02 0.  1.
       -1   -1    0    0    0  501  0.00000000000E+00  0.00000000000E+00 -0.27143414982E+03  0.27143414986E+03  0.50400001928E-02 0. -1.
    10030    2    1    2    0    0  0.00000000000E+00  0.00000000000E+00  0.20349053214E+04  0.25777736211E+04  0.15824276206E+04 0.  0.
        1    1    3    3  502    0  0.22428224061E+03 -0.75604357765E+03  0.91295671368E+03  0.12063972711E+04  0.50400001928E-02 0.  1.
       -1    1    3    3    0  502 -0.22428224061E+03  0.75604357765E+03  0.11219486077E+04  0.13713763499E+04  0.50400001928E-02 0. -1.
</event>
<event>
 5   0  0.1219463E-04  0.1592871E+04  0.7818609E-02  0.8824939E-01
        4   -1    0    0  501    0  0.00000000000E+00  0.00000000000E+00  0.14683765081E+04  0.14683770573E+04  0.12699999809E+01 0. -1.
       -4   -1    0    0    0  501  0.00000000000E+00  0.00000000000E+00 -0.43197879362E+03  0.43198066049E+03  0.12699999809E+01 0.  1.
    10030    2    1    2    0    0  0.00000000000E+00  0.00000000000E+00  0.10363977145E+04  0.19003577178E+04  0.15928713799E+04 0.  0.
        4    1    3    3  502    0  0.34276121767E+02  0.13466610023E+03  0.14538019252E+04  0.14604285199E+04  0.12699999809E+01 0. -1.
       -4    1    3    3    0  502 -0.34276121767E+02 -0.13466610023E+03 -0.41740421076E+03  0.43992919787E+03  0.12699999809E+01 0.  1.
</event>
<event>
 5   0  0.3228393E-04  0.1607106E+04  0.7818609E-02  0.8816195E-01
        2   -1    0    0  501    0  0.00000000000E+00  0.00000000000E+00  0.11026614258E+04  0.11026614258E+04  0.25500000920E-02 0.  1.
       -2   -1    0    0    0  501  0.00000000000E+00  0.00000000000E+00 -0.58558055909E+03  0.58558055910E+03  0.25500000920E-02 0. -1.
    10030    2    1    2    0    0  0.00000000000E+00  0.00000000000E+00  0.51708086668E+03  0.16882419849E+04  0.16071055898E+04 0.  0.
        1    1    3    3  502    0  0.44986329392E+01 -0.76148876556E+02  0.10988492956E+04  0.11014938328E+04  0.50400001928E-02 0.  1.
       -1    1    3    3    0  502 -0.44986329392E+01  0.76148876556E+02 -0.58176842893E+03  0.58674815212E+03  0.50400001928E-02 0. -1.
</event>
<event>
 5   0  0.1761255E-04  0.1593073E+04  0.7818609E-02  0.8824815E-01
        1   -1    0    0  501    0  0.00000000000E+00  0.00000000000E+00  0.12349424005E+04  0.12349424005E+04  0.50400001928E-02 0. -1.
       -1   -1    0    0    0  501  0.00000000000E+00  0.00000000000E+00 -0.51376542704E+03  0.51376542707E+03  0.50400001928E-02 0.  1.
    10030    2    1    2    0    0  0.00000000000E+00  0.00000000000E+00  0.72117697347E+03  0.17487078276E+04  0.15930733942E+04 0.  0.
        2    1    3    3  502    0  0.12993957052E+03  0.66075832481E+03 -0.10639614180E+03  0.68176681849E+03  0.25500000920E-02 0.  1.
       -2    1    3    3    0  502 -0.12993957052E+03 -0.66075832481E+03  0.82757311527E+03  0.10669410091E+04  0.25500000920E-02 0. -1.
</event>
<event>
 5   0  0.1761255E-04  0.1603676E+04  0.7818609E-02  0.8818293E-01
       -1   -1    0    0    0  501  0.00000000000E+00  0.00000000000E+00  0.12460015257E+04  0.12460015257E+04  0.50400001928E-02 0. -1.
        1   -1    0    0  501    0  0.00000000000E+00  0.00000000000E+00 -0.51600588704E+03  0.51600588706E+03  0.50400001928E-02 0.  1.
    10030    2    1    2    0    0  0.00000000000E+00  0.00000000000E+00  0.72999563870E+03  0.17620074128E+04  0.16036759306E+04 0.  0.
        2    1    3    3  502    0  0.79494423726E+03 -0.42135059592E+01  0.48018138829E+03  0.92872399541E+03  0.25500000920E-02 0. -1.
       -2    1    3    3    0  502 -0.79494423726E+03  0.42135059592E+01  0.24981425041E+03  0.83328341739E+03  0.25500000920E-02 0.  1.
</event>
<event>
 5   0  0.3210612E-04  0.1430715E+04  0.7818609E-02  0.8931881E-01
        2   -1    0    0  501    0  0.00000000000E+00  0.00000000000E+00  0.96674152936E+03  0.96674152936E+03  0.25500000920E-02 0. -1.
       -2   -1    0    0    0  501  0.00000000000E+00  0.00000000000E+00 -0.52934117461E+03  0.52934117462E+03  0.25500000920E-02 0.  1.
    10030    2    1    2    0    0  0.00000000000E+00  0.00000000000E+00  0.43740035474E+03  0.14960827040E+04  0.14307146420E+04 0.  0.
        2    1    3    3  502    0  0.52768507060E+03  0.30960722528E+03 -0.16895008419E+03  0.63470646651E+03  0.25500000920E-02 0.  1.
       -2    1    3    3    0  502 -0.52768507060E+03 -0.30960722528E+03  0.60635043893E+03  0.86137623747E+03  0.25500000920E-02 0. -1.
</event>
<event>
 5   0  0.1736537E-04  0.1607456E+04  0.7818609E-02  0.8815980E-01
        1   -1    0    0  501    0  0.00000000000E+00  0.00000000000E+00  0.11893610792E+04  0.11893610792E+04  0.50400001928E-02 0. -1.
       -1   -1    0    0    0  501  0.00000000000E+00  0.00000000000E+00 -0.54313103654E+03  0.54313103656E+03  0.50400001928E-02 0.  1.
    10030    2    1    2    0    0  0.00000000000E+00  0.00000000000E+00  0.64623004269E+03  0.17324921158E+04  0.16074562710E+04 0.  0.
        3    1    3    3  502    0 -0.27898824587E+03  0.40716928224E+03 -0.36054191682E+03  0.61123788308E+03  0.10100000352E+00 0.  1.
       -3    1    3    3    0  502  0.27898824587E+03 -0.40716928224E+03  0.10067719595E+04  0.11212542327E+04  0.10100000352E+00 0. -1.
</event>
<event>
 5   0  0.3380454E-04  0.1588821E+04  0.7818609E-02  0.8827446E-01
        2   -1    0    0  501    0  0.00000000000E+00  0.00000000000E+00  0.70695758891E+03  0.70695758891E+03  0.25500000920E-02 0. -1.
       -2   -1    0    0    0  501  0.00000000000E+00  0.00000000000E+00 -0.89268113239E+03  0.89268113240E+03  0.25500000920E-02 0.  1.
    10030    2    1    2    0    0  0.00000000000E+00  0.00000000000E+00 -0.18572354348E+03  0.15996387213E+04  0.15888205701E+04 0.  0.
        5    1    3    3  502    0 -0.52320869701E+03  0.58631436310E+03  0.24351448543E+02  0.78621050365E+03  0.46999998093E+01 0. -1.
       -5    1    3    3    0  502  0.52320869701E+03 -0.58631436310E+03 -0.21007499203E+03  0.81342821766E+03  0.46999998093E+01 0.  1.
</event>
<event>
 5   0  0.1736537E-04  0.1601524E+04  0.7818609E-02  0.8819612E-01
       -1   -1    0    0    0  501  0.00000000000E+00  0.00000000000E+00  0.12958473098E+04  0.12958473098E+04  0.50400001928E-02 0. -1.
        1   -1    0    0  501    0  0.00000000000E+00  0.00000000000E+00 -0.49482669349E+03  0.49482669352E+03  0.50400001928E-02 0.  1.
    10030    2    1    2    0    0  0.00000000000E+00  0.00000000000E+00  0.80102061630E+03  0.17906740033E+04  0.16015240736E+04 0.  0.
        3    1    3    3  502    0 -0.41867172634E+03 -0.66573241870E+03  0.23192391104E+03  0.81992339792E+03  0.10100000352E+00 0.  1.
       -3    1    3    3    0  502  0.41867172634E+03  0.66573241870E+03  0.56909670526E+03  0.97075060540E+03  0.10100000352E+00 0. -1.
</event>
<event>
 5   0  0.3210612E-04  0.1603973E+04  0.7818609E-02  0.8818111E-01
        2   -1    0    0  501    0  0.00000000000E+00  0.00000000000E+00  0.87457656418E+03  0.87457656418E+03  0.25500000920E-02 0.  1.
       -2   -1    0    0    0  501  0.00000000000E+00  0.00000000000E+00 -0.73542173807E+03  0.73542173808E+03  0.25500000920E-02 0. -1.
    10030    2    1    2    0    0  0.00000000000E+00  0.00000000000E+00  0.13915482610E+03  0.16099983023E+04  0.16039733376E+04 0.  0.
        2    1    3    3  502    0 -0.43877664802E+03 -0.24957654042E+03  0.69511105989E+03  0.85906506271E+03  0.25500000920E-02 0.  1.
       -2    1    3    3    0  502  0.43877664802E+03  0.24957654042E+03 -0.55595623378E+03  0.75093323955E+03  0.25500000920E-02 0. -1.
</event>
<event>
 5   0  0.3210612E-04  0.1622126E+04  0.7818609E-02  0.8807069E-01
        2   -1    0    0  501    0  0.00000000000E+00  0.00000000000E+00  0.86695035990E+03  0.86695035991E+03  0.25500000920E-02 0.  1.
       -2   -1    0    0    0  501  0.00000000000E+00  0.00000000000E+00 -0.75877859609E+03  0.75877859610E+03  0.25500000920E-02 0. -1.
    10030    2    1    2    0    0  0.00000000000E+00  0.00000000000E+00  0.10817176381E+03  0.16257289560E+04  0.16221262306E+04 0.  0.
        2    1    3    3  502    0 -0.36553131041E+02 -0.63049346682E+03  0.56410238111E+03  0.84679964542E+03  0.25500000920E-02 0.  1.
       -2    1    3    3    0  502  0.36553131041E+02  0.63049346682E+03 -0.45593061730E+03  0.77892931059E+03  0.25500000920E-02 0. -1.
</event>
<event>
 5   0  0.1819811E-04  0.1603816E+04  0.7818609E-02  0.8818207E-01
        1   -1    0    0  501    0  0.00000000000E+00  0.00000000000E+00  0.12537266933E+04  0.12537266933E+04  0.50400001928E-02 0. -1.
       -1   -1    0    0    0  501  0.00000000000E+00  0.00000000000E+00 -0.51291598618E+03  0.51291598620E+03  0.50400001928E-02 0.  1.
    10030    2    1    2    0    0  0.00000000000E+00  0.00000000000E+00  0.74081070714E+03  0.17666426795E+04  0.16038160285E+04 0.  0.
        1    1    3    3  502    0 -0.57366382239E+03  0.51252140364E+03  0.61986623028E+03  0.98792839507E+03  0.50400001928E-02 0. -1.
       -1    1    3    3    0  502  0.57366382239E+03 -0.51252140364E+03  0.12094447686E+03  0.77871428446E+03  0.50400001928E-02 0.  1.
</event>
<event>
 5   0  0.3274900E-04  0.1599263E+04  0.7818609E-02  0.8821001E-01
       -2   -1    0    0    0  501  0.00000000000E+00  0.00000000000E+00  0.58906226838E+03  0.58906226839E+03  0.25500000920E-02 0. -1.
        2   -1    0    0  501    0  0.00000000000E+00  0.00000000000E+00 -0.10854719118E+04  0.10854719118E+04  0.25500000920E-02 0.  1.
    10030    2    1    2    0    0  0.00000000000E+00  0.00000000000E+00 -0.49640964344E+03  0.16745341802E+04  0.15992630136E+04 0.  0.
        3    1    3    3  502    0  0.24178723779E+03 -0.89285683369E+02 -0.10407844777E+04  0.10722244825E+04  0.10100000352E+00 0.  1.
       -3    1    3    3    0  502 -0.24178723779E+03  0.89285683369E+02  0.54437483426E+03  0.60230969773E+03  0.10100000352E+00 0. -1.
</event>
<event>
 5   0  0.3210612E-04  0.1595786E+04  0.7818609E-02  0.8823141E-01
       -2   -1    0    0    0  501  0.00000000000E+00  0.00000000000E+00  0.26440918158E+03  0.26440918160E+03  0.25500000920E-02 0.  1.
        2   -1    0    0  501    0  0.00000000000E+00  0.00000000000E+00 -0.24077575359E+04  0.24077575359E+04  0.25500000920E-02 0. -1.
    10030    2    1    2    0    0  0.00000000000E+00  0.00000000000E+00 -0.21433483543E+04  0.26721667175E+04  0.15957859500E+04 0.  0.
        2    1    3    3  502    0 -0.70803612264E+03  0.14090292031E+03 -0.16406751309E+04  0.17924797541E+04  0.25500000920E-02 0. -1.
       -2    1    3    3    0  502  0.70803612264E+03 -0.14090292031E+03 -0.50267322342E+03  0.87968696334E+03  0.25500000920E-02 0.  1.
</event>
<event>
 5   0  0.1736537E-04  0.1597054E+04  0.7818609E-02  0.8822360E-01
        1   -1    0    0  501    0  0.00000000000E+00  0.00000000000E+00  0.16756769863E+04  0.16756769863E+04  0.50400001928E-02 0.  1.
       -1   -1    0    0    0  501  0.00000000000E+00  0.00000000000E+00 -0.38053000540E+03  0.38053000543E+03  0.50400001928E-02 0. -1.
    10030    2    1    2    0    0  0.00000000000E+00  0.00000000000E+00  0.12951469809E+04  0.20562069918E+04  0.15970540037E+04 0.  0.
        3    1    3    3  502    0 -0.67055245339E+03 -0.34866576281E+03  0.97943133741E+03  0.12371314246E+04  0.10100000352E+00 0.  1.
       -3    1    3    3    0  502  0.67055245339E+03  0.34866576281E+03  0.31571564351E+03  0.81907556713E+03  0.10100000352E+00 0. -1.
</event>
<event>
 5   0  0.1736537E-04  0.1609607E+04  0.7818609E-02  0.8814668E-01
       -1   -1    0    0    0  501  0.00000000000E+00  0.00000000000E+00  0.69692647521E+03  0.69692647523E+03  0.50400001928E-02 0.  1.
        1   -1    0    0  501    0  0.00000000000E+00  0.00000000000E+00 -0.92937871540E+03  0.92937871542E+03  0.50400001928E-02 0. -1.
    10030    2    1    2    0    0  0.00000000000E+00  0.00000000000E+00 -0.23245224019E+03  0.16263051906E+04  0.16096069487E+04 0.  0.
        3    1    3    3  502    0  0.13268967322E+03  0.76371038206E+03  0.10246450756E+03  0.78189454696E+03  0.10100000352E+00 0.  1.
       -3    1    3    3    0  502 -0.13268967322E+03 -0.76371038206E+03 -0.33491674775E+03  0.84441064369E+03  0.10100000352E+00 0. -1.
</event>
<event>
 5   0  0.1787688E-04  0.1600662E+04  0.7818609E-02  0.8820141E-01
        1   -1    0    0  501    0  0.00000000000E+00  0.00000000000E+00  0.95094791715E+03  0.95094791717E+03  0.50400001928E-02 0.  1.
       -1   -1    0    0    0  501  0.00000000000E+00  0.00000000000E+00 -0.67356999193E+03  0.67356999195E+03  0.50400001928E-02 0. -1.
    10030    2    1    2    0    0  0.00000000000E+00  0.00000000000E+00  0.27737792522E+03  0.16245179091E+04  0.16006623390E+04 0.  0.
        4    1    3    3  502    0  0.40913034165E+03 -0.55852217405E+03  0.54616195224E+03  0.88183283356E+03  0.12699999809E+01 0.  1.
       -4    1    3    3    0  502 -0.40913034165E+03  0.55852217405E+03 -0.26878402701E+03  0.74268507555E+03  0.12699999809E+01 0. -1.
</event>
<event>
 5   0  0.3274900E-04  0.1594764E+04  0.7818609E-02  0.8823771E-01
        2   -1    0    0  501    0  0.00000000000E+00  0.00000000000E+00  0.14915383275E+04  0.14915383275E+04  0.25500000920E-02 0. -1.
       -2   -1    0    0    0  501  0.00000000000E+00  0.00000000000E+00 -0.42628336840E+03  0.42628336841E+03  0.25500000920E-02 0.  1.
    10030    2    1    2    0    0  0.00000000000E+00  0.00000000000E+00  0.10652549591E+04  0.19178216959E+04  0.15947639102E+04 0.  0.
        3    1    3    3  502    0 -0.15136229040E+03 -0.66927170413E+03  0.10210899296E+04  0.12302275446E+04  0.10100000352E+00 0.  1.
       -3    1    3    3    0  502  0.15136229040E+03  0.66927170413E+03  0.44165029493E+02  0.68759415133E+03  0.10100000352E+00 0. -1.
</event>
<event>
 5   0  0.3210612E-04  0.1598259E+04  0.7818609E-02  0.8821618E-01
        2   -1    0    0  501    0  0.00000000000E+00  0.00000000000E+00  0.11814200613E+04  0.11814200613E+04  0.25500000920E-02 0.  1.
       -2   -1    0    0    0  501  0.00000000000E+00  0.00000000000E+00 -0.54054251750E+03  0.54054251750E+03  0.25500000920E-02 0. -1.
    10030    2    1    2    0    0  0.00000000000E+00  0.00000000000E+00  0.64087754383E+03  0.17219625788E+04  0.15982587703E+04 0.  0.
        2    1    3    3  502    0  0.31698741796E+03 -0.11848883350E+03 -0.45953207021E+03  0.57069286869E+03  0.25500000920E-02 0. -1.
       -2    1    3    3    0  502 -0.31698741796E+03  0.11848883350E+03  0.11004096140E+04  0.11512697101E+04  0.25500000920E-02 0.  1.
</event>
<event>
 5   0  0.3263294E-04  0.1630841E+04  0.7818609E-02  0.8801822E-01
       -2   -1    0    0    0  501  0.00000000000E+00  0.00000000000E+00  0.48291704082E+03  0.48291704082E+03  0.25500000920E-02 0.  1.
        2   -1    0    0  501    0  0.00000000000E+00  0.00000000000E+00 -0.13768626157E+04  0.13768626157E+04  0.25500000920E-02 0. -1.
    10030    2    1    2    0    0  0.00000000000E+00  0.00000000000E+00 -0.89394557488E+03  0.18597796565E+04  0.16308407893E+04 0.  0.
        4    1    3    3  502    0  0.19206178788E+03  0.84177496439E+02  0.45164099807E+03  0.49795058521E+03  0.12699999809E+01 0.  1.
       -4    1    3    3    0  502 -0.19206178788E+03 -0.84177496439E+02 -0.13455865729E+04  0.13618290713E+04  0.12699999809E+01 0. -1.
</event>
<event>
 5   0  0.1761255E-04  0.1587698E+04  0.7818609E-02  0.8828142E-01
       -1   -1    0    0    0  501  0.00000000000E+00  0.00000000000E+00  0.47520655076E+03  0.47520655079E+03  0.50400001928E-02 0.  1.
        1   -1    0    0  501    0  0.00000000000E+00  0.00000000000E+00 -0.13261518732E+04  0.13261518732E+04  0.50400001928E-02 0. -1.
    10030    2    1    2    0    0  0.00000000000E+00  0.00000000000E+00 -0.85094532246E+03  0.18013584240E+04  0.15876977766E+04 0.  0.
        2    1    3    3  502    0 -0.32454100289E+03  0.72318864020E+03 -0.37644408272E+03  0.87751855781E+03  0.25500000920E-02 0. -1.
       -2    1    3    3    0  502  0.32454100289E+03 -0.72318864020E+03 -0.47450123974E+03  0.92383986621E+03  0.25500000920E-02 0.  1.
</event>
<event>
 5   0  0.1219463E-04  0.1573459E+04  0.7818609E-02  0.8837021E-01
        3   -1    0    0  501    0  0.00000000000E+00  0.00000000000E+00  0.91957532596E+03  0.91957533150E+03  0.10100000352E+00 0.  1.
       -3   -1    0    0    0  501  0.00000000000E+00  0.00000000000E+00 -0.67307487087E+03  0.67307487845E+03  0.10100000352E+00 0. -1.
    10030    2    1    2    0    0  0.00000000000E+00  0.00000000000E+00  0.24650045508E+03  0.15926502100E+04  0.15734586798E+04 0.  0.
        3    1    3    3  502    0  0.64907231351E+02 -0.43377940123E+03  0.78433619371E+03  0.89864386304E+03  0.10100000352E+00 0.  1.
       -3    1    3    3    0  502 -0.64907231351E+02  0.43377940123E+03 -0.53783573863E+03  0.69400634692E+03  0.10100000352E+00 0. -1.
</event>
<event>
 5   0  0.3228393E-04  0.1603115E+04  0.7818609E-02  0.8818637E-01
        2   -1    0    0  501    0  0.00000000000E+00  0.00000000000E+00  0.13599455152E+04  0.13599455152E+04  0.25500000920E-02 0. -1.
       -2   -1    0    0    0  501  0.00000000000E+00  0.00000000000E+00 -0.47244139609E+03  0.47244139610E+03  0.25500000920E-02 0.  1.
    10030    2    1    2    0    0  0.00000000000E+00  0.00000000000E+00  0.88750411911E+03  0.18323869113E+04  0.16031151647E+04 0.  0.
        1    1    3    3  502    0 -0.39543947746E+03  0.66865059376E+03  0.66956234911E+03  0.10255631313E+04  0.50400001928E-02 0.  1.
       -1    1    3    3    0  502  0.39543947746E+03 -0.66865059376E+03  0.21794177000E+03  0.80682378002E+03  0.50400001928E-02 0. -1.
</event>
<event>
 5   0  0.3210612E-04  0.1599254E+04  0.7818609E-02  0.8821006E-01
        2   -1    0    0  501    0  0.00000000000E+00  0.00000000000E+00  0.15671247543E+04  0.15671247543E+04  0.25500000920E-02 0.  1.
       -2   -1    0    0    0  501  0.00000000000E+00  0.00000000000E+00 -0.40801057330E+03  0.40801057331E+03  0.25500000920E-02 0. -1.
    10030    2    1    2    0    0  0.00000000000E+00  0.00000000000E+00  0.11591141810E+04  0.19751353276E+04  0.15992541630E+04 0.  0.
        2    1    3    3  502    0  0.25400486798E+03 -0.71448098703E+03  0.89297857262E+03  0.11715000149E+04  0.25500000920E-02 0.  1.
       -2    1    3    3    0  502 -0.25400486798E+03  0.71448098703E+03  0.26613560842E+03  0.80363531273E+03  0.25500000920E-02 0. -1.
</event>
<event>
 5   0  0.1819811E-04  0.1605510E+04  0.7818609E-02  0.8817170E-01
        1   -1    0    0  501    0  0.00000000000E+00  0.00000000000E+00  0.15058643316E+04  0.15058643317E+04  0.50400001928E-02 0. -1.
       -1   -1    0    0    0  501  0.00000000000E+00  0.00000000000E+00 -0.42793730274E+03  0.42793730277E+03  0.50400001928E-02 0.  1.
    10030    2    1    2    0    0  0.00000000000E+00  0.00000000000E+00  0.10779270289E+04  0.19338016344E+04  0.16055099133E+04 0.  0.
        1    1    3    3  502    0 -0.25615515150E+03  0.15742564448E+03  0.14354847178E+04  0.14666337887E+04  0.50400001928E-02 0. -1.
       -1    1    3    3    0  502  0.25615515150E+03 -0.15742564448E+03 -0.35755768887E+03  0.46716784572E+03  0.50400001928E-02 0.  1.
</event>
<event>
 5   0  0.1736537E-04  0.1605753E+04  0.7818609E-02  0.8817021E-01
        1   -1    0    0  501    0  0.00000000000E+00  0.00000000000E+00  0.28700378977E+03  0.28700378981E+03  0.50400001928E-02 0.  1.
       -1   -1    0    0    0  501  0.00000000000E+00  0.00000000000E+00 -0.22460015675E+04  0.22460015675E+04  0.50400001928E-02 0. -1.
    10030    2    1    2    0    0  0.00000000000E+00  0.00000000000E+00 -0.19589977777E+04  0.25330053573E+04  0.16057533581E+04 0.  0.
        3    1    3    3  502    0 -0.34317338464E+02  0.81199646063E+02 -0.22383442925E+04  0.22400795173E+04  0.10100000352E+00 0. -1.
       -3    1    3    3    0  502  0.34317338464E+02 -0.81199646063E+02  0.27934651472E+03  0.29292583998E+03  0.10100000352E+00 0.  1.
</event>
<event>
 5   0  0.1787688E-04  0.1637980E+04  0.7818609E-02  0.8797549E-01
       -1   -1    0    0    0  501  0.00000000000E+00  0.00000000000E+00  0.46531271039E+03  0.46531271042E+03  0.50400001928E-02 0. -1.
        1   -1    0    0  501    0  0.00000000000E+00  0.00000000000E+00 -0.14414915001E+04  0.14414915002E+04  0.50400001928E-02 0.  1.
    10030    2    1    2    0    0  0.00000000000E+00  0.00000000000E+00 -0.97617878976E+03  0.19068042106E+04  0.16379796299E+04 0.  0.
        4    1    3    3  502    0 -0.22507161586E+03  0.74227229118E+03 -0.18204033967E+03  0.79672183645E+03  0.12699999809E+01 0. -1.
       -4    1    3    3    0  502  0.22507161586E+03 -0.74227229118E+03 -0.79413845009E+03  0.11100823741E+04  0.12699999809E+01 0.  1.
</event>
<event>
 5   0  0.1736537E-04  0.1607777E+04  0.7818609E-02  0.8815785E-01
        1   -1    0    0  501    0  0.00000000000E+00  0.00000000000E+00  0.62784381726E+03  0.62784381728E+03  0.50400001928E-02 0. -1.
       -1   -1    0    0    0  501  0.00000000000E+00  0.00000000000E+00 -0.10292950355E+04  0.10292950355E+04  0.50400001928E-02 0.  1.
    10030    2    1    2    0    0  0.00000000000E+00  0.00000000000E+00 -0.40145121821E+03  0.16571388528E+04  0.16077767559E+04 0.  0.
        3    1    3    3  502    0  0.52306463774E+03  0.29379121326E+02 -0.82918074064E+03  0.98081622074E+03  0.10100000352E+00 0.  1.
       -3    1    3    3    0  502 -0.52306463774E+03 -0.29379121326E+02  0.42772952243E+03  0.67632263202E+03  0.10100000352E+00 0. -1.
</event>
<event>
 5   0  0.3274900E-04  0.1599120E+04  0.7818609E-02  0.8821089E-01
       -2   -1    0    0    0  501  0.00000000000E+00  0.00000000000E+00  0.38867896634E+03  0.38867896635E+03  0.25500000920E-02 0.  1.
        2   -1    0    0  501    0  0.00000000000E+00  0.00000000000E+00 -0.16447925129E+04  0.16447925129E+04  0.25500000920E-02 0. -1.
    10030    2    1    2    0    0  0.00000000000E+00  0.00000000000E+00 -0.12561135466E+04  0.20334714793E+04  0.15991200753E+04 0.  0.
        3    1    3    3  502    0 -0.23390210072E+03 -0.12843165206E+03  0.33038581396E+03  0.42468774204E+03  0.10100000352E+00 0.  1.
       -3    1    3    3    0  502  0.23390210072E+03  0.12843165206E+03 -0.15864993605E+04  0.16087837372E+04  0.10100000352E+00 0. -1.
</event>
<event>
 5   0  0.1761255E-04  0.1597518E+04  0.7818609E-02  0.8822075E-01
        1   -1    0    0  501    0  0.00000000000E+00  0.00000000000E+00  0.10699198295E+04  0.10699198295E+04  0.50400001928E-02 0.  1.
       -1   -1    0    0    0  501  0.00000000000E+00  0.00000000000E+00 -0.59632090416E+03  0.59632090418E+03  0.50400001928E-02 0. -1.
    10030    2    1    2    0    0  0.00000000000E+00  0.00000000000E+00  0.47359892536E+03  0.16662407337E+04  0.15975175243E+04 0.  0.
        2    1    3    3  502    0  0.40063458511E+03 -0.34122187721E+03 -0.38994556672E+03  0.65497937775E+03  0.25500000920E-02 0. -1.
       -2    1    3    3    0  502 -0.40063458511E+03  0.34122187721E+03  0.86354449208E+03  0.10112613560E+04  0.25500000920E-02 0.  1.
</event>
<event>
 5   0  0.3228393E-04  0.1612262E+04  0.7818609E-02  0.8813050E-01
        2   -1    0    0  501    0  0.00000000000E+00  0.00000000000E+00  0.14945109099E+04  0.14945109099E+04  0.25500000920E-02 0. -1.
       -2   -1    0    0    0  501  0.00000000000E+00  0.00000000000E+00 -0.43482246515E+03  0.43482246516E+03  0.25500000920E-02 0.  1.
    10030    2    1    2    0    0  0.00000000000E+00  0.00000000000E+00  0.10596884447E+04  0.19293333750E+04  0.16122616637E+04 0.  0.
        1    1    3    3  502    0 -0.54504858839E+03  0.39024534841E+03 -0.59581014422E+01  0.67037668117E+03  0.50400001928E-02 0.  1.
       -1    1    3    3    0  502  0.54504858839E+03 -0.39024534841E+03  0.10656465462E+04  0.12589566939E+04  0.50400001928E-02 0. -1.
</event>
<event>
 5   0  0.1761255E-04  0.1608427E+04  0.7818609E-02  0.8815388E-01
       -1   -1    0    0    0  501  0.00000000000E+00  0.00000000000E+00  0.68321321246E+03  0.68321321247E+03  0.50400001928E-02 0.  1.
        1   -1    0    0  501    0  0.00000000000E+00  0.00000000000E+00 -0.94664304007E+03  0.94664304008E+03  0.50400001928E-02 0. -1.
    10030    2    1    2    0    0  0.00000000000E+00  0.00000000000E+00 -0.26342982762E+03  0.16298562526E+04  0.16084266007E+04 0.  0.
        2    1    3    3  502    0  0.41643112311E+03  0.28502654005E+03  0.50281003880E+03  0.71237135256E+03  0.25500000920E-02 0.  1.
       -2    1    3    3    0  502 -0.41643112311E+03 -0.28502654005E+03 -0.76623986642E+03  0.91748490000E+03  0.25500000920E-02 0. -1.
</event>
<event>
 5   0  0.1736537E-04  0.1603877E+04  0.7818609E-02  0.8818169E-01
       -1   -1    0    0    0  501  0.00000000000E+00  0.00000000000E+00  0.74780922213E+03  0.74780922215E+03  0.50400001928E-02 0. -1.
        1   -1    0    0  501    0  0.00000000000E+00  0.00000000000E+00 -0.85998637916E+03  0.85998637917E+03  0.50400001928E-02 0.  1.
    10030    2    1    2    0    0  0.00000000000E+00  0.00000000000E+00 -0.11217715703E+03  0.16077956013E+04  0.16038774832E+04 0.  0.
        3    1    3    3  502    0 -0.15708150032E+03  0.77583464119E+03 -0.18490052908E+03  0.81288511123E+03  0.10100000352E+00 0.  1.
       -3    1    3    3    0  502  0.15708150032E+03 -0.77583464119E+03  0.72723372052E+02  0.79491049009E+03  0.10100000352E+00 0. -1.
</event>
<event>
 5   0  0.3263294E-04  0.1570703E+04  0.7818609E-02  0.8838751E-01
        2   -1    0    0  501    0  0.00000000000E+00  0.00000000000E+00  0.51678533341E+03  0.51678533341E+03  0.25500000920E-02 0. -1.
       -2   -1    0    0    0  501  0.00000000000E+00  0.00000000000E+00 -0.11934884833E+04  0.11934884833E+04  0.25500000920E-02 0.  1.
    10030    2    1    2    0    0  0.00000000000E+00  0.00000000000E+00 -0.67670314988E+03  0.17102738167E+04  0.15707034650E+04 0.  0.
        4    1    3    3  502    0 -0.47733251247E+03 -0.20368440764E+03 -0.98017068538E+03  0.11090851413E+04  0.12699999809E+01 0.  1.
       -4    1    3    3    0  502  0.47733251247E+03  0.20368440764E+03  0.30346753550E+03  0.60118867536E+03  0.12699999809E+01 0. -1.
</event>
<event>
 5   0  0.1787688E-04  0.1584386E+04  0.7818609E-02  0.8830198E-01
       -1   -1    0    0    0  501  0.00000000000E+00  0.00000000000E+00  0.73383175283E+03  0.73383175285E+03  0.50400001928E-02 0. -1.
        1   -1    0    0  501    0  0.00000000000E+00  0.00000000000E+00 -0.85519524951E+03  0.85519524953E+03  0.50400001928E-02 0.  1.
    10030    2    1    2    0    0  0.00000000000E+00  0.00000000000E+00 -0.12136349668E+03  0.15890270024E+04  0.15843855957E+04 0.  0.
        4    1    3    3  502    0 -0.17697459503E+03 -0.74875133339E+03 -0.24996525559E+03  0.80897021481E+03  0.12699999809E+01 0. -1.
       -4    1    3    3    0  502  0.17697459503E+03  0.74875133339E+03  0.12860175891E+03  0.78005678757E+03  0.12699999809E+01 0.  1.
</event>
<event>
 5   0  0.3210612E-04  0.1602703E+04  0.7818609E-02  0.8818889E-01
       -2   -1    0    0    0  501  0.00000000000E+00  0.00000000000E+00  0.97895400106E+03  0.97895400106E+03  0.25500000920E-02 0. -1.
        2   -1    0    0  501    0  0.00000000000E+00  0.00000000000E+00 -0.65596966298E+03  0.65596966298E+03  0.25500000920E-02 0.  1.
    10030    2    1    2    0    0  0.00000000000E+00  0.00000000000E+00  0.32298433808E+03  0.16349236640E+04  0.16027028747E+04 0.  0.
        2    1    3    3  502    0  0.35971173667E+03 -0.20155148733E+03 -0.53945262216E+03  0.67898797273E+03  0.25500000920E-02 0.  1.
       -2    1    3    3    0  502 -0.35971173667E+03  0.20155148733E+03  0.86243696024E+03  0.95593569132E+03  0.25500000920E-02 0. -1.
</event>
<event>
 5   0  0.1764099E-04  0.1590786E+04  0.7818609E-02  0.8826228E-01
       -1   -1    0    0    0  501  0.00000000000E+00  0.00000000000E+00  0.75808917717E+03  0.75808917719E+03  0.50400001928E-02 0. -1.
        1   -1    0    0  501    0  0.00000000000E+00  0.00000000000E+00 -0.83453266848E+03  0.83453266850E+03  0.50400001928E-02 0.  1.
    10030    2    1    2    0    0  0.00000000000E+00  0.00000000000E+00 -0.76443491309E+02  0.15926218457E+04  0.15907862006E+04 0.  0.
        5    1    3    3  502    0  0.16308124439E+03 -0.37595727442E+03  0.64424567371E+03  0.76355349685E+03  0.46999998093E+01 0. -1.
       -5    1    3    3    0  502 -0.16308124439E+03  0.37595727442E+03 -0.72068916502E+03  0.82906834884E+03  0.46999998093E+01 0.  1.
</event>
<event>
 5   0  0.3274900E-04  0.1564379E+04  0.7818609E-02  0.8842735E-01
       -2   -1    0    0    0  501  0.00000000000E+00  0.00000000000E+00  0.50124710963E+03  0.50124710964E+03  0.25500000920E-02 0. -1.
        2   -1    0    0  501    0  0.00000000000E+00  0.00000000000E+00 -0.12205956553E+04  0.12205956553E+04  0.25500000920E-02 0.  1.
    10030    2    1    2    0    0  0.00000000000E+00  0.00000000000E+00 -0.71934854566E+03  0.17218427649E+04  0.15643785274E+04 0.  0.
        3    1    3    3  502    0 -0.68057385206E+03  0.22144988002E+02  0.63969482195E+02  0.68393221408E+03  0.10100000352E+00 0. -1.
       -3    1    3    3    0  502  0.68057385206E+03 -0.22144988002E+02 -0.78331802786E+03  0.10379105509E+04  0.10100000352E+00 0.  1.
</event>
<event>
 5   0  0.1761255E-04  0.1597835E+04  0.7818609E-02  0.8821879E-01
        1   -1    0    0  501    0  0.00000000000E+00  0.00000000000E+00  0.14608622754E+04  0.14608622754E+04  0.50400001928E-02 0. -1.
       -1   -1    0    0    0  501  0.00000000000E+00  0.00000000000E+00 -0.43691248992E+03  0.43691248995E+03  0.50400001928E-02 0.  1.
    10030    2    1    2    0    0  0.00000000000E+00  0.00000000000E+00  0.10239497854E+04  0.18977747653E+04  0.15978347527E+04 0.  0.
        2    1    3    3  502    0 -0.32090269010E+03  0.70728974576E+03  0.28967301998E+03  0.82894377341E+03  0.25500000920E-02 0.  1.
       -2    1    3    3    0  502  0.32090269010E+03 -0.70728974576E+03  0.73427676545E+03  0.10688309919E+04  0.25500000920E-02 0. -1.
</event>
<event>
 5   0  0.3210612E-04  0.1603376E+04  0.7818609E-02  0.8818477E-01
       -2   -1    0    0    0  501  0.00000000000E+00  0.00000000000E+00  0.44591668117E+03  0.44591668118E+03  0.25500000920E-02 0.  1.
        2   -1    0    0  501    0  0.00000000000E+00  0.00000000000E+00 -0.14413081561E+04  0.14413081561E+04  0.25500000920E-02 0. -1.
    10030    2    1    2    0    0  0.00000000000E+00  0.00000000000E+00 -0.99539147494E+03  0.18872248373E+04  0.16033756260E+04 0.  0.
        2    1    3    3  502    0 -0.33674553240E+03 -0.38605872951E+03 -0.12235195817E+04  0.13264384882E+04  0.25500000920E-02 0. -1.
       -2    1    3    3    0  502  0.33674553240E+03  0.38605872951E+03  0.22812810675E+03  0.56078634909E+03  0.25500000920E-02 0.  1.
</event>
<event>
 5   0  0.3228393E-04  0.1599769E+04  0.7818609E-02  0.8820690E-01
       -2   -1    0    0    0  501  0.00000000000E+00  0.00000000000E+00  0.70890895521E+03  0.70890895522E+03  0.25500000920E-02 0. -1.
        2   -1    0    0  501    0  0.00000000000E+00  0.00000000000E+00 -0.90253456784E+03  0.90253456785E+03  0.25500000920E-02 0.  1.
    10030    2    1    2    0    0  0.00000000000E+00  0.00000000000E+00 -0.19362561263E+03  0.16114435231E+04  0.15997685302E+04 0.  0.
        1    1    3    3  502    0 -0.36334144151E+03 -0.45819960224E+03 -0.64655293681E+03  0.87177667939E+03  0.50400001928E-02 0.  1.
       -1    1    3    3    0  502  0.36334144151E+03  0.45819960224E+03  0.45292732418E+03  0.73966684367E+03  0.50400001928E-02 0. -1.
</event>
<event>
 5   0  0.1736537E-04  0.1596399E+04  0.7818609E-02  0.8822764E-01
       -1   -1    0    0    0  501  0.00000000000E+00  0.00000000000E+00  0.51013305476E+03  0.51013305478E+03  0.50400001928E-02 0.  1.
        1   -1    0    0  501    0  0.00000000000E+00  0.00000000000E+00 -0.12489333171E+04  0.12489333171E+04  0.50400001928E-02 0. -1.
    10030    2    1    2    0    0  0.00000000000E+00  0.00000000000E+00 -0.73880026237E+03  0.17590663719E+04  0.15963986573E+04 0.  0.
        3    1    3    3  502    0  0.32269403998E+03  0.43768757685E+02 -0.11724061595E+04  0.12167922422E+04  0.10100000352E+00 0. -1.
       -3    1    3    3    0  502 -0.32269403998E+03 -0.43768757685E+02  0.43360589712E+03  0.54227412976E+03  0.10100000352E+00 0.  1.
</event>
<event>
 5   0  0.1787688E-04  0.1601681E+04  0.7818609E-02  0.8819516E-01
       -1   -1    0    0    0  501  0.00000000000E+00  0.00000000000E+00  0.67548846478E+03  0.67548846480E+03  0.50400001928E-02 0. -1.
        1   -1    0    0  501    0  0.00000000000E+00  0.00000000000E+00 -0.94945438465E+03  0.94945438467E+03  0.50400001928E-02 0.  1.
    10030    2    1    2    0    0  0.00000000000E+00  0.00000000000E+00 -0.27396591988E+03  0.16249428495E+04  0.16016809728E+04 0.  0.
        4    1    3    3  502    0  0.31952449461E+03 -0.59660159811E+03 -0.57135362389E+03  0.88570646716E+03  0.12699999809E+01 0.  1.
       -4    1    3    3    0  502 -0.31952449461E+03  0.59660159811E+03  0.29738770402E+03  0.73923638231E+03  0.12699999809E+01 0. -1.
</event>
<event>
 5   0  0.3210612E-04  0.1599898E+04  0.7818609E-02  0.8820610E-01
       -2   -1    0    0    0  501  0.00000000000E+00  0.00000000000E+00  0.19338364030E+04  0.19338364030E+04  0.25500000920E-02 0. -1.
        2   -1    0    0  501    0  0.00000000000E+00  0.00000000000E+00 -0.33090631694E+03  0.33090631695E+03  0.25500000920E-02 0.  1.
    10030    2    1    2    0    0  0.00000000000E+00  0.00000000000E+00  0.16029300860E+04  0.22647427199E+04  0.15998983489E+04 0.  0.
        2    1    3    3  502    0  0.67538180856E+03 -0.35367130255E+03  0.11444112002E+04  0.13751003500E+04  0.25500000920E-02 0. -1.
       -2    1    3    3    0  502 -0.67538180856E+03  0.35367130255E+03  0.45851888584E+03  0.88964236987E+03  0.25500000920E-02 0.  1.
</event>
<event>
 5   0  0.3263294E-04  0.1624744E+04  0.7818609E-02  0.8805489E-01
        2   -1    0    0  501    0  0.00000000000E+00  0.00000000000E+00  0.59780063104E+03  0.59780063105E+03  0.25500000920E-02 0.  1.
       -2   -1    0    0    0  501  0.00000000000E+00  0.00000000000E+00 -0.11039602745E+04  0.11039602745E+04  0.25500000920E-02 0. -1.
    10030    2    1    2    0    0  0.00000000000E+00  0.00000000000E+00 -0.50615964341E+03  0.17017609055E+04  0.16247438552E+04 0.  0.
        4    1    3    3  502    0  0.22144691055E+03 -0.11808394622E+03  0.55617948770E+03  0.61018012749E+03  0.12699999809E+01 0.  1.
       -4    1    3    3    0  502 -0.22144691055E+03  0.11808394622E+03 -0.10623391311E+04  0.10915807780E+04  0.12699999809E+01 0. -1.
</event>
<event>
 5   0  0.3274900E-04  0.1599619E+04  0.7818609E-02  0.8820782E-01
        2   -1    0    0  501    0  0.00000000000E+00  0.00000000000E+00  0.38365770545E+03  0.38365770546E+03  0.25500000920E-02 0.  1.
       -2   -1    0    0    0  501  0.00000000000E+00  0.00000000000E+00 -0.16673586848E+04  0.16673586848E+04  0.25500000920E-02 0. -1.
    10030    2    1    2    0    0  0.00000000000E+00  0.00000000000E+00 -0.12837009793E+04  0.20510163903E+04  0.15996187135E+04 0.  0.
        3    1    3    3  502    0  0.50198001272E+03  0.59915039487E+03 -0.42452059420E+03  0.88948461141E+03  0.10100000352E+00 0.  1.
       -3    1    3    3    0  502 -0.50198001272E+03 -0.59915039487E+03 -0.85918038515E+03  0.11615317788E+04  0.10100000352E+00 0. -1.
</event>
<event>
 5   0  0.3380454E-04  0.1599708E+04  0.7818609E-02  0.8820727E-01
        2   -1    0    0  501    0  0.00000000000E+00  0.00000000000E+00  0.14961169531E+04  0.14961169531E+04  0.25500000920E-02 0.  1.
       -2   -1    0    0    0  501  0.00000000000E+00  0.00000000000E+00 -0.42761803098E+03  0.42761803099E+03  0.25500000920E-02 0. -1.
    10030    2    1    2    0    0  0.00000000000E+00  0.00000000000E+00  0.10684989221E+04  0.19237349841E+04  0.15997082054E+04 0.  0.
        5    1    3    3  502    0  0.35352148622E+03  0.45615970740E+03  0.12002138458E+04  0.13317636748E+04  0.46999998093E+01 0.  1.
       -5    1    3    3    0  502 -0.35352148622E+03 -0.45615970740E+03 -0.13171492370E+03  0.59197130927E+03  0.46999998093E+01 0. -1.
</event>
<event>
 5   0  0.1787688E-04  0.1600093E+04  0.7818609E-02  0.8820491E-01
       -1   -1    0    0    0  501  0.00000000000E+00  0.00000000000E+00  0.33349497595E+03  0.33349497599E+03  0.50400001928E-02 0.  1.
        1   -1    0    0  501    0  0.00000000000E+00  0.00000000000E+00 -0.19192916183E+04  0.19192916183E+04  0.50400001928E-02 0. -1.
    10030    2    1    2    0    0  0.00000000000E+00  0.00000000000E+00 -0.15857966424E+04  0.22527865943E+04  0.16000926375E+04 0.  0.
        4    1    3    3  502    0 -0.64798309138E+03 -0.16492367946E+03 -0.17439363293E+03  0.69101133049E+03  0.12699999809E+01 0.  1.
       -4    1    3    3    0  502  0.64798309138E+03  0.16492367946E+03 -0.14114030095E+04  0.15617752638E+04  0.12699999809E+01 0. -1.
</event>
<event>
 5   0  0.1764099E-04  0.1605740E+04  0.7818609E-02  0.8817029E-01
       -1   -1    0    0    0  501  0.00000000000E+00  0.00000000000E+00  0.52839959128E+03  0.52839959130E+03  0.50400001928E-02 0.  1.
        1   -1    0    0  501    0  0.00000000000E+00  0.00000000000E+00 -0.12199112656E+04  0.12199112656E+04  0.50400001928E-02 0. -1.
    10030    2    1    2    0    0  0.00000000000E+00  0.00000000000E+00 -0.69151167429E+03  0.17483108569E+04  0.16057404699E+04 0.  0.
        5    1    3    3  502    0 -0.61821130773E+03 -0.42112522265E+03 -0.28234863436E+02  0.74856594343E+03  0.46999998093E+01 0.  1.
       -5    1    3    3    0  502  0.61821130773E+03  0.42112522265E+03 -0.66327681085E+03  0.99974491345E+03  0.46999998093E+01 0. -1.
</event>
<event>
 5   0  0.1819811E-04  0.1597656E+04  0.7818609E-02  0.8821989E-01
        1   -1    0    0  501    0  0.00000000000E+00  0.00000000000E+00  0.19493694289E+04  0.19493694289E+04  0.50400001928E-02 0.  1.
       -1   -1    0    0    0  501  0.00000000000E+00  0.00000000000E+00 -0.32735006005E+03  0.32735006009E+03  0.50400001928E-02 0. -1.
    10030    2    1    2    0    0  0.00000000000E+00  0.00000000000E+00  0.16220193688E+04  0.22767194890E+04  0.15976560326E+04 0.  0.
        1    1    3    3  502    0 -0.49294266523E+03  0.58275128415E+03  0.47518830872E+03  0.89910814652E+03  0.50400001928E-02 0.  1.
       -1    1    3    3    0  502  0.49294266523E+03 -0.58275128415E+03  0.11468310601E+04  0.13776113424E+04  0.50400001928E-02 0. -1.
</event>
<event>
 5   0  0.3263294E-04  0.1600791E+04  0.7818609E-02  0.8820062E-01
        2   -1    0    0  501    0  0.00000000000E+00  0.00000000000E+00  0.16557095656E+04  0.16557095656E+04  0.25500000920E-02 0. -1.
       -2   -1    0    0    0  501  0.00000000000E+00  0.00000000000E+00 -0.38692351088E+03  0.38692351088E+03  0.25500000920E-02 0.  1.
    10030    2    1    2    0    0  0.00000000000E+00  0.00000000000E+00  0.12687860547E+04  0.20426330765E+04  0.16007910021E+04 0.  0.
        4    1    3    3  502    0 -0.84223119985E+02  0.79203028142E+03  0.53371032493E+03  0.95877725487E+03  0.12699999809E+01 0. -1.
       -4    1    3    3    0  502  0.84223119985E+02 -0.79203028142E+03  0.73507572981E+03  0.10838558216E+04  0.12699999809E+01 0.  1.
</event>
<event>
 5   0  0.3263294E-04  0.1601183E+04  0.7818609E-02  0.8819821E-01
        2   -1    0    0  501    0  0.00000000000E+00  0.00000000000E+00  0.54050458517E+03  0.54050458517E+03  0.25500000920E-02 0.  1.
       -2   -1    0    0    0  501  0.00000000000E+00  0.00000000000E+00 -0.11858309952E+04  0.11858309952E+04  0.25500000920E-02 0. -1.
    10030    2    1    2    0    0  0.00000000000E+00  0.00000000000E+00 -0.64532641006E+03  0.17263355804E+04  0.16011834250E+04 0.  0.
        4    1    3    3  502    0 -0.20179340601E+03  0.18197188162E+03  0.48926611040E+03  0.55965818506E+03  0.12699999809E+01 0.  1.
       -4    1    3    3    0  502  0.20179340601E+03 -0.18197188162E+03 -0.11345925205E+04  0.11666773953E+04  0.12699999809E+01 0. -1.
</event>
<event>
 5   0  0.1219463E-04  0.1563316E+04  0.7818609E-02  0.8843407E-01
        3   -1    0    0  501    0  0.00000000000E+00  0.00000000000E+00  0.68826226615E+03  0.68826227356E+03  0.10100000352E+00 0. -1.
       -3   -1    0    0    0  501  0.00000000000E+00  0.00000000000E+00 -0.88772691789E+03  0.88772692364E+03  0.10100000352E+00 0.  1.
    10030    2    1    2    0    0  0.00000000000E+00  0.00000000000E+00 -0.19946465174E+03  0.15759891972E+04  0.15633156439E+04 0.  0.
        4    1    3    3  502    0 -0.10386322759E+03  0.77069363493E+03 -0.17930950312E+03  0.79806626278E+03  0.12699999809E+01 0.  1.
       -4    1    3    3    0  502  0.10386322759E+03 -0.77069363493E+03 -0.20155148622E+02  0.77792293442E+03  0.12699999809E+01 0. -1.
</event>
<event>
 5   0  0.3210612E-04  0.1590124E+04  0.7818609E-02  0.8826638E-01
       -2   -1    0    0    0  501  0.00000000000E+00  0.00000000000E+00  0.10575020125E+04  0.10575020125E+04  0.25500000920E-02 0.  1.
        2   -1    0    0  501    0  0.00000000000E+00  0.00000000000E+00 -0.59775171759E+03  0.59775171759E+03  0.25500000920E-02 0. -1.
    10030    2    1    2    0    0  0.00000000000E+00  0.00000000000E+00  0.45975029490E+03  0.16552537301E+04  0.15901240761E+04 0.  0.
        2    1    3    3  502    0  0.49612768366E+03 -0.60447322076E+03  0.37925579351E+03  0.86911766179E+03  0.25500000920E-02 0.  1.
       -2    1    3    3    0  502 -0.49612768366E+03  0.60447322076E+03  0.80494501385E+02  0.78613606829E+03  0.25500000920E-02 0. -1.
</event>
<event>
 5   0  0.1761255E-04  0.1589514E+04  0.7818609E-02  0.8827016E-01
       -1   -1    0    0    0  501  0.00000000000E+00  0.00000000000E+00  0.88533419851E+03  0.88533419852E+03  0.50400001928E-02 0.  1.
        1   -1    0    0  501    0  0.00000000000E+00  0.00000000000E+00 -0.71344676084E+03  0.71344676086E+03  0.50400001928E-02 0. -1.
    10030    2    1    2    0    0  0.00000000000E+00  0.00000000000E+00  0.17188743767E+03  0.15987809594E+04  0.15895141600E+04 0.  0.
        2    1    3    3  502    0  0.36740004688E+03 -0.62737947204E+02 -0.62008871039E+03  0.72348383066E+03  0.25500000920E-02 0. -1.
       -2    1    3    3    0  502 -0.36740004688E+03  0.62737947204E+02  0.79197614806E+03  0.87529712873E+03  0.25500000920E-02 0.  1.
</event>
<event>
 5   0  0.1736537E-04  0.1589529E+04  0.7818609E-02  0.8827006E-01
       -1   -1    0    0    0  501  0.00000000000E+00  0.00000000000E+00  0.62386687354E+03  0.62386687356E+03  0.50400001928E-02 0.  1.
        1   -1    0    0  501    0  0.00000000000E+00  0.00000000000E+00 -0.10124771388E+04  0.10124771388E+04  0.50400001928E-02 0. -1.
    10030    2    1    2    0    0  0.00000000000E+00  0.00000000000E+00 -0.38861026522E+03  0.16363440123E+04  0.15895294236E+04 0.  0.
        3    1    3    3  502    0  0.78786489445E+02 -0.76596112603E+03 -0.39694555727E+03  0.86629645223E+03  0.10100000352E+00 0. -1.
       -3    1    3    3    0  502 -0.78786489445E+02  0.76596112603E+03  0.83352920556E+01  0.77004756009E+03  0.10100000352E+00 0.  1.
</event>
<event>
 5   0  0.3380454E-04  0.1596173E+04  0.7818609E-02  0.8822902E-01
        2   -1    0    0  501    0  0.00000000000E+00  0.00000000000E+00  0.37805843537E+03  0.37805843538E+03  0.25500000920E-02 0. -1.
       -2   -1    0    0    0  501  0.00000000000E+00  0.00000000000E+00 -0.16847715591E+04  0.16847715591E+04  0.25500000920E-02 0.  1.
    10030    2    1    2    0    0  0.00000000000E+00  0.00000000000E+00 -0.13067131237E+04  0.20628299945E+04  0.15961730478E+04 0.  0.
        5    1    3    3  502    0 -0.50337107539E+02 -0.36975041479E+03  0.25834888899E+03  0.45388922886E+03  0.46999998093E+01 0. -1.
       -5    1    3    3    0  502  0.50337107539E+02  0.36975041479E+03 -0.15650620127E+04  0.16089407656E+04  0.46999998093E+01 0.  1.
</event>
<event>
 5   0  0.3228393E-04  0.1602486E+04  0.7818609E-02  0.8819022E-01
        2   -1    0    0  501    0  0.00000000000E+00  0.00000000000E+00  0.20805374993E+04  0.20805374993E+04  0.25500000920E-02 0.  1.
       -2   -1    0    0    0  501  0.00000000000E+00  0.00000000000E+00 -0.30856952737E+03  0.30856952738E+03  0.25500000920E-02 0. -1.
    10030    2    1    2    0    0  0.00000000000E+00  0.00000000000E+00  0.17719679720E+04  0.23891070267E+04  0.16024861595E+04 0.  0.
        1    1    3    3  502    0  0.72641268728E+03  0.22524013065E+03  0.51005285763E+03  0.91573054241E+03  0.50400001928E-02 0. -1.
       -1    1    3    3    0  502 -0.72641268728E+03 -0.22524013065E+03  0.12619151143E+04  0.14733764843E+04  0.50400001928E-02 0.  1.
</event>
<event>
 5   0  0.1787688E-04  0.1653028E+04  0.7818609E-02  0.8788617E-01
        1   -1    0    0  501    0  0.00000000000E+00  0.00000000000E+00  0.10272542693E+04  0.10272542693E+04  0.50400001928E-02 0. -1.
       -1   -1    0    0    0  501  0.00000000000E+00  0.00000000000E+00 -0.66500146240E+03  0.66500146242E+03  0.50400001928E-02 0.  1.
    10030    2    1    2    0    0  0.00000000000E+00  0.00000000000E+00  0.36225280691E+03  0.16922557318E+04  0.16530282410E+04 0.  0.
        4    1    3    3  502    0  0.13719516553E+03 -0.77197424872E+03  0.44878298711E+03  0.90342378569E+03  0.12699999809E+01 0. -1.
       -4    1    3    3    0  502 -0.13719516553E+03  0.77197424872E+03 -0.86530180198E+02  0.78883194606E+03  0.12699999809E+01 0.  1.
</event>
<event>
 5   0  0.1787688E-04  0.1598745E+04  0.7818609E-02  0.8821319E-01
       -1   -1    0    0    0  501  0.00000000000E+00  0.00000000000E+00  0.44688295281E+03  0.44688295284E+03  0.50400001928E-02 0.  1.
        1   -1    0    0  501    0  0.00000000000E+00  0.00000000000E+00 -0.14298965975E+04  0.14298965975E+04  0.50400001928E-02 0. -1.
    10030    2    1    2    0    0  0.00000000000E+00  0.00000000000E+00 -0.98301364470E+03  0.18767795504E+04  0.15987450250E+04 0.  0.
        4    1    3    3  502    0  0.40950697612E+03  0.68634229241E+03 -0.50942940274E+03  0.94777720753E+03  0.12699999809E+01 0.  1.
       -4    1    3    3    0  502 -0.40950697612E+03 -0.68634229241E+03 -0.47358424196E+03  0.92900234282E+03  0.12699999809E+01 0. -1.
</event>
<event>
 5   0  0.1764099E-04  0.1598890E+04  0.7818609E-02  0.8821230E-01
       -1   -1    0    0    0  501  0.00000000000E+00  0.00000000000E+00  0.96427272795E+03  0.96427272797E+03  0.50400001928E-02 0. -1.
        1   -1    0    0  501    0  0.00000000000E+00  0.00000000000E+00 -0.66279237951E+03  0.66279237953E+03  0.50400001928E-02 0.  1.
    10030    2    1    2    0    0  0.00000000000E+00  0.00000000000E+00  0.30148034844E+03  0.16270651075E+04  0.15988903851E+04 0.  0.
        5    1    3    3  502    0 -0.84913697135E+01  0.53885272321E+03 -0.45013590531E+03  0.70219568776E+03  0.46999998093E+01 0.  1.
       -5    1    3    3    0  502  0.84913697135E+01 -0.53885272321E+03  0.75161625375E+03  0.92486941974E+03  0.46999998093E+01 0. -1.
</event>
<event>
 5   0  0.3263294E-04  0.1614811E+04  0.7818609E-02  0.8811500E-01
        2   -1    0    0  501    0  0.00000000000E+00  0.00000000000E+00  0.45249266158E+03  0.45249266158E+03  0.25500000920E-02 0. -1.
       -2   -1    0    0    0  501  0.00000000000E+00  0.00000000000E+00 -0.14406949742E+04  0.14406949742E+04  0.25500000920E-02 0.  1.
    10030    2    1    2    0    0  0.00000000000E+00  0.00000000000E+00 -0.98820231267E+03  0.18931876358E+04  0.16148113245E+04 0.  0.
        4    1    3    3  502    0  0.10026067023E+03  0.21993127807E+03 -0.13972826593E+04  0.14180347005E+04  0.12699999809E+01 0.  1.
       -4    1    3    3    0  502 -0.10026067023E+03 -0.21993127807E+03  0.40908034660E+03  0.47515293532E+03  0.12699999809E+01 0. -1.
</event>
<event>
 5   0  0.1764099E-04  0.1675107E+04  0.7818609E-02  0.8775690E-01
        1   -1    0    0  501    0  0.00000000000E+00  0.00000000000E+00  0.42589187389E+03  0.42589187392E+03  0.50400001928E-02 0.  1.
       -1   -1    0    0    0  501  0.00000000000E+00  0.00000000000E+00 -0.16471220699E+04  0.16471220699E+04  0.50400001928E-02 0. -1.
    10030    2    1    2    0    0  0.00000000000E+00  0.00000000000E+00 -0.12212301960E+04  0.20730139438E+04  0.16751070472E+04 0.  0.
        5    1    3    3  502    0 -0.48182232414E+03  0.37445780911E+03 -0.13205608915E+04  0.14547420943E+04  0.46999998093E+01 0. -1.
       -5    1    3    3    0  502  0.48182232414E+03 -0.37445780911E+03  0.99330695466E+02  0.61827184952E+03  0.46999998093E+01 0.  1.
</event>
<event>
 5   0  0.3274900E-04  0.1556885E+04  0.7818609E-02  0.8847482E-01
        2   -1    0    0  501    0  0.00000000000E+00  0.00000000000E+00  0.10326962034E+04  0.10326962034E+04  0.25500000920E-02 0.  1.
       -2   -1    0    0    0  501  0.00000000000E+00  0.00000000000E+00 -0.58678700513E+03  0.58678700514E+03  0.25500000920E-02 0. -1.
    10030    2    1    2    0    0  0.00000000000E+00  0.00000000000E+00  0.44590919828E+03  0.16194832085E+04  0.15568849828E+04 0.  0.
        3    1    3    3  502    0  0.22834828002E+03 -0.19709007659E+02 -0.55089348224E+03  0.59666994306E+03  0.10100000352E+00 0. -1.
       -3    1    3    3    0  502 -0.22834828002E+03  0.19709007659E+02  0.99680268052E+03  0.10228132655E+04  0.10100000352E+00 0.  1.
</event>
<event>
 5   0  0.3274900E-04  0.1585680E+04  0.7818609E-02  0.8829394E-01
        2   -1    0    0  501    0  0.00000000000E+00  0.00000000000E+00  0.10376991973E+04  0.10376991973E+04  0.25500000920E-02 0.  1.
       -2   -1    0    0    0  501  0.00000000000E+00  0.00000000000E+00 -0.60575841022E+03  0.60575841023E+03  0.25500000920E-02 0. -1.
    10030    2    1    2    0    0  0.00000000000E+00  0.00000000000E+00  0.43194078710E+03  0.16434576076E+04  0.15856796853E+04 0.  0.
        3    1    3    3  502    0 -0.15564098095E+03  0.33636602270E+03 -0.51044485090E+03  0.63080914086E+03  0.10100000352E+00 0. -1.
       -3    1    3    3    0  502  0.15564098095E+03 -0.33636602270E+03  0.94238563801E+03  0.10126484667E+04  0.10100000352E+00 0.  1.
</event>
<event>
 5   0  0.1219463E-04  0.1618530E+04  0.7818609E-02  0.8809245E-01
       -3   -1    0    0    0  501  0.00000000000E+00  0.00000000000E+00  0.71739135935E+03  0.71739136646E+03  0.10100000352E+00 0. -1.
        3   -1    0    0  501    0  0.00000000000E+00  0.00000000000E+00 -0.91290419075E+03  0.91290419633E+03  0.10100000352E+00 0.  1.
    10030    2    1    2    0    0  0.00000000000E+00  0.00000000000E+00 -0.19551283140E+03  0.16302955628E+04  0.16185296892E+04 0.  0.
        1    1    3    3  502    0  0.17699596737E+03  0.71110687142E+03  0.24811861945E+03  0.77366879502E+03  0.50400001928E-02 0. -1.
       -1    1    3    3    0  502 -0.17699596737E+03 -0.71110687142E+03 -0.44363145085E+03  0.85662676777E+03  0.50400001928E-02 0.  1.
</event>
<event>
 5   0  0.1764099E-04  0.1639596E+04  0.7818609E-02  0.8796585E-01
        1   -1    0    0  501    0  0.00000000000E+00  0.00000000000E+00  0.94545835461E+03  0.94545835463E+03  0.50400001928E-02 0. -1.
       -1   -1    0    0    0  501  0.00000000000E+00  0.00000000000E+00 -0.71083920825E+03  0.71083920827E+03  0.50400001928E-02 0.  1.
    10030    2    1    2    0    0  0.00000000000E+00  0.00000000000E+00  0.23461914636E+03  0.16562975629E+04  0.16395961311E+04 0.  0.
        5    1    3    3  502    0  0.50791044022E+03  0.20966523224E+02  0.76700480735E+03  0.92017991441E+03  0.46999998093E+01 0. -1.
       -5    1    3    3    0  502 -0.50791044022E+03 -0.20966523224E+02 -0.53238566099E+03  0.73611764848E+03  0.46999998093E+01 0.  1.
</event>
<event>
 5   0  0.3274900E-04  0.1597917E+04  0.7818609E-02  0.8821829E-01
       -2   -1    0    0    0  501  0.00000000000E+00  0.00000000000E+00  0.44846949141E+03  0.44846949142E+03  0.25500000920E-02 0. -1.
        2   -1    0    0  501    0  0.00000000000E+00  0.00000000000E+00 -0.14233617405E+04  0.14233617405E+04  0.25500000920E-02 0.  1.
    10030    2    1    2    0    0  0.00000000000E+00  0.00000000000E+00 -0.97489224911E+03  0.18718312319E+04  0.15979165383E+04 0.  0.
        3    1    3    3  502    0 -0.38461657814E+03  0.34972447246E+03 -0.11981584494E+04  0.13060707480E+04  0.10100000352E+00 0.  1.
       -3    1    3    3    0  502  0.38461657814E+03 -0.34972447246E+03  0.22326620025E+03  0.56576048394E+03  0.10100000352E+00 0. -1.
</event>
<event>
 5   0  0.1219463E-04  0.1603065E+04  0.7818609E-02  0.8818667E-01
        3   -1    0    0  501    0  0.00000000000E+00  0.00000000000E+00  0.91347722447E+03  0.91347723005E+03  0.10100000352E+00 0.  1.
       -3   -1    0    0    0  501  0.00000000000E+00  0.00000000000E+00 -0.70330620929E+03  0.70330621654E+03  0.10100000352E+00 0. -1.
    10030    2    1    2    0    0  0.00000000000E+00  0.00000000000E+00  0.21017101517E+03  0.16167834466E+04  0.16030648326E+04 0.  0.
        5    1    3    3  502    0  0.24587220336E+03 -0.40354291080E+02  0.87341225850E+03  0.90826905292E+03  0.46999998093E+01 0.  1.
       -5    1    3    3    0  502 -0.24587220336E+03  0.40354291080E+02 -0.66324124333E+03  0.70851439367E+03  0.46999998093E+01 0. -1.
</event>
<event>
 5   0  0.3210612E-04  0.1603110E+04  0.7818609E-02  0.8818640E-01
        2   -1    0    0  501    0  0.00000000000E+00  0.00000000000E+00  0.19321327480E+04  0.19321327480E+04  0.25500000920E-02 0. -1.
       -2   -1    0    0    0  501  0.00000000000E+00  0.00000000000E+00 -0.33252906636E+03  0.33252906637E+03  0.25500000920E-02 0.  1.
    10030    2    1    2    0    0  0.00000000000E+00  0.00000000000E+00  0.15996036816E+04  0.22646618144E+04  0.16031098512E+04 0.  0.
        2    1    3    3  502    0 -0.32900724956E+03  0.25422246283E+03  0.17678818920E+04  0.18161170708E+04  0.25500000920E-02 0. -1.
       -2    1    3    3    0  502  0.32900724956E+03 -0.25422246283E+03 -0.16827821037E+03  0.44854474354E+03  0.25500000920E-02 0.  1.
</event>
<event>
 5   0  0.3228393E-04  0.1579323E+04  0.7818609E-02  0.8833352E-01
       -2   -1    0    0    0  501  0.00000000000E+00  0.00000000000E+00  0.73111013130E+03  0.73111013130E+03  0.25500000920E-02 0.  1.
        2   -1    0    0  501    0  0.00000000000E+00  0.00000000000E+00 -0.85290252087E+03  0.85290252088E+03  0.25500000920E-02 0. -1.
    10030    2    1    2    0    0  0.00000000000E+00  0.00000000000E+00 -0.12179238958E+03  0.15840126522E+04  0.15793234932E+04 0.  0.
        1    1    3    3  502    0 -0.31770096302E+03 -0.49483305073E+02 -0.78427486823E+03  0.84762584219E+03  0.50400001928E-02 0. -1.
       -1    1    3    3    0  502  0.31770096302E+03  0.49483305073E+02  0.66248247865E+03  0.73638680999E+03  0.50400001928E-02 0.  1.
</event>
<event>
 5   0  0.1819811E-04  0.1478683E+04  0.7818609E-02  0.8898753E-01
        1   -1    0    0  501    0  0.00000000000E+00  0.00000000000E+00  0.70812260758E+03  0.70812260760E+03  0.50400001928E-02 0. -1.
       -1   -1    0    0    0  501  0.00000000000E+00  0.00000000000E+00 -0.77193696674E+03  0.77193696676E+03  0.50400001928E-02 0.  1.
    10030    2    1    2    0    0  0.00000000000E+00  0.00000000000E+00 -0.63814359158E+02  0.14800595744E+04  0.14786832221E+04 0.  0.
        1    1    3    3  502    0 -0.35452166121E+03  0.18693024017E+02 -0.68104068933E+03  0.76801787607E+03  0.50400001928E-02 0.  1.
       -1    1    3    3    0  502  0.35452166121E+03 -0.18693024017E+02  0.61722633018E+03  0.71204169829E+03  0.50400001928E-02 0. -1.
</event>
<event>
 5   0  0.3263294E-04  0.1595127E+04  0.7818609E-02  0.8823547E-01
       -2   -1    0    0    0  501  0.00000000000E+00  0.00000000000E+00  0.42061828074E+03  0.42061828075E+03  0.25500000920E-02 0.  1.
        2   -1    0    0  501    0  0.00000000000E+00  0.00000000000E+00 -0.15123152624E+04  0.15123152624E+04  0.25500000920E-02 0. -1.
    10030    2    1    2    0    0  0.00000000000E+00  0.00000000000E+00 -0.10916969817E+04  0.19329335432E+04  0.15951268860E+04 0.  0.
        4    1    3    3  502    0 -0.69505317353E+03 -0.18792904769E+03 -0.96155872433E+03  0.12012547749E+04  0.12699999809E+01 0. -1.
       -4    1    3    3    0  502  0.69505317353E+03  0.18792904769E+03 -0.13013825734E+03  0.73167876826E+03  0.12699999809E+01 0.  1.
</event>
<event>
 5   0  0.3263294E-04  0.1619663E+04  0.7818609E-02  0.8808558E-01
       -2   -1    0    0    0  501  0.00000000000E+00  0.00000000000E+00  0.13622670430E+04  0.13622670430E+04  0.25500000920E-02 0.  1.
        2   -1    0    0  501    0  0.00000000000E+00  0.00000000000E+00 -0.48142341920E+03  0.48142341921E+03  0.25500000920E-02 0. -1.
    10030    2    1    2    0    0  0.00000000000E+00  0.00000000000E+00  0.88084362382E+03  0.18436904622E+04  0.16196632461E+04 0.  0.
        4    1    3    3  502    0  0.36293122399E+03  0.70550741682E+03  0.62525681629E+03  0.10101522102E+04  0.12699999809E+01 0. -1.
       -4    1    3    3    0  502 -0.36293122399E+03 -0.70550741682E+03  0.25558680753E+03  0.83353825205E+03  0.12699999809E+01 0.  1.
</event>
<event>
 5   0  0.3274900E-04  0.1598123E+04  0.7818609E-02  0.8821702E-01
       -2   -1    0    0    0  501  0.00000000000E+00  0.00000000000E+00  0.48517725007E+03  0.48517725008E+03  0.25500000920E-02 0.  1.
        2   -1    0    0  501    0  0.00000000000E+00  0.00000000000E+00 -0.13160117628E+04  0.13160117628E+04  0.25500000920E-02 0. -1.
    10030    2    1    2    0    0  0.00000000000E+00  0.00000000000E+00 -0.83083451272E+03  0.18011890129E+04  0.15981226087E+04 0.  0.
        3    1    3    3  502    0 -0.41127853733E+03  0.68456974544E+03 -0.44551616109E+03  0.91447822917E+03  0.10100000352E+00 0.  1.
       -3    1    3    3    0  502  0.41127853733E+03 -0.68456974544E+03 -0.38531835163E+03  0.88671078370E+03  0.10100000352E+00 0. -1.
</event>
<event>
 5   0  0.1787688E-04  0.1592569E+04  0.7818609E-02  0.8825126E-01
        1   -1    0    0  501    0  0.00000000000E+00  0.00000000000E+00  0.89592966679E+03  0.89592966681E+03  0.50400001928E-02 0. -1.
       -1   -1    0    0    0  501  0.00000000000E+00  0.00000000000E+00 -0.70772195098E+03  0.70772195100E+03  0.50400001928E-02 0.  1.
    10030    2    1    2    0    0  0.00000000000E+00  0.00000000000E+00  0.18820771581E+03  0.16036516178E+04  0.15925691090E+04 0.  0.
        4    1    3    3  502    0 -0.44500431683E+03 -0.44303489126E+03 -0.39895520586E+03  0.74395942501E+03  0.12699999809E+01 0.  1.
       -4    1    3    3    0  502  0.44500431683E+03  0.44303489126E+03  0.58716292167E+03  0.85969219280E+03  0.12699999809E+01 0. -1.
</event>
<event>
 5   0  0.1761255E-04  0.1597569E+04  0.7818609E-02  0.8822043E-01
        1   -1    0    0  501    0  0.00000000000E+00  0.00000000000E+00  0.12535749326E+04  0.12535749326E+04  0.50400001928E-02 0. -1.
       -1   -1    0    0    0  501  0.00000000000E+00  0.00000000000E+00 -0.50898949652E+03  0.50898949654E+03  0.50400001928E-02 0.  1.
    10030    2    1    2    0    0  0.00000000000E+00  0.00000000000E+00  0.74458543609E+03  0.17625644292E+04  0.15975687451E+04 0.  0.
        2    1    3    3  502    0 -0.43646269435E+03 -0.33457470301E+03  0.10114491087E+04  0.11512902393E+04  0.25500000920E-02 0. -1.
       -2    1    3    3    0  502  0.43646269435E+03  0.33457470301E+03 -0.26686367265E+03  0.61127418990E+03  0.25500000920E-02 0.  1.
</event>
<event>
 5   0  0.3274900E-04  0.1506655E+04  0.7818609E-02  0.8880040E-01
        2   -1    0    0  501    0  0.00000000000E+00  0.00000000000E+00  0.20453361227E+04  0.20453361227E+04  0.25500000920E-02 0.  1.
       -2   -1    0    0    0  501  0.00000000000E+00  0.00000000000E+00 -0.27746146230E+03  0.27746146232E+03  0.25500000920E-02 0. -1.
    10030    2    1    2    0    0  0.00000000000E+00  0.00000000000E+00  0.17678746604E+04  0.23227975850E+04  0.15066545079E+04 0.  0.
        3    1    3    3  502    0  0.32259745244E+03 -0.39353428151E+03  0.27550395638E+02  0.50960512316E+03  0.10100000352E+00 0. -1.
       -3    1    3    3    0  502 -0.32259745244E+03  0.39353428151E+03  0.17403242648E+04  0.18131924619E+04  0.10100000352E+00 0.  1.
</event>
<event>
 5   0  0.3263294E-04  0.1603916E+04  0.7818609E-02  0.8818146E-01
        2   -1    0    0  501    0  0.00000000000E+00  0.00000000000E+00  0.87959455934E+03  0.87959455935E+03  0.25500000920E-02 0.  1.
       -2   -1    0    0    0  501  0.00000000000E+00  0.00000000000E+00 -0.73117420027E+03  0.73117420028E+03  0.25500000920E-02 0. -1.
    10030    2    1    2    0    0  0.00000000000E+00  0.00000000000E+00  0.14842035907E+03  0.16107687596E+04  0.16039162678E+04 0.  0.
        4    1    3    3  502    0  0.13498616532E+03  0.28520927697E+03  0.81463181651E+03  0.87360872584E+03  0.12699999809E+01 0.  1.
       -4    1    3    3    0  502 -0.13498616532E+03 -0.28520927697E+03 -0.66621145744E+03  0.73716003379E+03  0.12699999809E+01 0. -1.
</event>
<event>
 5   0  0.3263294E-04  0.1586541E+04  0.7818609E-02  0.8828859E-01
       -2   -1    0    0    0  501  0.00000000000E+00  0.00000000000E+00  0.46523778449E+03  0.46523778449E+03  0.25500000920E-02 0.  1.
        2   -1    0    0  501    0  0.00000000000E+00  0.00000000000E+00 -0.13525952948E+04  0.13525952948E+04  0.25500000920E-02 0. -1.
    10030    2    1    2    0    0  0.00000000000E+00  0.00000000000E+00 -0.88735751031E+03  0.18178330793E+04  0.15865414439E+04 0.  0.
        4    1    3    3  502    0 -0.43269022180E+03 -0.44269763693E+03  0.12469779385E+03  0.63146906376E+03  0.12699999809E+01 0.  1.
       -4    1    3    3    0  502  0.43269022180E+03  0.44269763693E+03 -0.10120553042E+04  0.11863640155E+04  0.12699999809E+01 0. -1.
</event>
<event>
 5   0  0.1736537E-04  0.1613090E+04  0.7818609E-02  0.8812546E-01
        1   -1    0    0  501    0  0.00000000000E+00  0.00000000000E+00  0.66949896411E+03  0.66949896413E+03  0.50400001928E-02 0. -1.
       -1   -1    0    0    0  501  0.00000000000E+00  0.00000000000E+00 -0.97164458384E+03  0.97164458386E+03  0.50400001928E-02 0.  1.
    10030    2    1    2    0    0  0.00000000000E+00  0.00000000000E+00 -0.30214561973E+03  0.16411435480E+04  0.16130902546E+04 0.  0.
        3    1    3    3  502    0 -0.76964307918E+03  0.15738766228E+03  0.34844610966E+02  0.78634312020E+03  0.10100000352E+00 0. -1.
       -3    1    3    3    0  502  0.76964307918E+03 -0.15738766228E+03 -0.33699023070E+03  0.85480042779E+03  0.10100000352E+00 0.  1.
</event>
<event>
 5   0  0.1819811E-04  0.1592962E+04  0.7818609E-02  0.8824883E-01
        1   -1    0    0  501    0  0.00000000000E+00  0.00000000000E+00  0.14931218107E+04  0.14931218107E+04  0.50400001928E-02 0.  1.
       -1   -1    0    0    0  501  0.00000000000E+00  0.00000000000E+00 -0.42486968509E+03  0.42486968512E+03  0.50400001928E-02 0. -1.
    10030    2    1    2    0    0  0.00000000000E+00  0.00000000000E+00  0.10682521256E+04  0.19179914959E+04  0.15929622639E+04 0.  0.
        1    1    3    3  502    0 -0.33477377283E+03 -0.11601751950E+03 -0.32475989547E+03  0.48062722929E+03  0.50400001928E-02 0. -1.
       -1    1    3    3    0  502  0.33477377283E+03  0.11601751950E+03  0.13930120211E+04  0.14373642666E+04  0.50400001928E-02 0.  1.
</event>
<event>
 5   0  0.1761255E-04  0.1605408E+04  0.7818609E-02  0.8817233E-01
        1   -1    0    0  501    0  0.00000000000E+00  0.00000000000E+00  0.11847945836E+04  0.11847945836E+04  0.50400001928E-02 0. -1.
       -1   -1    0    0    0  501  0.00000000000E+00  0.00000000000E+00 -0.54383551409E+03  0.54383551411E+03  0.50400001928E-02 0.  1.
    10030    2    1    2    0    0  0.00000000000E+00  0.00000000000E+00  0.64095906949E+03  0.17286300977E+04  0.16054075763E+04 0.  0.
        2    1    3    3  502    0 -0.13494936200E+03  0.76659856992E+03  0.10934589033E+03  0.78602876629E+03  0.25500000920E-02 0.  1.
       -2    1    3    3    0  502  0.13494936200E+03 -0.76659856992E+03  0.53161317916E+03  0.94260133141E+03  0.25500000920E-02 0. -1.
</event>
<event>
 5   0  0.3228393E-04  0.1720406E+04  0.7818609E-02  0.8749811E-01
       -2   -1    0    0    0  501  0.00000000000E+00  0.00000000000E+00  0.10750180099E+04  0.10750180099E+04  0.25500000920E-02 0.  1.
        2   -1    0    0  501    0  0.00000000000E+00  0.00000000000E+00 -0.68831335598E+03  0.68831335599E+03  0.25500000920E-02 0. -1.
    10030    2    1    2    0    0  0.00000000000E+00  0.00000000000E+00  0.38670465388E+03  0.17633313659E+04  0.17204060615E+04 0.  0.
        1    1    3    3  502    0 -0.70237437485E+02  0.18466954004E+03 -0.66474206292E+03  0.69348262190E+03  0.50400001928E-02 0. -1.
       -1    1    3    3    0  502  0.70237437485E+02 -0.18466954004E+03  0.10514467168E+04  0.10698487440E+04  0.50400001928E-02 0.  1.
</event>
<event>
 5   0  0.3263294E-04  0.1600787E+04  0.7818609E-02  0.8820065E-01
       -2   -1    0    0    0  501  0.00000000000E+00  0.00000000000E+00  0.36907509609E+03  0.36907509610E+03  0.25500000920E-02 0. -1.
        2   -1    0    0  501    0  0.00000000000E+00  0.00000000000E+00 -0.17357711416E+04  0.17357711416E+04  0.25500000920E-02 0.  1.
    10030    2    1    2    0    0  0.00000000000E+00  0.00000000000E+00 -0.13666960455E+04  0.21048462377E+04  0.16007871824E+04 0.  0.
        4    1    3    3  502    0 -0.95572080133E+02 -0.79465084108E+03 -0.67686547506E+03  0.10482139409E+04  0.12699999809E+01 0. -1.
       -4    1    3    3    0  502  0.95572080133E+02  0.79465084108E+03 -0.68983057041E+03  0.10566322967E+04  0.12699999809E+01 0.  1.
</event>
<event>
 5   0  0.1764099E-04  0.1586076E+04  0.7818609E-02  0.8829148E-01
       -1   -1    0    0    0  501  0.00000000000E+00  0.00000000000E+00  0.55575476325E+03  0.55575476327E+03  0.50400001928E-02 0. -1.
        1   -1    0    0  501    0  0.00000000000E+00  0.00000000000E+00 -0.11316305223E+04  0.11316305223E+04  0.50400001928E-02 0.  1.
    10030    2    1    2    0    0  0.00000000000E+00  0.00000000000E+00 -0.57587575907E+03  0.16873852856E+04  0.15860757271E+04 0.  0.
        5    1    3    3  502    0  0.41369429209E+02  0.42798539534E+03  0.42096019558E+03  0.60175784545E+03  0.46999998093E+01 0. -1.
       -5    1    3    3    0  502 -0.41369429209E+02 -0.42798539534E+03 -0.99683595466E+03  0.10856274401E+04  0.46999998093E+01 0.  1.
</event>
<event>
 5   0  0.3228393E-04  0.1609292E+04  0.7818609E-02  0.8814860E-01
       -2   -1    0    0    0  501  0.00000000000E+00  0.00000000000E+00  0.47750382393E+03  0.47750382394E+03  0.25500000920E-02 0.  1.
        2   -1    0    0  501    0  0.00000000000E+00  0.00000000000E+00 -0.13559169853E+04  0.13559169853E+04  0.25500000920E-02 0. -1.
    10030    2    1    2    0    0  0.00000000000E+00  0.00000000000E+00 -0.87841316141E+03  0.18334208093E+04  0.16092924476E+04 0.  0.
        1    1    3    3  502    0  0.75049946089E+03  0.18093039887E+03 -0.69767382553E+03  0.10405450576E+04  0.50400001928E-02 0. -1.
       -1    1    3    3    0  502 -0.75049946089E+03 -0.18093039887E+03 -0.18073933588E+03  0.79287575168E+03  0.50400001928E-02 0.  1.
</event>
<event>
 5   0  0.1736537E-04  0.1589244E+04  0.7818609E-02  0.8827183E-01
        1   -1    0    0  501    0  0.00000000000E+00  0.00000000000E+00  0.62494176595E+03  0.62494176597E+03  0.50400001928E-02 0. -1.
       -1   -1    0    0    0  501  0.00000000000E+00  0.00000000000E+00 -0.10103727077E+04  0.10103727077E+04  0.50400001928E-02 0.  1.
    10030    2    1    2    0    0  0.00000000000E+00  0.00000000000E+00 -0.38543094175E+03  0.16353144737E+04  0.15892439766E+04 0.  0.
        3    1    3    3  502    0  0.26972114596E+03 -0.32985189051E+03  0.49745336721E+03  0.65498979305E+03  0.10100000352E+00 0. -1.
       -3    1    3    3    0  502 -0.26972114596E+03  0.32985189051E+03 -0.88288430896E+03  0.98032468064E+03  0.10100000352E+00 0.  1.
</event>
<event>
 5   0  0.1219463E-04  0.1570750E+04  0.7818609E-02  0.8838721E-01
        3   -1    0    0  501    0  0.00000000000E+00  0.00000000000E+00  0.15156537637E+04  0.15156537671E+04  0.10100000352E+00 0.  1.
       -3   -1    0    0    0  501  0.00000000000E+00  0.00000000000E+00 -0.40696245744E+03  0.40696246997E+03  0.10100000352E+00 0. -1.
    10030    2    1    2    0    0  0.00000000000E+00  0.00000000000E+00  0.11086913063E+04  0.19226162371E+04  0.15707503883E+04 0.  0.
        2    1    3    3  502    0  0.28886383444E+03  0.35587976294E+03  0.13349554221E+04  0.14114526912E+04  0.25500000920E-02 0.  1.
       -2    1    3    3    0  502 -0.28886383444E+03 -0.35587976294E+03 -0.22626411581E+03  0.51116354587E+03  0.25500000920E-02 0. -1.
</event>
<event>
 5   0  0.1764099E-04  0.1600577E+04  0.7818609E-02  0.8820194E-01
        1   -1    0    0  501    0  0.00000000000E+00  0.00000000000E+00  0.54817248463E+03  0.54817248466E+03  0.50400001928E-02 0.  1.
       -1   -1    0    0    0  501  0.00000000000E+00  0.00000000000E+00 -0.11683578289E+04  0.11683578289E+04  0.50400001928E-02 0. -1.
    10030    2    1    2    0    0  0.00000000000E+00  0.00000000000E+00 -0.62018534427E+03  0.17165303136E+04  0.16005769135E+04 0.  0.
        5    1    3    3  502    0 -0.14783260789E+03  0.27955432680E+02  0.53285404660E+03  0.55370706257E+03  0.46999998093E+01 0.  1.
       -5    1    3    3    0  502  0.14783260789E+03 -0.27955432680E+02 -0.11530393909E+04  0.11628232510E+04  0.46999998093E+01 0. -1.
</event>
<event>
 5   0  0.3380454E-04  0.1575300E+04  0.7818609E-02  0.8835868E-01
        2   -1    0    0  501    0  0.00000000000E+00  0.00000000000E+00  0.10126454724E+04  0.10126454724E+04  0.25500000920E-02 0.  1.
       -2   -1    0    0    0  501  0.00000000000E+00  0.00000000000E+00 -0.61264507256E+03  0.61264507256E+03  0.25500000920E-02 0. -1.
    10030    2    1    2    0    0  0.00000000000E+00  0.00000000000E+00  0.40000039986E+03  0.16252905450E+04  0.15752996654E+04 0.  0.
        5    1    3    3  502    0  0.71069587778E+03  0.33878749934E+03  0.22317563584E+03  0.81834898108E+03  0.46999998093E+01 0. -1.
       -5    1    3    3    0  502 -0.71069587778E+03 -0.33878749934E+03  0.17682476402E+03  0.80694156391E+03  0.46999998093E+01 0.  1.
</event>
<event>
 5   0  0.3380454E-04  0.1610752E+04  0.7818609E-02  0.8813970E-01
        2   -1    0    0  501    0  0.00000000000E+00  0.00000000000E+00  0.40046315267E+03  0.40046315268E+03  0.25500000920E-02 0. -1.
       -2   -1    0    0    0  501  0.00000000000E+00  0.00000000000E+00 -0.16197014748E+04  0.16197014748E+04  0.25500000920E-02 0.  1.
    10030    2    1    2    0    0  0.00000000000E+00  0.00000000000E+00 -0.12192383222E+04  0.20201646275E+04  0.16107523199E+04 0.  0.
        5    1    3    3  502    0 -0.49550067854E+03  0.61342351435E+03 -0.40430446574E+03  0.88616788557E+03  0.46999998093E+01 0. -1.
       -5    1    3    3    0  502  0.49550067854E+03 -0.61342351435E+03 -0.81493385642E+03  0.11339967419E+04  0.46999998093E+01 0.  1.
</event>
<event>
 5   0  0.3210612E-04  0.1597269E+04  0.7818609E-02  0.8822228E-01
        2   -1    0    0  501    0  0.00000000000E+00  0.00000000000E+00  0.91087870799E+03  0.91087870799E+03  0.25500000920E-02 0. -1.
       -2   -1    0    0    0  501  0.00000000000E+00  0.00000000000E+00 -0.70022161122E+03  0.70022161122E+03  0.25500000920E-02 0.  1.
    10030    2    1    2    0    0  0.00000000000E+00  0.00000000000E+00  0.21065709677E+03  0.16111003192E+04  0.15972688647E+04 0.  0.
        2    1    3    3  502    0  0.69598792819E+03 -0.31096993020E+03  0.34554087958E+03  0.83695877625E+03  0.25500000920E-02 0.  1.
       -2    1    3    3    0  502 -0.69598792819E+03  0.31096993020E+03 -0.13488378281E+03  0.77414154296E+03  0.25500000920E-02 0. -1.
</event>
<event>
 5   0  0.1819811E-04  0.1596397E+04  0.7818609E-02  0.8822764E-01
       -1   -1    0    0    0  501  0.00000000000E+00  0.00000000000E+00  0.97327709683E+03  0.97327709684E+03  0.50400001928E-02 0. -1.
        1   -1    0    0  501    0  0.00000000000E+00  0.00000000000E+00 -0.65461432784E+03  0.65461432786E+03  0.50400001928E-02 0.  1.
    10030    2    1    2    0    0  0.00000000000E+00  0.00000000000E+00  0.31866276899E+03  0.16278914247E+04  0.15963973598E+04 0.  0.
        1    1    3    3  502    0  0.75499222583E+03 -0.21773099327E+03  0.30246100462E+03  0.84196360125E+03  0.50400001928E-02 0. -1.
       -1    1    3    3    0  502 -0.75499222583E+03  0.21773099327E+03  0.16201764372E+02  0.78592782345E+03  0.50400001928E-02 0.  1.
</event>
<event>
 5   0  0.3380454E-04  0.1618848E+04  0.7818609E-02  0.8809052E-01
       -2   -1    0    0    0  501  0.00000000000E+00  0.00000000000E+00  0.14028756199E+04  0.14028756199E+04  0.25500000920E-02 0. -1.
        2   -1    0    0  501    0  0.00000000000E+00  0.00000000000E+00 -0.46701743106E+03  0.46701743107E+03  0.25500000920E-02 0.  1.
    10030    2    1    2    0    0  0.00000000000E+00  0.00000000000E+00  0.93585818884E+03  0.18698930510E+04  0.16188481931E+04 0.  0.
        5    1    3    3  502    0  0.60454294831E+03 -0.52047316734E+03  0.62622420477E+03  0.10141712572E+04  0.46999998093E+01 0.  1.
       -5    1    3    3    0  502 -0.60454294831E+03  0.52047316734E+03  0.30963398407E+03  0.85572179378E+03  0.46999998093E+01 0. -1.
</event>
<event>
 5   0  0.1764099E-04  0.1613321E+04  0.7818609E-02  0.8812406E-01
       -1   -1    0    0    0  501  0.00000000000E+00  0.00000000000E+00  0.56687531133E+03  0.56687531136E+03  0.50400001928E-02 0.  1.
        1   -1    0    0  501    0  0.00000000000E+00  0.00000000000E+00 -0.11478738953E+04  0.11478738953E+04  0.50400001928E-02 0. -1.
    10030    2    1    2    0    0  0.00000000000E+00  0.00000000000E+00 -0.58099858397E+03  0.17147492067E+04  0.16133212598E+04 0.  0.
        5    1    3    3  502    0 -0.65284176191E+03 -0.23648771273E+03  0.14586052136E+03  0.70952532446E+03  0.46999998093E+01 0.  1.
       -5    1    3    3    0  502  0.65284176191E+03  0.23648771273E+03 -0.72685910533E+03  0.10052238822E+04  0.46999998093E+01 0. -1.
</event>
<event>
 5   0  0.3274900E-04  0.1592280E+04  0.7818609E-02  0.8825305E-01
       -2   -1    0    0    0  501  0.00000000000E+00  0.00000000000E+00  0.88340940183E+03  0.88340940184E+03  0.25500000920E-02 0. -1.
        2   -1    0    0  501    0  0.00000000000E+00  0.00000000000E+00 -0.71749206435E+03  0.71749206435E+03  0.25500000920E-02 0.  1.
    10030    2    1    2    0    0  0.00000000000E+00  0.00000000000E+00  0.16591733749E+03  0.16009014662E+04  0.15922804218E+04 0.  0.
        3    1    3    3  502    0 -0.48034844278E+03  0.11662110212E+03 -0.54452304437E+03  0.73541856381E+03  0.10100000352E+00 0.  1.
       -3    1    3    3    0  502  0.48034844278E+03 -0.11662110212E+03  0.71044038186E+03  0.86548290238E+03  0.10100000352E+00 0. -1.
</event>
<event>
 5   0  0.3380454E-04  0.1600682E+04  0.7818609E-02  0.8820129E-01
        2   -1    0    0  501    0  0.00000000000E+00  0.00000000000E+00  0.68955240316E+03  0.68955240316E+03  0.25500000920E-02 0. -1.
       -2   -1    0    0    0  501  0.00000000000E+00  0.00000000000E+00 -0.92892940239E+03  0.92892940240E+03  0.25500000920E-02 0.  1.
    10030    2    1    2    0    0  0.00000000000E+00  0.00000000000E+00 -0.23937699924E+03  0.16184818056E+04  0.16006817320E+04 0.  0.
        5    1    3    3  502    0  0.10791101162E+03  0.31952528854E+03 -0.85355723356E+03  0.91778169376E+03  0.46999998093E+01 0.  1.
       -5    1    3    3    0  502 -0.10791101162E+03 -0.31952528854E+03  0.61418023432E+03  0.70070011180E+03  0.46999998093E+01 0. -1.
</event>
<event>
 5   0  0.1787688E-04  0.1613441E+04  0.7818609E-02  0.8812333E-01
       -1   -1    0    0    0  501  0.00000000000E+00  0.00000000000E+00  0.12222074936E+04  0.12222074936E+04  0.50400001928E-02 0. -1.
        1   -1    0    0  501    0  0.00000000000E+00  0.00000000000E+00 -0.53247735429E+03  0.53247735432E+03  0.50400001928E-02 0.  1.
    10030    2    1    2    0    0  0.00000000000E+00  0.00000000000E+00  0.68973013926E+03  0.17546848479E+04  0.16134408109E+04 0.  0.
        4    1    3    3  502    0 -0.65213335081E+02 -0.30246605239E+02  0.12187162071E+04  0.12208351414E+04  0.12699999809E+01 0. -1.
       -4    1    3    3    0  502  0.65213335081E+02  0.30246605239E+02 -0.52898606784E+03  0.53384970645E+03  0.12699999809E+01 0.  1.
</event>
<event>
 5   0  0.3274900E-04  0.1593897E+04  0.7818609E-02  0.8824306E-01
        2   -1    0    0  501    0  0.00000000000E+00  0.00000000000E+00  0.14652266955E+04  0.14652266955E+04  0.25500000920E-02 0. -1.
       -2   -1    0    0    0  501  0.00000000000E+00  0.00000000000E+00 -0.43346653360E+03  0.43346653361E+03  0.25500000920E-02 0.  1.
    10030    2    1    2    0    0  0.00000000000E+00  0.00000000000E+00  0.10317601619E+04  0.18986932291E+04  0.15938967804E+04 0.  0.
        3    1    3    3  502    0  0.20382784667E+03 -0.62420793262E+03 -0.22081866557E+02  0.65701518495E+03  0.10100000352E+00 0.  1.
       -3    1    3    3    0  502 -0.20382784667E+03  0.62420793262E+03  0.10538420285E+04  0.12416780442E+04  0.10100000352E+00 0. -1.
</event>
<event>
 5   0  0.3210612E-04  0.1623332E+04  0.7818609E-02  0.8806341E-01
        2   -1    0    0  501    0  0.00000000000E+00  0.00000000000E+00  0.64217243867E+03  0.64217243867E+03  0.25500000920E-02 0.  1.
       -2   -1    0    0    0  501  0.00000000000E+00  0.00000000000E+00 -0.10258953782E+04  0.10258953782E+04  0.25500000920E-02 0. -1.
    10030    2    1    2    0    0  0.00000000000E+00  0.00000000000E+00 -0.38372293950E+03  0.16680678168E+04  0.16233320508E+04 0.  0.
        2    1    3    3  502    0  0.60676366084E+02 -0.70365103041E+03 -0.60287868320E+03  0.92858446071E+03  0.25500000920E-02 0. -1.
       -2    1    3    3    0  502 -0.60676366084E+02  0.70365103041E+03  0.21915574370E+03  0.73948335614E+03  0.25500000920E-02 0.  1.
</event>
<event>
 5   0  0.3263294E-04  0.1605640E+04  0.7818609E-02  0.8817091E-01
       -2   -1    0    0    0  501  0.00000000000E+00  0.00000000000E+00  0.12429848308E+04  0.12429848308E+04  0.25500000920E-02 0. -1.
        2   -1    0    0  501    0  0.00000000000E+00  0.00000000000E+00 -0.51852586574E+03  0.51852586574E+03  0.25500000920E-02 0.  1.
    10030    2    1    2    0    0  0.00000000000E+00  0.00000000000E+00  0.72445896510E+03  0.17615106966E+04  0.16056397921E+04 0.  0.
        4    1    3    3  502    0  0.71814220204E+03 -0.31257527489E+03  0.55565960578E+03  0.96030762530E+03  0.12699999809E+01 0.  1.
       -4    1    3    3    0  502 -0.71814220204E+03  0.31257527489E+03  0.16879935933E+03  0.80120307128E+03  0.12699999809E+01 0. -1.
</event>
<event>
 5   0  0.3274900E-04  0.1609116E+04  0.7818609E-02  0.8814967E-01
       -2   -1    0    0    0  501  0.00000000000E+00  0.00000000000E+00  0.46735550264E+03  0.46735550265E+03  0.25500000920E-02 0. -1.
        2   -1    0    0  501    0  0.00000000000E+00  0.00000000000E+00 -0.13850559503E+04  0.13850559503E+04  0.25500000920E-02 0.  1.
    10030    2    1    2    0    0  0.00000000000E+00  0.00000000000E+00 -0.91770044762E+03  0.18524114529E+04  0.16091159310E+04 0.  0.
        3    1    3    3  502    0 -0.90530097691E+02  0.45092055259E+03  0.30110497237E+03  0.54971743462E+03  0.10100000352E+00 0. -1.
       -3    1    3    3    0  502  0.90530097691E+02 -0.45092055259E+03 -0.12188054200E+04  0.13026940183E+04  0.10100000352E+00 0.  1.
</event>
<event>
 5   0  0.3228393E-04  0.1606607E+04  0.7818609E-02  0.8816499E-01
       -2   -1    0    0    0  501  0.00000000000E+00  0.00000000000E+00  0.50541174089E+03  0.50541174090E+03  0.25500000920E-02 0. -1.
        2   -1    0    0  501    0  0.00000000000E+00  0.00000000000E+00 -0.12767744124E+04  0.12767744124E+04  0.25500000920E-02 0.  1.
    10030    2    1    2    0    0  0.00000000000E+00  0.00000000000E+00 -0.77136267152E+03  0.17821861533E+04  0.16066073304E+04 0.  0.
        1    1    3    3  502    0  0.19101490753E+03  0.29955115080E+03 -0.11848899030E+04  0.12370051209E+04  0.50400001928E-02 0.  1.
       -1    1    3    3    0  502 -0.19101490753E+03 -0.29955115080E+03  0.41352723152E+03  0.54518103239E+03  0.50400001928E-02 0. -1.
</event>
<event>
 5   0  0.3228393E-04  0.1607939E+04  0.7818609E-02  0.8815686E-01
       -2   -1    0    0    0  501  0.00000000000E+00  0.00000000000E+00  0.40752792242E+03  0.40752792243E+03  0.25500000920E-02 0.  1.
        2   -1    0    0  501    0  0.00000000000E+00  0.00000000000E+00 -0.15860680397E+04  0.15860680397E+04  0.25500000920E-02 0. -1.
    10030    2    1    2    0    0  0.00000000000E+00  0.00000000000E+00 -0.11785401172E+04  0.19935959621E+04  0.16079390698E+04 0.  0.
        1    1    3    3  502    0  0.30764417327E+03 -0.43868913870E+03  0.15388664708E+03  0.55747125301E+03  0.50400001928E-02 0.  1.
       -1    1    3    3    0  502 -0.30764417327E+03  0.43868913870E+03 -0.13324267643E+04  0.14361247091E+04  0.50400001928E-02 0. -1.
</event>
<event>
 5   0  0.1819811E-04  0.1475176E+04  0.7818609E-02  0.8901130E-01
        1   -1    0    0  501    0  0.00000000000E+00  0.00000000000E+00  0.10514577316E+04  0.10514577316E+04  0.50400001928E-02 0. -1.
       -1   -1    0    0    0  501  0.00000000000E+00  0.00000000000E+00 -0.51741131531E+03  0.51741131534E+03  0.50400001928E-02 0.  1.
    10030    2    1    2    0    0  0.00000000000E+00  0.00000000000E+00  0.53404641632E+03  0.15688690470E+04  0.14751760952E+04 0.  0.
        1    1    3    3  502    0 -0.81342234452E+02  0.22370903238E+03  0.10094847019E+04  0.10371700215E+04  0.50400001928E-02 0. -1.
       -1    1    3    3    0  502  0.81342234452E+02 -0.22370903238E+03 -0.47543828554E+03  0.53169902544E+03  0.50400001928E-02 0.  1.
</event>
<event>
 5   0  0.1761255E-04  0.1601201E+04  0.7818609E-02  0.8819811E-01
       -1   -1    0    0    0  501  0.00000000000E+00  0.00000000000E+00  0.28477876309E+03  0.28477876313E+03  0.50400001928E-02 0.  1.
        1   -1    0    0  501    0  0.00000000000E+00  0.00000000000E+00 -0.22507326400E+04  0.22507326400E+04  0.50400001928E-02 0. -1.
    10030    2    1    2    0    0  0.00000000000E+00  0.00000000000E+00 -0.19659538769E+04  0.25355114031E+04  0.16012006212E+04 0.  0.
        2    1    3    3  502    0  0.55933866162E+03 -0.52093134862E+03 -0.60581095089E+03  0.97531334277E+03  0.25500000920E-02 0.  1.
       -2    1    3    3    0  502 -0.55933866162E+03  0.52093134862E+03 -0.13601429260E+04  0.15601980604E+04  0.25500000920E-02 0. -1.
</event>
<event>
 5   0  0.3228393E-04  0.1612865E+04  0.7818609E-02  0.8812683E-01
       -2   -1    0    0    0  501  0.00000000000E+00  0.00000000000E+00  0.78589334894E+03  0.78589334894E+03  0.25500000920E-02 0.  1.
        2   -1    0    0  501    0  0.00000000000E+00  0.00000000000E+00 -0.82750863394E+03  0.82750863395E+03  0.25500000920E-02 0. -1.
    10030    2    1    2    0    0  0.00000000000E+00  0.00000000000E+00 -0.41615285004E+02  0.16134019829E+04  0.16128651917E+04 0.  0.
        1    1    3    3  502    0  0.59794099929E+03 -0.51814551965E+03 -0.17682529517E+03  0.81072523286E+03  0.50400001928E-02 0. -1.
       -1    1    3    3    0  502 -0.59794099929E+03  0.51814551965E+03  0.13521001017E+03  0.80267675003E+03  0.50400001928E-02 0.  1.
</event>
<event>
 5   0  0.1764099E-04  0.1610170E+04  0.7818609E-02  0.8814324E-01
        1   -1    0    0  501    0  0.00000000000E+00  0.00000000000E+00  0.18330302062E+04  0.18330302062E+04  0.50400001928E-02 0.  1.
       -1   -1    0    0    0  501  0.00000000000E+00  0.00000000000E+00 -0.35360142016E+03  0.35360142020E+03  0.50400001928E-02 0. -1.
    10030    2    1    2    0    0  0.00000000000E+00  0.00000000000E+00  0.14794287860E+04  0.21866316264E+04  0.16101702819E+04 0.  0.
        5    1    3    3  502    0  0.76084494229E+03 -0.24573860680E+03  0.61183382957E+03  0.10067945243E+04  0.46999998093E+01 0.  1.
       -5    1    3    3    0  502 -0.76084494229E+03  0.24573860680E+03  0.86759495643E+03  0.11798371021E+04  0.46999998093E+01 0. -1.
</event>
<event>
 5   0  0.3380454E-04  0.1577313E+04  0.7818609E-02  0.8834608E-01
        2   -1    0    0  501    0  0.00000000000E+00  0.00000000000E+00  0.50446583451E+03  0.50446583451E+03  0.25500000920E-02 0. -1.
       -2   -1    0    0    0  501  0.00000000000E+00  0.00000000000E+00 -0.12329451273E+04  0.12329451273E+04  0.25500000920E-02 0.  1.
    10030    2    1    2    0    0  0.00000000000E+00  0.00000000000E+00 -0.72847929280E+03  0.17374109618E+04  0.15773125151E+04 0.  0.
        5    1    3    3  502    0 -0.23867107828E+03 -0.86923666591E+01 -0.11921383305E+04  0.12158352396E+04  0.46999998093E+01 0.  1.
       -5    1    3    3    0  502  0.23867107828E+03  0.86923666591E+01  0.46365903765E+03  0.52157572225E+03  0.46999998093E+01 0. -1.
</event>
<event>
 5   0  0.1736537E-04  0.1579350E+04  0.7818609E-02  0.8833336E-01
        1   -1    0    0  501    0  0.00000000000E+00  0.00000000000E+00  0.15849132339E+04  0.15849132339E+04  0.50400001928E-02 0.  1.
       -1   -1    0    0    0  501  0.00000000000E+00  0.00000000000E+00 -0.39345142929E+03  0.39345142932E+03  0.50400001928E-02 0. -1.
    10030    2    1    2    0    0  0.00000000000E+00  0.00000000000E+00  0.11914618046E+04  0.19783646632E+04  0.15793497108E+04 0.  0.
        3    1    3    3  502    0 -0.50982798324E+03 -0.52473963905E+03  0.96797964832E+03  0.12133675746E+04  0.10100000352E+00 0. -1.
       -3    1    3    3    0  502  0.50982798324E+03  0.52473963905E+03  0.22348215630E+03  0.76499708866E+03  0.10100000352E+00 0.  1.
</event>
<event>
 5   0  0.3210612E-04  0.1598298E+04  0.7818609E-02  0.8821594E-01
        2   -1    0    0  501    0  0.00000000000E+00  0.00000000000E+00  0.12756703759E+04  0.12756703759E+04  0.25500000920E-02 0. -1.
       -2   -1    0    0    0  501  0.00000000000E+00  0.00000000000E+00 -0.50063029953E+03  0.50063029954E+03  0.25500000920E-02 0.  1.
    10030    2    1    2    0    0  0.00000000000E+00  0.00000000000E+00  0.77504007635E+03  0.17763006754E+04  0.15982981479E+04 0.  0.
        2    1    3    3  502    0  0.55876118075E+03 -0.55319157372E+03  0.22876804207E+03  0.81888325872E+03  0.25500000920E-02 0.  1.
       -2    1    3    3    0  502 -0.55876118075E+03  0.55319157372E+03  0.54627203428E+03  0.95741741669E+03  0.25500000920E-02 0. -1.
</event>
<event>
 5   0  0.1787688E-04  0.1596301E+04  0.7818609E-02  0.8822823E-01
       -1   -1    0    0    0  501  0.00000000000E+00  0.00000000000E+00  0.37013035442E+03  0.37013035445E+03  0.50400001928E-02 0.  1.
        1   -1    0    0  501    0  0.00000000000E+00  0.00000000000E+00 -0.17211357512E+04  0.17211357512E+04  0.50400001928E-02 0. -1.
    10030    2    1    2    0    0  0.00000000000E+00  0.00000000000E+00 -0.13510053968E+04  0.20912661057E+04  0.15963014573E+04 0.  0.
        4    1    3    3  502    0 -0.44832185319E+03 -0.65821482264E+03 -0.60613409624E+03  0.10008193605E+04  0.12699999809E+01 0. -1.
       -4    1    3    3    0  502  0.44832185319E+03  0.65821482264E+03 -0.74487130053E+03  0.10904467452E+04  0.12699999809E+01 0.  1.
</event>
<event>
 5   0  0.1764099E-04  0.1632336E+04  0.7818609E-02  0.8800925E-01
       -1   -1    0    0    0  501  0.00000000000E+00  0.00000000000E+00  0.11947902977E+04  0.11947902977E+04  0.50400001928E-02 0.  1.
        1   -1    0    0  501    0  0.00000000000E+00  0.00000000000E+00 -0.55752903791E+03  0.55752903793E+03  0.50400001928E-02 0. -1.
    10030    2    1    2    0    0  0.00000000000E+00  0.00000000000E+00  0.63726125975E+03  0.17523193356E+04  0.16323360992E+04 0.  0.
        5    1    3    3  502    0 -0.59380874455E+03  0.48064800590E+03  0.62692794247E+03  0.98827732228E+03  0.46999998093E+01 0.  1.
       -5    1    3    3    0  502  0.59380874455E+03 -0.48064800590E+03  0.10333317279E+02  0.76404201332E+03  0.46999998093E+01 0. -1.
</event>
<event>
 5   0  0.1819811E-04  0.1604627E+04  0.7818609E-02  0.8817711E-01
       -1   -1    0    0    0  501  0.00000000000E+00  0.00000000000E+00  0.52853549009E+03  0.52853549011E+03  0.50400001928E-02 0. -1.
        1   -1    0    0  501    0  0.00000000000E+00  0.00000000000E+00 -0.12179067063E+04  0.12179067063E+04  0.50400001928E-02 0.  1.
    10030    2    1    2    0    0  0.00000000000E+00  0.00000000000E+00 -0.68937121617E+03  0.17464421964E+04  0.16046269572E+04 0.  0.
        1    1    3    3  502    0  0.76138225379E+03 -0.14850201147E+03 -0.12176409357E+03  0.78522753283E+03  0.50400001928E-02 0. -1.
       -1    1    3    3    0  502 -0.76138225379E+03  0.14850201147E+03 -0.56760712260E+03  0.96121466356E+03  0.50400001928E-02 0.  1.
</event>
<event>
 5   0  0.1761255E-04  0.1606699E+04  0.7818609E-02  0.8816443E-01
       -1   -1    0    0    0  501  0.00000000000E+00  0.00000000000E+00  0.68115380111E+03  0.68115380112E+03  0.50400001928E-02 0. -1.
        1   -1    0    0  501    0  0.00000000000E+00  0.00000000000E+00 -0.94746666788E+03  0.94746666790E+03  0.50400001928E-02 0.  1.
    10030    2    1    2    0    0  0.00000000000E+00  0.00000000000E+00 -0.26631286678E+03  0.16286204690E+04  0.16066991284E+04 0.  0.
        2    1    3    3  502    0  0.66492550191E+03  0.21519297160E+03 -0.53471364381E+03  0.87997307857E+03  0.25500000920E-02 0.  1.
       -2    1    3    3    0  502 -0.66492550191E+03 -0.21519297160E+03  0.26840077704E+03  0.74864739045E+03  0.25500000920E-02 0. -1.
</event>
<event>
 5   0  0.3274900E-04  0.1614075E+04  0.7818609E-02  0.8811948E-01
        2   -1    0    0  501    0  0.00000000000E+00  0.00000000000E+00  0.89108647225E+03  0.89108647226E+03  0.25500000920E-02 0.  1.
       -2   -1    0    0    0  501  0.00000000000E+00  0.00000000000E+00 -0.73091588639E+03  0.73091588640E+03  0.25500000920E-02 0. -1.
    10030    2    1    2    0    0  0.00000000000E+00  0.00000000000E+00  0.16017058586E+03  0.16220023587E+04  0.16140746683E+04 0.  0.
        3    1    3    3  502    0  0.68517744899E+03 -0.27930375101E+03 -0.24372480506E+03  0.77902536078E+03  0.10100000352E+00 0. -1.
       -3    1    3    3    0  502 -0.68517744899E+03  0.27930375101E+03  0.40389539092E+03  0.84297699787E+03  0.10100000352E+00 0.  1.
</event>
<event>
 5   0  0.3228393E-04  0.1603947E+04  0.7818609E-02  0.8818127E-01
        2   -1    0    0  501    0  0.00000000000E+00  0.00000000000E+00  0.13751095433E+04  0.13751095433E+04  0.25500000920E-02 0. -1.
       -2   -1    0    0    0  501  0.00000000000E+00  0.00000000000E+00 -0.46771644030E+03  0.46771644031E+03  0.25500000920E-02 0.  1.
    10030    2    1    2    0    0  0.00000000000E+00  0.00000000000E+00  0.90739310295E+03  0.18428259836E+04  0.16039468079E+04 0.  0.
        1    1    3    3  502    0  0.63864106079E+03 -0.33086484229E+03  0.46145551115E+02  0.72073806636E+03  0.50400001928E-02 0.  1.
       -1    1    3    3    0  502 -0.63864106079E+03  0.33086484229E+03  0.86124755184E+03  0.11220879172E+04  0.50400001928E-02 0. -1.
</event>
<event>
 5   0  0.1761255E-04  0.1617325E+04  0.7818609E-02  0.8809975E-01
       -1   -1    0    0    0  501  0.00000000000E+00  0.00000000000E+00  0.65768260843E+03  0.65768260845E+03  0.50400001928E-02 0.  1.
        1   -1    0    0  501    0  0.00000000000E+00  0.00000000000E+00 -0.99430157546E+03  0.99430157547E+03  0.50400001928E-02 0. -1.
    10030    2    1    2    0    0  0.00000000000E+00  0.00000000000E+00 -0.33661896703E+03  0.16519841839E+04  0.16173247710E+04 0.  0.
        2    1    3    3  502    0  0.13085710261E+03 -0.11348375887E+03 -0.97513109667E+03  0.99039527490E+03  0.25500000920E-02 0. -1.
       -2    1    3    3    0  502 -0.13085710261E+03  0.11348375887E+03  0.63851212964E+03  0.66158890902E+03  0.25500000920E-02 0.  1.
</event>
<event>
 5   0  0.1787688E-04  0.1596096E+04  0.7818609E-02  0.8822950E-01
        1   -1    0    0  501    0  0.00000000000E+00  0.00000000000E+00  0.11909053761E+04  0.11909053761E+04  0.50400001928E-02 0.  1.
       -1   -1    0    0    0  501  0.00000000000E+00  0.00000000000E+00 -0.53478688944E+03  0.53478688946E+03  0.50400001928E-02 0. -1.
    10030    2    1    2    0    0  0.00000000000E+00  0.00000000000E+00  0.65611848664E+03  0.17256922656E+04  0.15960959642E+04 0.  0.
        4    1    3    3  502    0  0.46937988017E+03 -0.33967621964E+03  0.92141962361E+03  0.10884452865E+04  0.12699999809E+01 0.  1.
       -4    1    3    3    0  502 -0.46937988017E+03  0.33967621964E+03 -0.26530113697E+03  0.63724697902E+03  0.12699999809E+01 0. -1.
</event>
<event>
 5   0  0.1736537E-04  0.1596843E+04  0.7818609E-02  0.8822490E-01
        1   -1    0    0  501    0  0.00000000000E+00  0.00000000000E+00  0.17379248758E+04  0.17379248758E+04  0.50400001928E-02 0.  1.
       -1   -1    0    0    0  501  0.00000000000E+00  0.00000000000E+00 -0.36680336717E+03  0.36680336721E+03  0.50400001928E-02 0. -1.
    10030    2    1    2    0    0  0.00000000000E+00  0.00000000000E+00  0.13711215086E+04  0.21047282430E+04  0.15968427554E+04 0.  0.
        3    1    3    3  502    0  0.47103319247E+03  0.36649856629E+02  0.15339028329E+04  0.16050150751E+04  0.10100000352E+00 0.  1.
       -3    1    3    3    0  502 -0.47103319247E+03 -0.36649856629E+02 -0.16278132430E+03  0.49971316787E+03  0.10100000352E+00 0. -1.
</event>
<event>
 5   0  0.1787688E-04  0.1597208E+04  0.7818609E-02  0.8822265E-01
       -1   -1    0    0    0  501  0.00000000000E+00  0.00000000000E+00  0.87112587429E+03  0.87112587430E+03  0.50400001928E-02 0. -1.
        1   -1    0    0  501    0  0.00000000000E+00  0.00000000000E+00 -0.73211993503E+03  0.73211993505E+03  0.50400001928E-02 0.  1.
    10030    2    1    2    0    0  0.00000000000E+00  0.00000000000E+00  0.13900593925E+03  0.16032458094E+04  0.15972083377E+04 0.  0.
        4    1    3    3  502    0  0.56169720310E+03 -0.33848939451E+03 -0.38794788454E+03  0.76196062377E+03  0.12699999809E+01 0.  1.
       -4    1    3    3    0  502 -0.56169720310E+03  0.33848939451E+03  0.52695382379E+03  0.84128518558E+03  0.12699999809E+01 0. -1.
</event>
<event>
 5   0  0.3210612E-04  0.1584026E+04  0.7818609E-02  0.8830422E-01
        2   -1    0    0  501    0  0.00000000000E+00  0.00000000000E+00  0.55622256201E+03  0.55622256201E+03  0.25500000920E-02 0. -1.
       -2   -1    0    0    0  501  0.00000000000E+00  0.00000000000E+00 -0.11277577614E+04  0.11277577614E+04  0.25500000920E-02 0.  1.
    10030    2    1    2    0    0  0.00000000000E+00  0.00000000000E+00 -0.57153519936E+03  0.16839803234E+04  0.15840256454E+04 0.  0.
        2    1    3    3  502    0 -0.75370606252E+03 -0.24041724477E+03 -0.32570162554E+03  0.85554358694E+03  0.25500000920E-02 0. -1.
       -2    1    3    3    0  502  0.75370606252E+03  0.24041724477E+03 -0.24583357382E+03  0.82843673644E+03  0.25500000920E-02 0.  1.
</event>
<event>
 5   0  0.3228393E-04  0.1606187E+04  0.7818609E-02  0.8816756E-01
        2   -1    0    0  501    0  0.00000000000E+00  0.00000000000E+00  0.15006084435E+04  0.15006084435E+04  0.25500000920E-02 0.  1.
       -2   -1    0    0    0  501  0.00000000000E+00  0.00000000000E+00 -0.42979826919E+03  0.42979826919E+03  0.25500000920E-02 0. -1.
    10030    2    1    2    0    0  0.00000000000E+00  0.00000000000E+00  0.10708101743E+04  0.19304067126E+04  0.16061866787E+04 0.  0.
        1    1    3    3  502    0 -0.35603945796E+03  0.43260250661E+03 -0.15610659553E+03  0.58161696463E+03  0.50400001928E-02 0. -1.
       -1    1    3    3    0  502  0.35603945796E+03 -0.43260250661E+03  0.12269167698E+04  0.13487897480E+04  0.50400001928E-02 0.  1.
</event>
<event>
 5   0  0.1819811E-04  0.1603160E+04  0.7818609E-02  0.8818609E-01
       -1   -1    0    0    0  501  0.00000000000E+00  0.00000000000E+00  0.24777540919E+03  0.24777540924E+03  0.50400001928E-02 0. -1.
        1   -1    0    0  501    0  0.00000000000E+00  0.00000000000E+00 -0.25931975929E+04  0.25931975929E+04  0.50400001928E-02 0.  1.
    10030    2    1    2    0    0  0.00000000000E+00  0.00000000000E+00 -0.23454221837E+04  0.28409730022E+04  0.16031601227E+04 0.  0.
        1    1    3    3  502    0 -0.21145531960E+02 -0.63400133534E+03 -0.30433153977E+03  0.70357836298E+03  0.50400001928E-02 0. -1.
       -1    1    3    3    0  502  0.21145531960E+02  0.63400133534E+03 -0.20410906440E+04  0.21373946392E+04  0.50400001928E-02 0.  1.
</event>
<event>
 5   0  0.3210612E-04  0.1601699E+04  0.7818609E-02  0.8819505E-01
       -2   -1    0    0    0  501  0.00000000000E+00  0.00000000000E+00  0.75829175131E+03  0.75829175132E+03  0.25500000920E-02 0.  1.
        2   -1    0    0  501    0  0.00000000000E+00  0.00000000000E+00 -0.84579611612E+03  0.84579611613E+03  0.25500000920E-02 0. -1.
    10030    2    1    2    0    0  0.00000000000E+00  0.00000000000E+00 -0.87504364811E+02  0.16040878674E+04  0.16016993702E+04 0.  0.
        2    1    3    3  502    0 -0.40881353617E+03  0.55596783750E+02 -0.73117265892E+03  0.83954330852E+03  0.25500000920E-02 0. -1.
       -2    1    3    3    0  502  0.40881353617E+03 -0.55596783750E+02  0.64366829411E+03  0.76454455892E+03  0.25500000920E-02 0.  1.
</event>
<event>
 5   0  0.1736537E-04  0.1598043E+04  0.7818609E-02  0.8821751E-01
        1   -1    0    0  501    0  0.00000000000E+00  0.00000000000E+00  0.65940795287E+03  0.65940795289E+03  0.50400001928E-02 0. -1.
       -1   -1    0    0    0  501  0.00000000000E+00  0.00000000000E+00 -0.96819471458E+03  0.96819471459E+03  0.50400001928E-02 0.  1.
    10030    2    1    2    0    0  0.00000000000E+00  0.00000000000E+00 -0.30878676171E+03  0.16276026675E+04  0.15980429215E+04 0.  0.
        3    1    3    3  502    0 -0.33542319540E+03 -0.20659396825E+02  0.58392930298E+03  0.67372766884E+03  0.10100000352E+00 0. -1.
       -3    1    3    3    0  502  0.33542319540E+03  0.20659396825E+02 -0.89271606468E+03  0.95387499864E+03  0.10100000352E+00 0.  1.
</event>
<event>
 5   0  0.3228393E-04  0.1529179E+04  0.7818609E-02  0.8865278E-01
        2   -1    0    0  501    0  0.00000000000E+00  0.00000000000E+00  0.62103892283E+03  0.62103892284E+03  0.25500000920E-02 0.  1.
       -2   -1    0    0    0  501  0.00000000000E+00  0.00000000000E+00 -0.94132142194E+03  0.94132142195E+03  0.25500000920E-02 0. -1.
    10030    2    1    2    0    0  0.00000000000E+00  0.00000000000E+00 -0.32028249911E+03  0.15623603448E+04  0.15291791810E+04 0.  0.
        1    1    3    3  502    0 -0.73211437922E+03  0.19289117466E+03 -0.51059556141E+02  0.75881852100E+03  0.50400001928E-02 0.  1.
       -1    1    3    3    0  502  0.73211437922E+03 -0.19289117466E+03 -0.26922294297E+03  0.80354182378E+03  0.50400001928E-02 0. -1.
</event>
<event>
 5   0  0.1736537E-04  0.1596030E+04  0.7818609E-02  0.8822991E-01
        1   -1    0    0  501    0  0.00000000000E+00  0.00000000000E+00  0.54527629943E+03  0.54527629946E+03  0.50400001928E-02 0. -1.
       -1   -1    0    0    0  501  0.00000000000E+00  0.00000000000E+00 -0.11678989782E+04  0.11678989782E+04  0.50400001928E-02 0.  1.
    10030    2    1    2    0    0  0.00000000000E+00  0.00000000000E+00 -0.62262267878E+03  0.17131752777E+04  0.15960296150E+04 0.  0.
        3    1    3    3  502    0  0.73623049695E+01 -0.16293854329E+03  0.52719365828E+03  0.55184810949E+03  0.10100000352E+00 0. -1.
       -3    1    3    3    0  502 -0.73623049695E+01  0.16293854329E+03 -0.11498163371E+04  0.11613271682E+04  0.10100000352E+00 0.  1.
</event>
<event>
 5   0  0.3380454E-04  0.1597879E+04  0.7818609E-02  0.8821852E-01
       -2   -1    0    0    0  501  0.00000000000E+00  0.00000000000E+00  0.32312435975E+03  0.32312435976E+03  0.25500000920E-02 0. -1.
        2   -1    0    0  501    0  0.00000000000E+00  0.00000000000E+00 -0.19754149119E+04  0.19754149119E+04  0.25500000920E-02 0.  1.
    10030    2    1    2    0    0  0.00000000000E+00  0.00000000000E+00 -0.16522905522E+04  0.22985392717E+04  0.15978794431E+04 0.  0.
        5    1    3    3  502    0  0.20220342775E+03 -0.91509037311E+02 -0.19301574079E+04  0.19428818387E+04  0.46999998093E+01 0.  1.
       -5    1    3    3    0  502 -0.20220342775E+03  0.91509037311E+02  0.27786685571E+03  0.35565743294E+03  0.46999998093E+01 0. -1.
</event>
<event>
 5   0  0.3228393E-04  0.1602919E+04  0.7818609E-02  0.8818757E-01
        2   -1    0    0  501    0  0.00000000000E+00  0.00000000000E+00  0.12949376782E+04  0.12949376782E+04  0.25500000920E-02 0. -1.
       -2   -1    0    0    0  501  0.00000000000E+00  0.00000000000E+00 -0.49603719461E+03  0.49603719462E+03  0.25500000920E-02 0.  1.
    10030    2    1    2    0    0  0.00000000000E+00  0.00000000000E+00  0.79890048362E+03  0.17909748728E+04  0.16029189039E+04 0.  0.
        1    1    3    3  502    0 -0.16332461247E+03  0.46610038166E+03  0.11047026222E+04  0.12100794926E+04  0.50400001928E-02 0. -1.
       -1    1    3    3    0  502  0.16332461247E+03 -0.46610038166E+03 -0.30580213859E+03  0.58089538027E+03  0.50400001928E-02 0.  1.
</event>
<event>
 5   0  0.1761255E-04  0.1599029E+04  0.7818609E-02  0.8821145E-01
        1   -1    0    0  501    0  0.00000000000E+00  0.00000000000E+00  0.18101343991E+04  0.18101343991E+04  0.50400001928E-02 0. -1.
       -1   -1    0    0    0  501  0.00000000000E+00  0.00000000000E+00 -0.35313574234E+03  0.35313574238E+03  0.50400001928E-02 0.  1.
    10030    2    1    2    0    0  0.00000000000E+00  0.00000000000E+00  0.14569986567E+04  0.21632701414E+04  0.15990286486E+04 0.  0.
        2    1    3    3  502    0  0.22631063655E+03  0.42679770141E+03  0.15903608380E+04  0.16621132263E+04  0.25500000920E-02 0. -1.
       -2    1    3    3    0  502 -0.22631063655E+03 -0.42679770141E+03 -0.13336218129E+03  0.50115691509E+03  0.25500000920E-02 0.  1.
</event>
<event>
 5   0  0.3210612E-04  0.1610216E+04  0.7818609E-02  0.8814296E-01
        2   -1    0    0  501    0  0.00000000000E+00  0.00000000000E+00  0.60367500932E+03  0.60367500933E+03  0.25500000920E-02 0.  1.
       -2   -1    0    0    0  501  0.00000000000E+00  0.00000000000E+00 -0.10737550514E+04  0.10737550514E+04  0.25500000920E-02 0. -1.
    10030    2    1    2    0    0  0.00000000000E+00  0.00000000000E+00 -0.47008004205E+03  0.16774300607E+04  0.16102162472E+04 0.  0.
        2    1    3    3  502    0 -0.70467169716E+03 -0.15633153196E+03 -0.60657459589E+03  0.94283322441E+03  0.25500000920E-02 0.  1.
       -2    1    3    3    0  502  0.70467169716E+03  0.15633153196E+03  0.13649455384E+03  0.73459683630E+03  0.25500000920E-02 0. -1.
</event>
<event>
 5   0  0.3228393E-04  0.1576826E+04  0.7818609E-02  0.8834913E-01
        2   -1    0    0  501    0  0.00000000000E+00  0.00000000000E+00  0.54856007999E+03  0.54856008000E+03  0.25500000920E-02 0.  1.
       -2   -1    0    0    0  501  0.00000000000E+00  0.00000000000E+00 -0.11331392442E+04  0.11331392442E+04  0.25500000920E-02 0. -1.
    10030    2    1    2    0    0  0.00000000000E+00  0.00000000000E+00 -0.58457916417E+03  0.16816993242E+04  0.15768258679E+04 0.  0.
        1    1    3    3  502    0  0.56806961813E+03  0.18304042767E+03  0.25713148470E+03  0.64986420863E+03  0.50400001928E-02 0.  1.
       -1    1    3    3    0  502 -0.56806961813E+03 -0.18304042767E+03 -0.84171064888E+03  0.10318351155E+04  0.50400001928E-02 0. -1.
</event>
<event>
 5   0  0.1761255E-04  0.1567874E+04  0.7818609E-02  0.8840531E-01
        1   -1    0    0  501    0  0.00000000000E+00  0.00000000000E+00  0.10547988987E+04  0.10547988987E+04  0.50400001928E-02 0. -1.
       -1   -1    0    0    0  501  0.00000000000E+00  0.00000000000E+00 -0.58262996811E+03  0.58262996813E+03  0.50400001928E-02 0.  1.
    10030    2    1    2    0    0  0.00000000000E+00  0.00000000000E+00  0.47216893062E+03  0.16374288669E+04  0.15678742918E+04 0.  0.
        2    1    3    3  502    0  0.43169247300E+03  0.56362758540E+03  0.58328272577E+03  0.91883251165E+03  0.25500000920E-02 0. -1.
       -2    1    3    3    0  502 -0.43169247300E+03 -0.56362758540E+03 -0.11111379515E+03  0.71859635523E+03  0.25500000920E-02 0.  1.
</event>
<event>
 5   0  0.1787688E-04  0.1599284E+04  0.7818609E-02  0.8820988E-01
        1   -1    0    0  501    0  0.00000000000E+00  0.00000000000E+00  0.75883106434E+03  0.75883106435E+03  0.50400001928E-02 0. -1.
       -1   -1    0    0    0  501  0.00000000000E+00  0.00000000000E+00 -0.84264829019E+03  0.84264829021E+03  0.50400001928E-02 0.  1.
    10030    2    1    2    0    0  0.00000000000E+00  0.00000000000E+00 -0.83817225858E+02  0.16014793546E+04  0.15992844637E+04 0.  0.
        4    1    3    3  502    0 -0.12643316277E+03  0.77931817495E+03  0.85166784466E+02  0.79408888453E+03  0.12699999809E+01 0.  1.
       -4    1    3    3    0  502  0.12643316277E+03 -0.77931817495E+03 -0.16898401032E+03  0.80739047003E+03  0.12699999809E+01 0. -1.
</event>
<event>
 5   0  0.3380454E-04  0.1582309E+04  0.7818609E-02  0.8831491E-01
        2   -1    0    0  501    0  0.00000000000E+00  0.00000000000E+00  0.11827148936E+04  0.11827148936E+04  0.25500000920E-02 0.  1.
       -2   -1    0    0    0  501  0.00000000000E+00  0.00000000000E+00 -0.52922749138E+03  0.52922749138E+03  0.25500000920E-02 0. -1.
    10030    2    1    2    0    0  0.00000000000E+00  0.00000000000E+00  0.65348740222E+03  0.17119423850E+04  0.15823087387E+04 0.  0.
        5    1    3    3  502    0 -0.81065597854E+02  0.24384474885E+03 -0.48280317738E+03  0.54694870947E+03  0.46999998093E+01 0. -1.
       -5    1    3    3    0  502  0.81065597854E+02 -0.24384474885E+03  0.11362905796E+04  0.11649936755E+04  0.46999998093E+01 0.  1.
</event>
<event>
 5   0  0.1736537E-04  0.1600828E+04  0.7818609E-02  0.8820040E-01
       -1   -1    0    0    0  501  0.00000000000E+00  0.00000000000E+00  0.37145828497E+03  0.37145828501E+03  0.50400001928E-02 0.  1.
        1   -1    0    0  501    0  0.00000000000E+00  0.00000000000E+00 -0.17247224460E+04  0.17247224461E+04  0.50400001928E-02 0. -1.
    10030    2    1    2    0    0  0.00000000000E+00  0.00000000000E+00 -0.13532641611E+04  0.20961807311E+04  0.16008278382E+04 0.  0.
        3    1    3    3  502    0  0.55401603964E+03 -0.24381491758E+03  0.91458406269E+01  0.60536199320E+03  0.10100000352E+00 0.  1.
       -3    1    3    3    0  502 -0.55401603964E+03  0.24381491758E+03 -0.13624100017E+04  0.14908187379E+04  0.10100000352E+00 0. -1.
</event>
<event>
 5   0  0.1736537E-04  0.1523289E+04  0.7818609E-02  0.8869112E-01
        1   -1    0    0  501    0  0.00000000000E+00  0.00000000000E+00  0.62428695952E+03  0.62428695954E+03  0.50400001928E-02 0. -1.
       -1   -1    0    0    0  501  0.00000000000E+00  0.00000000000E+00 -0.92922353597E+03  0.92922353598E+03  0.50400001928E-02 0.  1.
    10030    2    1    2    0    0  0.00000000000E+00  0.00000000000E+00 -0.30493657645E+03  0.15535104955E+04  0.15232887264E+04 0.  0.
        3    1    3    3  502    0 -0.74348005597E+03 -0.89576095410E+02 -0.29420641449E+03  0.80457684221E+03  0.10100000352E+00 0. -1.
       -3    1    3    3    0  502  0.74348005597E+03  0.89576095410E+02 -0.10730161951E+02  0.74893365331E+03  0.10100000352E+00 0.  1.
</event>
<event>
 5   0  0.3274900E-04  0.1584071E+04  0.7818609E-02  0.8830394E-01
       -2   -1    0    0    0  501  0.00000000000E+00  0.00000000000E+00  0.81315389460E+03  0.81315389460E+03  0.25500000920E-02 0.  1.
        2   -1    0    0  501    0  0.00000000000E+00  0.00000000000E+00 -0.77146577979E+03  0.77146577979E+03  0.25500000920E-02 0. -1.
    10030    2    1    2    0    0  0.00000000000E+00  0.00000000000E+00  0.41688114812E+02  0.15846196744E+04  0.15840712148E+04 0.  0.
        3    1    3    3  502    0 -0.51714437096E+03  0.35927294853E+03 -0.45974401370E+03  0.77966654429E+03  0.10100000352E+00 0. -1.
       -3    1    3    3    0  502  0.51714437096E+03 -0.35927294853E+03  0.50143212851E+03  0.80495313010E+03  0.10100000352E+00 0.  1.
</event>
<event>
 5   0  0.3380454E-04  0.1600863E+04  0.7818609E-02  0.8820018E-01
        2   -1    0    0  501    0  0.00000000000E+00  0.00000000000E+00  0.13211078425E+04  0.13211078425E+04  0.25500000920E-02 0. -1.
       -2   -1    0    0    0  501  0.00000000000E+00  0.00000000000E+00 -0.48496439639E+03  0.48496439640E+03  0.25500000920E-02 0.  1.
    10030    2    1    2    0    0  0.00000000000E+00  0.00000000000E+00  0.83614344611E+03  0.18060722389E+04  0.16008626017E+04 0.  0.
        5    1    3    3  502    0 -0.75262556694E+03 -0.26516594036E+03  0.48861685909E+03  0.93569586134E+03  0.46999998093E+01 0.  1.
       -5    1    3    3    0  502  0.75262556694E+03  0.26516594036E+03  0.34752658702E+03  0.87037637757E+03  0.46999998093E+01 0. -1.
</event>
<event>
 5   0  0.1764099E-04  0.1629248E+04  0.7818609E-02  0.8802779E-01
        1   -1    0    0  501    0  0.00000000000E+00  0.00000000000E+00  0.18055830720E+04  0.18055830720E+04  0.50400001928E-02 0.  1.
       -1   -1    0    0    0  501  0.00000000000E+00  0.00000000000E+00 -0.36753350739E+03  0.36753350742E+03  0.50400001928E-02 0. -1.
    10030    2    1    2    0    0  0.00000000000E+00  0.00000000000E+00  0.14380495646E+04  0.21731165794E+04  0.16292480221E+04 0.  0.
        5    1    3    3  502    0  0.73737206802E+03 -0.32257630160E+03  0.55127577022E+03  0.97555117850E+03  0.46999998093E+01 0. -1.
       -5    1    3    3    0  502 -0.73737206802E+03  0.32257630160E+03  0.88677379435E+03  0.11975654009E+04  0.46999998093E+01 0.  1.
</event>
<event>
 5   0  0.1761255E-04  0.1596513E+04  0.7818609E-02  0.8822693E-01
       -1   -1    0    0    0  501  0.00000000000E+00  0.00000000000E+00  0.53713934761E+03  0.53713934764E+03  0.50400001928E-02 0. -1.
        1   -1    0    0  501    0  0.00000000000E+00  0.00000000000E+00 -0.11863101092E+04  0.11863101092E+04  0.50400001928E-02 0.  1.
    10030    2    1    2    0    0  0.00000000000E+00  0.00000000000E+00 -0.64917076162E+03  0.17234494569E+04  0.15965134991E+04 0.  0.
        2    1    3    3  502    0 -0.37939831977E+03 -0.56422744460E+03  0.12689968219E+03  0.69166409740E+03  0.25500000920E-02 0. -1.
       -2    1    3    3    0  502  0.37939831977E+03  0.56422744460E+03 -0.77607044381E+03  0.10317853595E+04  0.25500000920E-02 0.  1.
</event>
<event>
 5   0  0.3263294E-04  0.1603664E+04  0.7818609E-02  0.8818300E-01
       -2   -1    0    0    0  501  0.00000000000E+00  0.00000000000E+00  0.36061043153E+03  0.36061043154E+03  0.25500000920E-02 0.  1.
        2   -1    0    0  501    0  0.00000000000E+00  0.00000000000E+00 -0.17829062357E+04  0.17829062357E+04  0.25500000920E-02 0. -1.
    10030    2    1    2    0    0  0.00000000000E+00  0.00000000000E+00 -0.14222958041E+04  0.21435166672E+04  0.16036640384E+04 0.  0.
        4    1    3    3  502    0 -0.23623837352E+03 -0.21567346780E+03 -0.16939255147E+04  0.17238645179E+04  0.12699999809E+01 0. -1.
       -4    1    3    3    0  502  0.23623837352E+03  0.21567346780E+03  0.27162971057E+03  0.41965214929E+03  0.12699999809E+01 0.  1.
</event>
<event>
 5   0  0.3380454E-04  0.1616428E+04  0.7818609E-02  0.8810519E-01
        2   -1    0    0  501    0  0.00000000000E+00  0.00000000000E+00  0.69274336611E+03  0.69274336612E+03  0.25500000920E-02 0. -1.
       -2   -1    0    0    0  501  0.00000000000E+00  0.00000000000E+00 -0.94293139762E+03  0.94293139763E+03  0.25500000920E-02 0.  1.
    10030    2    1    2    0    0  0.00000000000E+00  0.00000000000E+00 -0.25018803151E+03  0.16356747637E+04  0.16164275058E+04 0.  0.
        5    1    3    3  502    0 -0.71254498141E+03  0.35710266030E+03  0.10458962158E+02  0.79710359453E+03  0.46999998093E+01 0.  1.
       -5    1    3    3    0  502  0.71254498141E+03 -0.35710266030E+03 -0.26064699367E+03  0.83857116921E+03  0.46999998093E+01 0. -1.
</event>
<event>
 5   0  0.1819811E-04  0.1603613E+04  0.7818609E-02  0.8818332E-01
        1   -1    0    0  501    0  0.00000000000E+00  0.00000000000E+00  0.98401886179E+03  0.98401886181E+03  0.50400001928E-02 0.  1.
       -1   -1    0    0    0  501  0.00000000000E+00  0.00000000000E+00 -0.65333446766E+03  0.65333446768E+03  0.50400001928E-02 0. -1.
    10030    2    1    2    0    0  0.00000000000E+00  0.00000000000E+00  0.33068439413E+03  0.16373533295E+04  0.16036127204E+04 0.  0.
        1    1    3    3  502    0 -0.23462400457E+03 -0.76156989095E+03  0.74841398352E+02  0.80039887384E+03  0.50400001928E-02 0. -1.
       -1    1    3    3    0  502  0.23462400457E+03  0.76156989095E+03  0.25584299578E+03  0.83695445565E+03  0.50400001928E-02 0.  1.
</event>
<event>
 5   0  0.3210612E-04  0.1618556E+04  0.7818609E-02  0.8809229E-01
        2   -1    0    0  501    0  0.00000000000E+00  0.00000000000E+00  0.39762717251E+03  0.39762717252E+03  0.25500000920E-02 0.  1.
       -2   -1    0    0    0  501  0.00000000000E+00  0.00000000000E+00 -0.16470972407E+04  0.16470972407E+04  0.25500000920E-02 0. -1.
    10030    2    1    2    0    0  0.00000000000E+00  0.00000000000E+00 -0.12494700682E+04  0.20447244132E+04  0.16185556755E+04 0.  0.
        2    1    3    3  502    0 -0.69985699713E+03  0.20679296786E+03 -0.10666514464E+04  0.12924041380E+04  0.25500000920E-02 0. -1.
       -2    1    3    3    0  502  0.69985699713E+03 -0.20679296786E+03 -0.18281862187E+03  0.75232027522E+03  0.25500000920E-02 0.  1.
</event>
<event>
 5   0  0.1761255E-04  0.1584628E+04  0.7818609E-02  0.8830048E-01
       -1   -1    0    0    0  501  0.00000000000E+00  0.00000000000E+00  0.84279139640E+03  0.84279139641E+03  0.50400001928E-02 0. -1.
        1   -1    0    0  501    0  0.00000000000E+00  0.00000000000E+00 -0.74485968705E+03  0.74485968707E+03  0.50400001928E-02 0.  1.
    10030    2    1    2    0    0  0.00000000000E+00  0.00000000000E+00  0.97931709344E+02  0.15876510835E+04  0.15846278248E+04 0.  0.
        2    1    3    3  502    0  0.69767219253E+03  0.23060455206E+03 -0.24797162710E+03  0.77550942968E+03  0.25500000920E-02 0.  1.
       -2    1    3    3    0  502 -0.69767219253E+03 -0.23060455206E+03  0.34590333644E+03  0.81214165380E+03  0.25500000920E-02 0. -1.
</event>
<event>
 5   0  0.3228393E-04  0.1592653E+04  0.7818609E-02  0.8825074E-01
       -2   -1    0    0    0  501  0.00000000000E+00  0.00000000000E+00  0.80419852929E+03  0.80419852929E+03  0.25500000920E-02 0. -1.
        2   -1    0    0  501    0  0.00000000000E+00  0.00000000000E+00 -0.78853167968E+03  0.78853167968E+03  0.25500000920E-02 0.  1.
    10030    2    1    2    0    0  0.00000000000E+00  0.00000000000E+00  0.15666849609E+02  0.15927302090E+04  0.15926531538E+04 0.  0.
        1    1    3    3  502    0  0.71657432264E+03 -0.16825762513E+03 -0.29606715888E+03  0.79337579424E+03  0.50400001928E-02 0.  1.
       -1    1    3    3    0  502 -0.71657432264E+03  0.16825762513E+03  0.31173400849E+03  0.79935441474E+03  0.50400001928E-02 0. -1.
</event>
<event>
 5   0  0.1736537E-04  0.1611534E+04  0.7818609E-02  0.8813494E-01
        1   -1    0    0  501    0  0.00000000000E+00  0.00000000000E+00  0.32630537456E+03  0.32630537459E+03  0.50400001928E-02 0. -1.
       -1   -1    0    0    0  501  0.00000000000E+00  0.00000000000E+00 -0.19897320329E+04  0.19897320329E+04  0.50400001928E-02 0.  1.
    10030    2    1    2    0    0  0.00000000000E+00  0.00000000000E+00 -0.16634266583E+04  0.23160374075E+04  0.16115337493E+04 0.  0.
        3    1    3    3  502    0  0.71741799990E+03 -0.25171787665E+03 -0.12152226790E+04  0.14334631651E+04  0.10100000352E+00 0.  1.
       -3    1    3    3    0  502 -0.71741799990E+03  0.25171787665E+03 -0.44820397937E+03  0.88257424239E+03  0.10100000352E+00 0. -1.
</event>
<event>
 5   0  0.1736537E-04  0.1597855E+04  0.7818609E-02  0.8821867E-01
        1   -1    0    0  501    0  0.00000000000E+00  0.00000000000E+00  0.52351641017E+03  0.52351641020E+03  0.50400001928E-02 0.  1.
       -1   -1    0    0    0  501  0.00000000000E+00  0.00000000000E+00 -0.12192258850E+04  0.12192258850E+04  0.50400001928E-02 0. -1.
    10030    2    1    2    0    0  0.00000000000E+00  0.00000000000E+00 -0.69570947480E+03  0.17427422952E+04  0.15978545097E+04 0.  0.
        3    1    3    3  502    0 -0.65352587239E+02  0.44899948161E+02 -0.12149238502E+04  0.12175084960E+04  0.10100000352E+00 0. -1.
       -3    1    3    3    0  502  0.65352587239E+02 -0.44899948161E+02  0.51921437536E+03  0.52523379916E+03  0.10100000352E+00 0.  1.
</event>
<event>
 5   0  0.3263294E-04  0.1595696E+04  0.7818609E-02  0.8823197E-01
       -2   -1    0    0    0  501  0.00000000000E+00  0.00000000000E+00  0.56827547421E+03  0.56827547422E+03  0.25500000920E-02 0.  1.
        2   -1    0    0  501    0  0.00000000000E+00  0.00000000000E+00 -0.11201629382E+04  0.11201629382E+04  0.25500000920E-02 0. -1.
    10030    2    1    2    0    0  0.00000000000E+00  0.00000000000E+00 -0.55188746398E+03  0.16884384124E+04  0.15956956162E+04 0.  0.
        4    1    3    3  502    0  0.57255875813E+03 -0.87765895936E+02 -0.85649732556E+03  0.10339804958E+04  0.12699999809E+01 0. -1.
       -4    1    3    3    0  502 -0.57255875813E+03  0.87765895936E+02  0.30460986158E+03  0.65445791666E+03  0.12699999809E+01 0.  1.
</event>
<event>
 5   0  0.3228393E-04  0.1613051E+04  0.7818609E-02  0.8812570E-01
       -2   -1    0    0    0  501  0.00000000000E+00  0.00000000000E+00  0.96225617354E+03  0.96225617354E+03  0.25500000920E-02 0. -1.
        2   -1    0    0  501    0  0.00000000000E+00  0.00000000000E+00 -0.67599825754E+03  0.67599825755E+03  0.25500000920E-02 0.  1.
    10030    2    1    2    0    0  0.00000000000E+00  0.00000000000E+00  0.28625791599E+03  0.16382544311E+04  0.16130511419E+04 0.  0.
        1    1    3    3  502    0 -0.44070003606E+02  0.21067193576E+03  0.93255003817E+03  0.95706551680E+03  0.50400001928E-02 0. -1.
       -1    1    3    3    0  502  0.44070003606E+02 -0.21067193576E+03 -0.64629212217E+03  0.68118891428E+03  0.50400001928E-02 0.  1.
</event>
<event>
 5   0  0.1219463E-04  0.1597547E+04  0.7818609E-02  0.8822056E-01
        4   -1    0    0  501    0  0.00000000000E+00  0.00000000000E+00  0.79136718017E+03  0.79136819923E+03  0.12699999809E+01 0. -1.
       -4   -1    0    0    0  501  0.00000000000E+00  0.00000000000E+00 -0.80624717780E+03  0.80624817805E+03  0.12699999809E+01 0.  1.
    10030    2    1    2    0    0  0.00000000000E+00  0.00000000000E+00 -0.14879997629E+02  0.15976163773E+04  0.15975470806E+04 0.  0.
        4    1    3    3  502    0 -0.12249440692E+03 -0.44137448001E+03 -0.66185454258E+03  0.80490332324E+03  0.12699999809E+01 0.  1.
       -4    1    3    3    0  502  0.12249440692E+03  0.44137448001E+03  0.64697454495E+03  0.79271305404E+03  0.12699999809E+01 0. -1.
</event>
<event>
 5   0  0.1787688E-04  0.1597414E+04  0.7818609E-02  0.8822138E-01
       -1   -1    0    0    0  501  0.00000000000E+00  0.00000000000E+00  0.59653566655E+03  0.59653566657E+03  0.50400001928E-02 0.  1.
        1   -1    0    0  501    0  0.00000000000E+00  0.00000000000E+00 -0.10693957633E+04  0.10693957633E+04  0.50400001928E-02 0. -1.
    10030    2    1    2    0    0  0.00000000000E+00  0.00000000000E+00 -0.47286009671E+03  0.16659314298E+04  0.15974138030E+04 0.  0.
        4    1    3    3  502    0  0.16487535705E+03  0.77696037181E+03 -0.14867943755E+03  0.80805846990E+03  0.12699999809E+01 0.  1.
       -4    1    3    3    0  502 -0.16487535705E+03 -0.77696037181E+03 -0.32418065916E+03  0.85787295995E+03  0.12699999809E+01 0. -1.
</event>
<event>
 5   0  0.1764099E-04  0.1608360E+04  0.7818609E-02  0.8815429E-01
        1   -1    0    0  501    0  0.00000000000E+00  0.00000000000E+00  0.10657348578E+04  0.10657348579E+04  0.50400001928E-02 0. -1.
       -1   -1    0    0    0  501  0.00000000000E+00  0.00000000000E+00 -0.60681642753E+03  0.60681642755E+03  0.50400001928E-02 0.  1.
    10030    2    1    2    0    0  0.00000000000E+00  0.00000000000E+00  0.45891843031E+03  0.16725512854E+04  0.16083599338E+04 0.  0.
        5    1    3    3  502    0  0.94714283232E+02 -0.72283513785E+03  0.58245027693E+03  0.93313013404E+03  0.46999998093E+01 0. -1.
       -5    1    3    3    0  502 -0.94714283232E+02  0.72283513785E+03 -0.12353184662E+03  0.73942115136E+03  0.46999998093E+01 0.  1.
</event>
<event>
 5   0  0.3210612E-04  0.1560273E+04  0.7818609E-02  0.8845333E-01
        2   -1    0    0  501    0  0.00000000000E+00  0.00000000000E+00  0.15479381807E+04  0.15479381807E+04  0.25500000920E-02 0. -1.
       -2   -1    0    0    0  501  0.00000000000E+00  0.00000000000E+00 -0.39317652267E+03  0.39317652268E+03  0.25500000920E-02 0.  1.
    10030    2    1    2    0    0  0.00000000000E+00  0.00000000000E+00  0.11547616580E+04  0.19411147034E+04  0.15602729905E+04 0.  0.
        2    1    3    3  502    0  0.23317579164E+03 -0.40589533713E+03 -0.19904381051E+03  0.50866532516E+03  0.25500000920E-02 0.  1.
       -2    1    3    3    0  502 -0.23317579164E+03  0.40589533713E+03  0.13538054685E+04  0.14324493782E+04  0.25500000920E-02 0. -1.
</event>
<event>
 5   0  0.1787688E-04  0.1567458E+04  0.7818609E-02  0.8840793E-01
       -1   -1    0    0    0  501  0.00000000000E+00  0.00000000000E+00  0.76928969799E+03  0.76928969801E+03  0.50400001928E-02 0.  1.
        1   -1    0    0  501    0  0.00000000000E+00  0.00000000000E+00 -0.79843907411E+03  0.79843907413E+03  0.50400001928E-02 0. -1.
    10030    2    1    2    0    0  0.00000000000E+00  0.00000000000E+00 -0.29149376117E+02  0.15677287721E+04  0.15674577560E+04 0.  0.
        4    1    3    3  502    0 -0.30001910645E+03  0.72020803211E+03  0.59723198596E+02  0.78248293726E+03  0.12699999809E+01 0.  1.
       -4    1    3    3    0  502  0.30001910645E+03 -0.72020803211E+03 -0.88872574713E+02  0.78524583488E+03  0.12699999809E+01 0. -1.
</event>
<event>
 5   0  0.3380454E-04  0.1514264E+04  0.7818609E-02  0.8875022E-01
       -2   -1    0    0    0  501  0.00000000000E+00  0.00000000000E+00  0.95764405905E+03  0.95764405905E+03  0.25500000920E-02 0. -1.
        2   -1    0    0  501    0  0.00000000000E+00  0.00000000000E+00 -0.59860362297E+03  0.59860362297E+03  0.25500000920E-02 0.  1.
    10030    2    1    2    0    0  0.00000000000E+00  0.00000000000E+00  0.35904043608E+03  0.15562476820E+04  0.15142644462E+04 0.  0.
        5    1    3    3  502    0 -0.55002914062E+03  0.47348048277E+02 -0.35296959137E+03  0.65527361891E+03  0.46999998093E+01 0.  1.
       -5    1    3    3    0  502  0.55002914062E+03 -0.47348048277E+02  0.71201002745E+03  0.90097406311E+03  0.46999998093E+01 0. -1.
</event>
<event>
 5   0  0.1764099E-04  0.1604700E+04  0.7818609E-02  0.8817666E-01
       -1   -1    0    0    0  501  0.00000000000E+00  0.00000000000E+00  0.65072680301E+03  0.65072680303E+03  0.50400001928E-02 0.  1.
        1   -1    0    0  501    0  0.00000000000E+00  0.00000000000E+00 -0.98930254285E+03  0.98930254286E+03  0.50400001928E-02 0. -1.
    10030    2    1    2    0    0  0.00000000000E+00  0.00000000000E+00 -0.33857573984E+03  0.16400293459E+04  0.16047001975E+04 0.  0.
        5    1    3    3  502    0  0.38009458650E+03  0.23704971208E+03  0.51100882398E+03  0.67957087112E+03  0.46999998093E+01 0.  1.
       -5    1    3    3    0  502 -0.38009458650E+03 -0.23704971208E+03 -0.84958456382E+03  0.96045847477E+03  0.46999998093E+01 0. -1.
</event>
<event>
 5   0  0.1819811E-04  0.1598941E+04  0.7818609E-02  0.8821199E-01
        1   -1    0    0  501    0  0.00000000000E+00  0.00000000000E+00  0.18168957217E+04  0.18168957217E+04  0.50400001928E-02 0.  1.
       -1   -1    0    0    0  501  0.00000000000E+00  0.00000000000E+00 -0.35178309750E+03  0.35178309753E+03  0.50400001928E-02 0. -1.
    10030    2    1    2    0    0  0.00000000000E+00  0.00000000000E+00  0.14651126242E+04  0.21686788192E+04  0.15989411557E+04 0.  0.
        1    1    3    3  502    0 -0.57219205452E+02  0.69409100880E+03  0.12650173115E+04  0.14440585738E+04  0.50400001928E-02 0.  1.
       -1    1    3    3    0  502  0.57219205452E+02 -0.69409100880E+03  0.20009531267E+03  0.72462024547E+03  0.50400001928E-02 0. -1.
</event>
<event>
 5   0  0.3210612E-04  0.1603708E+04  0.7818609E-02  0.8818273E-01
        2   -1    0    0  501    0  0.00000000000E+00  0.00000000000E+00  0.10733108742E+04  0.10733108742E+04  0.25500000920E-02 0. -1.
       -2   -1    0    0    0  501  0.00000000000E+00  0.00000000000E+00 -0.59905261086E+03  0.59905261087E+03  0.25500000920E-02 0.  1.
    10030    2    1    2    0    0  0.00000000000E+00  0.00000000000E+00  0.47425826337E+03  0.16723634851E+04  0.16037078057E+04 0.  0.
        2    1    3    3  502    0  0.53955841929E+03  0.20505720200E+03 -0.34329397649E+03  0.67158208599E+03  0.25500000920E-02 0.  1.
       -2    1    3    3    0  502 -0.53955841929E+03 -0.20505720200E+03  0.81755223987E+03  0.10007813991E+04  0.25500000920E-02 0. -1.
</event>
<event>
 5   0  0.1764099E-04  0.1599794E+04  0.7818609E-02  0.8820674E-01
       -1   -1    0    0    0  501  0.00000000000E+00  0.00000000000E+00  0.47515879226E+03  0.47515879229E+03  0.50400001928E-02 0.  1.
        1   -1    0    0  501    0  0.00000000000E+00  0.00000000000E+00 -0.13465718026E+04  0.13465718026E+04  0.50400001928E-02 0. -1.
    10030    2    1    2    0    0  0.00000000000E+00  0.00000000000E+00 -0.87141301035E+03  0.18217305949E+04  0.15997942761E+04 0.  0.
        5    1    3    3  502    0 -0.68719641393E+03  0.35371149258E+03 -0.20105499330E+03  0.79862126921E+03  0.46999998093E+01 0.  1.
       -5    1    3    3    0  502  0.68719641393E+03 -0.35371149258E+03 -0.67035801705E+03  0.10231093257E+04  0.46999998093E+01 0. -1.
</event>
<event>
 5   0  0.3228393E-04  0.1596788E+04  0.7818609E-02  0.8822524E-01
        2   -1    0    0  501    0  0.00000000000E+00  0.00000000000E+00  0.14301826865E+04  0.14301826865E+04  0.25500000920E-02 0. -1.
       -2   -1    0    0    0  501  0.00000000000E+00  0.00000000000E+00 -0.44570048987E+03  0.44570048988E+03  0.25500000920E-02 0.  1.
    10030    2    1    2    0    0  0.00000000000E+00  0.00000000000E+00  0.98448219663E+03  0.18758831764E+04  0.15967881813E+04 0.  0.
        1    1    3    3  502    0  0.68114936882E+02 -0.58452623096E+03  0.11261055746E+04  0.12705999860E+04  0.50400001928E-02 0. -1.
       -1    1    3    3    0  502 -0.68114936882E+02  0.58452623096E+03 -0.14162337798E+03  0.60528319035E+03  0.50400001928E-02 0.  1.
</event>
<event>
 5   0  0.1819811E-04  0.1595140E+04  0.7818609E-02  0.8823539E-01
       -1   -1    0    0    0  501  0.00000000000E+00  0.00000000000E+00  0.57765621217E+03  0.57765621219E+03  0.50400001928E-02 0. -1.
        1   -1    0    0  501    0  0.00000000000E+00  0.00000000000E+00 -0.11012045753E+04  0.11012045753E+04  0.50400001928E-02 0.  1.
    10030    2    1    2    0    0  0.00000000000E+00  0.00000000000E+00 -0.52354836316E+03  0.16788607875E+04  0.15951396978E+04 0.  0.
        1    1    3    3  502    0 -0.73952777740E+02  0.69450912053E+03 -0.66709128528E+03  0.96582747670E+03  0.50400001928E-02 0.  1.
       -1    1    3    3    0  502  0.73952777740E+02 -0.69450912053E+03  0.14354292212E+03  0.71303331083E+03  0.50400001928E-02 0. -1.
</event>
<event>
 5   0  0.1761255E-04  0.1660938E+04  0.7818609E-02  0.8783962E-01
       -1   -1    0    0    0  501  0.00000000000E+00  0.00000000000E+00  0.43886417433E+03  0.43886417435E+03  0.50400001928E-02 0. -1.
        1   -1    0    0  501    0  0.00000000000E+00  0.00000000000E+00 -0.15715093521E+04  0.15715093521E+04  0.50400001928E-02 0.  1.
    10030    2    1    2    0    0  0.00000000000E+00  0.00000000000E+00 -0.11326451778E+04  0.20103735265E+04  0.16609384748E+04 0.  0.
        2    1    3    3  502    0 -0.25129482234E+03 -0.54280751638E+03 -0.12636236698E+04  0.13980464464E+04  0.25500000920E-02 0.  1.
       -2    1    3    3    0  502  0.25129482234E+03  0.54280751638E+03  0.13097849199E+03  0.61232708003E+03  0.25500000920E-02 0. -1.
</event>
<event>
 5   0  0.3263294E-04  0.1610978E+04  0.7818609E-02  0.8813832E-01
        2   -1    0    0  501    0  0.00000000000E+00  0.00000000000E+00  0.12422456204E+04  0.12422456204E+04  0.25500000920E-02 0.  1.
       -2   -1    0    0    0  501  0.00000000000E+00  0.00000000000E+00 -0.52229024961E+03  0.52229024962E+03  0.25500000920E-02 0. -1.
    10030    2    1    2    0    0  0.00000000000E+00  0.00000000000E+00  0.71995537082E+03  0.17645358701E+04  0.16109783055E+04 0.  0.
        4    1    3    3  502    0  0.76494166757E+03  0.12560351436E+03  0.59969796150E+03  0.98007716815E+03  0.12699999809E+01 0.  1.
       -4    1    3    3    0  502 -0.76494166757E+03 -0.12560351436E+03  0.12025740932E+03  0.78445870191E+03  0.12699999809E+01 0. -1.
</event>
<event>
 5   0  0.3210612E-04  0.1613715E+04  0.7818609E-02  0.8812166E-01
        2   -1    0    0  501    0  0.00000000000E+00  0.00000000000E+00  0.34275214728E+03  0.34275214729E+03  0.25500000920E-02 0.  1.
       -2   -1    0    0    0  501  0.00000000000E+00  0.00000000000E+00 -0.18993878015E+04  0.18993878015E+04  0.25500000920E-02 0. -1.
    10030    2    1    2    0    0  0.00000000000E+00  0.00000000000E+00 -0.15566356542E+04  0.22421399488E+04  0.16137152754E+04 0.  0.
        2    1    3    3  502    0  0.28774782756E+03  0.68612342695E+03 -0.34456926926E+03  0.81993423553E+03  0.25500000920E-02 0.  1.
       -2    1    3    3    0  502 -0.28774782756E+03 -0.68612342695E+03 -0.12120663850E+04  0.14222057133E+04  0.25500000920E-02 0. -1.
</event>
<event>
 5   0  0.3263294E-04  0.1598779E+04  0.7818609E-02  0.8821299E-01
        2   -1    0    0  501    0  0.00000000000E+00  0.00000000000E+00  0.13226115109E+04  0.13226115109E+04  0.25500000920E-02 0.  1.
       -2   -1    0    0    0  501  0.00000000000E+00  0.00000000000E+00 -0.48315268032E+03  0.48315268033E+03  0.25500000920E-02 0. -1.
    10030    2    1    2    0    0  0.00000000000E+00  0.00000000000E+00  0.83945883054E+03  0.18057641912E+04  0.15987786545E+04 0.  0.
        4    1    3    3  502    0 -0.10208979267E+03 -0.42164709305E+02 -0.47449111344E+03  0.48717924639E+03  0.12699999809E+01 0. -1.
       -4    1    3    3    0  502  0.10208979267E+03  0.42164709305E+02  0.13139499440E+04  0.13185849448E+04  0.12699999809E+01 0.  1.
</event>
<event>
 5   0  0.1761255E-04  0.1619545E+04  0.7818609E-02  0.8808630E-01
       -1   -1    0    0    0  501  0.00000000000E+00  0.00000000000E+00  0.12245648679E+04  0.12245648679E+04  0.50400001928E-02 0.  1.
        1   -1    0    0  501    0  0.00000000000E+00  0.00000000000E+00 -0.53548140427E+03  0.53548140429E+03  0.50400001928E-02 0. -1.
    10030    2    1    2    0    0  0.00000000000E+00  0.00000000000E+00  0.68908346367E+03  0.17600462722E+04  0.16195452635E+04 0.  0.
        2    1    3    3  502    0 -0.54158676559E+02  0.46048660900E+03 -0.37694353864E+03  0.59755126194E+03  0.25500000920E-02 0. -1.
       -2    1    3    3    0  502  0.54158676559E+02 -0.46048660900E+03  0.10660270023E+04  0.11624950103E+04  0.25500000920E-02 0.  1.
</event>
<event>
 5   0  0.3228393E-04  0.1594231E+04  0.7818609E-02  0.8824100E-01
       -2   -1    0    0    0  501  0.00000000000E+00  0.00000000000E+00  0.64646469705E+03  0.64646469706E+03  0.25500000920E-02 0. -1.
        2   -1    0    0  501    0  0.00000000000E+00  0.00000000000E+00 -0.98287346055E+03  0.98287346055E+03  0.25500000920E-02 0.  1.
    10030    2    1    2    0    0  0.00000000000E+00  0.00000000000E+00 -0.33640876350E+03  0.16293381576E+04  0.15942308414E+04 0.  0.
        1    1    3    3  502    0 -0.17173618352E+03 -0.18288505314E+03  0.60506326346E+03  0.65501283362E+03  0.50400001928E-02 0. -1.
       -1    1    3    3    0  502  0.17173618352E+03  0.18288505314E+03 -0.94147202696E+03  0.97432532399E+03  0.50400001928E-02 0.  1.
</event>
<event>
 5   0  0.1787688E-04  0.1574235E+04  0.7818609E-02  0.8836535E-01
       -1   -1    0    0    0  501  0.00000000000E+00  0.00000000000E+00  0.35867669117E+03  0.35867669121E+03  0.50400001928E-02 0. -1.
        1   -1    0    0  501    0  0.00000000000E+00  0.00000000000E+00 -0.17273320488E+04  0.17273320488E+04  0.50400001928E-02 0.  1.
    10030    2    1    2    0    0  0.00000000000E+00  0.00000000000E+00 -0.13686553576E+04  0.20860087400E+04  0.15742347269E+04 0.  0.
        4    1    3    3  502    0  0.13075613836E+03 -0.71590704170E+03 -0.10817057819E+04  0.13037289103E+04  0.12699999809E+01 0. -1.
       -4    1    3    3    0  502 -0.13075613836E+03  0.71590704170E+03 -0.28694957575E+03  0.78227982973E+03  0.12699999809E+01 0.  1.
</event>
<event>
 5   0  0.1761255E-04  0.1574255E+04  0.7818609E-02  0.8836522E-01
        1   -1    0    0  501    0  0.00000000000E+00  0.00000000000E+00  0.93619516261E+03  0.93619516263E+03  0.50400001928E-02 0.  1.
       -1   -1    0    0    0  501  0.00000000000E+00  0.00000000000E+00 -0.66179524436E+03  0.66179524438E+03  0.50400001928E-02 0. -1.
    10030    2    1    2    0    0  0.00000000000E+00  0.00000000000E+00  0.27439991825E+03  0.15979904070E+04  0.15742547525E+04 0.  0.
        2    1    3    3  502    0  0.58856452536E+03  0.14574577015E+03 -0.37228342784E+03  0.71150894632E+03  0.25500000920E-02 0. -1.
       -2    1    3    3    0  502 -0.58856452536E+03 -0.14574577015E+03  0.64668334609E+03  0.88648146069E+03  0.25500000920E-02 0.  1.
</event>
<event>
 5   0  0.1819811E-04  0.1596670E+04  0.7818609E-02  0.8822596E-01
        1   -1    0    0  501    0  0.00000000000E+00  0.00000000000E+00  0.21423505364E+04  0.21423505364E+04  0.50400001928E-02 0.  1.
       -1   -1    0    0    0  501  0.00000000000E+00  0.00000000000E+00 -0.29749502159E+03  0.29749502163E+03  0.50400001928E-02 0. -1.
    10030    2    1    2    0    0  0.00000000000E+00  0.00000000000E+00  0.18448555148E+04  0.24398455581E+04  0.15966698083E+04 0.  0.
        1    1    3    3  502    0  0.25434662939E+03  0.83834409760E+02  0.20716629376E+04  0.20889010850E+04  0.50400001928E-02 0.  1.
       -1    1    3    3    0  502 -0.25434662939E+03 -0.83834409760E+02 -0.22680742271E+03  0.35094447305E+03  0.50400001928E-02 0. -1.
</event>
<event>
 5   0  0.3228393E-04  0.1603961E+04  0.7818609E-02  0.8818118E-01
       -2   -1    0    0    0  501  0.00000000000E+00  0.00000000000E+00  0.39955121134E+03  0.39955121135E+03  0.25500000920E-02 0.  1.
        2   -1    0    0  501    0  0.00000000000E+00  0.00000000000E+00 -0.16097375841E+04  0.16097375841E+04  0.25500000920E-02 0. -1.
    10030    2    1    2    0    0  0.00000000000E+00  0.00000000000E+00 -0.12101863727E+04  0.20092887954E+04  0.16039608495E+04 0.  0.
        1    1    3    3  502    0 -0.99184366043E+02 -0.14527020467E+03  0.37508826702E+03  0.41428514204E+03  0.50400001928E-02 0.  1.
       -1    1    3    3    0  502  0.99184366043E+02  0.14527020467E+03 -0.15852746397E+04  0.15950036534E+04  0.50400001928E-02 0. -1.
</event>
<event>
 5   0  0.1736537E-04  0.1610445E+04  0.7818609E-02  0.8814157E-01
       -1   -1    0    0    0  501  0.00000000000E+00  0.00000000000E+00  0.62249298932E+03  0.62249298934E+03  0.50400001928E-02 0.  1.
        1   -1    0    0  501    0  0.00000000000E+00  0.00000000000E+00 -0.10415909563E+04  0.10415909563E+04  0.50400001928E-02 0. -1.
    10030    2    1    2    0    0  0.00000000000E+00  0.00000000000E+00 -0.41909796701E+03  0.16640839457E+04  0.16104447437E+04 0.  0.
        3    1    3    3  502    0 -0.24664568757E+03  0.16085619703E+03 -0.98396024208E+03  0.10270767155E+04  0.10100000352E+00 0. -1.
       -3    1    3    3    0  502  0.24664568757E+03 -0.16085619703E+03  0.56486227507E+03  0.63700723019E+03  0.10100000352E+00 0.  1.
</event>
<event>
 5   0  0.1764099E-04  0.1597686E+04  0.7818609E-02  0.8821971E-01
        1   -1    0    0  501    0  0.00000000000E+00  0.00000000000E+00  0.78146172617E+03  0.78146172618E+03  0.50400001928E-02 0. -1.
       -1   -1    0    0    0  501  0.00000000000E+00  0.00000000000E+00 -0.81661096780E+03  0.81661096782E+03  0.50400001928E-02 0.  1.
    10030    2    1    2    0    0  0.00000000000E+00  0.00000000000E+00 -0.35149241634E+02  0.15980726940E+04  0.15976860975E+04 0.  0.
        5    1    3    3  502    0 -0.43726563748E+03  0.57326584452E+03  0.32644633013E+03  0.79146968525E+03  0.46999998093E+01 0. -1.
       -5    1    3    3    0  502  0.43726563748E+03 -0.57326584452E+03 -0.36159557177E+03  0.80660300875E+03  0.46999998093E+01 0.  1.
</event>
<event>
 5   0  0.1736537E-04  0.1605336E+04  0.7818609E-02  0.8817277E-01
       -1   -1    0    0    0  501  0.00000000000E+00  0.00000000000E+00  0.75289367159E+03  0.75289367161E+03  0.50400001928E-02 0. -1.
        1   -1    0    0  501    0  0.00000000000E+00  0.00000000000E+00 -0.85573301213E+03  0.85573301214E+03  0.50400001928E-02 0.  1.
    10030    2    1    2    0    0  0.00000000000E+00  0.00000000000E+00 -0.10283934054E+03  0.16086266838E+04  0.16053360638E+04 0.  0.
        3    1    3    3  502    0 -0.14143826274E+03 -0.78825350831E+03  0.27983888356E+01  0.80084718686E+03  0.10100000352E+00 0.  1.
       -3    1    3    3    0  502  0.14143826274E+03  0.78825350831E+03 -0.10563772937E+03  0.80777949689E+03  0.10100000352E+00 0. -1.
</event>
<event>
 5   0  0.3210612E-04  0.1605080E+04  0.7818609E-02  0.8817433E-01
        2   -1    0    0  501    0  0.00000000000E+00  0.00000000000E+00  0.12454012217E+04  0.12454012217E+04  0.25500000920E-02 0. -1.
       -2   -1    0    0    0  501  0.00000000000E+00  0.00000000000E+00 -0.51715927361E+03  0.51715927362E+03  0.25500000920E-02 0.  1.
    10030    2    1    2    0    0  0.00000000000E+00  0.00000000000E+00  0.72824194807E+03  0.17625604953E+04  0.16050804231E+04 0.  0.
        2    1    3    3  502    0 -0.21069690742E+03  0.53726419130E+03  0.97653445068E+03  0.11343128014E+04  0.25500000920E-02 0. -1.
       -2    1    3    3    0  502  0.21069690742E+03 -0.53726419130E+03 -0.24829250261E+03  0.62824769391E+03  0.25500000920E-02 0.  1.
</event>
<event>
 5   0  0.3210612E-04  0.1623551E+04  0.7818609E-02  0.8806209E-01
       -2   -1    0    0    0  501  0.00000000000E+00  0.00000000000E+00  0.24075892227E+03  0.24075892228E+03  0.25500000920E-02 0.  1.
        2   -1    0    0  501    0  0.00000000000E+00  0.00000000000E+00 -0.27370932541E+04  0.27370932541E+04  0.25500000920E-02 0. -1.
    10030    2    1    2    0    0  0.00000000000E+00  0.00000000000E+00 -0.24963343318E+04  0.29778521764E+04  0.16235511966E+04 0.  0.
        2    1    3    3  502    0 -0.36824280390E+03 -0.71463833467E+03 -0.14546133086E+04  0.16619899487E+04  0.25500000920E-02 0. -1.
       -2    1    3    3    0  502  0.36824280390E+03  0.71463833467E+03 -0.10417210232E+04  0.13158622276E+04  0.25500000920E-02 0.  1.
</event>
<event>
 5   0  0.3263294E-04  0.1618876E+04  0.7818609E-02  0.8809035E-01
       -2   -1    0    0    0  501  0.00000000000E+00  0.00000000000E+00  0.27291464169E+03  0.27291464170E+03  0.25500000920E-02 0. -1.
        2   -1    0    0  501    0  0.00000000000E+00  0.00000000000E+00 -0.24007131607E+04  0.24007131607E+04  0.25500000920E-02 0.  1.
    10030    2    1    2    0    0  0.00000000000E+00  0.00000000000E+00 -0.21277985190E+04  0.26736278024E+04  0.16188758718E+04 0.  0.
        4    1    3    3  502    0  0.22846655597E+02 -0.60269754219E+03 -0.19554549225E+04  0.20463557520E+04  0.12699999809E+01 0.  1.
       -4    1    3    3    0  502 -0.22846655597E+02  0.60269754219E+03 -0.17234359653E+03  0.62727205039E+03  0.12699999809E+01 0. -1.
</event>
<event>
 5   0  0.1219463E-04  0.1601984E+04  0.7818609E-02  0.8819330E-01
       -3   -1    0    0    0  501  0.00000000000E+00  0.00000000000E+00  0.55457047749E+03  0.55457048669E+03  0.10100000352E+00 0.  1.
        3   -1    0    0  501    0  0.00000000000E+00  0.00000000000E+00 -0.11569095193E+04  0.11569095237E+04  0.10100000352E+00 0. -1.
    10030    2    1    2    0    0  0.00000000000E+00  0.00000000000E+00 -0.60233904178E+03  0.17114800104E+04  0.16019836156E+04 0.  0.
        1    1    3    3  502    0  0.32821529789E+03  0.51423265232E+03  0.25337270321E+03  0.66057416634E+03  0.50400001928E-02 0.  1.
       -1    1    3    3    0  502 -0.32821529789E+03 -0.51423265232E+03 -0.85571174499E+03  0.10509058440E+04  0.50400001928E-02 0. -1.
</event>
<event>
 5   0  0.1736537E-04  0.1622031E+04  0.7818609E-02  0.8807127E-01
       -1   -1    0    0    0  501  0.00000000000E+00  0.00000000000E+00  0.47993045458E+03  0.47993045461E+03  0.50400001928E-02 0.  1.
        1   -1    0    0  501    0  0.00000000000E+00  0.00000000000E+00 -0.13705025877E+04  0.13705025877E+04  0.50400001928E-02 0. -1.
    10030    2    1    2    0    0  0.00000000000E+00  0.00000000000E+00 -0.89057213316E+03  0.18504330424E+04  0.16220307395E+04 0.  0.
        3    1    3    3  502    0 -0.47608101431E+03 -0.53706849612E+03 -0.14411842434E+02  0.71784637153E+03  0.10100000352E+00 0.  1.
       -3    1    3    3    0  502  0.47608101431E+03  0.53706849612E+03 -0.87616029072E+03  0.11325866708E+04  0.10100000352E+00 0. -1.
</event>
<event>
 5   0  0.1787688E-04  0.1582483E+04  0.7818609E-02  0.8831382E-01
        1   -1    0    0  501    0  0.00000000000E+00  0.00000000000E+00  0.92703121388E+03  0.92703121389E+03  0.50400001928E-02 0. -1.
       -1   -1    0    0    0  501  0.00000000000E+00  0.00000000000E+00 -0.67534222537E+03  0.67534222538E+03  0.50400001928E-02 0.  1.
    10030    2    1    2    0    0  0.00000000000E+00  0.00000000000E+00  0.25168898851E+03  0.16023734393E+04  0.15824832675E+04 0.  0.
        4    1    3    3  502    0 -0.65523619394E+03  0.28617005186E+03 -0.21728634061E+03  0.74729026165E+03  0.12699999809E+01 0.  1.
       -4    1    3    3    0  502  0.65523619394E+03 -0.28617005186E+03  0.46897532913E+03  0.85508317763E+03  0.12699999809E+01 0. -1.
</event>
<event>
 5   0  0.3380454E-04  0.1545370E+04  0.7818609E-02  0.8854831E-01
       -2   -1    0    0    0  501  0.00000000000E+00  0.00000000000E+00  0.53110117589E+03  0.53110117590E+03  0.25500000920E-02 0.  1.
        2   -1    0    0  501    0  0.00000000000E+00  0.00000000000E+00 -0.11241585294E+04  0.11241585294E+04  0.25500000920E-02 0. -1.
    10030    2    1    2    0    0  0.00000000000E+00  0.00000000000E+00 -0.59305735356E+03  0.16552597053E+04  0.15453697511E+04 0.  0.
        5    1    3    3  502    0  0.41780504946E+03  0.19585700699E+03  0.36729877962E+03  0.58978937771E+03  0.46999998093E+01 0.  1.
       -5    1    3    3    0  502 -0.41780504946E+03 -0.19585700699E+03 -0.96035613318E+03  0.10654703276E+04  0.46999998093E+01 0. -1.
</event>
<event>
 5   0  0.1764099E-04  0.1610515E+04  0.7818609E-02  0.8814114E-01
       -1   -1    0    0    0  501  0.00000000000E+00  0.00000000000E+00  0.51955314224E+03  0.51955314226E+03  0.50400001928E-02 0.  1.
        1   -1    0    0  501    0  0.00000000000E+00  0.00000000000E+00 -0.12480718615E+04  0.12480718615E+04  0.50400001928E-02 0. -1.
    10030    2    1    2    0    0  0.00000000000E+00  0.00000000000E+00 -0.72851871924E+03  0.17676250037E+04  0.16105150200E+04 0.  0.
        5    1    3    3  502    0 -0.12947689260E+03  0.69412933094E+03  0.60591021707E+02  0.70871232225E+03  0.46999998093E+01 0.  1.
       -5    1    3    3    0  502  0.12947689260E+03 -0.69412933094E+03 -0.78910974094E+03  0.10589126815E+04  0.46999998093E+01 0. -1.
</event>
<event>
 5   0  0.1761255E-04  0.1584263E+04  0.7818609E-02  0.8830274E-01
       -1   -1    0    0    0  501  0.00000000000E+00  0.00000000000E+00  0.34108499734E+03  0.34108499738E+03  0.50400001928E-02 0.  1.
        1   -1    0    0  501    0  0.00000000000E+00  0.00000000000E+00 -0.18396369526E+04  0.18396369526E+04  0.50400001928E-02 0. -1.
    10030    2    1    2    0    0  0.00000000000E+00  0.00000000000E+00 -0.14985519552E+04  0.21807219500E+04  0.15842633179E+04 0.  0.
        2    1    3    3  502    0  0.22682075224E+03  0.10310122619E+03 -0.17842964230E+04  0.18016079601E+04  0.25500000920E-02 0. -1.
       -2    1    3    3    0  502 -0.22682075224E+03 -0.10310122619E+03  0.28574446778E+03  0.37911398993E+03  0.25500000920E-02 0.  1.
</event>
<event>
 5   0  0.3274900E-04  0.1597466E+04  0.7818609E-02  0.8822106E-01
        2   -1    0    0  501    0  0.00000000000E+00  0.00000000000E+00  0.17288473783E+04  0.17288473783E+04  0.25500000920E-02 0.  1.
       -2   -1    0    0    0  501  0.00000000000E+00  0.00000000000E+00 -0.36901734034E+03  0.36901734034E+03  0.25500000920E-02 0. -1.
    10030    2    1    2    0    0  0.00000000000E+00  0.00000000000E+00  0.13598300379E+04  0.20978647186E+04  0.15974663206E+04 0.  0.
        3    1    3    3  502    0  0.44489523438E+03 -0.23030447338E+03 -0.13704872504E+03  0.51937874741E+03  0.10100000352E+00 0. -1.
       -3    1    3    3    0  502 -0.44489523438E+03  0.23030447338E+03  0.14968787630E+04  0.15784859712E+04  0.10100000352E+00 0.  1.
</event>
<event>
 5   0  0.1736537E-04  0.1593771E+04  0.7818609E-02  0.8824384E-01
       -1   -1    0    0    0  501  0.00000000000E+00  0.00000000000E+00  0.29239224918E+03  0.29239224922E+03  0.50400001928E-02 0. -1.
        1   -1    0    0  501    0  0.00000000000E+00  0.00000000000E+00 -0.21718303783E+04  0.21718303783E+04  0.50400001928E-02 0.  1.
    10030    2    1    2    0    0  0.00000000000E+00  0.00000000000E+00 -0.18794381291E+04  0.24642226275E+04  0.15937708357E+04 0.  0.
        3    1    3    3  502    0  0.85432090231E+02 -0.78568673847E+03 -0.10975792618E+04  0.13525097187E+04  0.10100000352E+00 0. -1.
       -3    1    3    3    0  502 -0.85432090231E+02  0.78568673847E+03 -0.78185886731E+03  0.11117129088E+04  0.10100000352E+00 0.  1.
</event>
<event>
 5   0  0.1736537E-04  0.1598013E+04  0.7818609E-02  0.8821769E-01
       -1   -1    0    0    0  501  0.00000000000E+00  0.00000000000E+00  0.52314408547E+03  0.52314408549E+03  0.50400001928E-02 0. -1.
        1   -1    0    0  501    0  0.00000000000E+00  0.00000000000E+00 -0.12203364182E+04  0.12203364182E+04  0.50400001928E-02 0.  1.
    10030    2    1    2    0    0  0.00000000000E+00  0.00000000000E+00 -0.69719233275E+03  0.17434805037E+04  0.15980134912E+04 0.  0.
        3    1    3    3  502    0 -0.54738783674E+03  0.56807009554E+03 -0.48692349329E+03  0.92705532509E+03  0.10100000352E+00 0. -1.
       -3    1    3    3    0  502  0.54738783674E+03 -0.56807009554E+03 -0.21026883946E+03  0.81642517863E+03  0.10100000352E+00 0.  1.
</event>
<event>
 5   0  0.1736537E-04  0.1598848E+04  0.7818609E-02  0.8821256E-01
        1   -1    0    0  501    0  0.00000000000E+00  0.00000000000E+00  0.11825481647E+04  0.11825481647E+04  0.50400001928E-02 0.  1.
       -1   -1    0    0    0  501  0.00000000000E+00  0.00000000000E+00 -0.54042526075E+03  0.54042526077E+03  0.50400001928E-02 0. -1.
    10030    2    1    2    0    0  0.00000000000E+00  0.00000000000E+00  0.64212290393E+03  0.17229734255E+04  0.15988482108E+04 0.  0.
        3    1    3    3  502    0  0.38873087887E+03  0.45968646181E+03 -0.24575316062E+03  0.65024454286E+03  0.10100000352E+00 0. -1.
       -3    1    3    3    0  502 -0.38873087887E+03 -0.45968646181E+03  0.88787606455E+03  0.10727288826E+04  0.10100000352E+00 0.  1.
</event>
<event>
 5   0  0.1219463E-04  0.1605513E+04  0.7818609E-02  0.8817168E-01
        4   -1    0    0  501    0  0.00000000000E+00  0.00000000000E+00  0.95618199842E+03  0.95618284182E+03  0.12699999809E+01 0.  1.
       -4   -1    0    0    0  501  0.00000000000E+00  0.00000000000E+00 -0.67394743471E+03  0.67394863131E+03  0.12699999809E+01 0. -1.
    10030    2    1    2    0    0  0.00000000000E+00  0.00000000000E+00  0.28223456371E+03  0.16301314731E+04  0.16055130864E+04 0.  0.
        4    1    3    3  502    0  0.47311486898E+03  0.14692487317E+03 -0.50022636783E+03  0.70402601484E+03  0.12699999809E+01 0. -1.
       -4    1    3    3    0  502 -0.47311486898E+03 -0.14692487317E+03  0.78246093154E+03  0.92610545830E+03  0.12699999809E+01 0.  1.
</event>
<event>
 5   0  0.1787688E-04  0.1605829E+04  0.7818609E-02  0.8816975E-01
        1   -1    0    0  501    0  0.00000000000E+00  0.00000000000E+00  0.17855446407E+04  0.17855446407E+04  0.50400001928E-02 0.  1.
       -1   -1    0    0    0  501  0.00000000000E+00  0.00000000000E+00 -0.36105046608E+03  0.36105046611E+03  0.50400001928E-02 0. -1.
    10030    2    1    2    0    0  0.00000000000E+00  0.00000000000E+00  0.14244941747E+04  0.21465951069E+04  0.16058290380E+04 0.  0.
        4    1    3    3  502    0 -0.68593366974E+03  0.11247748867E+02  0.15458179031E+03  0.70322731313E+03  0.12699999809E+01 0. -1.
       -4    1    3    3    0  502  0.68593366974E+03 -0.11247748867E+02  0.12699123844E+04  0.14433677937E+04  0.12699999809E+01 0.  1.
</event>
<event>
 5   0  0.1787688E-04  0.1607142E+04  0.7818609E-02  0.8816172E-01
        1   -1    0    0  501    0  0.00000000000E+00  0.00000000000E+00  0.88341038515E+03  0.88341038516E+03  0.50400001928E-02 0. -1.
       -1   -1    0    0    0  501  0.00000000000E+00  0.00000000000E+00 -0.73094741366E+03  0.73094741367E+03  0.50400001928E-02 0.  1.
    10030    2    1    2    0    0  0.00000000000E+00  0.00000000000E+00  0.15246297149E+03  0.16143577988E+04  0.16071422292E+04 0.  0.
        4    1    3    3  502    0  0.82877372947E+02  0.75984435507E+03  0.32532228712E+03  0.83070350083E+03  0.12699999809E+01 0. -1.
       -4    1    3    3    0  502 -0.82877372947E+02 -0.75984435507E+03 -0.17285931563E+03  0.78365429801E+03  0.12699999809E+01 0.  1.
</event>
<event>
 5   0  0.3274900E-04  0.1606220E+04  0.7818609E-02  0.8816736E-01
       -2   -1    0    0    0  501  0.00000000000E+00  0.00000000000E+00  0.64575391419E+03  0.64575391420E+03  0.25500000920E-02 0. -1.
        2   -1    0    0  501    0  0.00000000000E+00  0.00000000000E+00 -0.99881068761E+03  0.99881068761E+03  0.25500000920E-02 0.  1.
    10030    2    1    2    0    0  0.00000000000E+00  0.00000000000E+00 -0.35305677341E+03  0.16445646018E+04  0.16062202976E+04 0.  0.
        3    1    3    3  502    0 -0.46948086980E+03 -0.62626494706E+03 -0.36072820680E+03  0.86182650250E+03  0.10100000352E+00 0.  1.
       -3    1    3    3    0  502  0.46948086980E+03  0.62626494706E+03  0.76714333860E+01  0.78273809931E+03  0.10100000352E+00 0. -1.
</event>
<event>
 5   0  0.3263294E-04  0.1601272E+04  0.7818609E-02  0.8819767E-01
       -2   -1    0    0    0  501  0.00000000000E+00  0.00000000000E+00  0.61018699253E+03  0.61018699253E+03  0.25500000920E-02 0. -1.
        2   -1    0    0  501    0  0.00000000000E+00  0.00000000000E+00 -0.10505277948E+04  0.10505277948E+04  0.25500000920E-02 0.  1.
    10030    2    1    2    0    0  0.00000000000E+00  0.00000000000E+00 -0.44034080231E+03  0.16607147874E+04  0.16012724886E+04 0.  0.
        4    1    3    3  502    0  0.20835744444E+03  0.43875666377E+03 -0.88026941188E+03  0.10053835512E+04  0.12699999809E+01 0.  1.
       -4    1    3    3    0  502 -0.20835744444E+03 -0.43875666377E+03  0.43992860957E+03  0.65533123616E+03  0.12699999809E+01 0. -1.
</event>
<event>
 5   0  0.3263294E-04  0.1601909E+04  0.7818609E-02  0.8819376E-01
       -2   -1    0    0    0  501  0.00000000000E+00  0.00000000000E+00  0.75026338916E+03  0.75026338916E+03  0.25500000920E-02 0.  1.
        2   -1    0    0  501    0  0.00000000000E+00  0.00000000000E+00 -0.85507033867E+03  0.85507033868E+03  0.25500000920E-02 0. -1.
    10030    2    1    2    0    0  0.00000000000E+00  0.00000000000E+00 -0.10480694952E+03  0.16053337278E+04  0.16019088242E+04 0.  0.
        4    1    3    3  502    0 -0.19807151996E+03  0.77147890242E+03 -0.13693031712E+03  0.80818534294E+03  0.12699999809E+01 0. -1.
       -4    1    3    3    0  502  0.19807151996E+03 -0.77147890242E+03  0.32123367605E+02  0.79714838490E+03  0.12699999809E+01 0.  1.
</event>
<event>
 5   0  0.1764099E-04  0.1590143E+04  0.7818609E-02  0.8826626E-01
        1   -1    0    0  501    0  0.00000000000E+00  0.00000000000E+00  0.55372613639E+03  0.55372613642E+03  0.50400001928E-02 0.  1.
       -1   -1    0    0    0  501  0.00000000000E+00  0.00000000000E+00 -0.11416094095E+04  0.11416094095E+04  0.50400001928E-02 0. -1.
    10030    2    1    2    0    0  0.00000000000E+00  0.00000000000E+00 -0.58788327310E+03  0.16953355459E+04  0.15901433490E+04 0.  0.
        5    1    3    3  502    0  0.38923519031E+03  0.61725067363E+03 -0.63043814469E+03  0.96435303274E+03  0.46999998093E+01 0. -1.
       -5    1    3    3    0  502 -0.38923519031E+03 -0.61725067363E+03  0.42554871593E+02  0.73098251318E+03  0.46999998093E+01 0.  1.
</event>
<event>
 5   0  0.1736537E-04  0.1593432E+04  0.7818609E-02  0.8824593E-01
       -1   -1    0    0    0  501  0.00000000000E+00  0.00000000000E+00  0.88236670611E+03  0.88236670612E+03  0.50400001928E-02 0.  1.
        1   -1    0    0  501    0  0.00000000000E+00  0.00000000000E+00 -0.71937959422E+03  0.71937959424E+03  0.50400001928E-02 0. -1.
    10030    2    1    2    0    0  0.00000000000E+00  0.00000000000E+00  0.16298711189E+03  0.16017463004E+04  0.15934322741E+04 0.  0.
        3    1    3    3  502    0 -0.26226311628E+02  0.78680516868E+03  0.20463333739E+03  0.81340334759E+03  0.10100000352E+00 0.  1.
       -3    1    3    3    0  502  0.26226311628E+02 -0.78680516868E+03 -0.41646225501E+02  0.78834295277E+03  0.10100000352E+00 0. -1.
</event>
<event>
 5   0  0.3263294E-04  0.1605815E+04  0.7818609E-02  0.8816984E-01
        2   -1    0    0  501    0  0.00000000000E+00  0.00000000000E+00  0.92952557205E+03  0.92952557206E+03  0.25500000920E-02 0. -1.
       -2   -1    0    0    0  501  0.00000000000E+00  0.00000000000E+00 -0.69353701483E+03  0.69353701484E+03  0.25500000920E-02 0.  1.
    10030    2    1    2    0    0  0.00000000000E+00  0.00000000000E+00  0.23598855722E+03  0.16230625869E+04  0.16058149214E+04 0.  0.
        4    1    3    3  502    0  0.64133903309E+03 -0.45716857063E+03  0.27568253574E+03  0.83445870524E+03  0.12699999809E+01 0. -1.
       -4    1    3    3    0  502 -0.64133903309E+03  0.45716857063E+03 -0.39693978521E+02  0.78860388166E+03  0.12699999809E+01 0.  1.
</event>
<event>
 5   0  0.3380454E-04  0.1580352E+04  0.7818609E-02  0.8832710E-01
        2   -1    0    0  501    0  0.00000000000E+00  0.00000000000E+00  0.46063944937E+03  0.46063944938E+03  0.25500000920E-02 0. -1.
       -2   -1    0    0    0  501  0.00000000000E+00  0.00000000000E+00 -0.13554593800E+04  0.13554593800E+04  0.25500000920E-02 0.  1.
    10030    2    1    2    0    0  0.00000000000E+00  0.00000000000E+00 -0.89481993065E+03  0.18160988294E+04  0.15803519386E+04 0.  0.
        5    1    3    3  502    0 -0.77191169624E+03 -0.45322635078E+02 -0.26049990001E+03  0.81595593996E+03  0.46999998093E+01 0.  1.
       -5    1    3    3    0  502  0.77191169624E+03  0.45322635078E+02 -0.63432003063E+03  0.10001428894E+04  0.46999998093E+01 0. -1.
</event>
<event>
 5   0  0.1764099E-04  0.1595690E+04  0.7818609E-02  0.8823200E-01
       -1   -1    0    0    0  501  0.00000000000E+00  0.00000000000E+00  0.56376921359E+03  0.56376921362E+03  0.50400001928E-02 0.  1.
        1   -1    0    0  501    0  0.00000000000E+00  0.00000000000E+00 -0.11291080437E+04  0.11291080437E+04  0.50400001928E-02 0. -1.
    10030    2    1    2    0    0  0.00000000000E+00  0.00000000000E+00 -0.56533883010E+03  0.16928772573E+04  0.15956896363E+04 0.  0.
        5    1    3    3  502    0 -0.21095702570E+03  0.47220821270E+03  0.36182643068E+03  0.63120830062E+03  0.46999998093E+01 0.  1.
       -5    1    3    3    0  502  0.21095702570E+03 -0.47220821270E+03 -0.92716526078E+03  0.10616689567E+04  0.46999998093E+01 0. -1.
</event>
<event>
 5   0  0.1736537E-04  0.1529004E+04  0.7818609E-02  0.8865391E-01
        1   -1    0    0  501    0  0.00000000000E+00  0.00000000000E+00  0.10969529656E+04  0.10969529656E+04  0.50400001928E-02 0.  1.
       -1   -1    0    0    0  501  0.00000000000E+00  0.00000000000E+00 -0.53280630122E+03  0.53280630124E+03  0.50400001928E-02 0. -1.
    10030    2    1    2    0    0  0.00000000000E+00  0.00000000000E+00  0.56414666441E+03  0.16297592669E+04  0.15290041887E+04 0.  0.
        3    1    3    3  502    0 -0.56780043878E+03 -0.64881704905E+02 -0.25918400782E+03  0.62752158052E+03  0.10100000352E+00 0. -1.
       -3    1    3    3    0  502  0.56780043878E+03  0.64881704905E+02  0.82333067223E+03  0.10022376864E+04  0.10100000352E+00 0.  1.
</event>
<event>
 5   0  0.3210612E-04  0.1718683E+04  0.7818609E-02  0.8750780E-01
       -2   -1    0    0    0  501  0.00000000000E+00  0.00000000000E+00  0.48074010278E+03  0.48074010279E+03  0.25500000920E-02 0. -1.
        2   -1    0    0  501    0  0.00000000000E+00  0.00000000000E+00 -0.15361068503E+04  0.15361068503E+04  0.25500000920E-02 0.  1.
    10030    2    1    2    0    0  0.00000000000E+00  0.00000000000E+00 -0.10553667475E+04  0.20168469531E+04  0.17186834090E+04 0.  0.
        2    1    3    3  502    0  0.55800582114E+03  0.32300891873E+03  0.13899883865E+03  0.65956495901E+03  0.25500000920E-02 0. -1.
       -2    1    3    3    0  502 -0.55800582114E+03 -0.32300891873E+03 -0.11943655862E+04  0.13572819941E+04  0.25500000920E-02 0.  1.
</event>
<event>
 5   0  0.3380454E-04  0.1611870E+04  0.7818609E-02  0.8813289E-01
        2   -1    0    0  501    0  0.00000000000E+00  0.00000000000E+00  0.21644064749E+04  0.21644064749E+04  0.25500000920E-02 0. -1.
       -2   -1    0    0    0  501  0.00000000000E+00  0.00000000000E+00 -0.30009666958E+03  0.30009666959E+03  0.25500000920E-02 0.  1.
    10030    2    1    2    0    0  0.00000000000E+00  0.00000000000E+00  0.18643098053E+04  0.24645031445E+04  0.16118699386E+04 0.  0.
        5    1    3    3  502    0  0.36965148565E+03 -0.72556814998E+02  0.20214892628E+04  0.20562946388E+04  0.46999998093E+01 0. -1.
       -5    1    3    3    0  502 -0.36965148565E+03  0.72556814998E+02 -0.15717945744E+03  0.40820850565E+03  0.46999998093E+01 0.  1.
</event>
<event>
 5   0  0.3228393E-04  0.1574857E+04  0.7818609E-02  0.8836145E-01
        2   -1    0    0  501    0  0.00000000000E+00  0.00000000000E+00  0.12524321518E+04  0.12524321518E+04  0.25500000920E-02 0. -1.
       -2   -1    0    0    0  501  0.00000000000E+00  0.00000000000E+00 -0.49507142414E+03  0.49507142415E+03  0.25500000920E-02 0.  1.
    10030    2    1    2    0    0  0.00000000000E+00  0.00000000000E+00  0.75736072761E+03  0.17475035759E+04  0.15748566525E+04 0.  0.
        1    1    3    3  502    0 -0.77071301717E+03  0.71248287026E+01  0.55758188231E+03  0.95128695646E+03  0.50400001928E-02 0.  1.
       -1    1    3    3    0  502  0.77071301717E+03 -0.71248287026E+01  0.19977884530E+03  0.79621661944E+03  0.50400001928E-02 0. -1.
</event>
<event>
 5   0  0.3263294E-04  0.1602380E+04  0.7818609E-02  0.8819087E-01
        2   -1    0    0  501    0  0.00000000000E+00  0.00000000000E+00  0.79369538356E+03  0.79369538357E+03  0.25500000920E-02 0.  1.
       -2   -1    0    0    0  501  0.00000000000E+00  0.00000000000E+00 -0.80875581383E+03  0.80875581383E+03  0.25500000920E-02 0. -1.
    10030    2    1    2    0    0  0.00000000000E+00  0.00000000000E+00 -0.15060430264E+02  0.16024511974E+04  0.16023804241E+04 0.  0.
        4    1    3    3  502    0  0.71170756038E+03 -0.22270863010E+00 -0.37548184325E+03  0.80468374447E+03  0.12699999809E+01 0.  1.
       -4    1    3    3    0  502 -0.71170756038E+03  0.22270863010E+00  0.36042141298E+03  0.79776745292E+03  0.12699999809E+01 0. -1.
</event>
<event>
 5   0  0.3380454E-04  0.1600391E+04  0.7818609E-02  0.8820308E-01
       -2   -1    0    0    0  501  0.00000000000E+00  0.00000000000E+00  0.89249729525E+03  0.89249729525E+03  0.25500000920E-02 0. -1.
        2   -1    0    0  501    0  0.00000000000E+00  0.00000000000E+00 -0.71743975479E+03  0.71743975479E+03  0.25500000920E-02 0.  1.
    10030    2    1    2    0    0  0.00000000000E+00  0.00000000000E+00  0.17505754046E+03  0.16099370500E+04  0.16003912530E+04 0.  0.
        5    1    3    3  502    0  0.43739548429E+03 -0.52044480222E+03 -0.33702329769E+03  0.75880458290E+03  0.46999998093E+01 0.  1.
       -5    1    3    3    0  502 -0.43739548429E+03  0.52044480222E+03  0.51208083815E+03  0.85113246715E+03  0.46999998093E+01 0. -1.
</event>
<event>
 5   0  0.3274900E-04  0.1602174E+04  0.7818609E-02  0.8819213E-01
       -2   -1    0    0    0  501  0.00000000000E+00  0.00000000000E+00  0.28097169362E+03  0.28097169364E+03  0.25500000920E-02 0.  1.
        2   -1    0    0  501    0  0.00000000000E+00  0.00000000000E+00 -0.22840044563E+04  0.22840044563E+04  0.25500000920E-02 0. -1.
    10030    2    1    2    0    0  0.00000000000E+00  0.00000000000E+00 -0.20030327626E+04  0.25649761499E+04  0.16021742731E+04 0.  0.
        3    1    3    3  502    0  0.88393041382E+02  0.61841686245E+03 -0.19867069762E+03  0.65553245673E+03  0.10100000352E+00 0.  1.
       -3    1    3    3    0  502 -0.88393041382E+02 -0.61841686245E+03 -0.18043620650E+04  0.19094436932E+04  0.10100000352E+00 0. -1.
</event>
<event>
 5   0  0.1761255E-04  0.1605169E+04  0.7818609E-02  0.8817379E-01
        1   -1    0    0  501    0  0.00000000000E+00  0.00000000000E+00  0.13472437260E+04  0.13472437260E+04  0.50400001928E-02 0. -1.
       -1   -1    0    0    0  501  0.00000000000E+00  0.00000000000E+00 -0.47811847717E+03  0.47811847720E+03  0.50400001928E-02 0.  1.
    10030    2    1    2    0    0  0.00000000000E+00  0.00000000000E+00  0.86912524881E+03  0.18253622032E+04  0.16051692978E+04 0.  0.
        2    1    3    3  502    0  0.49546591460E+03 -0.53075566243E+03  0.45664467777E+02  0.72751171080E+03  0.25500000920E-02 0.  1.
       -2    1    3    3    0  502 -0.49546591460E+03  0.53075566243E+03  0.82346078104E+03  0.10978504924E+04  0.25500000920E-02 0. -1.
</event>
<event>
 5   0  0.3380454E-04  0.1595789E+04  0.7818609E-02  0.8823139E-01
        2   -1    0    0  501    0  0.00000000000E+00  0.00000000000E+00  0.94895542750E+03  0.94895542750E+03  0.25500000920E-02 0.  1.
       -2   -1    0    0    0  501  0.00000000000E+00  0.00000000000E+00 -0.67088048045E+03  0.67088048046E+03  0.25500000920E-02 0. -1.
    10030    2    1    2    0    0  0.00000000000E+00  0.00000000000E+00  0.27807494705E+03  0.16198359080E+04  0.15957890501E+04 0.  0.
        5    1    3    3  502    0 -0.48036983674E+03 -0.52244572747E+03 -0.23102284289E+03  0.74639022109E+03  0.46999998093E+01 0. -1.
       -5    1    3    3    0  502  0.48036983674E+03  0.52244572747E+03  0.50909778994E+03  0.87344568687E+03  0.46999998093E+01 0.  1.
</event>
<event>
 5   0  0.1764099E-04  0.1599274E+04  0.7818609E-02  0.8820994E-01
        1   -1    0    0  501    0  0.00000000000E+00  0.00000000000E+00  0.89465034622E+03  0.89465034623E+03  0.50400001928E-02 0. -1.
       -1   -1    0    0    0  501  0.00000000000E+00  0.00000000000E+00 -0.71471385330E+03  0.71471385332E+03  0.50400001928E-02 0.  1.
    10030    2    1    2    0    0  0.00000000000E+00  0.00000000000E+00  0.17993649292E+03  0.16093641995E+04  0.15992735805E+04 0.  0.
        5    1    3    3  502    0 -0.72905294898E+03  0.32608585361E+03  0.50391743070E+02  0.80025721122E+03  0.46999998093E+01 0.  1.
       -5    1    3    3    0  502  0.72905294898E+03 -0.32608585361E+03  0.12954474985E+03  0.80910698832E+03  0.46999998093E+01 0. -1.
</event>
<event>
 5   0  0.1764099E-04  0.1594197E+04  0.7818609E-02  0.8824121E-01
        1   -1    0    0  501    0  0.00000000000E+00  0.00000000000E+00  0.31479077666E+04  0.31479077666E+04  0.50400001928E-02 0. -1.
       -1   -1    0    0    0  501  0.00000000000E+00  0.00000000000E+00 -0.20183766083E+03  0.20183766090E+03  0.50400001928E-02 0.  1.
    10030    2    1    2    0    0  0.00000000000E+00  0.00000000000E+00  0.29460701058E+04  0.33497454275E+04  0.15941974034E+04 0.  0.
        5    1    3    3  502    0 -0.48628622020E+03 -0.97454843283E+02  0.27841849710E+04  0.28280169336E+04  0.46999998093E+01 0. -1.
       -5    1    3    3    0  502  0.48628622020E+03  0.97454843283E+02  0.16188513480E+03  0.52172849385E+03  0.46999998093E+01 0.  1.
</event>
<event>
 5   0  0.1764099E-04  0.1783406E+04  0.7818609E-02  0.8715174E-01
        1   -1    0    0  501    0  0.00000000000E+00  0.00000000000E+00  0.78743254235E+03  0.78743254237E+03  0.50400001928E-02 0.  1.
       -1   -1    0    0    0  501  0.00000000000E+00  0.00000000000E+00 -0.10097802595E+04  0.10097802595E+04  0.50400001928E-02 0. -1.
    10030    2    1    2    0    0  0.00000000000E+00  0.00000000000E+00 -0.22234771711E+03  0.17972128018E+04  0.17834055478E+04 0.  0.
        5    1    3    3  502    0  0.59725435521E+03  0.25835174911E+03  0.50317975843E+03  0.82259975101E+03  0.46999998093E+01 0.  1.
       -5    1    3    3    0  502 -0.59725435521E+03 -0.25835174911E+03 -0.72552747554E+03  0.97461305082E+03  0.46999998093E+01 0. -1.
</event>
<event>
 5   0  0.1819811E-04  0.1591149E+04  0.7818609E-02  0.8826004E-01
       -1   -1    0    0    0  501  0.00000000000E+00  0.00000000000E+00  0.59187358372E+03  0.59187358375E+03  0.50400001928E-02 0.  1.
        1   -1    0    0  501    0  0.00000000000E+00  0.00000000000E+00 -0.10693818541E+04  0.10693818541E+04  0.50400001928E-02 0. -1.
    10030    2    1    2    0    0  0.00000000000E+00  0.00000000000E+00 -0.47750827039E+03  0.16612554379E+04  0.15911491073E+04 0.  0.
        1    1    3    3  502    0 -0.21720852897E+03 -0.64363771002E+03 -0.67111334339E+03  0.95490427086E+03  0.50400001928E-02 0. -1.
       -1    1    3    3    0  502  0.21720852897E+03  0.64363771002E+03  0.19360507300E+03  0.70635116701E+03  0.50400001928E-02 0.  1.
</event>
<event>
 5   0  0.3274900E-04  0.1651476E+04  0.7818609E-02  0.8789534E-01
       -2   -1    0    0    0  501  0.00000000000E+00  0.00000000000E+00  0.98938467144E+03  0.98938467144E+03  0.25500000920E-02 0.  1.
        2   -1    0    0  501    0  0.00000000000E+00  0.00000000000E+00 -0.68915905681E+03  0.68915905681E+03  0.25500000920E-02 0. -1.
    10030    2    1    2    0    0  0.00000000000E+00  0.00000000000E+00  0.30022561463E+03  0.16785437283E+04  0.16514761966E+04 0.  0.
        3    1    3    3  502    0  0.34746376770E+03 -0.63094238535E+03  0.56049277983E+03  0.91267273978E+03  0.10100000352E+00 0.  1.
       -3    1    3    3    0  502 -0.34746376770E+03  0.63094238535E+03 -0.26026716520E+03  0.76587098847E+03  0.10100000352E+00 0. -1.
</event>
<event>
 5   0  0.1219463E-04  0.1600509E+04  0.7818609E-02  0.8820235E-01
       -4   -1    0    0    0  501  0.00000000000E+00  0.00000000000E+00  0.81813534601E+03  0.81813633172E+03  0.12699999809E+01 0. -1.
        4   -1    0    0  501    0  0.00000000000E+00  0.00000000000E+00 -0.78276252110E+03  0.78276355136E+03  0.12699999809E+01 0.  1.
    10030    2    1    2    0    0  0.00000000000E+00  0.00000000000E+00  0.35372824910E+02  0.16008998831E+04  0.16005090437E+04 0.  0.
        2    1    3    3  502    0  0.99789234988E+02 -0.69452147651E+03  0.40260414615E+03  0.80895492536E+03  0.25500000920E-02 0. -1.
       -2    1    3    3    0  502 -0.99789234988E+02  0.69452147651E+03 -0.36723132124E+03  0.79194495772E+03  0.25500000920E-02 0.  1.
</event>
<event>
 5   0  0.1787688E-04  0.1617172E+04  0.7818609E-02  0.8810068E-01
        1   -1    0    0  501    0  0.00000000000E+00  0.00000000000E+00  0.73260121380E+03  0.73260121382E+03  0.50400001928E-02 0. -1.
       -1   -1    0    0    0  501  0.00000000000E+00  0.00000000000E+00 -0.89245164917E+03  0.89245164918E+03  0.50400001928E-02 0.  1.
    10030    2    1    2    0    0  0.00000000000E+00  0.00000000000E+00 -0.15985043536E+03  0.16250528630E+04  0.16171718047E+04 0.  0.
        4    1    3    3  502    0  0.80684844520E+03 -0.42903119620E+02 -0.11113227721E+03  0.81559615444E+03  0.12699999809E+01 0.  1.
       -4    1    3    3    0  502 -0.80684844520E+03  0.42903119620E+02 -0.48718158150E+02  0.80945670856E+03  0.12699999809E+01 0. -1.
</event>
<event>
 5   0  0.3210612E-04  0.1589251E+04  0.7818609E-02  0.8827179E-01
        2   -1    0    0  501    0  0.00000000000E+00  0.00000000000E+00  0.61843129201E+03  0.61843129202E+03  0.25500000920E-02 0. -1.
       -2   -1    0    0    0  501  0.00000000000E+00  0.00000000000E+00 -0.10210182355E+04  0.10210182355E+04  0.25500000920E-02 0.  1.
    10030    2    1    2    0    0  0.00000000000E+00  0.00000000000E+00 -0.40258694344E+03  0.16394495275E+04  0.15892509261E+04 0.  0.
        2    1    3    3  502    0  0.47271806670E+02  0.78570795514E+03 -0.31362754876E+03  0.84730977442E+03  0.25500000920E-02 0. -1.
       -2    1    3    3    0  502 -0.47271806670E+02 -0.78570795514E+03 -0.88959394681E+02  0.79213975306E+03  0.25500000920E-02 0.  1.
</event>
<event>
 5   0  0.3210612E-04  0.1595690E+04  0.7818609E-02  0.8823200E-01
        2   -1    0    0  501    0  0.00000000000E+00  0.00000000000E+00  0.10030016455E+04  0.10030016455E+04  0.25500000920E-02 0.  1.
       -2   -1    0    0    0  501  0.00000000000E+00  0.00000000000E+00 -0.63465159434E+03  0.63465159435E+03  0.25500000920E-02 0. -1.
    10030    2    1    2    0    0  0.00000000000E+00  0.00000000000E+00  0.36835005120E+03  0.16376532399E+04  0.15956899366E+04 0.  0.
        2    1    3    3  502    0  0.58268314360E+03 -0.17572680546E+03  0.71364631999E+03  0.93791824059E+03  0.25500000920E-02 0.  1.
       -2    1    3    3    0  502 -0.58268314360E+03  0.17572680546E+03 -0.34529626879E+03  0.69973499930E+03  0.25500000920E-02 0. -1.
</event>
<event>
 5   0  0.1819811E-04  0.1600684E+04  0.7818609E-02  0.8820128E-01
       -1   -1    0    0    0  501  0.00000000000E+00  0.00000000000E+00  0.11298184527E+04  0.11298184527E+04  0.50400001928E-02 0.  1.
        1   -1    0    0  501    0  0.00000000000E+00  0.00000000000E+00 -0.56694685755E+03  0.56694685758E+03  0.50400001928E-02 0. -1.
    10030    2    1    2    0    0  0.00000000000E+00  0.00000000000E+00  0.56287159514E+03  0.16967653103E+04  0.16006836307E+04 0.  0.
        1    1    3    3  502    0  0.24986916631E+03 -0.49060362044E+03 -0.33431078600E+03  0.64411972049E+03  0.50400001928E-02 0. -1.
       -1    1    3    3    0  502 -0.24986916631E+03  0.49060362044E+03  0.89718238114E+03  0.10526455898E+04  0.50400001928E-02 0.  1.
</event>
<event>
 5   0  0.3380454E-04  0.1601795E+04  0.7818609E-02  0.8819446E-01
       -2   -1    0    0    0  501  0.00000000000E+00  0.00000000000E+00  0.38344333743E+03  0.38344333744E+03  0.25500000920E-02 0. -1.
        2   -1    0    0  501    0  0.00000000000E+00  0.00000000000E+00 -0.16728330247E+04  0.16728330247E+04  0.25500000920E-02 0.  1.
    10030    2    1    2    0    0  0.00000000000E+00  0.00000000000E+00 -0.12893896873E+04  0.20562763622E+04  0.16017948408E+04 0.  0.
        5    1    3    3  502    0 -0.36806299024E+03 -0.11013753439E+03  0.25740844980E+03  0.46247361145E+03  0.46999998093E+01 0. -1.
       -5    1    3    3    0  502  0.36806299024E+03  0.11013753439E+03 -0.15467981371E+04  0.15938027507E+04  0.46999998093E+01 0.  1.
</event>
<event>
 5   0  0.1736537E-04  0.1581498E+04  0.7818609E-02  0.8831996E-01
        1   -1    0    0  501    0  0.00000000000E+00  0.00000000000E+00  0.10800048896E+04  0.10800048896E+04  0.50400001928E-02 0.  1.
       -1   -1    0    0    0  501  0.00000000000E+00  0.00000000000E+00 -0.57896368734E+03  0.57896368736E+03  0.50400001928E-02 0. -1.
    10030    2    1    2    0    0  0.00000000000E+00  0.00000000000E+00  0.50104120224E+03  0.16589685769E+04  0.15814975349E+04 0.  0.
        3    1    3    3  502    0  0.38674550214E+03  0.36273853731E+03 -0.36484376262E+03  0.64363212412E+03  0.10100000352E+00 0. -1.
       -3    1    3    3    0  502 -0.38674550214E+03 -0.36273853731E+03  0.86588496486E+03  0.10153364528E+04  0.10100000352E+00 0.  1.
</event>
<event>
 5   0  0.3263294E-04  0.1580765E+04  0.7818609E-02  0.8832453E-01
        2   -1    0    0  501    0  0.00000000000E+00  0.00000000000E+00  0.13697588353E+04  0.13697588353E+04  0.25500000920E-02 0.  1.
       -2   -1    0    0    0  501  0.00000000000E+00  0.00000000000E+00 -0.45606886966E+03  0.45606886967E+03  0.25500000920E-02 0. -1.
    10030    2    1    2    0    0  0.00000000000E+00  0.00000000000E+00  0.91368996560E+03  0.18258277049E+04  0.15807648322E+04 0.  0.
        4    1    3    3  502    0  0.30958719498E+03  0.72485924748E+03  0.52456539928E+03  0.94680284694E+03  0.12699999809E+01 0. -1.
       -4    1    3    3    0  502 -0.30958719498E+03 -0.72485924748E+03  0.38912456631E+03  0.87902485799E+03  0.12699999809E+01 0.  1.
</event>
<event>
 5   0  0.1219463E-04  0.1617604E+04  0.7818609E-02  0.8809806E-01
       -4   -1    0    0    0  501  0.00000000000E+00  0.00000000000E+00  0.57665035598E+03  0.57665175448E+03  0.12699999809E+01 0.  1.
        4   -1    0    0  501    0  0.00000000000E+00  0.00000000000E+00 -0.11344114986E+04  0.11344122095E+04  0.12699999809E+01 0. -1.
    10030    2    1    2    0    0  0.00000000000E+00  0.00000000000E+00 -0.55776114260E+03  0.17110639640E+04  0.16176039060E+04 0.  0.
        2    1    3    3  502    0  0.61249927429E+03 -0.52086284180E+03 -0.37174312659E+03  0.88580269426E+03  0.25500000920E-02 0.  1.
       -2    1    3    3    0  502 -0.61249927429E+03  0.52086284180E+03 -0.18601801601E+03  0.82526126970E+03  0.25500000920E-02 0. -1.
</event>
<event>
 5   0  0.1819811E-04  0.1614978E+04  0.7818609E-02  0.8811399E-01
       -1   -1    0    0    0  501  0.00000000000E+00  0.00000000000E+00  0.11768664190E+04  0.11768664190E+04  0.50400001928E-02 0. -1.
        1   -1    0    0  501    0  0.00000000000E+00  0.00000000000E+00 -0.55404631789E+03  0.55404631791E+03  0.50400001928E-02 0.  1.
    10030    2    1    2    0    0  0.00000000000E+00  0.00000000000E+00  0.62282010108E+03  0.17309127369E+04  0.16149780260E+04 0.  0.
        1    1    3    3  502    0  0.50930235899E+03 -0.23195031248E+03  0.93530496575E+03  0.10899473470E+04  0.50400001928E-02 0. -1.
       -1    1    3    3    0  502 -0.50930235899E+03  0.23195031248E+03 -0.31248486467E+03  0.64096538986E+03  0.50400001928E-02 0.  1.
</event>
<event>
 5   0  0.1819811E-04  0.1598420E+04  0.7818609E-02  0.8821519E-01
        1   -1    0    0  501    0  0.00000000000E+00  0.00000000000E+00  0.73046467798E+03  0.73046467800E+03  0.50400001928E-02 0. -1.
       -1   -1    0    0    0  501  0.00000000000E+00  0.00000000000E+00 -0.87442556391E+03  0.87442556392E+03  0.50400001928E-02 0.  1.
    10030    2    1    2    0    0  0.00000000000E+00  0.00000000000E+00 -0.14396088593E+03  0.16048902419E+04  0.15984204553E+04 0.  0.
        1    1    3    3  502    0  0.29104560200E+02  0.42944520701E+01 -0.87388170474E+03  0.87437677900E+03  0.50400001928E-02 0.  1.
       -1    1    3    3    0  502 -0.29104560200E+02 -0.42944520701E+01  0.72992081881E+03  0.73051346292E+03  0.50400001928E-02 0. -1.
</event>
<event>
 5   0  0.1736537E-04  0.1686186E+04  0.7818609E-02  0.8769283E-01
        1   -1    0    0  501    0  0.00000000000E+00  0.00000000000E+00  0.97625977060E+03  0.97625977061E+03  0.50400001928E-02 0. -1.
       -1   -1    0    0    0  501  0.00000000000E+00  0.00000000000E+00 -0.72809054070E+03  0.72809054072E+03  0.50400001928E-02 0.  1.
    10030    2    1    2    0    0  0.00000000000E+00  0.00000000000E+00  0.24816922989E+03  0.17043503113E+04  0.16861856413E+04 0.  0.
        3    1    3    3  502    0  0.51777622766E+03 -0.61169522809E+03 -0.14054141480E+03  0.81364314873E+03  0.10100000352E+00 0.  1.
       -3    1    3    3    0  502 -0.51777622766E+03  0.61169522809E+03  0.38871064469E+03  0.89070716260E+03  0.10100000352E+00 0. -1.
</event>
<event>
 5   0  0.3263294E-04  0.1604790E+04  0.7818609E-02  0.8817611E-01
        2   -1    0    0  501    0  0.00000000000E+00  0.00000000000E+00  0.93746531772E+03  0.93746531772E+03  0.25500000920E-02 0. -1.
       -2   -1    0    0    0  501  0.00000000000E+00  0.00000000000E+00 -0.68678540588E+03  0.68678540588E+03  0.25500000920E-02 0.  1.
    10030    2    1    2    0    0  0.00000000000E+00  0.00000000000E+00  0.25067991184E+03  0.16242507236E+04  0.16047897043E+04 0.  0.
        4    1    3    3  502    0 -0.24516088801E+03  0.31283934603E+03 -0.58015206660E+03  0.70324273953E+03  0.12699999809E+01 0.  1.
       -4    1    3    3    0  502  0.24516088801E+03 -0.31283934603E+03  0.83083197844E+03  0.92100798407E+03  0.12699999809E+01 0. -1.
</event>
<event>
 5   0  0.3228393E-04  0.1655970E+04  0.7818609E-02  0.8786882E-01
        2   -1    0    0  501    0  0.00000000000E+00  0.00000000000E+00  0.12236323305E+04  0.12236323305E+04  0.25500000920E-02 0. -1.
       -2   -1    0    0    0  501  0.00000000000E+00  0.00000000000E+00 -0.56026574081E+03  0.56026574081E+03  0.25500000920E-02 0.  1.
    10030    2    1    2    0    0  0.00000000000E+00  0.00000000000E+00  0.66336658972E+03  0.17838980713E+04  0.16559701376E+04 0.  0.
        1    1    3    3  502    0 -0.58709608450E+03 -0.36774185214E+03 -0.15682834297E+03  0.71028938570E+03  0.50400001928E-02 0. -1.
       -1    1    3    3    0  502  0.58709608450E+03  0.36774185214E+03  0.82019493269E+03  0.10736086856E+04  0.50400001928E-02 0.  1.
</event>
<event>
 5   0  0.1219463E-04  0.1594038E+04  0.7818609E-02  0.8824219E-01
       -4   -1    0    0    0  501  0.00000000000E+00  0.00000000000E+00  0.22625788673E+04  0.22625792237E+04  0.12699999809E+01 0.  1.
        4   -1    0    0  501    0  0.00000000000E+00  0.00000000000E+00 -0.28075713510E+03  0.28076000750E+03  0.12699999809E+01 0. -1.
    10030    2    1    2    0    0  0.00000000000E+00  0.00000000000E+00  0.19818217322E+04  0.25433392312E+04  0.15940379753E+04 0.  0.
        2    1    3    3  502    0  0.56887135952E+03  0.51470991367E+02  0.18777963862E+04  0.19627488771E+04  0.25500000920E-02 0.  1.
       -2    1    3    3    0  502 -0.56887135952E+03 -0.51470991367E+02  0.10402534598E+03  0.58059035408E+03  0.25500000920E-02 0. -1.
</event>
<event>
 5   0  0.1761255E-04  0.1597535E+04  0.7818609E-02  0.8822064E-01
        1   -1    0    0  501    0  0.00000000000E+00  0.00000000000E+00  0.86793451240E+03  0.86793451242E+03  0.50400001928E-02 0. -1.
       -1   -1    0    0    0  501  0.00000000000E+00  0.00000000000E+00 -0.73511234873E+03  0.73511234874E+03  0.50400001928E-02 0.  1.
    10030    2    1    2    0    0  0.00000000000E+00  0.00000000000E+00  0.13282216368E+03  0.16030468612E+04  0.15975348234E+04 0.  0.
        2    1    3    3  502    0 -0.61585231035E+03 -0.29558480974E+03  0.48182610662E+03  0.83594308714E+03  0.25500000920E-02 0. -1.
       -2    1    3    3    0  502  0.61585231035E+03  0.29558480974E+03 -0.34900394295E+03  0.76710377402E+03  0.25500000920E-02 0.  1.
</event>
<event>
 5   0  0.1219463E-04  0.1601052E+04  0.7818609E-02  0.8819902E-01
       -3   -1    0    0    0  501  0.00000000000E+00  0.00000000000E+00  0.64306101426E+03  0.64306102219E+03  0.10100000352E+00 0.  1.
        3   -1    0    0  501    0  0.00000000000E+00  0.00000000000E+00 -0.99654947771E+03  0.99654948283E+03  0.10100000352E+00 0. -1.
    10030    2    1    2    0    0  0.00000000000E+00  0.00000000000E+00 -0.35348846345E+03  0.16396105050E+04  0.16010523147E+04 0.  0.
        2    1    3    3  502    0  0.66275281569E+02 -0.12058048342E+03  0.63086069808E+03  0.64569132433E+03  0.25500000920E-02 0.  1.
       -2    1    3    3    0  502 -0.66275281569E+02  0.12058048342E+03 -0.98434916153E+03  0.99391918069E+03  0.25500000920E-02 0. -1.
</event>
<event>
 5   0  0.3263294E-04  0.1605665E+04  0.7818609E-02  0.8817076E-01
        2   -1    0    0  501    0  0.00000000000E+00  0.00000000000E+00  0.49418644941E+03  0.49418644942E+03  0.25500000920E-02 0.  1.
       -2   -1    0    0    0  501  0.00000000000E+00  0.00000000000E+00 -0.13042440094E+04  0.13042440094E+04  0.25500000920E-02 0. -1.
    10030    2    1    2    0    0  0.00000000000E+00  0.00000000000E+00 -0.81005755999E+03  0.17984304588E+04  0.16056646178E+04 0.  0.
        4    1    3    3  502    0 -0.18530440662E+03  0.17611182296E+03 -0.12574366819E+04  0.12831608314E+04  0.12699999809E+01 0. -1.
       -4    1    3    3    0  502  0.18530440662E+03 -0.17611182296E+03  0.44737912194E+03  0.51526962742E+03  0.12699999809E+01 0.  1.
</event>
<event>
 5   0  0.1736537E-04  0.1615133E+04  0.7818609E-02  0.8811305E-01
       -1   -1    0    0    0  501  0.00000000000E+00  0.00000000000E+00  0.11438361135E+04  0.11438361136E+04  0.50400001928E-02 0.  1.
        1   -1    0    0  501    0  0.00000000000E+00  0.00000000000E+00 -0.57015486253E+03  0.57015486256E+03  0.50400001928E-02 0. -1.
    10030    2    1    2    0    0  0.00000000000E+00  0.00000000000E+00  0.57368125102E+03  0.17139909761E+04  0.16151330869E+04 0.  0.
        3    1    3    3  502    0  0.71698517318E+03 -0.28666663474E+03  0.35896598766E+02  0.77300328203E+03  0.10100000352E+00 0. -1.
       -3    1    3    3    0  502 -0.71698517318E+03  0.28666663474E+03  0.53778465225E+03  0.94098769409E+03  0.10100000352E+00 0.  1.
</event>
<event>
 5   0  0.3263294E-04  0.1569513E+04  0.7818609E-02  0.8839499E-01
        2   -1    0    0  501    0  0.00000000000E+00  0.00000000000E+00  0.54954491535E+03  0.54954491536E+03  0.25500000920E-02 0. -1.
       -2   -1    0    0    0  501  0.00000000000E+00  0.00000000000E+00 -0.11206418418E+04  0.11206418418E+04  0.25500000920E-02 0.  1.
    10030    2    1    2    0    0  0.00000000000E+00  0.00000000000E+00 -0.57109692644E+03  0.16701867571E+04  0.15695133336E+04 0.  0.
        4    1    3    3  502    0  0.15088678170E+03  0.64508018163E+03  0.16208298182E+03  0.68203208687E+03  0.12699999809E+01 0. -1.
       -4    1    3    3    0  502 -0.15088678170E+03 -0.64508018163E+03 -0.73317990826E+03  0.98815467028E+03  0.12699999809E+01 0.  1.
</event>
<event>
 5   0  0.1736537E-04  0.1585317E+04  0.7818609E-02  0.8829619E-01
       -1   -1    0    0    0  501  0.00000000000E+00  0.00000000000E+00  0.28533941606E+03  0.28533941610E+03  0.50400001928E-02 0. -1.
        1   -1    0    0  501    0  0.00000000000E+00  0.00000000000E+00 -0.22019666563E+04  0.22019666563E+04  0.50400001928E-02 0.  1.
    10030    2    1    2    0    0  0.00000000000E+00  0.00000000000E+00 -0.19166272402E+04  0.24873060724E+04  0.15853174823E+04 0.  0.
        3    1    3    3  502    0 -0.55366983893E+03 -0.10200408825E+03 -0.82847526258E+02  0.56905083022E+03  0.10100000352E+00 0. -1.
       -3    1    3    3    0  502  0.55366983893E+03  0.10200408825E+03 -0.18337797140E+04  0.19182552422E+04  0.10100000352E+00 0.  1.
</event>
<event>
 5   0  0.1736537E-04  0.1590481E+04  0.7818609E-02  0.8826417E-01
       -1   -1    0    0    0  501  0.00000000000E+00  0.00000000000E+00  0.83446884157E+03  0.83446884158E+03  0.50400001928E-02 0.  1.
        1   -1    0    0  501    0  0.00000000000E+00  0.00000000000E+00 -0.75785657069E+03  0.75785657071E+03  0.50400001928E-02 0. -1.
    10030    2    1    2    0    0  0.00000000000E+00  0.00000000000E+00  0.76612270878E+02  0.15923254123E+04  0.15904813041E+04 0.  0.
        3    1    3    3  502    0 -0.48677549452E+03 -0.46515266666E+01 -0.59125973508E+03  0.76587211941E+03  0.10100000352E+00 0. -1.
       -3    1    3    3    0  502  0.48677549452E+03  0.46515266666E+01  0.66787200596E+03  0.82645329288E+03  0.10100000352E+00 0.  1.
</event>
<event>
 5   0  0.3263294E-04  0.1595455E+04  0.7818609E-02  0.8823345E-01
        2   -1    0    0  501    0  0.00000000000E+00  0.00000000000E+00  0.13852144250E+04  0.13852144250E+04  0.25500000920E-02 0.  1.
       -2   -1    0    0    0  501  0.00000000000E+00  0.00000000000E+00 -0.45940120785E+03  0.45940120785E+03  0.25500000920E-02 0. -1.
    10030    2    1    2    0    0  0.00000000000E+00  0.00000000000E+00  0.92581321714E+03  0.18446156328E+04  0.15954550197E+04 0.  0.
        4    1    3    3  502    0 -0.15152681306E+03 -0.78316313083E+03  0.45375149480E+03  0.91771286169E+03  0.12699999809E+01 0. -1.
       -4    1    3    3    0  502  0.15152681306E+03  0.78316313083E+03  0.47206172234E+03  0.92690277115E+03  0.12699999809E+01 0.  1.
</event>
<event>
 5   0  0.3228393E-04  0.1586373E+04  0.7818609E-02  0.8828964E-01
       -2   -1    0    0    0  501  0.00000000000E+00  0.00000000000E+00  0.61511284814E+03  0.61511284814E+03  0.25500000920E-02 0. -1.
        2   -1    0    0  501    0  0.00000000000E+00  0.00000000000E+00 -0.10228118136E+04  0.10228118136E+04  0.25500000920E-02 0.  1.
    10030    2    1    2    0    0  0.00000000000E+00  0.00000000000E+00 -0.40769896551E+03  0.16379246618E+04  0.15863728286E+04 0.  0.
        1    1    3    3  502    0 -0.29124855618E+03 -0.30612014396E+02  0.55724965815E+03  0.62951568562E+03  0.50400001928E-02 0. -1.
       -1    1    3    3    0  502  0.29124855618E+03  0.30612014396E+02 -0.96494862366E+03  0.10084089762E+04  0.50400001928E-02 0.  1.
</event>
<event>
 5   0  0.3210612E-04  0.1611914E+04  0.7818609E-02  0.8813262E-01
       -2   -1    0    0    0  501  0.00000000000E+00  0.00000000000E+00  0.66590305827E+03  0.66590305827E+03  0.25500000920E-02 0.  1.
        2   -1    0    0  501    0  0.00000000000E+00  0.00000000000E+00 -0.97546738888E+03  0.97546738889E+03  0.25500000920E-02 0. -1.
    10030    2    1    2    0    0  0.00000000000E+00  0.00000000000E+00 -0.30956433062E+03  0.16413704472E+04  0.16119140393E+04 0.  0.
        2    1    3    3  502    0 -0.25097855545E+03 -0.74359476533E+03 -0.34155515572E+03  0.85591082171E+03  0.25500000920E-02 0. -1.
       -2    1    3    3    0  502  0.25097855545E+03  0.74359476533E+03  0.31990825102E+02  0.78545962545E+03  0.25500000920E-02 0.  1.
</event>
<event>
 5   0  0.3263294E-04  0.1589993E+04  0.7818609E-02  0.8826719E-01
       -2   -1    0    0    0  501  0.00000000000E+00  0.00000000000E+00  0.31289087806E+03  0.31289087807E+03  0.25500000920E-02 0.  1.
        2   -1    0    0  501    0  0.00000000000E+00  0.00000000000E+00 -0.20199351370E+04  0.20199351370E+04  0.25500000920E-02 0. -1.
    10030    2    1    2    0    0  0.00000000000E+00  0.00000000000E+00 -0.17070442589E+04  0.23328260150E+04  0.15899928033E+04 0.  0.
        4    1    3    3  502    0  0.48430894351E+03 -0.56413426364E+03 -0.12664660050E+04  0.14685844800E+04  0.12699999809E+01 0. -1.
       -4    1    3    3    0  502 -0.48430894351E+03  0.56413426364E+03 -0.44057825394E+03  0.86424153506E+03  0.12699999809E+01 0.  1.
</event>
<event>
 5   0  0.1819811E-04  0.1606853E+04  0.7818609E-02  0.8816349E-01
        1   -1    0    0  501    0  0.00000000000E+00  0.00000000000E+00  0.70644160505E+03  0.70644160507E+03  0.50400001928E-02 0. -1.
       -1   -1    0    0    0  501  0.00000000000E+00  0.00000000000E+00 -0.91372562657E+03  0.91372562658E+03  0.50400001928E-02 0.  1.
    10030    2    1    2    0    0  0.00000000000E+00  0.00000000000E+00 -0.20728402152E+03  0.16201672317E+04  0.16068525735E+04 0.  0.
        1    1    3    3  502    0 -0.16193686361E+03  0.10213825621E+03  0.68310426633E+03  0.70942738168E+03  0.50400001928E-02 0. -1.
       -1    1    3    3    0  502  0.16193686361E+03 -0.10213825621E+03 -0.89038828784E+03  0.91073984997E+03  0.50400001928E-02 0.  1.
</event>
<event>
 5   0  0.1736537E-04  0.1596094E+04  0.7818609E-02  0.8822951E-01
        1   -1    0    0  501    0  0.00000000000E+00  0.00000000000E+00  0.93121199659E+03  0.93121199661E+03  0.50400001928E-02 0.  1.
       -1   -1    0    0    0  501  0.00000000000E+00  0.00000000000E+00 -0.68392513000E+03  0.68392513002E+03  0.50400001928E-02 0. -1.
    10030    2    1    2    0    0  0.00000000000E+00  0.00000000000E+00  0.24728686659E+03  0.16151371266E+04  0.15960943404E+04 0.  0.
        3    1    3    3  502    0 -0.10703997358E+03  0.23887781685E+03  0.88653401745E+03  0.92437153874E+03  0.10100000352E+00 0.  1.
       -3    1    3    3    0  502  0.10703997358E+03 -0.23887781685E+03 -0.63924715086E+03  0.69076558789E+03  0.10100000352E+00 0. -1.
</event>
<event>
 5   0  0.3210612E-04  0.1606635E+04  0.7818609E-02  0.8816482E-01
        2   -1    0    0  501    0  0.00000000000E+00  0.00000000000E+00  0.19439355831E+04  0.19439355831E+04  0.25500000920E-02 0.  1.
       -2   -1    0    0    0  501  0.00000000000E+00  0.00000000000E+00 -0.33196510209E+03  0.33196510210E+03  0.25500000920E-02 0. -1.
    10030    2    1    2    0    0  0.00000000000E+00  0.00000000000E+00  0.16119704810E+04  0.22759006852E+04  0.16066347118E+04 0.  0.
        2    1    3    3  502    0 -0.60736797681E+03 -0.39209561675E+03  0.30981578829E+03  0.78652441450E+03  0.25500000920E-02 0. -1.
       -2    1    3    3    0  502  0.60736797681E+03  0.39209561675E+03  0.13021546927E+04  0.14893762707E+04  0.25500000920E-02 0.  1.
</event>
<event>
 5   0  0.1761255E-04  0.1615387E+04  0.7818609E-02  0.8811151E-01
        1   -1    0    0  501    0  0.00000000000E+00  0.00000000000E+00  0.10270863917E+04  0.10270863917E+04  0.50400001928E-02 0. -1.
       -1   -1    0    0    0  501  0.00000000000E+00  0.00000000000E+00 -0.63516429618E+03  0.63516429620E+03  0.50400001928E-02 0.  1.
    10030    2    1    2    0    0  0.00000000000E+00  0.00000000000E+00  0.39192209549E+03  0.16622506879E+04  0.16153867712E+04 0.  0.
        2    1    3    3  502    0  0.75983316535E+03 -0.17116181334E+03  0.41600054989E+03  0.88300581143E+03  0.25500000920E-02 0.  1.
       -2    1    3    3    0  502 -0.75983316535E+03  0.17116181334E+03 -0.24078454399E+02  0.77924487646E+03  0.25500000920E-02 0. -1.
</event>
<event>
 5   0  0.1787688E-04  0.1602428E+04  0.7818609E-02  0.8819058E-01
       -1   -1    0    0    0  501  0.00000000000E+00  0.00000000000E+00  0.64368826438E+03  0.64368826440E+03  0.50400001928E-02 0. -1.
        1   -1    0    0  501    0  0.00000000000E+00  0.00000000000E+00 -0.99728957590E+03  0.99728957591E+03  0.50400001928E-02 0.  1.
    10030    2    1    2    0    0  0.00000000000E+00  0.00000000000E+00 -0.35360131152E+03  0.16409778403E+04  0.16024276536E+04 0.  0.
        4    1    3    3  502    0 -0.32462877546E+03 -0.17241006377E+03 -0.90584960675E+03  0.97758590154E+03  0.12699999809E+01 0.  1.
       -4    1    3    3    0  502  0.32462877546E+03  0.17241006377E+03  0.55224829523E+03  0.66339193877E+03  0.12699999809E+01 0. -1.
</event>
<event>
 5   0  0.1787688E-04  0.1599141E+04  0.7818609E-02  0.8821076E-01
       -1   -1    0    0    0  501  0.00000000000E+00  0.00000000000E+00  0.97668627858E+03  0.97668627860E+03  0.50400001928E-02 0. -1.
        1   -1    0    0  501    0  0.00000000000E+00  0.00000000000E+00 -0.65457368525E+03  0.65457368527E+03  0.50400001928E-02 0.  1.
    10030    2    1    2    0    0  0.00000000000E+00  0.00000000000E+00  0.32211259334E+03  0.16312599639E+04  0.15991411904E+04 0.  0.
        4    1    3    3  502    0  0.25552086646E+03  0.55189080557E+03 -0.36844265548E+03  0.71107382018E+03  0.12699999809E+01 0.  1.
       -4    1    3    3    0  502 -0.25552086646E+03 -0.55189080557E+03  0.69055524882E+03  0.92018614369E+03  0.12699999809E+01 0. -1.
</event>
<event>
 5   0  0.3210612E-04  0.1592327E+04  0.7818609E-02  0.8825276E-01
        2   -1    0    0  501    0  0.00000000000E+00  0.00000000000E+00  0.16707539356E+04  0.16707539356E+04  0.25500000920E-02 0.  1.
       -2   -1    0    0    0  501  0.00000000000E+00  0.00000000000E+00 -0.37939546714E+03  0.37939546715E+03  0.25500000920E-02 0. -1.
    10030    2    1    2    0    0  0.00000000000E+00  0.00000000000E+00  0.12913584684E+04  0.20501494027E+04  0.15923271898E+04 0.  0.
        2    1    3    3  502    0 -0.26956135821E+03 -0.29680755548E+03  0.15312802949E+04  0.15829015738E+04  0.25500000920E-02 0.  1.
       -2    1    3    3    0  502  0.26956135821E+03  0.29680755548E+03 -0.23992182644E+03  0.46724782893E+03  0.25500000920E-02 0. -1.
</event>
<event>
 5   0  0.1819811E-04  0.1590499E+04  0.7818609E-02  0.8826406E-01
       -1   -1    0    0    0  501  0.00000000000E+00  0.00000000000E+00  0.29653981691E+03  0.29653981695E+03  0.50400001928E-02 0.  1.
        1   -1    0    0  501    0  0.00000000000E+00  0.00000000000E+00 -0.21326700325E+04  0.21326700325E+04  0.50400001928E-02 0. -1.
    10030    2    1    2    0    0  0.00000000000E+00  0.00000000000E+00 -0.18361302156E+04  0.24292098495E+04  0.15904987658E+04 0.  0.
        1    1    3    3  502    0 -0.15724716486E+02  0.25601093057E+03  0.23162956908E+03  0.34560254712E+03  0.50400001928E-02 0.  1.
       -1    1    3    3    0  502  0.15724716486E+02 -0.25601093057E+03 -0.20677597847E+04  0.20836073024E+04  0.50400001928E-02 0. -1.
</event>
<event>
 5   0  0.3210612E-04  0.1596183E+04  0.7818609E-02  0.8822896E-01
        2   -1    0    0  501    0  0.00000000000E+00  0.00000000000E+00  0.13299735305E+04  0.13299735305E+04  0.25500000920E-02 0. -1.
       -2   -1    0    0    0  501  0.00000000000E+00  0.00000000000E+00 -0.47891958071E+03  0.47891958072E+03  0.25500000920E-02 0.  1.
    10030    2    1    2    0    0  0.00000000000E+00  0.00000000000E+00  0.85105394982E+03  0.18088931113E+04  0.15961834050E+04 0.  0.
        2    1    3    3  502    0  0.36930765673E+03 -0.32864979054E+03 -0.28450589434E+03  0.57038796802E+03  0.25500000920E-02 0.  1.
       -2    1    3    3    0  502 -0.36930765673E+03  0.32864979054E+03  0.11355598442E+04  0.12385051432E+04  0.25500000920E-02 0. -1.
</event>
<event>
 5   0  0.3210612E-04  0.1629541E+04  0.7818609E-02  0.8802603E-01
       -2   -1    0    0    0  501  0.00000000000E+00  0.00000000000E+00  0.65789623661E+03  0.65789623662E+03  0.25500000920E-02 0. -1.
        2   -1    0    0  501    0  0.00000000000E+00  0.00000000000E+00 -0.10090509758E+04  0.10090509758E+04  0.25500000920E-02 0.  1.
    10030    2    1    2    0    0  0.00000000000E+00  0.00000000000E+00 -0.35115473919E+03  0.16669472124E+04  0.16295408427E+04 0.  0.
        2    1    3    3  502    0 -0.33527570347E+03 -0.37884086147E+03  0.47777043981E+03  0.69584106578E+03  0.25500000920E-02 0. -1.
       -2    1    3    3    0  502  0.33527570347E+03  0.37884086147E+03 -0.82892517900E+03  0.97110614664E+03  0.25500000920E-02 0.  1.
</event>
<event>
 5   0  0.3210612E-04  0.1600138E+04  0.7818609E-02  0.8820463E-01
        2   -1    0    0  501    0  0.00000000000E+00  0.00000000000E+00  0.55463845248E+03  0.55463845248E+03  0.25500000920E-02 0.  1.
       -2   -1    0    0    0  501  0.00000000000E+00  0.00000000000E+00 -0.11541033621E+04  0.11541033621E+04  0.25500000920E-02 0. -1.
    10030    2    1    2    0    0  0.00000000000E+00  0.00000000000E+00 -0.59946490964E+03  0.17087418146E+04  0.16001376226E+04 0.  0.
        2    1    3    3  502    0  0.16860246936E+03 -0.40352881605E+03  0.41570004255E+03  0.60338115934E+03  0.25500000920E-02 0.  1.
       -2    1    3    3    0  502 -0.16860246936E+03  0.40352881605E+03 -0.10151649522E+04  0.11053606553E+04  0.25500000920E-02 0. -1.
</event>
<event>
 5   0  0.3228393E-04  0.1585871E+04  0.7818609E-02  0.8829275E-01
        2   -1    0    0  501    0  0.00000000000E+00  0.00000000000E+00  0.29315104051E+03  0.29315104052E+03  0.25500000920E-02 0. -1.
       -2   -1    0    0    0  501  0.00000000000E+00  0.00000000000E+00 -0.21447870627E+04  0.21447870627E+04  0.25500000920E-02 0.  1.
    10030    2    1    2    0    0  0.00000000000E+00  0.00000000000E+00 -0.18516360222E+04  0.24379381032E+04  0.15858708133E+04 0.  0.
        1    1    3    3  502    0 -0.47659274293E+03  0.59950132841E+03 -0.12416325034E+04  0.14588330126E+04  0.50400001928E-02 0. -1.
       -1    1    3    3    0  502  0.47659274293E+03 -0.59950132841E+03 -0.61000351886E+03  0.97910509059E+03  0.50400001928E-02 0.  1.
</event>
<event>
 5   0  0.1761255E-04  0.1590163E+04  0.7818609E-02  0.8826614E-01
        1   -1    0    0  501    0  0.00000000000E+00  0.00000000000E+00  0.14004088555E+04  0.14004088555E+04  0.50400001928E-02 0.  1.
       -1   -1    0    0    0  501  0.00000000000E+00  0.00000000000E+00 -0.45140705314E+03  0.45140705317E+03  0.50400001928E-02 0. -1.
    10030    2    1    2    0    0  0.00000000000E+00  0.00000000000E+00  0.94900180236E+03  0.18518159087E+04  0.15901628026E+04 0.  0.
        2    1    3    3  502    0  0.19407973392E+03  0.58479501362E+03  0.10596800942E+04  0.12257952737E+04  0.25500000920E-02 0.  1.
       -2    1    3    3    0  502 -0.19407973392E+03 -0.58479501362E+03 -0.11067829184E+03  0.62602063494E+03  0.25500000920E-02 0. -1.
</event>
<event>
 5   0  0.3263294E-04  0.1572402E+04  0.7818609E-02  0.8837684E-01
        2   -1    0    0  501    0  0.00000000000E+00  0.00000000000E+00  0.13180670215E+04  0.13180670215E+04  0.25500000920E-02 0. -1.
       -2   -1    0    0    0  501  0.00000000000E+00  0.00000000000E+00 -0.46895328668E+03  0.46895328668E+03  0.25500000920E-02 0.  1.
    10030    2    1    2    0    0  0.00000000000E+00  0.00000000000E+00  0.84911373484E+03  0.17870203082E+04  0.15724018085E+04 0.  0.
        4    1    3    3  502    0  0.51088220214E+03  0.37156732538E+03 -0.10734920975E+03  0.64077169685E+03  0.12699999809E+01 0.  1.
       -4    1    3    3    0  502 -0.51088220214E+03 -0.37156732538E+03  0.95646294459E+03  0.11462486113E+04  0.12699999809E+01 0. -1.
</event>
<event>
 5   0  0.3380454E-04  0.1606670E+04  0.7818609E-02  0.8816461E-01
        2   -1    0    0  501    0  0.00000000000E+00  0.00000000000E+00  0.96622086232E+03  0.96622086233E+03  0.25500000920E-02 0. -1.
       -2   -1    0    0    0  501  0.00000000000E+00  0.00000000000E+00 -0.66790843948E+03  0.66790843948E+03  0.25500000920E-02 0.  1.
    10030    2    1    2    0    0  0.00000000000E+00  0.00000000000E+00  0.29831242285E+03  0.16341293018E+04  0.16066699329E+04 0.  0.
        5    1    3    3  502    0 -0.72464802103E+02 -0.18506982688E+03  0.94080513590E+03  0.96158118851E+03  0.46999998093E+01 0. -1.
       -5    1    3    3    0  502  0.72464802103E+02  0.18506982688E+03 -0.64249271306E+03  0.67254811329E+03  0.46999998093E+01 0.  1.
</event>
<event>
 5   0  0.1736537E-04  0.1591548E+04  0.7818609E-02  0.8825757E-01
       -1   -1    0    0    0  501  0.00000000000E+00  0.00000000000E+00  0.43201665882E+03  0.43201665885E+03  0.50400001928E-02 0.  1.
        1   -1    0    0  501    0  0.00000000000E+00  0.00000000000E+00 -0.14658139316E+04  0.14658139316E+04  0.50400001928E-02 0. -1.
    10030    2    1    2    0    0  0.00000000000E+00  0.00000000000E+00 -0.10337972728E+04  0.18978305905E+04  0.15915477212E+04 0.  0.
        3    1    3    3  502    0 -0.61370378050E+03  0.50106148998E+03 -0.42797497163E+03  0.90047628146E+03  0.10100000352E+00 0.  1.
       -3    1    3    3    0  502  0.61370378050E+03 -0.50106148998E+03 -0.60582230118E+03  0.99735430903E+03  0.10100000352E+00 0. -1.
</event>
<event>
 5   0  0.3380454E-04  0.1601126E+04  0.7818609E-02  0.8819856E-01
       -2   -1    0    0    0  501  0.00000000000E+00  0.00000000000E+00  0.51477380880E+03  0.51477380881E+03  0.25500000920E-02 0.  1.
        2   -1    0    0  501    0  0.00000000000E+00  0.00000000000E+00 -0.12450155744E+04  0.12450155744E+04  0.25500000920E-02 0. -1.
    10030    2    1    2    0    0  0.00000000000E+00  0.00000000000E+00 -0.73024176559E+03  0.17597893832E+04  0.16011263651E+04 0.  0.
        5    1    3    3  502    0 -0.78312948036E+03  0.78104755069E+02 -0.20401001733E+03  0.81304016686E+03  0.46999998093E+01 0.  1.
       -5    1    3    3    0  502  0.78312948036E+03 -0.78104755069E+02 -0.52623174826E+03  0.94674921634E+03  0.46999998093E+01 0. -1.
</event>
<event>
 5   0  0.1764099E-04  0.1598826E+04  0.7818609E-02  0.8821269E-01
        1   -1    0    0  501    0  0.00000000000E+00  0.00000000000E+00  0.10840368902E+04  0.10840368902E+04  0.50400001928E-02 0. -1.
       -1   -1    0    0    0  501  0.00000000000E+00  0.00000000000E+00 -0.58951984697E+03  0.58951984699E+03  0.50400001928E-02 0.  1.
    10030    2    1    2    0    0  0.00000000000E+00  0.00000000000E+00  0.49451704326E+03  0.16735567372E+04  0.15988261465E+04 0.  0.
        5    1    3    3  502    0  0.65180109542E+03 -0.31339074265E+03  0.60373604154E+03  0.94211343448E+03  0.46999998093E+01 0. -1.
       -5    1    3    3    0  502 -0.65180109542E+03  0.31339074265E+03 -0.10921899828E+03  0.73144330276E+03  0.46999998093E+01 0.  1.
</event>
<event>
 5   0  0.3380454E-04  0.1609809E+04  0.7818609E-02  0.8814545E-01
       -2   -1    0    0    0  501  0.00000000000E+00  0.00000000000E+00  0.59363342489E+03  0.59363342490E+03  0.25500000920E-02 0. -1.
        2   -1    0    0  501    0  0.00000000000E+00  0.00000000000E+00 -0.10913652706E+04  0.10913652706E+04  0.25500000920E-02 0.  1.
    10030    2    1    2    0    0  0.00000000000E+00  0.00000000000E+00 -0.49773184568E+03  0.16849986955E+04  0.16098085642E+04 0.  0.
        5    1    3    3  502    0  0.31107352896E+02 -0.43232922429E+03 -0.95875633521E+03  0.10521939108E+04  0.46999998093E+01 0.  1.
       -5    1    3    3    0  502 -0.31107352896E+02  0.43232922429E+03  0.46102448953E+03  0.63280478469E+03  0.46999998093E+01 0. -1.
</event>
<event>
 5   0  0.3210612E-04  0.1595489E+04  0.7818609E-02  0.8823324E-01
       -2   -1    0    0    0  501  0.00000000000E+00  0.00000000000E+00  0.96326116107E+03  0.96326116107E+03  0.25500000920E-02 0.  1.
        2   -1    0    0  501    0  0.00000000000E+00  0.00000000000E+00 -0.66066882115E+03  0.66066882115E+03  0.25500000920E-02 0. -1.
    10030    2    1    2    0    0  0.00000000000E+00  0.00000000000E+00  0.30259233992E+03  0.16239299822E+04  0.15954894117E+04 0.  0.
        2    1    3    3  502    0  0.39249423791E+03 -0.13976603187E+03 -0.54113227898E+03  0.68294246743E+03  0.25500000920E-02 0. -1.
       -2    1    3    3    0  502 -0.39249423791E+03  0.13976603187E+03  0.84372461890E+03  0.94098751479E+03  0.25500000920E-02 0.  1.
</event>
<event>
 5   0  0.1819811E-04  0.1611325E+04  0.7818609E-02  0.8813621E-01
        1   -1    0    0  501    0  0.00000000000E+00  0.00000000000E+00  0.75330950120E+03  0.75330950121E+03  0.50400001928E-02 0. -1.
       -1   -1    0    0    0  501  0.00000000000E+00  0.00000000000E+00 -0.86165397378E+03  0.86165397380E+03  0.50400001928E-02 0.  1.
    10030    2    1    2    0    0  0.00000000000E+00  0.00000000000E+00 -0.10834447259E+03  0.16149634750E+04  0.16113250761E+04 0.  0.
        1    1    3    3  502    0  0.39710905740E+03  0.66232695735E+02  0.64526438494E+03  0.76055801879E+03  0.50400001928E-02 0. -1.
       -1    1    3    3    0  502 -0.39710905740E+03 -0.66232695735E+02 -0.75360885753E+03  0.85440545622E+03  0.50400001928E-02 0.  1.
</event>
<event>
 5   0  0.1736537E-04  0.1593469E+04  0.7818609E-02  0.8824571E-01
       -1   -1    0    0    0  501  0.00000000000E+00  0.00000000000E+00  0.61945071059E+03  0.61945071061E+03  0.50400001928E-02 0.  1.
        1   -1    0    0  501    0  0.00000000000E+00  0.00000000000E+00 -0.10247554790E+04  0.10247554790E+04  0.50400001928E-02 0. -1.
    10030    2    1    2    0    0  0.00000000000E+00  0.00000000000E+00 -0.40530476840E+03  0.16442061896E+04  0.15934685559E+04 0.  0.
        3    1    3    3  502    0  0.62841983185E+03 -0.16752651913E+03  0.27222869096E+03  0.70504261577E+03  0.10100000352E+00 0.  1.
       -3    1    3    3    0  502 -0.62841983185E+03  0.16752651913E+03 -0.67753345936E+03  0.93916357384E+03  0.10100000352E+00 0. -1.
</event>
<event>
 5   0  0.3263294E-04  0.1597403E+04  0.7818609E-02  0.8822145E-01
       -2   -1    0    0    0  501  0.00000000000E+00  0.00000000000E+00  0.94582621213E+03  0.94582621214E+03  0.25500000920E-02 0. -1.
        2   -1    0    0  501    0  0.00000000000E+00  0.00000000000E+00 -0.67446231659E+03  0.67446231659E+03  0.25500000920E-02 0.  1.
    10030    2    1    2    0    0  0.00000000000E+00  0.00000000000E+00  0.27136389554E+03  0.16202885287E+04  0.15974030651E+04 0.  0.
        4    1    3    3  502    0  0.31909490270E+03  0.85726395491E+02 -0.60188905836E+03  0.68661679508E+03  0.12699999809E+01 0.  1.
       -4    1    3    3    0  502 -0.31909490270E+03 -0.85726395491E+02  0.87325295390E+03  0.93367173365E+03  0.12699999809E+01 0. -1.
</event>
<event>
 5   0  0.3263294E-04  0.1740638E+04  0.7818609E-02  0.8738520E-01
        2   -1    0    0  501    0  0.00000000000E+00  0.00000000000E+00  0.93645985389E+03  0.93645985389E+03  0.25500000920E-02 0. -1.
       -2   -1    0    0    0  501  0.00000000000E+00  0.00000000000E+00 -0.80884999976E+03  0.80884999976E+03  0.25500000920E-02 0.  1.
    10030    2    1    2    0    0  0.00000000000E+00  0.00000000000E+00  0.12760985413E+03  0.17453098537E+04  0.17406384491E+04 0.  0.
        4    1    3    3  502    0  0.19293699825E+03 -0.25513582837E+03 -0.74777137463E+03  0.81331581678E+03  0.12699999809E+01 0.  1.
       -4    1    3    3    0  502 -0.19293699825E+03  0.25513582837E+03  0.87538122876E+03  0.93199403688E+03  0.12699999809E+01 0. -1.
</event>
<event>
 5   0  0.3228393E-04  0.1584833E+04  0.7818609E-02  0.8829920E-01
        2   -1    0    0  501    0  0.00000000000E+00  0.00000000000E+00  0.21402885778E+04  0.21402885778E+04  0.25500000920E-02 0.  1.
       -2   -1    0    0    0  501  0.00000000000E+00  0.00000000000E+00 -0.29338266132E+03  0.29338266133E+03  0.25500000920E-02 0. -1.
    10030    2    1    2    0    0  0.00000000000E+00  0.00000000000E+00  0.18469059165E+04  0.24336712391E+04  0.15848325577E+04 0.  0.
        1    1    3    3  502    0  0.47803172712E+03  0.34194694746E+03  0.17396096386E+04  0.18362145141E+04  0.50400001928E-02 0. -1.
       -1    1    3    3    0  502 -0.47803172712E+03 -0.34194694746E+03  0.10729627786E+03  0.59745672503E+03  0.50400001928E-02 0.  1.
</event>
<event>
 5   0  0.3380454E-04  0.1599953E+04  0.7818609E-02  0.8820577E-01
        2   -1    0    0  501    0  0.00000000000E+00  0.00000000000E+00  0.11456909771E+04  0.11456909771E+04  0.25500000920E-02 0. -1.
       -2   -1    0    0    0  501  0.00000000000E+00  0.00000000000E+00 -0.55858190403E+03  0.55858190404E+03  0.25500000920E-02 0.  1.
    10030    2    1    2    0    0  0.00000000000E+00  0.00000000000E+00  0.58710907308E+03  0.17042728811E+04  0.15999528086E+04 0.  0.
        5    1    3    3  502    0  0.16029306497E+03 -0.36488890964E+03 -0.44528599225E+03  0.59761148579E+03  0.46999998093E+01 0.  1.
       -5    1    3    3    0  502 -0.16029306497E+03  0.36488890964E+03  0.10323950653E+04  0.11066613954E+04  0.46999998093E+01 0. -1.
</event>
<event>
 5   0  0.1736537E-04  0.1583027E+04  0.7818609E-02  0.8831043E-01
        1   -1    0    0  501    0  0.00000000000E+00  0.00000000000E+00  0.91367847075E+03  0.91367847076E+03  0.50400001928E-02 0.  1.
       -1   -1    0    0    0  501  0.00000000000E+00  0.00000000000E+00 -0.68568317939E+03  0.68568317941E+03  0.50400001928E-02 0. -1.
    10030    2    1    2    0    0  0.00000000000E+00  0.00000000000E+00  0.22799529136E+03  0.15993616502E+04  0.15830274272E+04 0.  0.
        3    1    3    3  502    0 -0.65808351884E+03 -0.36801018655E+03  0.35729047076E+03  0.83436317384E+03  0.10100000352E+00 0. -1.
       -3    1    3    3    0  502  0.65808351884E+03  0.36801018655E+03 -0.12929517940E+03  0.76499847633E+03  0.10100000352E+00 0.  1.
</event>
<event>
 5   0  0.1819811E-04  0.1601999E+04  0.7818609E-02  0.8819321E-01
        1   -1    0    0  501    0  0.00000000000E+00  0.00000000000E+00  0.82598673863E+03  0.82598673864E+03  0.50400001928E-02 0. -1.
       -1   -1    0    0    0  501  0.00000000000E+00  0.00000000000E+00 -0.77676843348E+03  0.77676843349E+03  0.50400001928E-02 0.  1.
    10030    2    1    2    0    0  0.00000000000E+00  0.00000000000E+00  0.49218305150E+02  0.16027551721E+04  0.16019992822E+04 0.  0.
        1    1    3    3  502    0 -0.50046361053E+03 -0.15430551448E+03  0.63096971306E+03  0.81999804639E+03  0.50400001928E-02 0. -1.
       -1    1    3    3    0  502  0.50046361053E+03  0.15430551448E+03 -0.58175140791E+03  0.78275712574E+03  0.50400001928E-02 0.  1.
</event>
<event>
 5   0  0.3210612E-04  0.1430287E+04  0.7818609E-02  0.8932182E-01
        2   -1    0    0  501    0  0.00000000000E+00  0.00000000000E+00  0.19292277730E+04  0.19292277730E+04  0.25500000920E-02 0.  1.
       -2   -1    0    0    0  501  0.00000000000E+00  0.00000000000E+00 -0.26509578388E+03  0.26509578389E+03  0.25500000920E-02 0. -1.
    10030    2    1    2    0    0  0.00000000000E+00  0.00000000000E+00  0.16641319892E+04  0.21943235569E+04  0.14302868926E+04 0.  0.
        2    1    3    3  502    0 -0.36744646446E+03  0.34510693886E+03  0.16102989014E+04  0.16873583660E+04  0.25500000920E-02 0.  1.
       -2    1    3    3    0  502  0.36744646446E+03 -0.34510693886E+03  0.53833087788E+02  0.50696519095E+03  0.25500000920E-02 0. -1.
</event>
<event>
 5   0  0.1764099E-04  0.1605249E+04  0.7818609E-02  0.8817330E-01
        1   -1    0    0  501    0  0.00000000000E+00  0.00000000000E+00  0.11951949670E+04  0.11951949670E+04  0.50400001928E-02 0.  1.
       -1   -1    0    0    0  501  0.00000000000E+00  0.00000000000E+00 -0.53899634086E+03  0.53899634088E+03  0.50400001928E-02 0. -1.
    10030    2    1    2    0    0  0.00000000000E+00  0.00000000000E+00  0.65619862610E+03  0.17341913078E+04  0.16052485338E+04 0.  0.
        5    1    3    3  502    0  0.19970137412E+03 -0.50973630683E+03 -0.30596252075E+03  0.62717373624E+03  0.46999998093E+01 0. -1.
       -5    1    3    3    0  502 -0.19970137412E+03  0.50973630683E+03  0.96216114685E+03  0.11070175716E+04  0.46999998093E+01 0.  1.
</event>
<event>
 5   0  0.1736537E-04  0.1596883E+04  0.7818609E-02  0.8822465E-01
        1   -1    0    0  501    0  0.00000000000E+00  0.00000000000E+00  0.16149542246E+04  0.16149542247E+04  0.50400001928E-02 0.  1.
       -1   -1    0    0    0  501  0.00000000000E+00  0.00000000000E+00 -0.39475340892E+03  0.39475340895E+03  0.50400001928E-02 0. -1.
    10030    2    1    2    0    0  0.00000000000E+00  0.00000000000E+00  0.12202008157E+04  0.20097076336E+04  0.15968828203E+04 0.  0.
        3    1    3    3  502    0 -0.69786950071E+03 -0.10897101979E+03  0.14154550493E+03  0.72036911604E+03  0.10100000352E+00 0. -1.
       -3    1    3    3    0  502  0.69786950071E+03  0.10897101979E+03  0.10786553108E+04  0.12893385176E+04  0.10100000352E+00 0.  1.
</event>
<event>
 5   0  0.1761255E-04  0.1599282E+04  0.7818609E-02  0.8820989E-01
        1   -1    0    0  501    0  0.00000000000E+00  0.00000000000E+00  0.90669485134E+03  0.90669485135E+03  0.50400001928E-02 0. -1.
       -1   -1    0    0    0  501  0.00000000000E+00  0.00000000000E+00 -0.70522674949E+03  0.70522674951E+03  0.50400001928E-02 0.  1.
    10030    2    1    2    0    0  0.00000000000E+00  0.00000000000E+00  0.20146810184E+03  0.16119216009E+04  0.15992816673E+04 0.  0.
        2    1    3    3  502    0 -0.50911885927E+03  0.94674770624E+01 -0.52068878618E+03  0.72829146504E+03  0.25500000920E-02 0.  1.
       -2    1    3    3    0  502  0.50911885927E+03 -0.94674770624E+01  0.72215688803E+03  0.88363013582E+03  0.25500000920E-02 0. -1.
</event>
<event>
 5   0  0.3210612E-04  0.1600212E+04  0.7818609E-02  0.8820418E-01
       -2   -1    0    0    0  501  0.00000000000E+00  0.00000000000E+00  0.88260563480E+03  0.88260563480E+03  0.25500000920E-02 0.  1.
        2   -1    0    0  501    0  0.00000000000E+00  0.00000000000E+00 -0.72531810553E+03  0.72531810553E+03  0.25500000920E-02 0. -1.
    10030    2    1    2    0    0  0.00000000000E+00  0.00000000000E+00  0.15728752927E+03  0.16079237403E+04  0.16002122946E+04 0.  0.
        2    1    3    3  502    0  0.20461229536E+03  0.56837918742E+02 -0.69648348770E+03  0.72813871554E+03  0.25500000920E-02 0. -1.
       -2    1    3    3    0  502 -0.20461229536E+03 -0.56837918742E+02  0.85377101697E+03  0.87978502479E+03  0.25500000920E-02 0.  1.
</event>
<event>
 5   0  0.3274900E-04  0.1589408E+04  0.7818609E-02  0.8827082E-01
       -2   -1    0    0    0  501  0.00000000000E+00  0.00000000000E+00  0.22855026225E+03  0.22855026227E+03  0.25500000920E-02 0.  1.
        2   -1    0    0  501    0  0.00000000000E+00  0.00000000000E+00 -0.27633071410E+04  0.27633071410E+04  0.25500000920E-02 0. -1.
    10030    2    1    2    0    0  0.00000000000E+00  0.00000000000E+00 -0.25347568788E+04  0.29918574033E+04  0.15894081563E+04 0.  0.
        3    1    3    3  502    0  0.51030876812E+02  0.73589525003E+03 -0.71085621034E+03  0.10244327852E+04  0.10100000352E+00 0. -1.
       -3    1    3    3    0  502 -0.51030876812E+02 -0.73589525003E+03 -0.18239006684E+04  0.19674246181E+04  0.10100000352E+00 0.  1.
</event>
<event>
 5   0  0.1764099E-04  0.1609995E+04  0.7818609E-02  0.8814431E-01
        1   -1    0    0  501    0  0.00000000000E+00  0.00000000000E+00  0.18425835259E+04  0.18425835259E+04  0.50400001928E-02 0.  1.
       -1   -1    0    0    0  501  0.00000000000E+00  0.00000000000E+00 -0.35169153826E+03  0.35169153829E+03  0.50400001928E-02 0. -1.
    10030    2    1    2    0    0  0.00000000000E+00  0.00000000000E+00  0.14908919877E+04  0.21942750642E+04  0.16099950741E+04 0.  0.
        5    1    3    3  502    0 -0.25410331287E+03  0.32168374959E+03  0.16896471457E+04  0.17386714742E+04  0.46999998093E+01 0.  1.
       -5    1    3    3    0  502  0.25410331287E+03 -0.32168374959E+03 -0.19875515803E+03  0.45560358998E+03  0.46999998093E+01 0. -1.
</event>
<event>
 5   0  0.1819811E-04  0.1607701E+04  0.7818609E-02  0.8815831E-01
        1   -1    0    0  501    0  0.00000000000E+00  0.00000000000E+00  0.12872330206E+04  0.12872330206E+04  0.50400001928E-02 0.  1.
       -1   -1    0    0    0  501  0.00000000000E+00  0.00000000000E+00 -0.50198823183E+03  0.50198823185E+03  0.50400001928E-02 0. -1.
    10030    2    1    2    0    0  0.00000000000E+00  0.00000000000E+00  0.78524478874E+03  0.17892212524E+04  0.16077012508E+04 0.  0.
        1    1    3    3  502    0  0.24054433345E+03 -0.24307385898E+03  0.12022413343E+04  0.12499322795E+04  0.50400001928E-02 0.  1.
       -1    1    3    3    0  502 -0.24054433345E+03  0.24307385898E+03 -0.41699654560E+03  0.53928897295E+03  0.50400001928E-02 0. -1.
</event>
<event>
 5   0  0.1736537E-04  0.1597478E+04  0.7818609E-02  0.8822099E-01
        1   -1    0    0  501    0  0.00000000000E+00  0.00000000000E+00  0.10706083423E+04  0.10706083423E+04  0.50400001928E-02 0. -1.
       -1   -1    0    0    0  501  0.00000000000E+00  0.00000000000E+00 -0.59590771472E+03  0.59590771474E+03  0.50400001928E-02 0.  1.
    10030    2    1    2    0    0  0.00000000000E+00  0.00000000000E+00  0.47470062759E+03  0.16665160571E+04  0.15974777252E+04 0.  0.
        3    1    3    3  502    0 -0.32640113863E+03  0.72879009976E+03  0.25574905643E+03  0.83849883892E+03  0.10100000352E+00 0.  1.
       -3    1    3    3    0  502  0.32640113863E+03 -0.72879009976E+03  0.21895157116E+03  0.82801721813E+03  0.10100000352E+00 0. -1.
</event>
<event>
 5   0  0.3380454E-04  0.1503979E+04  0.7818609E-02  0.8881812E-01
        2   -1    0    0  501    0  0.00000000000E+00  0.00000000000E+00  0.15063656972E+04  0.15063656972E+04  0.25500000920E-02 0.  1.
       -2   -1    0    0    0  501  0.00000000000E+00  0.00000000000E+00 -0.37539878973E+03  0.37539878973E+03  0.25500000920E-02 0. -1.
    10030    2    1    2    0    0  0.00000000000E+00  0.00000000000E+00  0.11309669075E+04  0.18817644870E+04  0.15039785366E+04 0.  0.
        5    1    3    3  502    0  0.36689389840E+03 -0.65429601380E+03  0.49985418001E+03  0.90143812746E+03  0.46999998093E+01 0. -1.
       -5    1    3    3    0  502 -0.36689389840E+03  0.65429601380E+03  0.63111272750E+03  0.98032635952E+03  0.46999998093E+01 0.  1.
</event>
<event>
 5   0  0.1219463E-04  0.1596183E+04  0.7818609E-02  0.8822896E-01
       -3   -1    0    0    0  501  0.00000000000E+00  0.00000000000E+00  0.12901330745E+04  0.12901330784E+04  0.10100000352E+00 0. -1.
        3   -1    0    0  501    0  0.00000000000E+00  0.00000000000E+00 -0.49370889019E+03  0.49370890052E+03  0.10100000352E+00 0.  1.
    10030    2    1    2    0    0  0.00000000000E+00  0.00000000000E+00  0.79642418427E+03  0.17838419789E+04  0.15961831739E+04 0.  0.
        1    1    3    3  502    0  0.64523748213E+03  0.35469862998E+03  0.54103629704E+02  0.73828837809E+03  0.50400001928E-02 0.  1.
       -1    1    3    3    0  502 -0.64523748213E+03 -0.35469862998E+03  0.74232055457E+03  0.10455536008E+04  0.50400001928E-02 0. -1.
</event>
<event>
 5   0  0.3210612E-04  0.1605652E+04  0.7818609E-02  0.8817084E-01
        2   -1    0    0  501    0  0.00000000000E+00  0.00000000000E+00  0.11156342902E+04  0.11156342902E+04  0.25500000920E-02 0. -1.
       -2   -1    0    0    0  501  0.00000000000E+00  0.00000000000E+00 -0.57772450579E+03  0.57772450580E+03  0.25500000920E-02 0.  1.
    10030    2    1    2    0    0  0.00000000000E+00  0.00000000000E+00  0.53790978441E+03  0.16933587960E+04  0.16056516048E+04 0.  0.
        2    1    3    3  502    0 -0.28455788065E+03  0.54271385566E+03  0.81595591736E+03  0.10204389132E+04  0.25500000920E-02 0. -1.
       -2    1    3    3    0  502  0.28455788065E+03 -0.54271385566E+03 -0.27804613295E+03  0.67291988277E+03  0.25500000920E-02 0.  1.
</event>
<event>
 5   0  0.3210612E-04  0.1609406E+04  0.7818609E-02  0.8814790E-01
       -2   -1    0    0    0  501  0.00000000000E+00  0.00000000000E+00  0.30666853075E+03  0.30666853076E+03  0.25500000920E-02 0. -1.
        2   -1    0    0  501    0  0.00000000000E+00  0.00000000000E+00 -0.21115530197E+04  0.21115530197E+04  0.25500000920E-02 0.  1.
    10030    2    1    2    0    0  0.00000000000E+00  0.00000000000E+00 -0.18048844890E+04  0.24182215505E+04  0.16094059304E+04 0.  0.
        2    1    3    3  502    0 -0.54223910940E+03  0.59149092233E+03 -0.99336980551E+03  0.12769762462E+04  0.25500000920E-02 0.  1.
       -2    1    3    3    0  502  0.54223910940E+03 -0.59149092233E+03 -0.81151468346E+03  0.11412453042E+04  0.25500000920E-02 0. -1.
</event>
<event>
 5   0  0.3380454E-04  0.1571529E+04  0.7818609E-02  0.8838232E-01
        2   -1    0    0  501    0  0.00000000000E+00  0.00000000000E+00  0.11108446210E+04  0.11108446210E+04  0.25500000920E-02 0.  1.
       -2   -1    0    0    0  501  0.00000000000E+00  0.00000000000E+00 -0.55581633397E+03  0.55581633398E+03  0.25500000920E-02 0. -1.
    10030    2    1    2    0    0  0.00000000000E+00  0.00000000000E+00  0.55502828704E+03  0.16666609550E+04  0.15715286633E+04 0.  0.
        5    1    3    3  502    0  0.76068800772E+03 -0.11313038686E+03  0.44838459665E+03  0.89023343345E+03  0.46999998093E+01 0.  1.
       -5    1    3    3    0  502 -0.76068800772E+03  0.11313038686E+03  0.10664369039E+03  0.77642752155E+03  0.46999998093E+01 0. -1.
</event>
<event>
 5   0  0.3228393E-04  0.1607479E+04  0.7818609E-02  0.8815966E-01
        2   -1    0    0  501    0  0.00000000000E+00  0.00000000000E+00  0.14017819756E+04  0.14017819756E+04  0.25500000920E-02 0.  1.
       -2   -1    0    0    0  501  0.00000000000E+00  0.00000000000E+00 -0.46084006908E+03  0.46084006909E+03  0.25500000920E-02 0. -1.
    10030    2    1    2    0    0  0.00000000000E+00  0.00000000000E+00  0.94094190655E+03  0.18626220447E+04  0.16074791476E+04 0.  0.
        1    1    3    3  502    0 -0.11553370656E+03 -0.27786677422E+03 -0.39309935420E+03  0.49506068706E+03  0.50400001928E-02 0. -1.
       -1    1    3    3    0  502  0.11553370656E+03  0.27786677422E+03  0.13340412608E+04  0.13675613577E+04  0.50400001928E-02 0.  1.
</event>
<event>
 5   0  0.3210612E-04  0.1599665E+04  0.7818609E-02  0.8820754E-01
       -2   -1    0    0    0  501  0.00000000000E+00  0.00000000000E+00  0.13942977877E+04  0.13942977877E+04  0.25500000920E-02 0. -1.
        2   -1    0    0  501    0  0.00000000000E+00  0.00000000000E+00 -0.45882003183E+03  0.45882003184E+03  0.25500000920E-02 0.  1.
    10030    2    1    2    0    0  0.00000000000E+00  0.00000000000E+00  0.93547775583E+03  0.18531178195E+04  0.15996646590E+04 0.  0.
        2    1    3    3  502    0 -0.26909460821E+03 -0.63259843873E+03  0.94134037110E+03  0.11656390467E+04  0.25500000920E-02 0. -1.
       -2    1    3    3    0  502  0.26909460821E+03  0.63259843873E+03 -0.58626152667E+01  0.68747877284E+03  0.25500000920E-02 0.  1.
</event>
<event>
 5   0  0.3228393E-04  0.1583984E+04  0.7818609E-02  0.8830448E-01
        2   -1    0    0  501    0  0.00000000000E+00  0.00000000000E+00  0.84298098038E+03  0.84298098038E+03  0.25500000920E-02 0.  1.
       -2   -1    0    0    0  501  0.00000000000E+00  0.00000000000E+00 -0.74408735960E+03  0.74408735961E+03  0.25500000920E-02 0. -1.
    10030    2    1    2    0    0  0.00000000000E+00  0.00000000000E+00  0.98893620773E+02  0.15870683400E+04  0.15839842069E+04 0.  0.
        1    1    3    3  502    0  0.18151014750E+03 -0.28152183761E+03  0.76851471384E+03  0.83834082813E+03  0.50400001928E-02 0.  1.
       -1    1    3    3    0  502 -0.18151014750E+03  0.28152183761E+03 -0.66962109307E+03  0.74872751185E+03  0.50400001928E-02 0. -1.
</event>
<event>
 5   0  0.1787688E-04  0.1598194E+04  0.7818609E-02  0.8821658E-01
       -1   -1    0    0    0  501  0.00000000000E+00  0.00000000000E+00  0.12251054625E+04  0.12251054625E+04  0.50400001928E-02 0. -1.
        1   -1    0    0  501    0  0.00000000000E+00  0.00000000000E+00 -0.52122554483E+03  0.52122554485E+03  0.50400001928E-02 0.  1.
    10030    2    1    2    0    0  0.00000000000E+00  0.00000000000E+00  0.70387991765E+03  0.17463310073E+04  0.15981943088E+04 0.  0.
        4    1    3    3  502    0  0.74765021360E+03  0.22171421187E+03  0.54250903575E+03  0.94997668414E+03  0.12699999809E+01 0. -1.
       -4    1    3    3    0  502 -0.74765021360E+03 -0.22171421187E+03  0.16137088191E+03  0.79635432320E+03  0.12699999809E+01 0.  1.
</event>
<event>
 5   0  0.1787688E-04  0.1611490E+04  0.7818609E-02  0.8813520E-01
       -1   -1    0    0    0  501  0.00000000000E+00  0.00000000000E+00  0.43967951922E+03  0.43967951925E+03  0.50400001928E-02 0. -1.
        1   -1    0    0  501    0  0.00000000000E+00  0.00000000000E+00 -0.14765874360E+04  0.14765874360E+04  0.50400001928E-02 0.  1.
    10030    2    1    2    0    0  0.00000000000E+00  0.00000000000E+00 -0.10369079168E+04  0.19162669553E+04  0.16114903090E+04 0.  0.
        4    1    3    3  502    0  0.47104572310E+03  0.29352398426E+03  0.17612585303E+03  0.58229059033E+03  0.12699999809E+01 0. -1.
       -4    1    3    3    0  502 -0.47104572310E+03 -0.29352398426E+03 -0.12130337698E+04  0.13339763649E+04  0.12699999809E+01 0.  1.
</event>
<event>
 5   0  0.1787688E-04  0.1600135E+04  0.7818609E-02  0.8820465E-01
       -1   -1    0    0    0  501  0.00000000000E+00  0.00000000000E+00  0.13404951976E+04  0.13404951976E+04  0.50400001928E-02 0. -1.
        1   -1    0    0  501    0  0.00000000000E+00  0.00000000000E+00 -0.47751603472E+03  0.47751603474E+03  0.50400001928E-02 0.  1.
    10030    2    1    2    0    0  0.00000000000E+00  0.00000000000E+00  0.86297916289E+03  0.18180112324E+04  0.16001349335E+04 0.  0.
        4    1    3    3  502    0  0.99396367112E+02 -0.54661955232E+03  0.10855808188E+04  0.12194916563E+04  0.12699999809E+01 0.  1.
       -4    1    3    3    0  502 -0.99396367112E+02  0.54661955232E+03 -0.22260165592E+03  0.59851957603E+03  0.12699999809E+01 0. -1.
</event>
<event>
 5   0  0.3263294E-04  0.1610820E+04  0.7818609E-02  0.8813929E-01
        2   -1    0    0  501    0  0.00000000000E+00  0.00000000000E+00  0.10351665998E+04  0.10351665998E+04  0.25500000920E-02 0.  1.
       -2   -1    0    0    0  501  0.00000000000E+00  0.00000000000E+00 -0.62664784643E+03  0.62664784643E+03  0.25500000920E-02 0. -1.
    10030    2    1    2    0    0  0.00000000000E+00  0.00000000000E+00  0.40851875336E+03  0.16618144462E+04  0.16108195684E+04 0.  0.
        4    1    3    3  502    0  0.40804838685E+03  0.90996733526E+02  0.91445619110E+03  0.10054927299E+04  0.12699999809E+01 0.  1.
       -4    1    3    3    0  502 -0.40804838685E+03 -0.90996733526E+02 -0.50593743774E+03  0.65632171633E+03  0.12699999809E+01 0. -1.
</event>
<event>
 5   0  0.1764099E-04  0.1593595E+04  0.7818609E-02  0.8824492E-01
        1   -1    0    0  501    0  0.00000000000E+00  0.00000000000E+00  0.85815355264E+03  0.85815355266E+03  0.50400001928E-02 0. -1.
       -1   -1    0    0    0  501  0.00000000000E+00  0.00000000000E+00 -0.73982866424E+03  0.73982866425E+03  0.50400001928E-02 0.  1.
    10030    2    1    2    0    0  0.00000000000E+00  0.00000000000E+00  0.11832488841E+03  0.15979822169E+04  0.15935954274E+04 0.  0.
        5    1    3    3  502    0  0.53907259168E+03  0.47623957768E+02  0.64557754611E+03  0.84241305694E+03  0.46999998093E+01 0. -1.
       -5    1    3    3    0  502 -0.53907259168E+03 -0.47623957768E+02 -0.52725265771E+03  0.75556915998E+03  0.46999998093E+01 0.  1.
</event>
<event>
 5   0  0.1761255E-04  0.1602474E+04  0.7818609E-02  0.8819030E-01
       -1   -1    0    0    0  501  0.00000000000E+00  0.00000000000E+00  0.41707642195E+03  0.41707642198E+03  0.50400001928E-02 0. -1.
        1   -1    0    0  501    0  0.00000000000E+00  0.00000000000E+00 -0.15392399382E+04  0.15392399382E+04  0.50400001928E-02 0.  1.
    10030    2    1    2    0    0  0.00000000000E+00  0.00000000000E+00 -0.11221635162E+04  0.19563163601E+04  0.16024739448E+04 0.  0.
        2    1    3    3  502    0 -0.21440754295E+03  0.46609257337E+03 -0.13124185190E+04  0.14091328009E+04  0.25500000920E-02 0.  1.
       -2    1    3    3    0  502  0.21440754295E+03 -0.46609257337E+03  0.19025500282E+03  0.54718355927E+03  0.25500000920E-02 0. -1.
</event>
<event>
 5   0  0.1787688E-04  0.1617330E+04  0.7818609E-02  0.8809972E-01
        1   -1    0    0  501    0  0.00000000000E+00  0.00000000000E+00  0.15031935633E+04  0.15031935633E+04  0.50400001928E-02 0.  1.
       -1   -1    0    0    0  501  0.00000000000E+00  0.00000000000E+00 -0.43503336651E+03  0.43503336654E+03  0.50400001928E-02 0. -1.
    10030    2    1    2    0    0  0.00000000000E+00  0.00000000000E+00  0.10681601968E+04  0.19382269298E+04  0.16173303390E+04 0.  0.
        4    1    3    3  502    0 -0.58252537603E+02  0.67001356934E+03  0.10722003975E+04  0.12656724879E+04  0.12699999809E+01 0.  1.
       -4    1    3    3    0  502  0.58252537603E+02 -0.67001356934E+03 -0.40402007684E+01  0.67255444193E+03  0.12699999809E+01 0. -1.
</event>
<event>
 5   0  0.1787688E-04  0.1595510E+04  0.7818609E-02  0.8823311E-01
        1   -1    0    0  501    0  0.00000000000E+00  0.00000000000E+00  0.71973470834E+03  0.71973470836E+03  0.50400001928E-02 0. -1.
       -1   -1    0    0    0  501  0.00000000000E+00  0.00000000000E+00 -0.88423268603E+03  0.88423268604E+03  0.50400001928E-02 0.  1.
    10030    2    1    2    0    0  0.00000000000E+00  0.00000000000E+00 -0.16449797769E+03  0.16039673944E+04  0.15955098927E+04 0.  0.
        4    1    3    3  502    0  0.59720965218E+03 -0.20146935243E+03  0.40938532699E+03  0.75156318928E+03  0.12699999809E+01 0. -1.
       -4    1    3    3    0  502 -0.59720965218E+03  0.20146935243E+03 -0.57388330468E+03  0.85240420512E+03  0.12699999809E+01 0.  1.
</event>
<event>
 5   0  0.3274900E-04  0.1595967E+04  0.7818609E-02  0.8823030E-01
       -2   -1    0    0    0  501  0.00000000000E+00  0.00000000000E+00  0.74422391891E+03  0.74422391891E+03  0.25500000920E-02 0. -1.
        2   -1    0    0  501    0  0.00000000000E+00  0.00000000000E+00 -0.85562613140E+03  0.85562613141E+03  0.25500000920E-02 0.  1.
    10030    2    1    2    0    0  0.00000000000E+00  0.00000000000E+00 -0.11140221249E+03  0.15998500503E+04  0.15959667072E+04 0.  0.
        3    1    3    3  502    0 -0.64200675231E+03 -0.46365094595E+03 -0.15408548553E+03  0.80677581566E+03  0.10100000352E+00 0.  1.
       -3    1    3    3    0  502  0.64200675231E+03  0.46365094595E+03  0.42683273035E+02  0.79307423466E+03  0.10100000352E+00 0. -1.
</event>
<event>
 5   0  0.1761255E-04  0.1598490E+04  0.7818609E-02  0.8821476E-01
       -1   -1    0    0    0  501  0.00000000000E+00  0.00000000000E+00  0.71668846380E+03  0.71668846382E+03  0.50400001928E-02 0.  1.
        1   -1    0    0  501    0  0.00000000000E+00  0.00000000000E+00 -0.89131147211E+03  0.89131147213E+03  0.50400001928E-02 0. -1.
    10030    2    1    2    0    0  0.00000000000E+00  0.00000000000E+00 -0.17462300831E+03  0.16079999359E+04  0.15984900997E+04 0.  0.
        2    1    3    3  502    0 -0.51229577269E+03  0.21935923005E+03  0.48900807364E+03  0.74141373512E+03  0.25500000920E-02 0.  1.
       -2    1    3    3    0  502  0.51229577269E+03 -0.21935923005E+03 -0.66363108195E+03  0.86658620083E+03  0.25500000920E-02 0. -1.
</event>
<event>
 5   0  0.3274900E-04  0.1603383E+04  0.7818609E-02  0.8818473E-01
       -2   -1    0    0    0  501  0.00000000000E+00  0.00000000000E+00  0.47033033381E+03  0.47033033382E+03  0.25500000920E-02 0.  1.
        2   -1    0    0  501    0  0.00000000000E+00  0.00000000000E+00 -0.13665054676E+04  0.13665054676E+04  0.25500000920E-02 0. -1.
    10030    2    1    2    0    0  0.00000000000E+00  0.00000000000E+00 -0.89617513383E+03  0.18368358015E+04  0.16033826402E+04 0.  0.
        3    1    3    3  502    0  0.76475442231E+03 -0.23108662885E+03 -0.52458250732E+03  0.95573907195E+03  0.10100000352E+00 0. -1.
       -3    1    3    3    0  502 -0.76475442231E+03  0.23108662885E+03 -0.37159262652E+03  0.88109672951E+03  0.10100000352E+00 0.  1.
</event>
<event>
 5   0  0.1764099E-04  0.1551146E+04  0.7818609E-02  0.8851136E-01
       -1   -1    0    0    0  501  0.00000000000E+00  0.00000000000E+00  0.65319523679E+03  0.65319523681E+03  0.50400001928E-02 0.  1.
        1   -1    0    0  501    0  0.00000000000E+00  0.00000000000E+00 -0.92087815531E+03  0.92087815532E+03  0.50400001928E-02 0. -1.
    10030    2    1    2    0    0  0.00000000000E+00  0.00000000000E+00 -0.26768291852E+03  0.15740733921E+04  0.15511456730E+04 0.  0.
        5    1    3    3  502    0 -0.27707705719E+03 -0.66422983501E+03  0.15942531683E+03  0.73716449384E+03  0.46999998093E+01 0. -1.
       -5    1    3    3    0  502  0.27707705719E+03  0.66422983501E+03 -0.42710823535E+03  0.83690889829E+03  0.46999998093E+01 0.  1.
</event>
<event>
 5   0  0.3274900E-04  0.1580003E+04  0.7818609E-02  0.8832928E-01
       -2   -1    0    0    0  501  0.00000000000E+00  0.00000000000E+00  0.54586146924E+03  0.54586146925E+03  0.25500000920E-02 0. -1.
        2   -1    0    0  501    0  0.00000000000E+00  0.00000000000E+00 -0.11433346105E+04  0.11433346105E+04  0.25500000920E-02 0.  1.
    10030    2    1    2    0    0  0.00000000000E+00  0.00000000000E+00 -0.59747314130E+03  0.16891960798E+04  0.15800029245E+04 0.  0.
        3    1    3    3  502    0 -0.24096297181E+03  0.50624888045E+03 -0.89375262676E+03  0.10550567998E+04  0.10100000352E+00 0. -1.
       -3    1    3    3    0  502  0.24096297181E+03 -0.50624888045E+03  0.29627948546E+03  0.63413928000E+03  0.10100000352E+00 0.  1.
</event>
<event>
 5   0  0.1736537E-04  0.1606123E+04  0.7818609E-02  0.8816795E-01
        1   -1    0    0  501    0  0.00000000000E+00  0.00000000000E+00  0.16430914274E+04  0.16430914274E+04  0.50400001928E-02 0.  1.
       -1   -1    0    0    0  501  0.00000000000E+00  0.00000000000E+00 -0.39249680058E+03  0.39249680061E+03  0.50400001928E-02 0. -1.
    10030    2    1    2    0    0  0.00000000000E+00  0.00000000000E+00  0.12505946268E+04  0.20355882280E+04  0.16061234428E+04 0.  0.
        3    1    3    3  502    0  0.61488682837E+03 -0.77770332418E+02  0.12725043376E+04  0.14154156053E+04  0.10100000352E+00 0.  1.
       -3    1    3    3    0  502 -0.61488682837E+03  0.77770332418E+02 -0.21909710811E+02  0.62017262269E+03  0.10100000352E+00 0. -1.
</event>
<event>
 5   0  0.1764099E-04  0.1607592E+04  0.7818609E-02  0.8815897E-01
       -1   -1    0    0    0  501  0.00000000000E+00  0.00000000000E+00  0.49082906021E+03  0.49082906023E+03  0.50400001928E-02 0.  1.
        1   -1    0    0  501    0  0.00000000000E+00  0.00000000000E+00 -0.13163203794E+04  0.13163203794E+04  0.50400001928E-02 0. -1.
    10030    2    1    2    0    0  0.00000000000E+00  0.00000000000E+00 -0.82549131921E+03  0.18071494397E+04  0.16075923548E+04 0.  0.
        5    1    3    3  502    0 -0.50933651529E+03  0.52858208461E+03 -0.44613615388E+02  0.73541496494E+03  0.46999998093E+01 0.  1.
       -5    1    3    3    0  502  0.50933651529E+03 -0.52858208461E+03 -0.78087770382E+03  0.10717344747E+04  0.46999998093E+01 0. -1.
</event>
<event>
 5   0  0.3380454E-04  0.1592738E+04  0.7818609E-02  0.8825022E-01
        2   -1    0    0  501    0  0.00000000000E+00  0.00000000000E+00  0.13449230724E+04  0.13449230724E+04  0.25500000920E-02 0. -1.
       -2   -1    0    0    0  501  0.00000000000E+00  0.00000000000E+00 -0.47155373072E+03  0.47155373073E+03  0.25500000920E-02 0.  1.
    10030    2    1    2    0    0  0.00000000000E+00  0.00000000000E+00  0.87336934168E+03  0.18164768031E+04  0.15927378847E+04 0.  0.
        5    1    3    3  502    0 -0.97108503121E+02 -0.77403126698E+03  0.25411278109E+03  0.82045710379E+03  0.46999998093E+01 0.  1.
       -5    1    3    3    0  502  0.97108503121E+02  0.77403126698E+03  0.61925656059E+03  0.99601969934E+03  0.46999998093E+01 0. -1.
</event>
<event>
 5   0  0.1736537E-04  0.1601627E+04  0.7818609E-02  0.8819549E-01
       -1   -1    0    0    0  501  0.00000000000E+00  0.00000000000E+00  0.14000981819E+04  0.14000981819E+04  0.50400001928E-02 0.  1.
        1   -1    0    0  501    0  0.00000000000E+00  0.00000000000E+00 -0.45804071666E+03  0.45804071669E+03  0.50400001928E-02 0. -1.
    10030    2    1    2    0    0  0.00000000000E+00  0.00000000000E+00  0.94205746528E+03  0.18581388986E+04  0.16016266415E+04 0.  0.
        3    1    3    3  502    0 -0.33594176924E+03  0.37204003692E+03  0.11955758330E+04  0.12964074375E+04  0.10100000352E+00 0.  1.
       -3    1    3    3    0  502  0.33594176924E+03 -0.37204003692E+03 -0.25351836775E+03  0.56173146109E+03  0.10100000352E+00 0. -1.
</event>
<event>
 5   0  0.1761255E-04  0.1523887E+04  0.7818609E-02  0.8868722E-01
        1   -1    0    0  501    0  0.00000000000E+00  0.00000000000E+00  0.14145358435E+04  0.14145358435E+04  0.50400001928E-02 0.  1.
       -1   -1    0    0    0  501  0.00000000000E+00  0.00000000000E+00 -0.41042277469E+03  0.41042277472E+03  0.50400001928E-02 0. -1.
    10030    2    1    2    0    0  0.00000000000E+00  0.00000000000E+00  0.10041130688E+04  0.18249586182E+04  0.15238867751E+04 0.  0.
        2    1    3    3  502    0  0.34636561867E+03  0.57593839384E+03  0.72125231553E+02  0.67592619740E+03  0.25500000920E-02 0. -1.
       -2    1    3    3    0  502 -0.34636561867E+03 -0.57593839384E+03  0.93198783725E+03  0.11490324208E+04  0.25500000920E-02 0.  1.
</event>
<event>
 5   0  0.3210612E-04  0.1584407E+04  0.7818609E-02  0.8830185E-01
        2   -1    0    0  501    0  0.00000000000E+00  0.00000000000E+00  0.87627928093E+03  0.87627928094E+03  0.25500000920E-02 0.  1.
       -2   -1    0    0    0  501  0.00000000000E+00  0.00000000000E+00 -0.71619431517E+03  0.71619431517E+03  0.25500000920E-02 0. -1.
    10030    2    1    2    0    0  0.00000000000E+00  0.00000000000E+00  0.16008496576E+03  0.15924735961E+04  0.15844068158E+04 0.  0.
        2    1    3    3  502    0 -0.10993338905E+03 -0.14386847440E+03 -0.69511871064E+03  0.71831296093E+03  0.25500000920E-02 0. -1.
       -2    1    3    3    0  502  0.10993338905E+03  0.14386847440E+03  0.85520367640E+03  0.87416063518E+03  0.25500000920E-02 0.  1.
</event>
<event>
 5   0  0.3210612E-04  0.1597151E+04  0.7818609E-02  0.8822300E-01
        2   -1    0    0  501    0  0.00000000000E+00  0.00000000000E+00  0.15764572894E+04  0.15764572894E+04  0.25500000920E-02 0.  1.
       -2   -1    0    0    0  501  0.00000000000E+00  0.00000000000E+00 -0.40452914524E+03  0.40452914525E+03  0.25500000920E-02 0. -1.
    10030    2    1    2    0    0  0.00000000000E+00  0.00000000000E+00  0.11719281441E+04  0.19809864346E+04  0.15971511135E+04 0.  0.
        2    1    3    3  502    0  0.11772162720E+01  0.65020568414E+03  0.10910425338E+02  0.65029828150E+03  0.25500000920E-02 0. -1.
       -2    1    3    3    0  502 -0.11772162720E+01 -0.65020568414E+03  0.11610177188E+04  0.13306881531E+04  0.25500000920E-02 0.  1.
</event>
<event>
 5   0  0.3263294E-04  0.1599555E+04  0.7818609E-02  0.8820821E-01
        2   -1    0    0  501    0  0.00000000000E+00  0.00000000000E+00  0.84841878660E+03  0.84841878661E+03  0.25500000920E-02 0. -1.
       -2   -1    0    0    0  501  0.00000000000E+00  0.00000000000E+00 -0.75392522244E+03  0.75392522245E+03  0.25500000920E-02 0.  1.
    10030    2    1    2    0    0  0.00000000000E+00  0.00000000000E+00  0.94493564161E+02  0.16023440091E+04  0.15995553412E+04 0.  0.
        4    1    3    3  502    0  0.68410365130E+03 -0.39022985452E+03  0.18664960566E+03  0.80939287943E+03  0.12699999809E+01 0. -1.
       -4    1    3    3    0  502 -0.68410365130E+03  0.39022985452E+03 -0.92156041501E+02  0.79295112962E+03  0.12699999809E+01 0.  1.
</event>
<event>
 5   0  0.3228393E-04  0.1575522E+04  0.7818609E-02  0.8835728E-01
       -2   -1    0    0    0  501  0.00000000000E+00  0.00000000000E+00  0.21441641847E+03  0.21441641849E+03  0.25500000920E-02 0.  1.
        2   -1    0    0  501    0  0.00000000000E+00  0.00000000000E+00 -0.28942171761E+04  0.28942171761E+04  0.25500000920E-02 0. -1.
    10030    2    1    2    0    0  0.00000000000E+00  0.00000000000E+00 -0.26798007576E+04  0.31086335946E+04  0.15755223657E+04 0.  0.
        1    1    3    3  502    0  0.63275266674E+03  0.71931279761E+01 -0.22656519275E+04  0.23523618631E+04  0.50400001928E-02 0. -1.
       -1    1    3    3    0  502 -0.63275266674E+03 -0.71931279761E+01 -0.41414883017E+03  0.75627173153E+03  0.50400001928E-02 0.  1.
</event>
<event>
 5   0  0.1219463E-04  0.1590672E+04  0.7818609E-02  0.8826299E-01
        4   -1    0    0  501    0  0.00000000000E+00  0.00000000000E+00  0.11076143414E+04  0.11076150695E+04  0.12699999809E+01 0.  1.
       -4   -1    0    0    0  501  0.00000000000E+00  0.00000000000E+00 -0.57109901986E+03  0.57110043196E+03  0.12699999809E+01 0. -1.
    10030    2    1    2    0    0  0.00000000000E+00  0.00000000000E+00  0.53651532151E+03  0.16787155014E+04  0.15906718846E+04 0.  0.
        2    1    3    3  502    0  0.10966220497E+03  0.61767720731E+03 -0.24768687117E+03  0.67446253994E+03  0.25500000920E-02 0. -1.
       -2    1    3    3    0  502 -0.10966220497E+03 -0.61767720731E+03  0.78420219268E+03  0.10042529615E+04  0.25500000920E-02 0.  1.
</event>
<event>
 5   0  0.3210612E-04  0.1589760E+04  0.7818609E-02  0.8826864E-01
       -2   -1    0    0    0  501  0.00000000000E+00  0.00000000000E+00  0.48109171380E+03  0.48109171381E+03  0.25500000920E-02 0.  1.
        2   -1    0    0  501    0  0.00000000000E+00  0.00000000000E+00 -0.13133341920E+04  0.13133341920E+04  0.25500000920E-02 0. -1.
    10030    2    1    2    0    0  0.00000000000E+00  0.00000000000E+00 -0.83224247818E+03  0.17944259058E+04  0.15897599784E+04 0.  0.
        2    1    3    3  502    0 -0.26158451061E+03  0.73411865605E+03 -0.59271601584E+03  0.97911640411E+03  0.25500000920E-02 0.  1.
       -2    1    3    3    0  502  0.26158451061E+03 -0.73411865605E+03 -0.23952646234E+03  0.81530950168E+03  0.25500000920E-02 0. -1.
</event>
<event>
 5   0  0.3228393E-04  0.1573279E+04  0.7818609E-02  0.8837134E-01
       -2   -1    0    0    0  501  0.00000000000E+00  0.00000000000E+00  0.41917095775E+03  0.41917095776E+03  0.25500000920E-02 0.  1.
        2   -1    0    0  501    0  0.00000000000E+00  0.00000000000E+00 -0.14762504472E+04  0.14762504472E+04  0.25500000920E-02 0. -1.
    10030    2    1    2    0    0  0.00000000000E+00  0.00000000000E+00 -0.10570794895E+04  0.18954214050E+04  0.15732785054E+04 0.  0.
        1    1    3    3  502    0 -0.72772409713E+03 -0.27643640694E+03 -0.39222689517E+03  0.87168881256E+03  0.50400001928E-02 0. -1.
       -1    1    3    3    0  502  0.72772409713E+03  0.27643640694E+03 -0.66485259430E+03  0.10237325924E+04  0.50400001928E-02 0.  1.
</event>
<event>
 5   0  0.1219463E-04  0.1676048E+04  0.7818609E-02  0.8775144E-01
        3   -1    0    0  501    0  0.00000000000E+00  0.00000000000E+00  0.61918019933E+03  0.61918020757E+03  0.10100000352E+00 0.  1.
       -3   -1    0    0    0  501  0.00000000000E+00  0.00000000000E+00 -0.11342167475E+04  0.11342167520E+04  0.10100000352E+00 0. -1.
    10030    2    1    2    0    0  0.00000000000E+00  0.00000000000E+00 -0.51503654818E+03  0.17533969596E+04  0.16760484038E+04 0.  0.
        3    1    3    3  502    0  0.69428178768E+02 -0.80630289991E+03 -0.29899842594E+02  0.80983865628E+03  0.10100000352E+00 0.  1.
       -3    1    3    3    0  502 -0.69428178768E+02  0.80630289991E+03 -0.48513670558E+03  0.94355830329E+03  0.10100000352E+00 0. -1.
</event>
<event>
 5   0  0.1219463E-04  0.1587092E+04  0.7818609E-02  0.8828517E-01
       -3   -1    0    0    0  501  0.00000000000E+00  0.00000000000E+00  0.84747013739E+03  0.84747014341E+03  0.10100000352E+00 0.  1.
        3   -1    0    0  501    0  0.00000000000E+00  0.00000000000E+00 -0.74305324647E+03  0.74305325334E+03  0.10100000352E+00 0. -1.
    10030    2    1    2    0    0  0.00000000000E+00  0.00000000000E+00  0.10441689091E+03  0.15905233967E+04  0.15870922432E+04 0.  0.
        3    1    3    3  502    0 -0.17633877191E+03 -0.74480083238E+03 -0.15774816924E+03  0.78147817467E+03  0.10100000352E+00 0. -1.
       -3    1    3    3    0  502  0.17633877191E+03  0.74480083238E+03  0.26216506015E+03  0.80904522207E+03  0.10100000352E+00 0.  1.
</event>
<event>
 5   0  0.1736537E-04  0.1604482E+04  0.7818609E-02  0.8817799E-01
        1   -1    0    0  501    0  0.00000000000E+00  0.00000000000E+00  0.15975228087E+04  0.15975228087E+04  0.50400001928E-02 0.  1.
       -1   -1    0    0    0  501  0.00000000000E+00  0.00000000000E+00 -0.40286791133E+03  0.40286791136E+03  0.50400001928E-02 0. -1.
    10030    2    1    2    0    0  0.00000000000E+00  0.00000000000E+00  0.11946548974E+04  0.20003907200E+04  0.16044820688E+04 0.  0.
        3    1    3    3  502    0  0.69117052272E+03  0.24607344617E+03  0.10019398327E+04  0.12418342365E+04  0.10100000352E+00 0.  1.
       -3    1    3    3    0  502 -0.69117052272E+03 -0.24607344617E+03  0.19271506464E+03  0.75855648354E+03  0.10100000352E+00 0. -1.
</event>
<event>
 5   0  0.3380454E-04  0.1604069E+04  0.7818609E-02  0.8818052E-01
       -2   -1    0    0    0  501  0.00000000000E+00  0.00000000000E+00  0.41161275711E+03  0.41161275711E+03  0.25500000920E-02 0. -1.
        2   -1    0    0  501    0  0.00000000000E+00  0.00000000000E+00 -0.15627771220E+04  0.15627771220E+04  0.25500000920E-02 0.  1.
    10030    2    1    2    0    0  0.00000000000E+00  0.00000000000E+00 -0.11511643649E+04  0.19743898791E+04  0.16040685770E+04 0.  0.
        5    1    3    3  502    0  0.66639627266E+03  0.35384985464E+03 -0.24087957170E+03  0.79204720181E+03  0.46999998093E+01 0. -1.
       -5    1    3    3    0  502 -0.66639627266E+03 -0.35384985464E+03 -0.91028479319E+03  0.11823426773E+04  0.46999998093E+01 0.  1.
</event>
<event>
 5   0  0.1787688E-04  0.1595825E+04  0.7818609E-02  0.8823117E-01
       -1   -1    0    0    0  501  0.00000000000E+00  0.00000000000E+00  0.56570502022E+03  0.56570502024E+03  0.50400001928E-02 0. -1.
        1   -1    0    0  501    0  0.00000000000E+00  0.00000000000E+00 -0.11254345825E+04  0.11254345825E+04  0.50400001928E-02 0.  1.
    10030    2    1    2    0    0  0.00000000000E+00  0.00000000000E+00 -0.55972956230E+03  0.16911396028E+04  0.15958245433E+04 0.  0.
        4    1    3    3  502    0 -0.55128196132E+03 -0.50041669339E+03  0.24211936754E+02  0.74492717676E+03  0.12699999809E+01 0. -1.
       -4    1    3    3    0  502  0.55128196132E+03  0.50041669339E+03 -0.58394149906E+03  0.94621242600E+03  0.12699999809E+01 0.  1.
</event>
<event>
 5   0  0.3228393E-04  0.1596761E+04  0.7818609E-02  0.8822540E-01
        2   -1    0    0  501    0  0.00000000000E+00  0.00000000000E+00  0.14417856001E+04  0.14417856001E+04  0.25500000920E-02 0. -1.
       -2   -1    0    0    0  501  0.00000000000E+00  0.00000000000E+00 -0.44209882371E+03  0.44209882372E+03  0.25500000920E-02 0.  1.
    10030    2    1    2    0    0  0.00000000000E+00  0.00000000000E+00  0.99968677642E+03  0.18838844238E+04  0.15967613696E+04 0.  0.
        1    1    3    3  502    0  0.28085351665E+03  0.44904088562E+03 -0.20498705566E+03  0.56792262482E+03  0.50400001928E-02 0.  1.
       -1    1    3    3    0  502 -0.28085351665E+03 -0.44904088562E+03  0.12046738321E+04  0.13159617990E+04  0.50400001928E-02 0. -1.
</event>
<event>
 5   0  0.3210612E-04  0.1600491E+04  0.7818609E-02  0.8820246E-01
        2   -1    0    0  501    0  0.00000000000E+00  0.00000000000E+00  0.24731015261E+04  0.24731015261E+04  0.25500000920E-02 0. -1.
       -2   -1    0    0    0  501  0.00000000000E+00  0.00000000000E+00 -0.25894335919E+03  0.25894335920E+03  0.25500000920E-02 0.  1.
    10030    2    1    2    0    0  0.00000000000E+00  0.00000000000E+00  0.22141581669E+04  0.27320448853E+04  0.16004914455E+04 0.  0.
        2    1    3    3  502    0 -0.53817683932E+03 -0.48771392225E+03  0.16806273528E+04  0.18308488412E+04  0.25500000920E-02 0. -1.
       -2    1    3    3    0  502  0.53817683932E+03  0.48771392225E+03  0.53353081419E+03  0.90119604418E+03  0.25500000920E-02 0.  1.
</event>
<event>
 5   0  0.1764099E-04  0.1615856E+04  0.7818609E-02  0.8810866E-01
        1   -1    0    0  501    0  0.00000000000E+00  0.00000000000E+00  0.14226724224E+04  0.14226724224E+04  0.50400001928E-02 0.  1.
       -1   -1    0    0    0  501  0.00000000000E+00  0.00000000000E+00 -0.45881797579E+03  0.45881797582E+03  0.50400001928E-02 0. -1.
    10030    2    1    2    0    0  0.00000000000E+00  0.00000000000E+00  0.96385444663E+03  0.18814903982E+04  0.16158560346E+04 0.  0.
        5    1    3    3  502    0  0.52994392222E+03  0.18314484884E+03  0.11592223275E+04  0.12877115714E+04  0.46999998093E+01 0.  1.
       -5    1    3    3    0  502 -0.52994392222E+03 -0.18314484884E+03 -0.19536788092E+03  0.59377882688E+03  0.46999998093E+01 0. -1.
</event>
<event>
 5   0  0.3263294E-04  0.1597863E+04  0.7818609E-02  0.8821862E-01
       -2   -1    0    0    0  501  0.00000000000E+00  0.00000000000E+00  0.16161553128E+04  0.16161553128E+04  0.25500000920E-02 0.  1.
        2   -1    0    0  501    0  0.00000000000E+00  0.00000000000E+00 -0.39494420723E+03  0.39494420724E+03  0.25500000920E-02 0. -1.
    10030    2    1    2    0    0  0.00000000000E+00  0.00000000000E+00  0.12212111056E+04  0.20110995201E+04  0.15978625458E+04 0.  0.
        4    1    3    3  502    0  0.53050762047E+03 -0.73858409809E+02 -0.13548691347E+03  0.55249589745E+03  0.12699999809E+01 0. -1.
       -4    1    3    3    0  502 -0.53050762047E+03  0.73858409809E+02  0.13566980190E+04  0.14586036226E+04  0.12699999809E+01 0.  1.
</event>
<event>
 5   0  0.3380454E-04  0.1585253E+04  0.7818609E-02  0.8829659E-01
        2   -1    0    0  501    0  0.00000000000E+00  0.00000000000E+00  0.15108139172E+04  0.15108139172E+04  0.25500000920E-02 0. -1.
       -2   -1    0    0    0  501  0.00000000000E+00  0.00000000000E+00 -0.41583991891E+03  0.41583991892E+03  0.25500000920E-02 0.  1.
    10030    2    1    2    0    0  0.00000000000E+00  0.00000000000E+00  0.10949739983E+04  0.19266538361E+04  0.15852529600E+04 0.  0.
        5    1    3    3  502    0  0.35709559783E+03  0.11264062043E+03  0.13965269838E+04  0.14458612941E+04  0.46999998093E+01 0. -1.
       -5    1    3    3    0  502 -0.35709559783E+03 -0.11264062043E+03 -0.30155298552E+03  0.48079254199E+03  0.46999998093E+01 0.  1.
</event>
<event>
 5   0  0.1787688E-04  0.1599738E+04  0.7818609E-02  0.8820709E-01
        1   -1    0    0  501    0  0.00000000000E+00  0.00000000000E+00  0.93694726372E+03  0.93694726374E+03  0.50400001928E-02 0. -1.
       -1   -1    0    0    0  501  0.00000000000E+00  0.00000000000E+00 -0.68284554630E+03  0.68284554632E+03  0.50400001928E-02 0.  1.
    10030    2    1    2    0    0  0.00000000000E+00  0.00000000000E+00  0.25410171742E+03  0.16197928101E+04  0.15997378112E+04 0.  0.
        4    1    3    3  502    0  0.23228672537E+03  0.55140462999E+03 -0.41043764532E+03  0.72557898423E+03  0.12699999809E+01 0.  1.
       -4    1    3    3    0  502 -0.23228672537E+03 -0.55140462999E+03  0.66453936274E+03  0.89421382583E+03  0.12699999809E+01 0. -1.
</event>
<event>
 5   0  0.3228393E-04  0.1556664E+04  0.7818609E-02  0.8847622E-01
       -2   -1    0    0    0  501  0.00000000000E+00  0.00000000000E+00  0.72612173142E+03  0.72612173143E+03  0.25500000920E-02 0.  1.
        2   -1    0    0  501    0  0.00000000000E+00  0.00000000000E+00 -0.83429675759E+03  0.83429675760E+03  0.25500000920E-02 0. -1.
    10030    2    1    2    0    0  0.00000000000E+00  0.00000000000E+00 -0.10817502617E+03  0.15604184890E+04  0.15566643905E+04 0.  0.
        1    1    3    3  502    0 -0.23360931019E+03  0.19319509480E+03 -0.77268686598E+03  0.83002569077E+03  0.50400001928E-02 0. -1.
       -1    1    3    3    0  502  0.23360931019E+03 -0.19319509480E+03  0.66451183981E+03  0.73039279825E+03  0.50400001928E-02 0.  1.
</event>
<event>
 5   0  0.1219463E-04  0.1597835E+04  0.7818609E-02  0.8821879E-01
        3   -1    0    0  501    0  0.00000000000E+00  0.00000000000E+00  0.39295784789E+03  0.39295786087E+03  0.10100000352E+00 0. -1.
       -3   -1    0    0    0  501  0.00000000000E+00  0.00000000000E+00 -0.16242695364E+04  0.16242695396E+04  0.10100000352E+00 0.  1.
    10030    2    1    2    0    0  0.00000000000E+00  0.00000000000E+00 -0.12313116885E+04  0.20172274004E+04  0.15978353829E+04 0.  0.
        2    1    3    3  502    0 -0.49729371185E+03  0.17182267857E+03  0.14334835899E+03  0.54531900824E+03  0.25500000920E-02 0. -1.
       -2    1    3    3    0  502  0.49729371185E+03 -0.17182267857E+03 -0.13746600475E+04  0.14719083922E+04  0.25500000920E-02 0.  1.
</event>
<event>
 5   0  0.1736537E-04  0.1616881E+04  0.7818609E-02  0.8810244E-01
        1   -1    0    0  501    0  0.00000000000E+00  0.00000000000E+00  0.10506364745E+04  0.10506364745E+04  0.50400001928E-02 0.  1.
       -1   -1    0    0    0  501  0.00000000000E+00  0.00000000000E+00 -0.62207644509E+03  0.62207644511E+03  0.50400001928E-02 0. -1.
    10030    2    1    2    0    0  0.00000000000E+00  0.00000000000E+00  0.42856002938E+03  0.16727129196E+04  0.16168811993E+04 0.  0.
        3    1    3    3  502    0  0.36394944157E+03 -0.62198190394E+03 -0.16478120560E+03  0.73923848707E+03  0.10100000352E+00 0. -1.
       -3    1    3    3    0  502 -0.36394944157E+03  0.62198190394E+03  0.59334123498E+03  0.93347443252E+03  0.10100000352E+00 0.  1.
</event>
<event>
 5   0  0.1736537E-04  0.1615207E+04  0.7818609E-02  0.8811260E-01
       -1   -1    0    0    0  501  0.00000000000E+00  0.00000000000E+00  0.85610422201E+03  0.85610422203E+03  0.50400001928E-02 0. -1.
        1   -1    0    0  501    0  0.00000000000E+00  0.00000000000E+00 -0.76185069952E+03  0.76185069954E+03  0.50400001928E-02 0.  1.
    10030    2    1    2    0    0  0.00000000000E+00  0.00000000000E+00  0.94253522494E+02  0.16179549216E+04  0.16152072318E+04 0.  0.
        3    1    3    3  502    0 -0.67965381216E+03 -0.26095095332E+03  0.39729099937E+03  0.82937618293E+03  0.10100000352E+00 0. -1.
       -3    1    3    3    0  502  0.67965381216E+03  0.26095095332E+03 -0.30303747688E+03  0.78857873863E+03  0.10100000352E+00 0.  1.
</event>
<event>
 5   0  0.1819811E-04  0.1635908E+04  0.7818609E-02  0.8798787E-01
       -1   -1    0    0    0  501  0.00000000000E+00  0.00000000000E+00  0.88087896723E+03  0.88087896725E+03  0.50400001928E-02 0. -1.
        1   -1    0    0  501    0  0.00000000000E+00  0.00000000000E+00 -0.75952442863E+03  0.75952442864E+03  0.50400001928E-02 0.  1.
    10030    2    1    2    0    0  0.00000000000E+00  0.00000000000E+00  0.12135453861E+03  0.16404033959E+04  0.16359084257E+04 0.  0.
        1    1    3    3  502    0  0.57063522847E+03  0.22968084683E+03 -0.47994346900E+03  0.78020740116E+03  0.50400001928E-02 0.  1.
       -1    1    3    3    0  502 -0.57063522847E+03 -0.22968084683E+03  0.60129800760E+03  0.86019599473E+03  0.50400001928E-02 0. -1.
</event>
<event>
 5   0  0.3274900E-04  0.1608536E+04  0.7818609E-02  0.8815321E-01
       -2   -1    0    0    0  501  0.00000000000E+00  0.00000000000E+00  0.43355789744E+03  0.43355789745E+03  0.25500000920E-02 0. -1.
        2   -1    0    0  501    0  0.00000000000E+00  0.00000000000E+00 -0.14919508713E+04  0.14919508713E+04  0.25500000920E-02 0.  1.
    10030    2    1    2    0    0  0.00000000000E+00  0.00000000000E+00 -0.10583929738E+04  0.19255087687E+04  0.16085360833E+04 0.  0.
        3    1    3    3  502    0  0.11826061667E+03 -0.70800677946E+03 -0.96342933212E+03  0.12014388297E+04  0.10100000352E+00 0. -1.
       -3    1    3    3    0  502 -0.11826061667E+03  0.70800677946E+03 -0.94963641718E+02  0.72406993907E+03  0.10100000352E+00 0.  1.
</event>
<event>
 5   0  0.1219463E-04  0.1603805E+04  0.7818609E-02  0.8818214E-01
       -3   -1    0    0    0  501  0.00000000000E+00  0.00000000000E+00  0.19359226128E+04  0.19359226154E+04  0.10100000352E+00 0. -1.
        3   -1    0    0  501    0  0.00000000000E+00  0.00000000000E+00 -0.33216587363E+03  0.33216588898E+03  0.10100000352E+00 0.  1.
    10030    2    1    2    0    0  0.00000000000E+00  0.00000000000E+00  0.16037567392E+04  0.22680885044E+04  0.16038047841E+04 0.  0.
        1    1    3    3  502    0  0.70691926425E+03  0.37825944672E+03  0.78031988329E+03  0.11188003287E+04  0.50400001928E-02 0.  1.
       -1    1    3    3    0  502 -0.70691926425E+03 -0.37825944672E+03  0.82343685589E+03  0.11492881757E+04  0.50400001928E-02 0. -1.
</event>
<event>
 5   0  0.3274900E-04  0.1601943E+04  0.7818609E-02  0.8819355E-01
        2   -1    0    0  501    0  0.00000000000E+00  0.00000000000E+00  0.84163118579E+03  0.84163118579E+03  0.25500000920E-02 0.  1.
       -2   -1    0    0    0  501  0.00000000000E+00  0.00000000000E+00 -0.76227634040E+03  0.76227634041E+03  0.25500000920E-02 0. -1.
    10030    2    1    2    0    0  0.00000000000E+00  0.00000000000E+00  0.79354845382E+02  0.16039075262E+04  0.16019432453E+04 0.  0.
        3    1    3    3  502    0 -0.43154102391E+03  0.20301070081E+03  0.68398380626E+03  0.83383143224E+03  0.10100000352E+00 0.  1.
       -3    1    3    3    0  502  0.43154102391E+03 -0.20301070081E+03 -0.60462896087E+03  0.77007609396E+03  0.10100000352E+00 0. -1.
</event>
<event>
 5   0  0.3380454E-04  0.1571865E+04  0.7818609E-02  0.8838021E-01
        2   -1    0    0  501    0  0.00000000000E+00  0.00000000000E+00  0.78387242975E+03  0.78387242975E+03  0.25500000920E-02 0.  1.
       -2   -1    0    0    0  501  0.00000000000E+00  0.00000000000E+00 -0.78799788104E+03  0.78799788104E+03  0.25500000920E-02 0. -1.
    10030    2    1    2    0    0  0.00000000000E+00  0.00000000000E+00 -0.41254512897E+01  0.15718703108E+04  0.15718648971E+04 0.  0.
        5    1    3    3  502    0  0.31956254155E+03  0.42066096153E+03  0.57982574603E+03  0.78440796035E+03  0.46999998093E+01 0.  1.
       -5    1    3    3    0  502 -0.31956254155E+03 -0.42066096153E+03 -0.58395119732E+03  0.78746235044E+03  0.46999998093E+01 0. -1.
</event>
<event>
 5   0  0.1761255E-04  0.1601192E+04  0.7818609E-02  0.8819816E-01
       -1   -1    0    0    0  501  0.00000000000E+00  0.00000000000E+00  0.70173568761E+03  0.70173568763E+03  0.50400001928E-02 0.  1.
        1   -1    0    0  501    0  0.00000000000E+00  0.00000000000E+00 -0.91338342312E+03  0.91338342314E+03  0.50400001928E-02 0. -1.
    10030    2    1    2    0    0  0.00000000000E+00  0.00000000000E+00 -0.21164773551E+03  0.16151191108E+04  0.16011917368E+04 0.  0.
        2    1    3    3  502    0  0.37878416759E+02  0.13990616148E+03  0.68839075568E+03  0.70348442839E+03  0.25500000920E-02 0.  1.
       -2    1    3    3    0  502 -0.37878416759E+02 -0.13990616148E+03 -0.90003849119E+03  0.91163468237E+03  0.25500000920E-02 0. -1.
</event>
<event>
 5   0  0.1787688E-04  0.1581677E+04  0.7818609E-02  0.8831884E-01
        1   -1    0    0  501    0  0.00000000000E+00  0.00000000000E+00  0.88315055180E+03  0.88315055181E+03  0.50400001928E-02 0.  1.
       -1   -1    0    0    0  501  0.00000000000E+00  0.00000000000E+00 -0.70817562952E+03  0.70817562954E+03  0.50400001928E-02 0. -1.
    10030    2    1    2    0    0  0.00000000000E+00  0.00000000000E+00  0.17497492228E+03  0.15913261813E+04  0.15816772085E+04 0.  0.
        4    1    3    3  502    0 -0.57705013759E+01  0.71786075210E+03  0.42127442993E+03  0.83236477359E+03  0.12699999809E+01 0.  1.
       -4    1    3    3    0  502  0.57705013759E+01 -0.71786075210E+03 -0.24629950766E+03  0.75896140776E+03  0.12699999809E+01 0. -1.
</event>
<event>
 5   0  0.3210612E-04  0.1595313E+04  0.7818609E-02  0.8823433E-01
       -2   -1    0    0    0  501  0.00000000000E+00  0.00000000000E+00  0.45951984497E+03  0.45951984498E+03  0.25500000920E-02 0. -1.
        2   -1    0    0  501    0  0.00000000000E+00  0.00000000000E+00 -0.13846104980E+04  0.13846104980E+04  0.25500000920E-02 0.  1.
    10030    2    1    2    0    0  0.00000000000E+00  0.00000000000E+00 -0.92509065305E+03  0.18441303430E+04  0.15953131372E+04 0.  0.
        2    1    3    3  502    0  0.42325886031E+03  0.64933719249E+03 -0.68025165648E+03  0.10312755056E+04  0.25500000920E-02 0.  1.
       -2    1    3    3    0  502 -0.42325886031E+03 -0.64933719249E+03 -0.24483899658E+03  0.81285483737E+03  0.25500000920E-02 0. -1.
</event>
<event>
 5   0  0.3274900E-04  0.1596399E+04  0.7818609E-02  0.8822763E-01
        2   -1    0    0  501    0  0.00000000000E+00  0.00000000000E+00  0.14352870670E+04  0.14352870670E+04  0.25500000920E-02 0. -1.
       -2   -1    0    0    0  501  0.00000000000E+00  0.00000000000E+00 -0.44389905590E+03  0.44389905590E+03  0.25500000920E-02 0.  1.
    10030    2    1    2    0    0  0.00000000000E+00  0.00000000000E+00  0.99138801106E+03  0.18791861229E+04  0.15963991656E+04 0.  0.
        3    1    3    3  502    0 -0.47106886545E+02 -0.56115621983E+02  0.14313204562E+04  0.14331944321E+04  0.10100000352E+00 0. -1.
       -3    1    3    3    0  502  0.47106886545E+02  0.56115621983E+02 -0.43993244509E+03  0.44599169077E+03  0.10100000352E+00 0.  1.
</event>
<event>
 5   0  0.1819811E-04  0.1598118E+04  0.7818609E-02  0.8821705E-01
       -1   -1    0    0    0  501  0.00000000000E+00  0.00000000000E+00  0.78678557675E+03  0.78678557677E+03  0.50400001928E-02 0. -1.
        1   -1    0    0  501    0  0.00000000000E+00  0.00000000000E+00 -0.81152414388E+03  0.81152414390E+03  0.50400001928E-02 0.  1.
    10030    2    1    2    0    0  0.00000000000E+00  0.00000000000E+00 -0.24738567128E+02  0.15983097207E+04  0.15981182580E+04 0.  0.
        1    1    3    3  502    0  0.31501066573E+03  0.36176992479E+03  0.62675836641E+03  0.78926247085E+03  0.50400001928E-02 0. -1.
       -1    1    3    3    0  502 -0.31501066573E+03 -0.36176992479E+03 -0.65149693353E+03  0.80904724982E+03  0.50400001928E-02 0.  1.
</event>
<event>
 5   0  0.3380454E-04  0.1611437E+04  0.7818609E-02  0.8813553E-01
       -2   -1    0    0    0  501  0.00000000000E+00  0.00000000000E+00  0.16439153233E+04  0.16439153233E+04  0.25500000920E-02 0.  1.
        2   -1    0    0  501    0  0.00000000000E+00  0.00000000000E+00 -0.39489991165E+03  0.39489991166E+03  0.25500000920E-02 0. -1.
    10030    2    1    2    0    0  0.00000000000E+00  0.00000000000E+00  0.12490154117E+04  0.20388152350E+04  0.16114366459E+04 0.  0.
        5    1    3    3  502    0 -0.53192173661E+03 -0.50866101160E+03  0.10393039949E+04  0.12735193922E+04  0.46999998093E+01 0.  1.
       -5    1    3    3    0  502  0.53192173661E+03  0.50866101160E+03  0.20971141677E+03  0.76529584274E+03  0.46999998093E+01 0. -1.
</event>
<event>
 5   0  0.1787688E-04  0.1596772E+04  0.7818609E-02  0.8822533E-01
       -1   -1    0    0    0  501  0.00000000000E+00  0.00000000000E+00  0.54134976080E+03  0.54134976082E+03  0.50400001928E-02 0.  1.
        1   -1    0    0  501    0  0.00000000000E+00  0.00000000000E+00 -0.11774652317E+04  0.11774652317E+04  0.50400001928E-02 0. -1.
    10030    2    1    2    0    0  0.00000000000E+00  0.00000000000E+00 -0.63611547093E+03  0.17188149926E+04  0.15967723965E+04 0.  0.
        4    1    3    3  502    0 -0.62579955225E+03 -0.18961880881E+03 -0.81115062628E+03  0.10418960234E+04  0.12699999809E+01 0. -1.
       -4    1    3    3    0  502  0.62579955225E+03  0.18961880881E+03  0.17503515535E+03  0.67691896912E+03  0.12699999809E+01 0.  1.
</event>
<event>
 5   0  0.1764099E-04  0.1598988E+04  0.7818609E-02  0.8821170E-01
       -1   -1    0    0    0  501  0.00000000000E+00  0.00000000000E+00  0.64611903762E+03  0.64611903764E+03  0.50400001928E-02 0. -1.
        1   -1    0    0  501    0  0.00000000000E+00  0.00000000000E+00 -0.98927726882E+03  0.98927726883E+03  0.50400001928E-02 0.  1.
    10030    2    1    2    0    0  0.00000000000E+00  0.00000000000E+00 -0.34315823120E+03  0.16353963065E+04  0.15989882762E+04 0.  0.
        5    1    3    3  502    0  0.76013832512E+03 -0.11011513763E+03  0.55358576126E+02  0.77007939772E+03  0.46999998093E+01 0. -1.
       -5    1    3    3    0  502 -0.76013832512E+03  0.11011513763E+03 -0.39851680732E+03  0.86531690875E+03  0.46999998093E+01 0.  1.
</event>
<event>
 5   0  0.3210612E-04  0.1566610E+04  0.7818609E-02  0.8841328E-01
        2   -1    0    0  501    0  0.00000000000E+00  0.00000000000E+00  0.21142846165E+04  0.21142846165E+04  0.25500000920E-02 0.  1.
       -2   -1    0    0    0  501  0.00000000000E+00  0.00000000000E+00 -0.29020052560E+03  0.29020052561E+03  0.25500000920E-02 0. -1.
    10030    2    1    2    0    0  0.00000000000E+00  0.00000000000E+00  0.18240840909E+04  0.24044851422E+04  0.15666097242E+04 0.  0.
        2    1    3    3  502    0 -0.15617081069E+03 -0.21342856408E+02 -0.26560809934E+03  0.30885676628E+03  0.25500000920E-02 0. -1.
       -2    1    3    3    0  502  0.15617081069E+03  0.21342856408E+02  0.20896921903E+04  0.20956283759E+04  0.25500000920E-02 0.  1.
</event>
<event>
 5   0  0.1819811E-04  0.1591773E+04  0.7818609E-02  0.8825618E-01
        1   -1    0    0  501    0  0.00000000000E+00  0.00000000000E+00  0.23277943198E+03  0.23277943204E+03  0.50400001928E-02 0.  1.
       -1   -1    0    0    0  501  0.00000000000E+00  0.00000000000E+00 -0.27211828047E+04  0.27211828047E+04  0.50400001928E-02 0. -1.
    10030    2    1    2    0    0  0.00000000000E+00  0.00000000000E+00 -0.24884033727E+04  0.29539622367E+04  0.15917730839E+04 0.  0.
        1    1    3    3  502    0  0.34595574624E+03  0.68903422160E+03 -0.87780207060E+03  0.11683278701E+04  0.50400001928E-02 0.  1.
       -1    1    3    3    0  502 -0.34595574624E+03 -0.68903422160E+03 -0.16106013021E+04  0.17856343666E+04  0.50400001928E-02 0. -1.
</event>
<event>
 5   0  0.1761255E-04  0.1574075E+04  0.7818609E-02  0.8836635E-01
       -1   -1    0    0    0  501  0.00000000000E+00  0.00000000000E+00  0.98177021757E+03  0.98177021758E+03  0.50400001928E-02 0. -1.
        1   -1    0    0  501    0  0.00000000000E+00  0.00000000000E+00 -0.63092952584E+03  0.63092952586E+03  0.50400001928E-02 0.  1.
    10030    2    1    2    0    0  0.00000000000E+00  0.00000000000E+00  0.35084069173E+03  0.16126997434E+04  0.15740747351E+04 0.  0.
        2    1    3    3  502    0  0.25638173504E+03 -0.31528258846E+03  0.86597211977E+03  0.95657849488E+03  0.25500000920E-02 0. -1.
       -2    1    3    3    0  502 -0.25638173504E+03  0.31528258846E+03 -0.51513142804E+03  0.65612124856E+03  0.25500000920E-02 0.  1.
</event>
<event>
 5   0  0.3380454E-04  0.1591639E+04  0.7818609E-02  0.8825701E-01
        2   -1    0    0  501    0  0.00000000000E+00  0.00000000000E+00  0.16855763448E+04  0.16855763448E+04  0.25500000920E-02 0.  1.
       -2   -1    0    0    0  501  0.00000000000E+00  0.00000000000E+00 -0.37573436089E+03  0.37573436090E+03  0.25500000920E-02 0. -1.
    10030    2    1    2    0    0  0.00000000000E+00  0.00000000000E+00  0.13098419839E+04  0.20613107057E+04  0.15916393444E+04 0.  0.
        5    1    3    3  502    0  0.58868329744E+03  0.20319356103E+03  0.13269694415E+02  0.62292360905E+03  0.46999998093E+01 0. -1.
       -5    1    3    3    0  502 -0.58868329744E+03 -0.20319356103E+03  0.12965722895E+04  0.14383870966E+04  0.46999998093E+01 0.  1.
</event>
<event>
 5   0  0.3263294E-04  0.1605954E+04  0.7818609E-02  0.8816899E-01
        2   -1    0    0  501    0  0.00000000000E+00  0.00000000000E+00  0.14617242391E+04  0.14617242391E+04  0.25500000920E-02 0. -1.
       -2   -1    0    0    0  501  0.00000000000E+00  0.00000000000E+00 -0.44110379514E+03  0.44110379515E+03  0.25500000920E-02 0.  1.
    10030    2    1    2    0    0  0.00000000000E+00  0.00000000000E+00  0.10206204439E+04  0.19028280342E+04  0.16059540583E+04 0.  0.
        4    1    3    3  502    0 -0.45411975814E+03 -0.63340440767E+03  0.73928113638E+03  0.10742272152E+04  0.12699999809E+01 0. -1.
       -4    1    3    3    0  502  0.45411975814E+03  0.63340440767E+03  0.28133930755E+03  0.82860081901E+03  0.12699999809E+01 0.  1.
</event>
<event>
 5   0  0.1761255E-04  0.1618617E+04  0.7818609E-02  0.8809192E-01
        1   -1    0    0  501    0  0.00000000000E+00  0.00000000000E+00  0.86320545489E+03  0.86320545490E+03  0.50400001928E-02 0.  1.
       -1   -1    0    0    0  501  0.00000000000E+00  0.00000000000E+00 -0.75877655421E+03  0.75877655422E+03  0.50400001928E-02 0. -1.
    10030    2    1    2    0    0  0.00000000000E+00  0.00000000000E+00  0.10442890068E+03  0.16219820091E+04  0.16186167683E+04 0.  0.
        2    1    3    3  502    0  0.10674319501E+03  0.28392284340E+03 -0.69966129964E+03  0.76258260202E+03  0.25500000920E-02 0. -1.
       -2    1    3    3    0  502 -0.10674319501E+03 -0.28392284340E+03  0.80409020032E+03  0.85939940711E+03  0.25500000920E-02 0.  1.
</event>
<event>
 5   0  0.1736537E-04  0.1597649E+04  0.7818609E-02  0.8821994E-01
        1   -1    0    0  501    0  0.00000000000E+00  0.00000000000E+00  0.10052390619E+04  0.10052390620E+04  0.50400001928E-02 0.  1.
       -1   -1    0    0    0  501  0.00000000000E+00  0.00000000000E+00 -0.63479462888E+03  0.63479462890E+03  0.50400001928E-02 0. -1.
    10030    2    1    2    0    0  0.00000000000E+00  0.00000000000E+00  0.37044443307E+03  0.16400336909E+04  0.15976487190E+04 0.  0.
        3    1    3    3  502    0 -0.21293508089E+03  0.49000213582E+03 -0.42439887593E+03  0.68231800348E+03  0.10100000352E+00 0. -1.
       -3    1    3    3    0  502  0.21293508089E+03 -0.49000213582E+03  0.79484330900E+03  0.95771568738E+03  0.10100000352E+00 0.  1.
</event>
<event>
 5   0  0.1761255E-04  0.1608377E+04  0.7818609E-02  0.8815418E-01
       -1   -1    0    0    0  501  0.00000000000E+00  0.00000000000E+00  0.90876813734E+03  0.90876813736E+03  0.50400001928E-02 0.  1.
        1   -1    0    0  501    0  0.00000000000E+00  0.00000000000E+00 -0.71164367446E+03  0.71164367447E+03  0.50400001928E-02 0. -1.
    10030    2    1    2    0    0  0.00000000000E+00  0.00000000000E+00  0.19712446289E+03  0.16204118118E+04  0.16083769415E+04 0.  0.
        2    1    3    3  502    0  0.71140124911E+03  0.34284983134E+03 -0.54500052058E+02  0.79158575010E+03  0.25500000920E-02 0.  1.
       -2    1    3    3    0  502 -0.71140124911E+03 -0.34284983134E+03  0.25162451495E+03  0.82882606173E+03  0.25500000920E-02 0. -1.
</event>
<event>
 5   0  0.3274900E-04  0.1600157E+04  0.7818609E-02  0.8820451E-01
       -2   -1    0    0    0  501  0.00000000000E+00  0.00000000000E+00  0.39111753130E+03  0.39111753130E+03  0.25500000920E-02 0. -1.
        2   -1    0    0  501    0  0.00000000000E+00  0.00000000000E+00 -0.16366581314E+04  0.16366581314E+04  0.25500000920E-02 0.  1.
    10030    2    1    2    0    0  0.00000000000E+00  0.00000000000E+00 -0.12455406001E+04  0.20277756627E+04  0.16001571022E+04 0.  0.
        3    1    3    3  502    0  0.74739167352E+03  0.14533102475E+02 -0.98414386212E+03  0.12358578706E+04  0.10100000352E+00 0.  1.
       -3    1    3    3    0  502 -0.74739167352E+03 -0.14533102475E+02 -0.26139673802E+03  0.79191779217E+03  0.10100000352E+00 0. -1.
</event>
<event>
 5   0  0.1219463E-04  0.1596643E+04  0.7818609E-02  0.8822613E-01
       -3   -1    0    0    0  501  0.00000000000E+00  0.00000000000E+00  0.85658263271E+03  0.85658263867E+03  0.10100000352E+00 0. -1.
        3   -1    0    0  501    0  0.00000000000E+00  0.00000000000E+00 -0.74402280540E+03  0.74402281226E+03  0.10100000352E+00 0.  1.
    10030    2    1    2    0    0  0.00000000000E+00  0.00000000000E+00  0.11255982731E+03  0.16006054509E+04  0.15966427574E+04 0.  0.
        2    1    3    3  502    0  0.42001119401E+02  0.10043490377E+03  0.84910668437E+03  0.85605690545E+03  0.25500000920E-02 0. -1.
       -2    1    3    3    0  502 -0.42001119401E+02 -0.10043490377E+03 -0.73654685705E+03  0.74454854548E+03  0.25500000920E-02 0.  1.
</event>
<event>
 5   0  0.1787688E-04  0.1670989E+04  0.7818609E-02  0.8778085E-01
        1   -1    0    0  501    0  0.00000000000E+00  0.00000000000E+00  0.12840253484E+04  0.12840253484E+04  0.50400001928E-02 0.  1.
       -1   -1    0    0    0  501  0.00000000000E+00  0.00000000000E+00 -0.54364289248E+03  0.54364289250E+03  0.50400001928E-02 0. -1.
    10030    2    1    2    0    0  0.00000000000E+00  0.00000000000E+00  0.74038245593E+03  0.18276682409E+04  0.16709892333E+04 0.  0.
        4    1    3    3  502    0  0.87427482025E+01 -0.20414482199E+03  0.12562739869E+04  0.12727833622E+04  0.12699999809E+01 0.  1.
       -4    1    3    3    0  502 -0.87427482025E+01  0.20414482199E+03 -0.51589153098E+03  0.55488487872E+03  0.12699999809E+01 0. -1.
</event>
<event>
 5   0  0.1736537E-04  0.1593142E+04  0.7818609E-02  0.8824772E-01
        1   -1    0    0  501    0  0.00000000000E+00  0.00000000000E+00  0.89198844410E+03  0.89198844412E+03  0.50400001928E-02 0. -1.
       -1   -1    0    0    0  501  0.00000000000E+00  0.00000000000E+00 -0.71136093437E+03  0.71136093439E+03  0.50400001928E-02 0.  1.
    10030    2    1    2    0    0  0.00000000000E+00  0.00000000000E+00  0.18062750973E+03  0.16033493785E+04  0.15931424708E+04 0.  0.
        3    1    3    3  502    0 -0.13560746596E+03 -0.66103776326E+03 -0.33567745780E+03  0.75368406853E+03  0.10100000352E+00 0.  1.
       -3    1    3    3    0  502  0.13560746596E+03  0.66103776326E+03  0.51630496753E+03  0.84966530998E+03  0.10100000352E+00 0. -1.
</event>
<event>
 5   0  0.3228393E-04  0.1605820E+04  0.7818609E-02  0.8816980E-01
       -2   -1    0    0    0  501  0.00000000000E+00  0.00000000000E+00  0.73372371523E+03  0.73372371523E+03  0.25500000920E-02 0. -1.
        2   -1    0    0  501    0  0.00000000000E+00  0.00000000000E+00 -0.87862054145E+03  0.87862054145E+03  0.25500000920E-02 0.  1.
    10030    2    1    2    0    0  0.00000000000E+00  0.00000000000E+00 -0.14489682622E+03  0.16123442567E+04  0.16058203236E+04 0.  0.
        1    1    3    3  502    0  0.27387908148E+03  0.30011257447E+03  0.62288758830E+03  0.74368424504E+03  0.50400001928E-02 0. -1.
       -1    1    3    3    0  502 -0.27387908148E+03 -0.30011257447E+03 -0.76778441452E+03  0.86866001165E+03  0.50400001928E-02 0.  1.
</event>
<event>
 5   0  0.1819811E-04  0.1586639E+04  0.7818609E-02  0.8828798E-01
        1   -1    0    0  501    0  0.00000000000E+00  0.00000000000E+00  0.15271442082E+04  0.15271442082E+04  0.50400001928E-02 0.  1.
       -1   -1    0    0    0  501  0.00000000000E+00  0.00000000000E+00 -0.41211308748E+03  0.41211308752E+03  0.50400001928E-02 0. -1.
    10030    2    1    2    0    0  0.00000000000E+00  0.00000000000E+00  0.11150311207E+04  0.19392572958E+04  0.15866393601E+04 0.  0.
        1    1    3    3  502    0 -0.87279240732E+02  0.11808244829E+03  0.15103901949E+04  0.15175110119E+04  0.50400001928E-02 0.  1.
       -1    1    3    3    0  502  0.87279240732E+02 -0.11808244829E+03 -0.39535907410E+03  0.42174628387E+03  0.50400001928E-02 0. -1.
</event>
<event>
 5   0  0.3274900E-04  0.1612473E+04  0.7818609E-02  0.8812922E-01
        2   -1    0    0  501    0  0.00000000000E+00  0.00000000000E+00  0.13906342455E+04  0.13906342455E+04  0.25500000920E-02 0.  1.
       -2   -1    0    0    0  501  0.00000000000E+00  0.00000000000E+00 -0.46742533456E+03  0.46742533456E+03  0.25500000920E-02 0. -1.
    10030    2    1    2    0    0  0.00000000000E+00  0.00000000000E+00  0.92320891095E+03  0.18580595801E+04  0.16124734757E+04 0.  0.
        3    1    3    3  502    0  0.26082060648E+03  0.54232899297E+03  0.10798555797E+04  0.12362185116E+04  0.10100000352E+00 0.  1.
       -3    1    3    3    0  502 -0.26082060648E+03 -0.54232899297E+03 -0.15664666871E+03  0.62184106844E+03  0.10100000352E+00 0. -1.
</event>
<event>
 5   0  0.3274900E-04  0.1571016E+04  0.7818609E-02  0.8838554E-01
       -2   -1    0    0    0  501  0.00000000000E+00  0.00000000000E+00  0.44638019106E+03  0.44638019106E+03  0.25500000920E-02 0. -1.
        2   -1    0    0  501    0  0.00000000000E+00  0.00000000000E+00 -0.13822811067E+04  0.13822811067E+04  0.25500000920E-02 0.  1.
    10030    2    1    2    0    0  0.00000000000E+00  0.00000000000E+00 -0.93590091569E+03  0.18286612978E+04  0.15710161101E+04 0.  0.
        3    1    3    3  502    0  0.36420241990E+03 -0.21044060409E+03 -0.12401427798E+04  0.13095353279E+04  0.10100000352E+00 0.  1.
       -3    1    3    3    0  502 -0.36420241990E+03  0.21044060409E+03  0.30424186414E+03  0.51912596989E+03  0.10100000352E+00 0. -1.
</event>
<event>
 5   0  0.3263294E-04  0.1596322E+04  0.7818609E-02  0.8822811E-01
       -2   -1    0    0    0  501  0.00000000000E+00  0.00000000000E+00  0.28279269375E+03  0.28279269376E+03  0.25500000920E-02 0. -1.
        2   -1    0    0  501    0  0.00000000000E+00  0.00000000000E+00 -0.22527488666E+04  0.22527488666E+04  0.25500000920E-02 0.  1.
    10030    2    1    2    0    0  0.00000000000E+00  0.00000000000E+00 -0.19699561729E+04  0.25355415604E+04  0.15963219229E+04 0.  0.
        4    1    3    3  502    0 -0.79176317355E+03 -0.85101301758E+02 -0.10709283338E+04  0.13345487116E+04  0.12699999809E+01 0.  1.
       -4    1    3    3    0  502  0.79176317355E+03  0.85101301758E+02 -0.89902783905E+03  0.12009928488E+04  0.12699999809E+01 0. -1.
</event>
<event>
 5   0  0.1736537E-04  0.1601429E+04  0.7818609E-02  0.8819670E-01
        1   -1    0    0  501    0  0.00000000000E+00  0.00000000000E+00  0.10010676549E+04  0.10010676549E+04  0.50400001928E-02 0. -1.
       -1   -1    0    0    0  501  0.00000000000E+00  0.00000000000E+00 -0.64046027027E+03  0.64046027029E+03  0.50400001928E-02 0.  1.
    10030    2    1    2    0    0  0.00000000000E+00  0.00000000000E+00  0.36060738462E+03  0.16415279252E+04  0.16014294375E+04 0.  0.
        3    1    3    3  502    0 -0.81285667461E+00  0.67237975678E+03  0.62598815145E+03  0.91867098246E+03  0.10100000352E+00 0. -1.
       -3    1    3    3    0  502  0.81285667461E+00 -0.67237975678E+03 -0.26538076682E+03  0.72285694273E+03  0.10100000352E+00 0.  1.
</event>
<event>
 5   0  0.3263294E-04  0.1582028E+04  0.7818609E-02  0.8831665E-01
        2   -1    0    0  501    0  0.00000000000E+00  0.00000000000E+00  0.10751005510E+04  0.10751005510E+04  0.25500000920E-02 0.  1.
       -2   -1    0    0    0  501  0.00000000000E+00  0.00000000000E+00 -0.58199518522E+03  0.58199518522E+03  0.25500000920E-02 0. -1.
    10030    2    1    2    0    0  0.00000000000E+00  0.00000000000E+00  0.49310536574E+03  0.16570957362E+04  0.15820282479E+04 0.  0.
        4    1    3    3  502    0 -0.54101675788E+03 -0.43010063788E+03  0.64953663997E+03  0.94846462801E+03  0.12699999809E+01 0.  1.
       -4    1    3    3    0  502  0.54101675788E+03  0.43010063788E+03 -0.15643127423E+03  0.70863110817E+03  0.12699999809E+01 0. -1.
</event>
<event>
 5   0  0.1764099E-04  0.1583098E+04  0.7818609E-02  0.8830999E-01
        1   -1    0    0  501    0  0.00000000000E+00  0.00000000000E+00  0.68147830914E+03  0.68147830916E+03  0.50400001928E-02 0. -1.
       -1   -1    0    0    0  501  0.00000000000E+00  0.00000000000E+00 -0.91939831870E+03  0.91939831872E+03  0.50400001928E-02 0.  1.
    10030    2    1    2    0    0  0.00000000000E+00  0.00000000000E+00 -0.23792000956E+03  0.16008766279E+04  0.15830982429E+04 0.  0.
        5    1    3    3  502    0 -0.25436274702E+03  0.29478485109E+03 -0.81585047801E+03  0.90400918577E+03  0.46999998093E+01 0.  1.
       -5    1    3    3    0  502  0.25436274702E+03 -0.29478485109E+03  0.57793046845E+03  0.69686744210E+03  0.46999998093E+01 0. -1.
</event>
<event>
 5   0  0.3228393E-04  0.1599364E+04  0.7818609E-02  0.8820939E-01
        2   -1    0    0  501    0  0.00000000000E+00  0.00000000000E+00  0.11143157372E+04  0.11143157372E+04  0.25500000920E-02 0.  1.
       -2   -1    0    0    0  501  0.00000000000E+00  0.00000000000E+00 -0.57388693822E+03  0.57388693823E+03  0.25500000920E-02 0. -1.
    10030    2    1    2    0    0  0.00000000000E+00  0.00000000000E+00  0.54042879896E+03  0.16882026754E+04  0.15993639319E+04 0.  0.
        1    1    3    3  502    0  0.72696173937E+03  0.33053829333E+03  0.22590266230E+03  0.82991622875E+03  0.50400001928E-02 0. -1.
       -1    1    3    3    0  502 -0.72696173937E+03 -0.33053829333E+03  0.31452613666E+03  0.85828644667E+03  0.50400001928E-02 0.  1.
</event>
<event>
 5   0  0.1761255E-04  0.1603655E+04  0.7818609E-02  0.8818306E-01
        1   -1    0    0  501    0  0.00000000000E+00  0.00000000000E+00  0.17930708201E+04  0.17930708201E+04  0.50400001928E-02 0. -1.
       -1   -1    0    0    0  501  0.00000000000E+00  0.00000000000E+00 -0.35856197415E+03  0.35856197419E+03  0.50400001928E-02 0.  1.
    10030    2    1    2    0    0  0.00000000000E+00  0.00000000000E+00  0.14345088460E+04  0.21516327943E+04  0.16036545926E+04 0.  0.
        2    1    3    3  502    0  0.47489108244E+03 -0.22584065313E+03  0.15294038228E+04  0.16172821628E+04  0.25500000920E-02 0. -1.
       -2    1    3    3    0  502 -0.47489108244E+03  0.22584065313E+03 -0.94894976851E+02  0.53435063154E+03  0.25500000920E-02 0.  1.
</event>
<event>
 5   0  0.3380454E-04  0.1619928E+04  0.7818609E-02  0.8808398E-01
       -2   -1    0    0    0  501  0.00000000000E+00  0.00000000000E+00  0.71739818097E+03  0.71739818098E+03  0.25500000920E-02 0. -1.
        2   -1    0    0  501    0  0.00000000000E+00  0.00000000000E+00 -0.91447348641E+03  0.91447348642E+03  0.25500000920E-02 0.  1.
    10030    2    1    2    0    0  0.00000000000E+00  0.00000000000E+00 -0.19707530544E+03  0.16318716674E+04  0.16199279190E+04 0.  0.
        5    1    3    3  502    0 -0.21570623125E+03  0.26414630430E+03 -0.83860866174E+03  0.90531156285E+03  0.46999998093E+01 0.  1.
       -5    1    3    3    0  502  0.21570623125E+03 -0.26414630430E+03  0.64153335630E+03  0.72656010455E+03  0.46999998093E+01 0. -1.
</event>
<event>
 5   0  0.1736537E-04  0.1586265E+04  0.7818609E-02  0.8829030E-01
        1   -1    0    0  501    0  0.00000000000E+00  0.00000000000E+00  0.10376299407E+04  0.10376299407E+04  0.50400001928E-02 0.  1.
       -1   -1    0    0    0  501  0.00000000000E+00  0.00000000000E+00 -0.60624651657E+03  0.60624651659E+03  0.50400001928E-02 0. -1.
    10030    2    1    2    0    0  0.00000000000E+00  0.00000000000E+00  0.43138342417E+03  0.16438764573E+04  0.15862654722E+04 0.  0.
        3    1    3    3  502    0 -0.11751626824E+03 -0.31462254731E+03 -0.52891754152E+03  0.62653906223E+03  0.10100000352E+00 0. -1.
       -3    1    3    3    0  502  0.11751626824E+03  0.31462254731E+03  0.96030096568E+03  0.10173373951E+04  0.10100000352E+00 0.  1.
</event>
<event>
 5   0  0.1736537E-04  0.1619920E+04  0.7818609E-02  0.8808403E-01
       -1   -1    0    0    0  501  0.00000000000E+00  0.00000000000E+00  0.46525002535E+03  0.46525002537E+03  0.50400001928E-02 0. -1.
        1   -1    0    0  501    0  0.00000000000E+00  0.00000000000E+00 -0.14100694164E+04  0.14100694164E+04  0.50400001928E-02 0.  1.
    10030    2    1    2    0    0  0.00000000000E+00  0.00000000000E+00 -0.94481939109E+03  0.18753194418E+04  0.16199195434E+04 0.  0.
        3    1    3    3  502    0 -0.20996254542E+02  0.75800621186E+03 -0.80192791771E+03  0.11036768799E+04  0.10100000352E+00 0.  1.
       -3    1    3    3    0  502  0.20996254542E+02 -0.75800621186E+03 -0.14289147338E+03  0.77164256187E+03  0.10100000352E+00 0. -1.
</event>
<event>
 5   0  0.1219463E-04  0.1775360E+04  0.7818609E-02  0.8719513E-01
       -3   -1    0    0    0  501  0.00000000000E+00  0.00000000000E+00  0.39813517025E+03  0.39813518306E+03  0.10100000352E+00 0. -1.
        3   -1    0    0  501    0  0.00000000000E+00  0.00000000000E+00 -0.19791667735E+04  0.19791667761E+04  0.10100000352E+00 0.  1.
    10030    2    1    2    0    0  0.00000000000E+00  0.00000000000E+00 -0.15810316033E+04  0.23773019592E+04  0.17753601535E+04 0.  0.
        3    1    3    3  502    0  0.79902452849E+03 -0.38407866245E+03 -0.73034338134E+03  0.11486331359E+04  0.10100000352E+00 0. -1.
       -3    1    3    3    0  502 -0.79902452849E+03  0.38407866245E+03 -0.85068822196E+03  0.12286688233E+04  0.10100000352E+00 0.  1.
</event>
<event>
 5   0  0.1736537E-04  0.1598079E+04  0.7818609E-02  0.8821729E-01
       -1   -1    0    0    0  501  0.00000000000E+00  0.00000000000E+00  0.43847735921E+03  0.43847735924E+03  0.50400001928E-02 0. -1.
        1   -1    0    0  501    0  0.00000000000E+00  0.00000000000E+00 -0.14560928595E+04  0.14560928595E+04  0.50400001928E-02 0.  1.
    10030    2    1    2    0    0  0.00000000000E+00  0.00000000000E+00 -0.10176155003E+04  0.18945702187E+04  0.15980785360E+04 0.  0.
        3    1    3    3  502    0 -0.27812835069E+03 -0.56046641170E+03  0.80372998855E+02  0.63082311883E+03  0.10100000352E+00 0. -1.
       -3    1    3    3    0  502  0.27812835069E+03  0.56046641170E+03 -0.10979884991E+04  0.12637470999E+04  0.10100000352E+00 0.  1.
</event>
<event>
 5   0  0.1761255E-04  0.1611522E+04  0.7818609E-02  0.8813501E-01
        1   -1    0    0  501    0  0.00000000000E+00  0.00000000000E+00  0.72329858837E+03  0.72329858839E+03  0.50400001928E-02 0.  1.
       -1   -1    0    0    0  501  0.00000000000E+00  0.00000000000E+00 -0.89762512139E+03  0.89762512140E+03  0.50400001928E-02 0. -1.
    10030    2    1    2    0    0  0.00000000000E+00  0.00000000000E+00 -0.17432653302E+03  0.16209237098E+04  0.16115222409E+04 0.  0.
        2    1    3    3  502    0  0.30887795675E+03  0.22030819699E+03 -0.80216168997E+03  0.88735825386E+03  0.25500000920E-02 0. -1.
       -2    1    3    3    0  502 -0.30887795675E+03 -0.22030819699E+03  0.62783515695E+03  0.73356545593E+03  0.25500000920E-02 0.  1.
</event>
<event>
 5   0  0.1764099E-04  0.1590259E+04  0.7818609E-02  0.8826555E-01
       -1   -1    0    0    0  501  0.00000000000E+00  0.00000000000E+00  0.10168299394E+04  0.10168299394E+04  0.50400001928E-02 0.  1.
        1   -1    0    0  501    0  0.00000000000E+00  0.00000000000E+00 -0.62176632042E+03  0.62176632044E+03  0.50400001928E-02 0. -1.
    10030    2    1    2    0    0  0.00000000000E+00  0.00000000000E+00  0.39506361898E+03  0.16385962599E+04  0.15902586078E+04 0.  0.
        5    1    3    3  502    0 -0.32039696996E+03 -0.44914604149E+03 -0.39242924255E+03  0.67705921850E+03  0.46999998093E+01 0. -1.
       -5    1    3    3    0  502  0.32039696996E+03  0.44914604149E+03  0.78749286153E+03  0.96153704136E+03  0.46999998093E+01 0.  1.
</event>
<event>
 5   0  0.3380454E-04  0.1613696E+04  0.7818609E-02  0.8812178E-01
       -2   -1    0    0    0  501  0.00000000000E+00  0.00000000000E+00  0.25773708470E+03  0.25773708472E+03  0.25500000920E-02 0.  1.
        2   -1    0    0  501    0  0.00000000000E+00  0.00000000000E+00 -0.25258451913E+04  0.25258451913E+04  0.25500000920E-02 0. -1.
    10030    2    1    2    0    0  0.00000000000E+00  0.00000000000E+00 -0.22681081066E+04  0.27835822760E+04  0.16136963482E+04 0.  0.
        5    1    3    3  502    0  0.35122549375E+02 -0.78695375900E+03 -0.14350708174E+04  0.16370644927E+04  0.46999998093E+01 0. -1.
       -5    1    3    3    0  502 -0.35122549375E+02  0.78695375900E+03 -0.83303728918E+03  0.11465177833E+04  0.46999998093E+01 0.  1.
</event>
<event>
 5   0  0.1219463E-04  0.1597146E+04  0.7818609E-02  0.8822303E-01
       -3   -1    0    0    0  501  0.00000000000E+00  0.00000000000E+00  0.42623602777E+03  0.42623603973E+03  0.10100000352E+00 0.  1.
        3   -1    0    0  501    0  0.00000000000E+00  0.00000000000E+00 -0.14961642049E+04  0.14961642084E+04  0.10100000352E+00 0. -1.
    10030    2    1    2    0    0  0.00000000000E+00  0.00000000000E+00 -0.10699281772E+04  0.19224002481E+04  0.15971463332E+04 0.  0.
        2    1    3    3  502    0  0.73771074114E+03 -0.29655187394E+03 -0.62470604273E+03  0.10111467704E+04  0.25500000920E-02 0. -1.
       -2    1    3    3    0  502 -0.73771074114E+03  0.29655187394E+03 -0.44522213445E+03  0.91125347766E+03  0.25500000920E-02 0.  1.
</event>
<event>
 5   0  0.3228393E-04  0.1599668E+04  0.7818609E-02  0.8820752E-01
       -2   -1    0    0    0  501  0.00000000000E+00  0.00000000000E+00  0.29982975164E+03  0.29982975165E+03  0.25500000920E-02 0.  1.
        2   -1    0    0  501    0  0.00000000000E+00  0.00000000000E+00 -0.21336596918E+04  0.21336596918E+04  0.25500000920E-02 0. -1.
    10030    2    1    2    0    0  0.00000000000E+00  0.00000000000E+00 -0.18338299401E+04  0.24334894434E+04  0.15996682850E+04 0.  0.
        1    1    3    3  502    0  0.53838141059E+03 -0.29549725072E+03 -0.16964130391E+04  0.18041591858E+04  0.50400001928E-02 0. -1.
       -1    1    3    3    0  502 -0.53838141059E+03  0.29549725072E+03 -0.13741690103E+03  0.62933025763E+03  0.50400001928E-02 0.  1.
</event>
<event>
 5   0  0.1819811E-04  0.1628850E+04  0.7818609E-02  0.8803018E-01
        1   -1    0    0  501    0  0.00000000000E+00  0.00000000000E+00  0.10126660824E+04  0.10126660824E+04  0.50400001928E-02 0. -1.
       -1   -1    0    0    0  501  0.00000000000E+00  0.00000000000E+00 -0.65499166826E+03  0.65499166828E+03  0.50400001928E-02 0.  1.
    10030    2    1    2    0    0  0.00000000000E+00  0.00000000000E+00  0.35767441410E+03  0.16676577507E+04  0.16288497128E+04 0.  0.
        1    1    3    3  502    0  0.33618981434E+03  0.31683297641E+03 -0.50787504299E+03  0.68654481684E+03  0.50400001928E-02 0.  1.
       -1    1    3    3    0  502 -0.33618981434E+03 -0.31683297641E+03  0.86554945709E+03  0.98111293382E+03  0.50400001928E-02 0. -1.
</event>
<event>
 5   0  0.3263294E-04  0.1598268E+04  0.7818609E-02  0.8821613E-01
       -2   -1    0    0    0  501  0.00000000000E+00  0.00000000000E+00  0.12233182992E+04  0.12233182992E+04  0.25500000920E-02 0. -1.
        2   -1    0    0  501    0  0.00000000000E+00  0.00000000000E+00 -0.52203518949E+03  0.52203518949E+03  0.25500000920E-02 0.  1.
    10030    2    1    2    0    0  0.00000000000E+00  0.00000000000E+00  0.70128310968E+03  0.17453534887E+04  0.15982680628E+04 0.  0.
        4    1    3    3  502    0  0.59613016598E+03  0.49636621435E+03  0.14097503918E+03  0.78843272897E+03  0.12699999809E+01 0. -1.
       -4    1    3    3    0  502 -0.59613016598E+03 -0.49636621435E+03  0.56030807050E+03  0.95692075968E+03  0.12699999809E+01 0.  1.
</event>
<event>
 5   0  0.3274900E-04  0.1629568E+04  0.7818609E-02  0.8802586E-01
       -2   -1    0    0    0  501  0.00000000000E+00  0.00000000000E+00  0.72188999317E+03  0.72188999317E+03  0.25500000920E-02 0. -1.
        2   -1    0    0  501    0  0.00000000000E+00  0.00000000000E+00 -0.91963175460E+03  0.91963175461E+03  0.25500000920E-02 0.  1.
    10030    2    1    2    0    0  0.00000000000E+00  0.00000000000E+00 -0.19774176143E+03  0.16415217478E+04  0.16295679931E+04 0.  0.
        3    1    3    3  502    0 -0.43974936655E+03 -0.11657289642E+03  0.58203444737E+03  0.73873733742E+03  0.10100000352E+00 0. -1.
       -3    1    3    3    0  502  0.43974936655E+03  0.11657289642E+03 -0.77977620881E+03  0.90278441036E+03  0.10100000352E+00 0.  1.
</event>
<event>
 5   0  0.1736537E-04  0.1601341E+04  0.7818609E-02  0.8819725E-01
        1   -1    0    0  501    0  0.00000000000E+00  0.00000000000E+00  0.11578860149E+04  0.11578860149E+04  0.50400001928E-02 0.  1.
       -1   -1    0    0    0  501  0.00000000000E+00  0.00000000000E+00 -0.55365811019E+03  0.55365811021E+03  0.50400001928E-02 0. -1.
    10030    2    1    2    0    0  0.00000000000E+00  0.00000000000E+00  0.60422790471E+03  0.17115441251E+04  0.16013406669E+04 0.  0.
        3    1    3    3  502    0 -0.11688214649E+03 -0.41518626721E+03  0.10230973915E+04  0.11103014705E+04  0.10100000352E+00 0.  1.
       -3    1    3    3    0  502  0.11688214649E+03  0.41518626721E+03 -0.41886948677E+03  0.60124265467E+03  0.10100000352E+00 0. -1.
</event>
<event>
 5   0  0.1764099E-04  0.1592708E+04  0.7818609E-02  0.8825041E-01
        1   -1    0    0  501    0  0.00000000000E+00  0.00000000000E+00  0.95064682166E+03  0.95064682167E+03  0.50400001928E-02 0. -1.
       -1   -1    0    0    0  501  0.00000000000E+00  0.00000000000E+00 -0.66710300197E+03  0.66710300199E+03  0.50400001928E-02 0.  1.
    10030    2    1    2    0    0  0.00000000000E+00  0.00000000000E+00  0.28354381969E+03  0.16177498237E+04  0.15927075671E+04 0.  0.
        5    1    3    3  502    0 -0.13532040702E+03  0.78098967172E+03  0.63747591966E+02  0.79519955066E+03  0.46999998093E+01 0.  1.
       -5    1    3    3    0  502  0.13532040702E+03 -0.78098967172E+03  0.21979622773E+03  0.82255027300E+03  0.46999998093E+01 0. -1.
</event>
<event>
 5   0  0.1219463E-04  0.1633253E+04  0.7818609E-02  0.8800376E-01
       -3   -1    0    0    0  501  0.00000000000E+00  0.00000000000E+00  0.22777643209E+04  0.22777643231E+04  0.10100000352E+00 0.  1.
        3   -1    0    0  501    0  0.00000000000E+00  0.00000000000E+00 -0.29277771301E+03  0.29277773043E+03  0.10100000352E+00 0. -1.
    10030    2    1    2    0    0  0.00000000000E+00  0.00000000000E+00  0.19849866079E+04  0.25705420536E+04  0.16332527715E+04 0.  0.
        5    1    3    3  502    0  0.86934715277E+02 -0.56791941588E+03  0.79146480066E+02  0.57997962288E+03  0.46999998093E+01 0. -1.
       -5    1    3    3    0  502 -0.86934715277E+02  0.56791941588E+03  0.19058401278E+04  0.19905624307E+04  0.46999998093E+01 0.  1.
</event>
<event>
 5   0  0.1761255E-04  0.1603046E+04  0.7818609E-02  0.8818679E-01
       -1   -1    0    0    0  501  0.00000000000E+00  0.00000000000E+00  0.76828782394E+03  0.76828782396E+03  0.50400001928E-02 0. -1.
        1   -1    0    0  501    0  0.00000000000E+00  0.00000000000E+00 -0.83619595193E+03  0.83619595195E+03  0.50400001928E-02 0.  1.
    10030    2    1    2    0    0  0.00000000000E+00  0.00000000000E+00 -0.67908127989E+02  0.16044837759E+04  0.16030460609E+04 0.  0.
        2    1    3    3  502    0  0.35078204548E+03 -0.46706987579E+03  0.51538866653E+03  0.77899152107E+03  0.25500000920E-02 0. -1.
       -2    1    3    3    0  502 -0.35078204548E+03  0.46706987579E+03 -0.58329679452E+03  0.82549225484E+03  0.25500000920E-02 0.  1.
</event>
<event>
 5   0  0.3274900E-04  0.1612785E+04  0.7818609E-02  0.8812732E-01
       -2   -1    0    0    0  501  0.00000000000E+00  0.00000000000E+00  0.39566496639E+03  0.39566496640E+03  0.25500000920E-02 0.  1.
        2   -1    0    0  501    0  0.00000000000E+00  0.00000000000E+00 -0.16434845248E+04  0.16434845248E+04  0.25500000920E-02 0. -1.
    10030    2    1    2    0    0  0.00000000000E+00  0.00000000000E+00 -0.12478195584E+04  0.20391494912E+04  0.16127854777E+04 0.  0.
        3    1    3    3  502    0  0.17478385857E+03  0.23021681953E+03  0.32791444398E+03  0.43712363695E+03  0.10100000352E+00 0.  1.
       -3    1    3    3    0  502 -0.17478385857E+03 -0.23021681953E+03 -0.15757340024E+04  0.16020258542E+04  0.10100000352E+00 0. -1.
</event>
<event>
 5   0  0.3210612E-04  0.1597354E+04  0.7818609E-02  0.8822175E-01
       -2   -1    0    0    0  501  0.00000000000E+00  0.00000000000E+00  0.10298010984E+04  0.10298010984E+04  0.25500000920E-02 0. -1.
        2   -1    0    0  501    0  0.00000000000E+00  0.00000000000E+00 -0.61942542473E+03  0.61942542474E+03  0.25500000920E-02 0.  1.
    10030    2    1    2    0    0  0.00000000000E+00  0.00000000000E+00  0.41037567367E+03  0.16492265231E+04  0.15973540406E+04 0.  0.
        2    1    3    3  502    0 -0.38176386025E+03  0.49852513149E+03  0.71478884081E+03  0.95141685852E+03  0.25500000920E-02 0. -1.
       -2    1    3    3    0  502  0.38176386025E+03 -0.49852513149E+03 -0.30441316713E+03  0.69780966463E+03  0.25500000920E-02 0.  1.
</event>
<event>
 5   0  0.3274900E-04  0.1609316E+04  0.7818609E-02  0.8814845E-01
        2   -1    0    0  501    0  0.00000000000E+00  0.00000000000E+00  0.72194324565E+03  0.72194324565E+03  0.25500000920E-02 0. -1.
       -2   -1    0    0    0  501  0.00000000000E+00  0.00000000000E+00 -0.89684946204E+03  0.89684946204E+03  0.25500000920E-02 0.  1.
    10030    2    1    2    0    0  0.00000000000E+00  0.00000000000E+00 -0.17490621639E+03  0.16187927077E+04  0.16093158938E+04 0.  0.
        3    1    3    3  502    0 -0.73754900808E+03  0.17774377534E+03 -0.35717952399E+03  0.83853957066E+03  0.10100000352E+00 0.  1.
       -3    1    3    3    0  502  0.73754900808E+03 -0.17774377534E+03  0.18227330760E+03  0.78025313704E+03  0.10100000352E+00 0. -1.
</event>
<event>
 5   0  0.3210612E-04  0.1592952E+04  0.7818609E-02  0.8824889E-01
       -2   -1    0    0    0  501  0.00000000000E+00  0.00000000000E+00  0.76949002018E+03  0.76949002019E+03  0.25500000920E-02 0.  1.
        2   -1    0    0  501    0  0.00000000000E+00  0.00000000000E+00 -0.82440879248E+03  0.82440879249E+03  0.25500000920E-02 0. -1.
    10030    2    1    2    0    0  0.00000000000E+00  0.00000000000E+00 -0.54918772298E+02  0.15938988127E+04  0.15929524015E+04 0.  0.
        2    1    3    3  502    0 -0.72705390468E+03  0.32498406719E+03 -0.15110492727E+02  0.79652391755E+03  0.25500000920E-02 0.  1.
       -2    1    3    3    0  502  0.72705390468E+03 -0.32498406719E+03 -0.39808279571E+02  0.79737489512E+03  0.25500000920E-02 0. -1.
</event>
<event>
 5   0  0.3274900E-04  0.1597417E+04  0.7818609E-02  0.8822136E-01
       -2   -1    0    0    0  501  0.00000000000E+00  0.00000000000E+00  0.72146494931E+03  0.72146494932E+03  0.25500000920E-02 0.  1.
        2   -1    0    0  501    0  0.00000000000E+00  0.00000000000E+00 -0.88422250077E+03  0.88422250077E+03  0.25500000920E-02 0. -1.
    10030    2    1    2    0    0  0.00000000000E+00  0.00000000000E+00 -0.16275755146E+03  0.16056874501E+04  0.15974173427E+04 0.  0.
        3    1    3    3  502    0 -0.34326450761E+02  0.23713909395E+03 -0.84724349340E+03  0.88047419179E+03  0.10100000352E+00 0. -1.
       -3    1    3    3    0  502  0.34326450761E+02 -0.23713909395E+03  0.68448594194E+03  0.72521325830E+03  0.10100000352E+00 0.  1.
</event>
<event>
 5   0  0.3380454E-04  0.1597498E+04  0.7818609E-02  0.8822087E-01
       -2   -1    0    0    0  501  0.00000000000E+00  0.00000000000E+00  0.61693085985E+03  0.61693085986E+03  0.25500000920E-02 0. -1.
        2   -1    0    0  501    0  0.00000000000E+00  0.00000000000E+00 -0.10341509234E+04  0.10341509235E+04  0.25500000920E-02 0.  1.
    10030    2    1    2    0    0  0.00000000000E+00  0.00000000000E+00 -0.41722006359E+03  0.16510817833E+04  0.15974975661E+04 0.  0.
        5    1    3    3  502    0  0.20505542479E+03  0.72307338892E+03 -0.48803888709E+03  0.89615115818E+03  0.46999998093E+01 0.  1.
       -5    1    3    3    0  502 -0.20505542479E+03 -0.72307338892E+03  0.70818823492E+02  0.75493062513E+03  0.46999998093E+01 0. -1.
</event>
<event>
 5   0  0.3263294E-04  0.1588105E+04  0.7818609E-02  0.8827889E-01
        2   -1    0    0  501    0  0.00000000000E+00  0.00000000000E+00  0.81960025127E+03  0.81960025128E+03  0.25500000920E-02 0.  1.
       -2   -1    0    0    0  501  0.00000000000E+00  0.00000000000E+00 -0.76930063093E+03  0.76930063094E+03  0.25500000920E-02 0. -1.
    10030    2    1    2    0    0  0.00000000000E+00  0.00000000000E+00  0.50299620342E+02  0.15889008822E+04  0.15881045185E+04 0.  0.
        4    1    3    3  502    0  0.71761513846E+02 -0.32878160147E+03  0.74472553748E+03  0.81722995259E+03  0.12699999809E+01 0.  1.
       -4    1    3    3    0  502 -0.71761513846E+02  0.32878160147E+03 -0.69442591714E+03  0.77167092962E+03  0.12699999809E+01 0. -1.
</event>
<event>
 5   0  0.3263294E-04  0.1586205E+04  0.7818609E-02  0.8829068E-01
        2   -1    0    0  501    0  0.00000000000E+00  0.00000000000E+00  0.16363939068E+04  0.16363939068E+04  0.25500000920E-02 0. -1.
       -2   -1    0    0    0  501  0.00000000000E+00  0.00000000000E+00 -0.38438867106E+03  0.38438867107E+03  0.25500000920E-02 0.  1.
    10030    2    1    2    0    0  0.00000000000E+00  0.00000000000E+00  0.12520052357E+04  0.20207825778E+04  0.15862046263E+04 0.  0.
        4    1    3    3  502    0 -0.28432544916E+03 -0.48111092784E+03  0.13429463637E+04  0.14545842137E+04  0.12699999809E+01 0. -1.
       -4    1    3    3    0  502  0.28432544916E+03  0.48111092784E+03 -0.90941128009E+02  0.56619836417E+03  0.12699999809E+01 0.  1.
</event>
<event>
 5   0  0.1819811E-04  0.1602455E+04  0.7818609E-02  0.8819041E-01
       -1   -1    0    0    0  501  0.00000000000E+00  0.00000000000E+00  0.70577049191E+03  0.70577049193E+03  0.50400001928E-02 0. -1.
        1   -1    0    0  501    0  0.00000000000E+00  0.00000000000E+00 -0.90959579001E+03  0.90959579003E+03  0.50400001928E-02 0.  1.
    10030    2    1    2    0    0  0.00000000000E+00  0.00000000000E+00 -0.20382529810E+03  0.16153662820E+04  0.16024554511E+04 0.  0.
        1    1    3    3  502    0  0.11816968047E+03  0.78999627449E+03 -0.16492774538E+03  0.81563432266E+03  0.50400001928E-02 0.  1.
       -1    1    3    3    0  502 -0.11816968047E+03 -0.78999627449E+03 -0.38897552727E+02  0.79973195929E+03  0.50400001928E-02 0. -1.
</event>
<event>
 5   0  0.3210612E-04  0.1601901E+04  0.7818609E-02  0.8819381E-01
        2   -1    0    0  501    0  0.00000000000E+00  0.00000000000E+00  0.86253447242E+03  0.86253447243E+03  0.25500000920E-02 0.  1.
       -2   -1    0    0    0  501  0.00000000000E+00  0.00000000000E+00 -0.74376370796E+03  0.74376370797E+03  0.25500000920E-02 0. -1.
    10030    2    1    2    0    0  0.00000000000E+00  0.00000000000E+00  0.11877076446E+03  0.16062981804E+04  0.16019011673E+04 0.  0.
        2    1    3    3  502    0  0.38588729064E+03 -0.55557894272E+03 -0.37067981146E+03  0.77134978142E+03  0.25500000920E-02 0. -1.
       -2    1    3    3    0  502 -0.38588729064E+03  0.55557894272E+03  0.48945057593E+03  0.83494839897E+03  0.25500000920E-02 0.  1.
</event>
<event>
 5   0  0.1764099E-04  0.1615860E+04  0.7818609E-02  0.8810864E-01
        1   -1    0    0  501    0  0.00000000000E+00  0.00000000000E+00  0.74720423969E+03  0.74720423971E+03  0.50400001928E-02 0. -1.
       -1   -1    0    0    0  501  0.00000000000E+00  0.00000000000E+00 -0.87359051799E+03  0.87359051801E+03  0.50400001928E-02 0.  1.
    10030    2    1    2    0    0  0.00000000000E+00  0.00000000000E+00 -0.12638627830E+03  0.16207947577E+04  0.16158595716E+04 0.  0.
        5    1    3    3  502    0  0.19466814856E+03 -0.13653796528E+03  0.71129862618E+03  0.75000408641E+03  0.46999998093E+01 0. -1.
       -5    1    3    3    0  502 -0.19466814856E+03  0.13653796528E+03 -0.83768490448E+03  0.87079067130E+03  0.46999998093E+01 0.  1.
</event>
<event>
 5   0  0.1787688E-04  0.1604614E+04  0.7818609E-02  0.8817719E-01
       -1   -1    0    0    0  501  0.00000000000E+00  0.00000000000E+00  0.13686131042E+04  0.13686131042E+04  0.50400001928E-02 0. -1.
        1   -1    0    0  501    0  0.00000000000E+00  0.00000000000E+00 -0.47032753049E+03  0.47032753051E+03  0.50400001928E-02 0.  1.
    10030    2    1    2    0    0  0.00000000000E+00  0.00000000000E+00  0.89828557371E+03  0.18389406347E+04  0.16046138745E+04 0.  0.
        4    1    3    3  502    0  0.58674213062E+03  0.14181736291E+03 -0.15654012256E+03  0.62360637836E+03  0.12699999809E+01 0.  1.
       -4    1    3    3    0  502 -0.58674213062E+03 -0.14181736291E+03  0.10548256963E+04  0.12153342564E+04  0.12699999809E+01 0. -1.
</event>
<event>
 5   0  0.1764099E-04  0.1591986E+04  0.7818609E-02  0.8825486E-01
       -1   -1    0    0    0  501  0.00000000000E+00  0.00000000000E+00  0.10080344636E+04  0.10080344636E+04  0.50400001928E-02 0. -1.
        1   -1    0    0  501    0  0.00000000000E+00  0.00000000000E+00 -0.62855513109E+03  0.62855513111E+03  0.50400001928E-02 0.  1.
    10030    2    1    2    0    0  0.00000000000E+00  0.00000000000E+00  0.37947933248E+03  0.16365895947E+04  0.15919864754E+04 0.  0.
        5    1    3    3  502    0  0.73742144553E+03 -0.15104468857E+03 -0.76312828902E+02  0.75660466832E+03  0.46999998093E+01 0.  1.
       -5    1    3    3    0  502 -0.73742144553E+03  0.15104468857E+03  0.45579216139E+03  0.87998492638E+03  0.46999998093E+01 0. -1.
</event>
<event>
 5   0  0.3228393E-04  0.1586400E+04  0.7818609E-02  0.8828947E-01
       -2   -1    0    0    0  501  0.00000000000E+00  0.00000000000E+00  0.75560554291E+03  0.75560554291E+03  0.25500000920E-02 0.  1.
        2   -1    0    0  501    0  0.00000000000E+00  0.00000000000E+00 -0.83266517695E+03  0.83266517696E+03  0.25500000920E-02 0. -1.
    10030    2    1    2    0    0  0.00000000000E+00  0.00000000000E+00 -0.77059634043E+02  0.15882707199E+04  0.15864002308E+04 0.  0.
        1    1    3    3  502    0 -0.90226232317E+01  0.22466393629E+03 -0.80009162696E+03  0.83108477520E+03  0.50400001928E-02 0. -1.
       -1    1    3    3    0  502  0.90226232317E+01 -0.22466393629E+03  0.72303199292E+03  0.75718594467E+03  0.50400001928E-02 0.  1.
</event>
<event>
 5   0  0.3274900E-04  0.1595574E+04  0.7818609E-02  0.8823272E-01
        2   -1    0    0  501    0  0.00000000000E+00  0.00000000000E+00  0.17285120827E+04  0.17285120827E+04  0.25500000920E-02 0. -1.
       -2   -1    0    0    0  501  0.00000000000E+00  0.00000000000E+00 -0.36821484141E+03  0.36821484142E+03  0.25500000920E-02 0.  1.
    10030    2    1    2    0    0  0.00000000000E+00  0.00000000000E+00  0.13602972413E+04  0.20967269241E+04  0.15955736303E+04 0.  0.
        3    1    3    3  502    0 -0.55450373027E+03  0.11538541650E+03  0.14184701569E+04  0.15273656332E+04  0.10100000352E+00 0. -1.
       -3    1    3    3    0  502  0.55450373027E+03 -0.11538541650E+03 -0.58172915677E+02  0.56936129087E+03  0.10100000352E+00 0.  1.
</event>
<event>
 5   0  0.3380454E-04  0.1595455E+04  0.7818609E-02  0.8823345E-01
       -2   -1    0    0    0  501  0.00000000000E+00  0.00000000000E+00  0.75811268562E+03  0.75811268563E+03  0.25500000920E-02 0.  1.
        2   -1    0    0  501    0  0.00000000000E+00  0.00000000000E+00 -0.83941233431E+03  0.83941233431E+03  0.25500000920E-02 0. -1.
    10030    2    1    2    0    0  0.00000000000E+00  0.00000000000E+00 -0.81299648682E+02  0.15975250199E+04  0.15954549685E+04 0.  0.
        5    1    3    3  502    0  0.75557885938E+02  0.61621023818E+03  0.46092225302E+03  0.77323700447E+03  0.46999998093E+01 0.  1.
       -5    1    3    3    0  502 -0.75557885938E+02 -0.61621023818E+03 -0.54222190170E+03  0.82428801547E+03  0.46999998093E+01 0. -1.
</event>
<event>
 5   0  0.1764099E-04  0.1599539E+04  0.7818609E-02  0.8820831E-01
        1   -1    0    0  501    0  0.00000000000E+00  0.00000000000E+00  0.13516723613E+04  0.13516723613E+04  0.50400001928E-02 0.  1.
       -1   -1    0    0    0  501  0.00000000000E+00  0.00000000000E+00 -0.47321475517E+03  0.47321475519E+03  0.50400001928E-02 0. -1.
    10030    2    1    2    0    0  0.00000000000E+00  0.00000000000E+00  0.87845760612E+03  0.18248871165E+04  0.15995390655E+04 0.  0.
        5    1    3    3  502    0  0.29568020727E+03 -0.33013170490E+02  0.12861703312E+04  0.13201412293E+04  0.46999998093E+01 0.  1.
       -5    1    3    3    0  502 -0.29568020727E+03  0.33013170490E+02 -0.40771272511E+03  0.50474588717E+03  0.46999998093E+01 0. -1.
</event>
<event>
 5   0  0.3274900E-04  0.1545680E+04  0.7818609E-02  0.8854632E-01
       -2   -1    0    0    0  501  0.00000000000E+00  0.00000000000E+00  0.65698101721E+03  0.65698101721E+03  0.25500000920E-02 0.  1.
        2   -1    0    0  501    0  0.00000000000E+00  0.00000000000E+00 -0.90913135839E+03  0.90913135839E+03  0.25500000920E-02 0. -1.
    10030    2    1    2    0    0  0.00000000000E+00  0.00000000000E+00 -0.25215034118E+03  0.15661123756E+04  0.15456804904E+04 0.  0.
        3    1    3    3  502    0 -0.60705944618E+03  0.26604556854E+01  0.35852921562E+03  0.70503294807E+03  0.10100000352E+00 0.  1.
       -3    1    3    3    0  502  0.60705944618E+03 -0.26604556854E+01 -0.61067955679E+03  0.86107942753E+03  0.10100000352E+00 0. -1.
</event>
<event>
 5   0  0.3263294E-04  0.1614312E+04  0.7818609E-02  0.8811803E-01
       -2   -1    0    0    0  501  0.00000000000E+00  0.00000000000E+00  0.71764103070E+03  0.71764103070E+03  0.25500000920E-02 0. -1.
        2   -1    0    0  501    0  0.00000000000E+00  0.00000000000E+00 -0.90783703118E+03  0.90783703119E+03  0.25500000920E-02 0.  1.
    10030    2    1    2    0    0  0.00000000000E+00  0.00000000000E+00 -0.19019600049E+03  0.16254780619E+04  0.16143123648E+04 0.  0.
        4    1    3    3  502    0 -0.77240010828E+03  0.21872871825E+03 -0.10521131500E+02  0.80284275332E+03  0.12699999809E+01 0.  1.
       -4    1    3    3    0  502  0.77240010828E+03 -0.21872871825E+03 -0.17967486899E+03  0.82263530857E+03  0.12699999809E+01 0. -1.
</event>
<event>
 5   0  0.3380454E-04  0.1601507E+04  0.7818609E-02  0.8819623E-01
       -2   -1    0    0    0  501  0.00000000000E+00  0.00000000000E+00  0.69245419998E+03  0.69245419998E+03  0.25500000920E-02 0. -1.
        2   -1    0    0  501    0  0.00000000000E+00  0.00000000000E+00 -0.92599085323E+03  0.92599085323E+03  0.25500000920E-02 0.  1.
    10030    2    1    2    0    0  0.00000000000E+00  0.00000000000E+00 -0.23353665325E+03  0.16184450532E+04  0.16015071095E+04 0.  0.
        5    1    3    3  502    0 -0.50813084684E+03  0.58347081742E+03  0.91687402004E+02  0.77914300484E+03  0.46999998093E+01 0. -1.
       -5    1    3    3    0  502  0.50813084684E+03 -0.58347081742E+03 -0.32522405525E+03  0.83930204838E+03  0.46999998093E+01 0.  1.
</event>
<event>
 5   0  0.1764099E-04  0.1590063E+04  0.7818609E-02  0.8826676E-01
       -1   -1    0    0    0  501  0.00000000000E+00  0.00000000000E+00  0.35803838104E+03  0.35803838108E+03  0.50400001928E-02 0.  1.
        1   -1    0    0  501    0  0.00000000000E+00  0.00000000000E+00 -0.17653838154E+04  0.17653838154E+04  0.50400001928E-02 0. -1.
    10030    2    1    2    0    0  0.00000000000E+00  0.00000000000E+00 -0.14073454344E+04  0.21234221965E+04  0.15900630972E+04 0.  0.
        5    1    3    3  502    0  0.29141299484E+03  0.27668309745E+03 -0.16197620069E+04  0.16688697130E+04  0.46999998093E+01 0. -1.
       -5    1    3    3    0  502 -0.29141299484E+03 -0.27668309745E+03  0.21241657253E+03  0.45455248350E+03  0.46999998093E+01 0.  1.
</event>
<event>
 5   0  0.3274900E-04  0.1607484E+04  0.7818609E-02  0.8815963E-01
        2   -1    0    0  501    0  0.00000000000E+00  0.00000000000E+00  0.16785322466E+04  0.16785322466E+04  0.25500000920E-02 0. -1.
       -2   -1    0    0    0  501  0.00000000000E+00  0.00000000000E+00 -0.38486093813E+03  0.38486093814E+03  0.25500000920E-02 0.  1.
    10030    2    1    2    0    0  0.00000000000E+00  0.00000000000E+00  0.12936713085E+04  0.20633931848E+04  0.16074843640E+04 0.  0.
        3    1    3    3  502    0 -0.45212178596E+03 -0.31869342643E+03 -0.10165893254E+03  0.56241813463E+03  0.10100000352E+00 0.  1.
       -3    1    3    3    0  502  0.45212178596E+03  0.31869342643E+03  0.13953302410E+04  0.15009750501E+04  0.10100000352E+00 0. -1.
</event>
<event>
 5   0  0.3228393E-04  0.1590763E+04  0.7818609E-02  0.8826243E-01
        2   -1    0    0  501    0  0.00000000000E+00  0.00000000000E+00  0.10522538250E+04  0.10522538250E+04  0.25500000920E-02 0.  1.
       -2   -1    0    0    0  501  0.00000000000E+00  0.00000000000E+00 -0.60121585000E+03  0.60121585001E+03  0.25500000920E-02 0. -1.
    10030    2    1    2    0    0  0.00000000000E+00  0.00000000000E+00  0.45103797498E+03  0.16534696750E+04  0.15907629337E+04 0.  0.
        1    1    3    3  502    0 -0.20419692231E+03 -0.29884617474E+03  0.96169371199E+03  0.10275505900E+04  0.50400001928E-02 0.  1.
       -1    1    3    3    0  502  0.20419692231E+03  0.29884617474E+03 -0.51065573701E+03  0.62591908503E+03  0.50400001928E-02 0. -1.
</event>
<event>
 5   0  0.3263294E-04  0.1586690E+04  0.7818609E-02  0.8828767E-01
       -2   -1    0    0    0  501  0.00000000000E+00  0.00000000000E+00  0.51061125089E+03  0.51061125089E+03  0.25500000920E-02 0.  1.
        2   -1    0    0  501    0  0.00000000000E+00  0.00000000000E+00 -0.12326326035E+04  0.12326326035E+04  0.25500000920E-02 0. -1.
    10030    2    1    2    0    0  0.00000000000E+00  0.00000000000E+00 -0.72202135261E+03  0.17432438544E+04  0.15866897309E+04 0.  0.
        4    1    3    3  502    0 -0.32467881953E+03  0.43684273677E+03 -0.99514869592E+03  0.11342708902E+04  0.12699999809E+01 0. -1.
       -4    1    3    3    0  502  0.32467881953E+03 -0.43684273677E+03  0.27312734332E+03  0.60897296416E+03  0.12699999809E+01 0.  1.
</event>
<event>
 5   0  0.3228393E-04  0.1585643E+04  0.7818609E-02  0.8829417E-01
        2   -1    0    0  501    0  0.00000000000E+00  0.00000000000E+00  0.16404255938E+04  0.16404255938E+04  0.25500000920E-02 0.  1.
       -2   -1    0    0    0  501  0.00000000000E+00  0.00000000000E+00 -0.38317229826E+03  0.38317229826E+03  0.25500000920E-02 0. -1.
    10030    2    1    2    0    0  0.00000000000E+00  0.00000000000E+00  0.12572532956E+04  0.20235978921E+04  0.15856426393E+04 0.  0.
        1    1    3    3  502    0  0.74262764318E+03 -0.52123436730E+02  0.28063559336E+03  0.79559349253E+03  0.50400001928E-02 0. -1.
       -1    1    3    3    0  502 -0.74262764318E+03  0.52123436730E+02  0.97661770222E+03  0.12280043996E+04  0.50400001928E-02 0.  1.
</event>
<event>
 5   0  0.3274900E-04  0.1611799E+04  0.7818609E-02  0.8813332E-01
       -2   -1    0    0    0  501  0.00000000000E+00  0.00000000000E+00  0.37068571441E+03  0.37068571442E+03  0.25500000920E-02 0. -1.
        2   -1    0    0  501    0  0.00000000000E+00  0.00000000000E+00 -0.17520869573E+04  0.17520869573E+04  0.25500000920E-02 0.  1.
    10030    2    1    2    0    0  0.00000000000E+00  0.00000000000E+00 -0.13814012429E+04  0.21227726717E+04  0.16117985054E+04 0.  0.
        3    1    3    3  502    0 -0.26881984008E+03  0.52676194089E+03  0.30338487860E+02  0.59216778268E+03  0.10100000352E+00 0. -1.
       -3    1    3    3    0  502  0.26881984008E+03 -0.52676194089E+03 -0.14117397307E+04  0.15306048890E+04  0.10100000352E+00 0.  1.
</event>
<event>
 5   0  0.3210612E-04  0.1607245E+04  0.7818609E-02  0.8816109E-01
        2   -1    0    0  501    0  0.00000000000E+00  0.00000000000E+00  0.13523625499E+04  0.13523625499E+04  0.25500000920E-02 0. -1.
       -2   -1    0    0    0  501  0.00000000000E+00  0.00000000000E+00 -0.47754155222E+03  0.47754155222E+03  0.25500000920E-02 0.  1.
    10030    2    1    2    0    0  0.00000000000E+00  0.00000000000E+00  0.87482099770E+03  0.18299041021E+04  0.16072452349E+04 0.  0.
        2    1    3    3  502    0 -0.50198670486E+03 -0.62719698774E+03  0.41345799671E+03  0.90350109482E+03  0.25500000920E-02 0.  1.
       -2    1    3    3    0  502  0.50198670486E+03  0.62719698774E+03  0.46136300099E+03  0.92640300732E+03  0.25500000920E-02 0. -1.
</event>
<event>
 5   0  0.3228393E-04  0.1602961E+04  0.7818609E-02  0.8818731E-01
        2   -1    0    0  501    0  0.00000000000E+00  0.00000000000E+00  0.14631775040E+04  0.14631775040E+04  0.25500000920E-02 0.  1.
       -2   -1    0    0    0  501  0.00000000000E+00  0.00000000000E+00 -0.43902457022E+03  0.43902457023E+03  0.25500000920E-02 0. -1.
    10030    2    1    2    0    0  0.00000000000E+00  0.00000000000E+00  0.10241529338E+04  0.19022020742E+04  0.16029608540E+04 0.  0.
        1    1    3    3  502    0  0.38314413779E+03  0.63520054638E+03  0.87219378227E+03  0.11449895887E+04  0.50400001928E-02 0.  1.
       -1    1    3    3    0  502 -0.38314413779E+03 -0.63520054638E+03  0.15195915151E+03  0.75721248550E+03  0.50400001928E-02 0. -1.
</event>
<event>
 5   0  0.3210612E-04  0.1600409E+04  0.7818609E-02  0.8820297E-01
       -2   -1    0    0    0  501  0.00000000000E+00  0.00000000000E+00  0.32460140208E+03  0.32460140209E+03  0.25500000920E-02 0.  1.
        2   -1    0    0  501    0  0.00000000000E+00  0.00000000000E+00 -0.19726558981E+04  0.19726558981E+04  0.25500000920E-02 0. -1.
    10030    2    1    2    0    0  0.00000000000E+00  0.00000000000E+00 -0.16480544960E+04  0.22972573002E+04  0.16004085358E+04 0.  0.
        2    1    3    3  502    0 -0.13144192495E+03  0.25972391965E+03 -0.18939620423E+04  0.19162008537E+04  0.25500000920E-02 0. -1.
       -2    1    3    3    0  502  0.13144192495E+03 -0.25972391965E+03  0.24590754629E+03  0.38105644648E+03  0.25500000920E-02 0.  1.
</event>
<event>
 5   0  0.1819811E-04  0.1606634E+04  0.7818609E-02  0.8816483E-01
       -1   -1    0    0    0  501  0.00000000000E+00  0.00000000000E+00  0.98376020242E+03  0.98376020243E+03  0.50400001928E-02 0. -1.
        1   -1    0    0  501    0  0.00000000000E+00  0.00000000000E+00 -0.65597112095E+03  0.65597112097E+03  0.50400001928E-02 0.  1.
    10030    2    1    2    0    0  0.00000000000E+00  0.00000000000E+00  0.32778908147E+03  0.16397313234E+04  0.16066340999E+04 0.  0.
        1    1    3    3  502    0 -0.35437592021E+03 -0.43416662000E+03  0.75128115188E+03  0.93728667756E+03  0.50400001928E-02 0. -1.
       -1    1    3    3    0  502  0.35437592021E+03  0.43416662000E+03 -0.42349207041E+03  0.70244464584E+03  0.50400001928E-02 0.  1.
</event>
<event>
 5   0  0.1761255E-04  0.1601551E+04  0.7818609E-02  0.8819595E-01
       -1   -1    0    0    0  501  0.00000000000E+00  0.00000000000E+00  0.73735693882E+03  0.73735693884E+03  0.50400001928E-02 0. -1.
        1   -1    0    0  501    0  0.00000000000E+00  0.00000000000E+00 -0.86964903167E+03  0.86964903169E+03  0.50400001928E-02 0.  1.
    10030    2    1    2    0    0  0.00000000000E+00  0.00000000000E+00 -0.13229209285E+03  0.16070059705E+04  0.16015514327E+04 0.  0.
        2    1    3    3  502    0  0.15805576979E+03  0.70045298049E+03 -0.42179040394E+03  0.83278037267E+03  0.25500000920E-02 0.  1.
       -2    1    3    3    0  502 -0.15805576979E+03 -0.70045298049E+03  0.28949831109E+03  0.77422559785E+03  0.25500000920E-02 0. -1.
</event>
<event>
 5   0  0.1787688E-04  0.1509293E+04  0.7818609E-02  0.8878297E-01
       -1   -1    0    0    0  501  0.00000000000E+00  0.00000000000E+00  0.71143119796E+03  0.71143119797E+03  0.50400001928E-02 0. -1.
        1   -1    0    0  501    0  0.00000000000E+00  0.00000000000E+00 -0.80048638591E+03  0.80048638593E+03  0.50400001928E-02 0.  1.
    10030    2    1    2    0    0  0.00000000000E+00  0.00000000000E+00 -0.89055187954E+02  0.15119175839E+04  0.15092925343E+04 0.  0.
        4    1    3    3  502    0 -0.24732837826E+03  0.90646502192E+02  0.66388075150E+03  0.71423202124E+03  0.12699999809E+01 0. -1.
       -4    1    3    3    0  502  0.24732837826E+03 -0.90646502192E+02 -0.75293593946E+03  0.79768556266E+03  0.12699999809E+01 0.  1.
</event>
<event>
 5   0  0.1764099E-04  0.1602256E+04  0.7818609E-02  0.8819163E-01
        1   -1    0    0  501    0  0.00000000000E+00  0.00000000000E+00  0.13863445875E+04  0.13863445875E+04  0.50400001928E-02 0.  1.
       -1   -1    0    0    0  501  0.00000000000E+00  0.00000000000E+00 -0.46294863405E+03  0.46294863408E+03  0.50400001928E-02 0. -1.
    10030    2    1    2    0    0  0.00000000000E+00  0.00000000000E+00  0.92339595341E+03  0.18492932216E+04  0.16022563255E+04 0.  0.
        5    1    3    3  502    0  0.27785492857E+03 -0.44577887319E+03  0.11598218369E+04  0.12732364071E+04  0.46999998093E+01 0.  1.
       -5    1    3    3    0  502 -0.27785492857E+03  0.44577887319E+03 -0.23642588345E+03  0.57605681445E+03  0.46999998093E+01 0. -1.
</event>
<event>
 5   0  0.3274900E-04  0.1590622E+04  0.7818609E-02  0.8826330E-01
        2   -1    0    0  501    0  0.00000000000E+00  0.00000000000E+00  0.13734133312E+04  0.13734133312E+04  0.25500000920E-02 0.  1.
       -2   -1    0    0    0  501  0.00000000000E+00  0.00000000000E+00 -0.46054547179E+03  0.46054547180E+03  0.25500000920E-02 0. -1.
    10030    2    1    2    0    0  0.00000000000E+00  0.00000000000E+00  0.91286785944E+03  0.18339588030E+04  0.15906216277E+04 0.  0.
        3    1    3    3  502    0 -0.37489713862E+03 -0.11269950156E+03 -0.34176827483E+03  0.51966778434E+03  0.10100000352E+00 0. -1.
       -3    1    3    3    0  502  0.37489713862E+03  0.11269950156E+03  0.12546361343E+04  0.13142910187E+04  0.10100000352E+00 0.  1.
</event>
<event>
 5   0  0.3274900E-04  0.1614766E+04  0.7818609E-02  0.8811528E-01
       -2   -1    0    0    0  501  0.00000000000E+00  0.00000000000E+00  0.16784560722E+04  0.16784560722E+04  0.25500000920E-02 0.  1.
        2   -1    0    0  501    0  0.00000000000E+00  0.00000000000E+00 -0.38837317554E+03  0.38837317555E+03  0.25500000920E-02 0. -1.
    10030    2    1    2    0    0  0.00000000000E+00  0.00000000000E+00  0.12900828967E+04  0.20668292477E+04  0.16147660075E+04 0.  0.
        3    1    3    3  502    0 -0.54119585146E+03 -0.31547260288E+03 -0.69216312345E+01  0.62646933842E+03  0.10100000352E+00 0. -1.
       -3    1    3    3    0  502  0.54119585146E+03  0.31547260288E+03  0.12970045279E+04  0.14403599093E+04  0.10100000352E+00 0.  1.
</event>
<event>
 5   0  0.1736537E-04  0.1616022E+04  0.7818609E-02  0.8810765E-01
        1   -1    0    0  501    0  0.00000000000E+00  0.00000000000E+00  0.76956148447E+03  0.76956148449E+03  0.50400001928E-02 0.  1.
       -1   -1    0    0    0  501  0.00000000000E+00  0.00000000000E+00 -0.84838144336E+03  0.84838144337E+03  0.50400001928E-02 0. -1.
    10030    2    1    2    0    0  0.00000000000E+00  0.00000000000E+00 -0.78819958884E+02  0.16179429279E+04  0.16160218847E+04 0.  0.
        3    1    3    3  502    0 -0.31767524131E+03 -0.28739388503E+03  0.64650944350E+03  0.77555610682E+03  0.10100000352E+00 0.  1.
       -3    1    3    3    0  502  0.31767524131E+03  0.28739388503E+03 -0.72532940238E+03  0.84238682104E+03  0.10100000352E+00 0. -1.
</event>
<event>
 5   0  0.1787688E-04  0.1603212E+04  0.7818609E-02  0.8818577E-01
       -1   -1    0    0    0  501  0.00000000000E+00  0.00000000000E+00  0.66136989632E+03  0.66136989633E+03  0.50400001928E-02 0. -1.
        1   -1    0    0  501    0  0.00000000000E+00  0.00000000000E+00 -0.97157796078E+03  0.97157796079E+03  0.50400001928E-02 0.  1.
    10030    2    1    2    0    0  0.00000000000E+00  0.00000000000E+00 -0.31020806446E+03  0.16329478571E+04  0.16032122944E+04 0.  0.
        4    1    3    3  502    0 -0.66190515512E+03  0.11354609789E+03 -0.60089709078E+03  0.90116040599E+03  0.12699999809E+01 0.  1.
       -4    1    3    3    0  502  0.66190515512E+03 -0.11354609789E+03  0.29068902631E+03  0.73178745114E+03  0.12699999809E+01 0. -1.
</event>
<event>
 5   0  0.1764099E-04  0.1657356E+04  0.7818609E-02  0.8786067E-01
        1   -1    0    0  501    0  0.00000000000E+00  0.00000000000E+00  0.98166432757E+03  0.98166432759E+03  0.50400001928E-02 0.  1.
       -1   -1    0    0    0  501  0.00000000000E+00  0.00000000000E+00 -0.69953333570E+03  0.69953333572E+03  0.50400001928E-02 0. -1.
    10030    2    1    2    0    0  0.00000000000E+00  0.00000000000E+00  0.28213099187E+03  0.16811976633E+04  0.16573556307E+04 0.  0.
        5    1    3    3  502    0  0.50477089179E+03 -0.61735064616E+03  0.36962743188E+03  0.87895506251E+03  0.46999998093E+01 0.  1.
       -5    1    3    3    0  502 -0.50477089179E+03  0.61735064616E+03 -0.87496440012E+02  0.80224260080E+03  0.46999998093E+01 0. -1.
</event>
<event>
 5   0  0.3263294E-04  0.1604192E+04  0.7818609E-02  0.8817977E-01
        2   -1    0    0  501    0  0.00000000000E+00  0.00000000000E+00  0.12190953022E+04  0.12190953022E+04  0.25500000920E-02 0. -1.
       -2   -1    0    0    0  501  0.00000000000E+00  0.00000000000E+00 -0.52773425276E+03  0.52773425277E+03  0.25500000920E-02 0.  1.
    10030    2    1    2    0    0  0.00000000000E+00  0.00000000000E+00  0.69136104944E+03  0.17468295550E+04  0.16041924428E+04 0.  0.
        4    1    3    3  502    0  0.69237138103E+03  0.40182468563E+03  0.29106593681E+03  0.85179938936E+03  0.12699999809E+01 0.  1.
       -4    1    3    3    0  502 -0.69237138103E+03 -0.40182468563E+03  0.40029511263E+03  0.89503016561E+03  0.12699999809E+01 0. -1.
</event>
<event>
 5   0  0.3263294E-04  0.1553027E+04  0.7818609E-02  0.8849936E-01
       -2   -1    0    0    0  501  0.00000000000E+00  0.00000000000E+00  0.45306048230E+03  0.45306048230E+03  0.25500000920E-02 0.  1.
        2   -1    0    0  501    0  0.00000000000E+00  0.00000000000E+00 -0.13308896385E+04  0.13308896385E+04  0.25500000920E-02 0. -1.
    10030    2    1    2    0    0  0.00000000000E+00  0.00000000000E+00 -0.87782915622E+03  0.17839501208E+04  0.15530273681E+04 0.  0.
        4    1    3    3  502    0  0.68811018078E+03  0.32760804166E+03 -0.26795910841E+03  0.80785292383E+03  0.12699999809E+01 0.  1.
       -4    1    3    3    0  502 -0.68811018078E+03 -0.32760804166E+03 -0.60987004781E+03  0.97609719699E+03  0.12699999809E+01 0. -1.
</event>
<event>
 5   0  0.3274900E-04  0.1595484E+04  0.7818609E-02  0.8823327E-01
        2   -1    0    0  501    0  0.00000000000E+00  0.00000000000E+00  0.10570106589E+04  0.10570106589E+04  0.25500000920E-02 0. -1.
       -2   -1    0    0    0  501  0.00000000000E+00  0.00000000000E+00 -0.60206782316E+03  0.60206782317E+03  0.25500000920E-02 0.  1.
    10030    2    1    2    0    0  0.00000000000E+00  0.00000000000E+00  0.45494283570E+03  0.16590784820E+04  0.15954837592E+04 0.  0.
        3    1    3    3  502    0 -0.51024083441E+02 -0.60351274380E+03 -0.31241584065E+03  0.68149450233E+03  0.10100000352E+00 0.  1.
       -3    1    3    3    0  502  0.51024083441E+02  0.60351274380E+03  0.76735867634E+03  0.97758397971E+03  0.10100000352E+00 0. -1.
</event>
<event>
 5   0  0.1819811E-04  0.1615244E+04  0.7818609E-02  0.8811238E-01
       -1   -1    0    0    0  501  0.00000000000E+00  0.00000000000E+00  0.70049929326E+03  0.70049929328E+03  0.50400001928E-02 0. -1.
        1   -1    0    0  501    0  0.00000000000E+00  0.00000000000E+00 -0.93112583729E+03  0.93112583730E+03  0.50400001928E-02 0.  1.
    10030    2    1    2    0    0  0.00000000000E+00  0.00000000000E+00 -0.23062654403E+03  0.16316251306E+04  0.16152436237E+04 0.  0.
        1    1    3    3  502    0 -0.72847953902E+02  0.64125764480E+03  0.37513611913E+03  0.74648864647E+03  0.50400001928E-02 0. -1.
       -1    1    3    3    0  502  0.72847953902E+02 -0.64125764480E+03 -0.60576266316E+03  0.88513648411E+03  0.50400001928E-02 0.  1.
</event>
<event>
 5   0  0.3263294E-04  0.1602691E+04  0.7818609E-02  0.8818897E-01
       -2   -1    0    0    0  501  0.00000000000E+00  0.00000000000E+00  0.51933880976E+03  0.51933880977E+03  0.25500000920E-02 0. -1.
        2   -1    0    0  501    0  0.00000000000E+00  0.00000000000E+00 -0.12364847413E+04  0.12364847413E+04  0.25500000920E-02 0.  1.
    10030    2    1    2    0    0  0.00000000000E+00  0.00000000000E+00 -0.71714593154E+03  0.17558235511E+04  0.16026908796E+04 0.  0.
        4    1    3    3  502    0 -0.55874694531E+03  0.12041186867E+03 -0.97389195421E+03  0.11292317381E+04  0.12699999809E+01 0.  1.
       -4    1    3    3    0  502  0.55874694531E+03 -0.12041186867E+03  0.25674602267E+03  0.62659181296E+03  0.12699999809E+01 0. -1.
</event>
<event>
 5   0  0.1787688E-04  0.1586912E+04  0.7818609E-02  0.8828629E-01
       -1   -1    0    0    0  501  0.00000000000E+00  0.00000000000E+00  0.41586173901E+03  0.41586173904E+03  0.50400001928E-02 0. -1.
        1   -1    0    0  501    0  0.00000000000E+00  0.00000000000E+00 -0.15138974990E+04  0.15138974990E+04  0.50400001928E-02 0.  1.
    10030    2    1    2    0    0  0.00000000000E+00  0.00000000000E+00 -0.10980357600E+04  0.19297592381E+04  0.15869115245E+04 0.  0.
        4    1    3    3  502    0  0.51240208490E+02  0.50422160098E+03 -0.12914098870E+04  0.13873017303E+04  0.12699999809E+01 0.  1.
       -4    1    3    3    0  502 -0.51240208490E+02 -0.50422160098E+03  0.19337412695E+03  0.54245750777E+03  0.12699999809E+01 0. -1.
</event>
<event>
 5   0  0.3228393E-04  0.1436775E+04  0.7818609E-02  0.8927621E-01
       -2   -1    0    0    0  501  0.00000000000E+00  0.00000000000E+00  0.24687731940E+03  0.24687731941E+03  0.25500000920E-02 0.  1.
        2   -1    0    0  501    0  0.00000000000E+00  0.00000000000E+00 -0.20904338028E+04  0.20904338028E+04  0.25500000920E-02 0. -1.
    10030    2    1    2    0    0  0.00000000000E+00  0.00000000000E+00 -0.18435564834E+04  0.23373111222E+04  0.14367751301E+04 0.  0.
        1    1    3    3  502    0 -0.64991626494E+03  0.22326201423E+03 -0.12624066791E+04  0.14373265815E+04  0.50400001928E-02 0. -1.
       -1    1    3    3    0  502  0.64991626494E+03 -0.22326201423E+03 -0.58114980428E+03  0.89998454069E+03  0.50400001928E-02 0.  1.
</event>
<event>
 5   0  0.3380454E-04  0.1599020E+04  0.7818609E-02  0.8821150E-01
        2   -1    0    0  501    0  0.00000000000E+00  0.00000000000E+00  0.50935032021E+03  0.50935032022E+03  0.25500000920E-02 0.  1.
       -2   -1    0    0    0  501  0.00000000000E+00  0.00000000000E+00 -0.12549641629E+04  0.12549641629E+04  0.25500000920E-02 0. -1.
    10030    2    1    2    0    0  0.00000000000E+00  0.00000000000E+00 -0.74561384268E+03  0.17643144831E+04  0.15990201978E+04 0.  0.
        5    1    3    3  502    0 -0.30240290421E+03  0.33533131843E+03 -0.11007815322E+04  0.11898053123E+04  0.46999998093E+01 0. -1.
       -5    1    3    3    0  502  0.30240290421E+03 -0.33533131843E+03  0.35516768955E+03  0.57450917077E+03  0.46999998093E+01 0.  1.
</event>
<event>
 5   0  0.1819811E-04  0.1597105E+04  0.7818609E-02  0.8822329E-01
        1   -1    0    0  501    0  0.00000000000E+00  0.00000000000E+00  0.42624253980E+03  0.42624253983E+03  0.50400001928E-02 0. -1.
       -1   -1    0    0    0  501  0.00000000000E+00  0.00000000000E+00 -0.14960631699E+04  0.14960631699E+04  0.50400001928E-02 0.  1.
    10030    2    1    2    0    0  0.00000000000E+00  0.00000000000E+00 -0.10698206301E+04  0.19223057097E+04  0.15971045868E+04 0.  0.
        1    1    3    3  502    0 -0.57335500062E+03  0.30180668838E+03  0.26887921528E+02  0.64849533093E+03  0.50400001928E-02 0. -1.
       -1    1    3    3    0  502  0.57335500062E+03 -0.30180668838E+03 -0.10967085516E+04  0.12738103788E+04  0.50400001928E-02 0.  1.
</event>
<event>
 5   0  0.1819811E-04  0.1595201E+04  0.7818609E-02  0.8823502E-01
       -1   -1    0    0    0  501  0.00000000000E+00  0.00000000000E+00  0.85619918236E+03  0.85619918237E+03  0.50400001928E-02 0.  1.
        1   -1    0    0  501    0  0.00000000000E+00  0.00000000000E+00 -0.74301241948E+03  0.74301241950E+03  0.50400001928E-02 0. -1.
    10030    2    1    2    0    0  0.00000000000E+00  0.00000000000E+00  0.11318676287E+03  0.15992116019E+04  0.15952010858E+04 0.  0.
        1    1    3    3  502    0  0.36567440071E+03 -0.14455108884E+03 -0.63909206969E+03  0.75036754873E+03  0.50400001928E-02 0. -1.
       -1    1    3    3    0  502 -0.36567440071E+03  0.14455108884E+03  0.75227883256E+03  0.84884405315E+03  0.50400001928E-02 0.  1.
</event>
<event>
 5   0  0.1787688E-04  0.1749740E+04  0.7818609E-02  0.8733494E-01
        1   -1    0    0  501    0  0.00000000000E+00  0.00000000000E+00  0.72425870899E+03  0.72425870900E+03  0.50400001928E-02 0.  1.
       -1   -1    0    0    0  501  0.00000000000E+00  0.00000000000E+00 -0.10568009242E+04  0.10568009242E+04  0.50400001928E-02 0. -1.
    10030    2    1    2    0    0  0.00000000000E+00  0.00000000000E+00 -0.33254221524E+03  0.17810596332E+04  0.17497397213E+04 0.  0.
        4    1    3    3  502    0 -0.18825529151E+03  0.58443455446E+03  0.46809514003E+03  0.77208709110E+03  0.12699999809E+01 0.  1.
       -4    1    3    3    0  502  0.18825529151E+03 -0.58443455446E+03 -0.80063735527E+03  0.10089725421E+04  0.12699999809E+01 0. -1.
</event>
<event>
 5   0  0.3263294E-04  0.1602038E+04  0.7818609E-02  0.8819297E-01
       -2   -1    0    0    0  501  0.00000000000E+00  0.00000000000E+00  0.89037904355E+03  0.89037904356E+03  0.25500000920E-02 0.  1.
        2   -1    0    0  501    0  0.00000000000E+00  0.00000000000E+00 -0.72062693837E+03  0.72062693838E+03  0.25500000920E-02 0. -1.
    10030    2    1    2    0    0  0.00000000000E+00  0.00000000000E+00  0.16975210518E+03  0.16110059819E+04  0.16020376077E+04 0.  0.
        4    1    3    3  502    0 -0.76659013493E+03 -0.22544314757E+03  0.14126548527E+03  0.81144475966E+03  0.12699999809E+01 0. -1.
       -4    1    3    3    0  502  0.76659013493E+03  0.22544314757E+03  0.28486619911E+02  0.79956122227E+03  0.12699999809E+01 0.  1.
</event>
<event>
 5   0  0.1819811E-04  0.1617921E+04  0.7818609E-02  0.8809613E-01
       -1   -1    0    0    0  501  0.00000000000E+00  0.00000000000E+00  0.76857238798E+03  0.76857238799E+03  0.50400001928E-02 0. -1.
        1   -1    0    0  501    0  0.00000000000E+00  0.00000000000E+00 -0.85147099608E+03  0.85147099610E+03  0.50400001928E-02 0.  1.
    10030    2    1    2    0    0  0.00000000000E+00  0.00000000000E+00 -0.82898608107E+02  0.16200433841E+04  0.16179210077E+04 0.  0.
        1    1    3    3  502    0 -0.20948898707E+03  0.52450106212E+03 -0.62137231909E+03  0.83969670645E+03  0.50400001928E-02 0.  1.
       -1    1    3    3    0  502  0.20948898707E+03 -0.52450106212E+03  0.53847371098E+03  0.78034667764E+03  0.50400001928E-02 0. -1.
</event>
<event>
 5   0  0.3228393E-04  0.1595420E+04  0.7818609E-02  0.8823367E-01
       -2   -1    0    0    0  501  0.00000000000E+00  0.00000000000E+00  0.49688437916E+03  0.49688437916E+03  0.25500000920E-02 0. -1.
        2   -1    0    0  501    0  0.00000000000E+00  0.00000000000E+00 -0.12806624959E+04  0.12806624959E+04  0.25500000920E-02 0.  1.
    10030    2    1    2    0    0  0.00000000000E+00  0.00000000000E+00 -0.78377811670E+03  0.17775468750E+04  0.15954199311E+04 0.  0.
        1    1    3    3  502    0  0.20783144677E+03  0.18354982113E+03 -0.12252426372E+04  0.12562260813E+04  0.50400001928E-02 0.  1.
       -1    1    3    3    0  502 -0.20783144677E+03 -0.18354982113E+03  0.44146452053E+03  0.52132079377E+03  0.50400001928E-02 0. -1.
</event>
<event>
 5   0  0.1219463E-04  0.1593616E+04  0.7818609E-02  0.8824479E-01
       -3   -1    0    0    0  501  0.00000000000E+00  0.00000000000E+00  0.10125337946E+04  0.10125337996E+04  0.10100000352E+00 0.  1.
        3   -1    0    0  501    0  0.00000000000E+00  0.00000000000E+00 -0.62704403894E+03  0.62704404708E+03  0.10100000352E+00 0. -1.
    10030    2    1    2    0    0  0.00000000000E+00  0.00000000000E+00  0.38548975562E+03  0.16395778467E+04  0.15936163791E+04 0.  0.
        3    1    3    3  502    0  0.31985973253E+03  0.40111746262E+03 -0.43450886302E+03  0.67231200313E+03  0.10100000352E+00 0. -1.
       -3    1    3    3    0  502 -0.31985973253E+03 -0.40111746262E+03  0.81999861864E+03  0.96726584355E+03  0.10100000352E+00 0.  1.
</event>
<event>
 5   0  0.1764099E-04  0.1521996E+04  0.7818609E-02  0.8869956E-01
       -1   -1    0    0    0  501  0.00000000000E+00  0.00000000000E+00  0.39360232639E+03  0.39360232642E+03  0.50400001928E-02 0.  1.
        1   -1    0    0  501    0  0.00000000000E+00  0.00000000000E+00 -0.14713277880E+04  0.14713277880E+04  0.50400001928E-02 0. -1.
    10030    2    1    2    0    0  0.00000000000E+00  0.00000000000E+00 -0.10777254616E+04  0.18649301144E+04  0.15219961107E+04 0.  0.
        5    1    3    3  502    0  0.66446791237E+03 -0.33994517306E+03 -0.72067136704E+03  0.10375305473E+04  0.46999998093E+01 0. -1.
       -5    1    3    3    0  502 -0.66446791237E+03  0.33994517306E+03 -0.35705409454E+03  0.82739956713E+03  0.46999998093E+01 0.  1.
</event>
<event>
 5   0  0.3274900E-04  0.1532532E+04  0.7818609E-02  0.8863103E-01
        2   -1    0    0  501    0  0.00000000000E+00  0.00000000000E+00  0.14582757217E+04  0.14582757217E+04  0.25500000920E-02 0.  1.
       -2   -1    0    0    0  501  0.00000000000E+00  0.00000000000E+00 -0.40264243844E+03  0.40264243845E+03  0.25500000920E-02 0. -1.
    10030    2    1    2    0    0  0.00000000000E+00  0.00000000000E+00  0.10556332833E+04  0.18609181601E+04  0.15325321432E+04 0.  0.
        3    1    3    3  502    0 -0.54339612735E+03  0.54004524060E+03  0.50918355794E+03  0.91988918843E+03  0.10100000352E+00 0. -1.
       -3    1    3    3    0  502  0.54339612735E+03 -0.54004524060E+03  0.54644972532E+03  0.94102897172E+03  0.10100000352E+00 0.  1.
</event>
<event>
 5   0  0.1819811E-04  0.1606423E+04  0.7818609E-02  0.8816612E-01
        1   -1    0    0  501    0  0.00000000000E+00  0.00000000000E+00  0.82267611127E+03  0.82267611128E+03  0.50400001928E-02 0.  1.
       -1   -1    0    0    0  501  0.00000000000E+00  0.00000000000E+00 -0.78420768127E+03  0.78420768129E+03  0.50400001928E-02 0. -1.
    10030    2    1    2    0    0  0.00000000000E+00  0.00000000000E+00  0.38468429992E+02  0.16068837926E+04  0.16064232639E+04 0.  0.
        1    1    3    3  502    0  0.21812105730E+03 -0.51102980403E+03 -0.56094988244E+03  0.78955242186E+03  0.50400001928E-02 0. -1.
       -1    1    3    3    0  502 -0.21812105730E+03  0.51102980403E+03  0.59941831243E+03  0.81733137071E+03  0.50400001928E-02 0.  1.
</event>
<event>
 5   0  0.1764099E-04  0.1595812E+04  0.7818609E-02  0.8823125E-01
        1   -1    0    0  501    0  0.00000000000E+00  0.00000000000E+00  0.23300349792E+04  0.23300349792E+04  0.50400001928E-02 0.  1.
       -1   -1    0    0    0  501  0.00000000000E+00  0.00000000000E+00 -0.27323802548E+03  0.27323802552E+03  0.50400001928E-02 0. -1.
    10030    2    1    2    0    0  0.00000000000E+00  0.00000000000E+00  0.20567969537E+04  0.26032730047E+04  0.15958122159E+04 0.  0.
        5    1    3    3  502    0 -0.71546263606E+03  0.33410827778E+03  0.12152317542E+04  0.14492499547E+04  0.46999998093E+01 0.  1.
       -5    1    3    3    0  502  0.71546263606E+03 -0.33410827778E+03  0.84156519954E+03  0.11540230500E+04  0.46999998093E+01 0. -1.
</event>
<event>
 5   0  0.3380454E-04  0.1528921E+04  0.7818609E-02  0.8865445E-01
       -2   -1    0    0    0  501  0.00000000000E+00  0.00000000000E+00  0.83880422717E+03  0.83880422717E+03  0.25500000920E-02 0. -1.
        2   -1    0    0  501    0  0.00000000000E+00  0.00000000000E+00 -0.69670600114E+03  0.69670600115E+03  0.25500000920E-02 0.  1.
    10030    2    1    2    0    0  0.00000000000E+00  0.00000000000E+00  0.14209822603E+03  0.15355102283E+04  0.15289211083E+04 0.  0.
        5    1    3    3  502    0 -0.53470543039E+03  0.42221709024E+03  0.41924296609E+03  0.79997745168E+03  0.46999998093E+01 0. -1.
       -5    1    3    3    0  502  0.53470543039E+03 -0.42221709024E+03 -0.27714474006E+03  0.73553277664E+03  0.46999998093E+01 0.  1.
</event>
<event>
 5   0  0.1819811E-04  0.1600574E+04  0.7818609E-02  0.8820195E-01
        1   -1    0    0  501    0  0.00000000000E+00  0.00000000000E+00  0.76351577356E+03  0.76351577357E+03  0.50400001928E-02 0.  1.
       -1   -1    0    0    0  501  0.00000000000E+00  0.00000000000E+00 -0.83882949566E+03  0.83882949567E+03  0.50400001928E-02 0. -1.
    10030    2    1    2    0    0  0.00000000000E+00  0.00000000000E+00 -0.75313722102E+02  0.16023452692E+04  0.16005743360E+04 0.  0.
        1    1    3    3  502    0  0.23757216320E+03  0.75636368787E+03 -0.14701595297E+03  0.80631275044E+03  0.50400001928E-02 0. -1.
       -1    1    3    3    0  502 -0.23757216320E+03 -0.75636368787E+03  0.71702230869E+02  0.79603251881E+03  0.50400001928E-02 0.  1.
</event>
<event>
 5   0  0.1764099E-04  0.1598264E+04  0.7818609E-02  0.8821616E-01
        1   -1    0    0  501    0  0.00000000000E+00  0.00000000000E+00  0.77732463361E+03  0.77732463363E+03  0.50400001928E-02 0.  1.
       -1   -1    0    0    0  501  0.00000000000E+00  0.00000000000E+00 -0.82155066116E+03  0.82155066118E+03  0.50400001928E-02 0. -1.
    10030    2    1    2    0    0  0.00000000000E+00  0.00000000000E+00 -0.44226027551E+02  0.15988752948E+04  0.15982635161E+04 0.  0.
        5    1    3    3  502    0  0.66285871372E+03 -0.36327699439E+03 -0.28151446250E+03  0.80661287593E+03  0.46999998093E+01 0. -1.
       -5    1    3    3    0  502 -0.66285871372E+03  0.36327699439E+03  0.23728843495E+03  0.79226241888E+03  0.46999998093E+01 0.  1.
</event>
<event>
 5   0  0.1736537E-04  0.1624840E+04  0.7818609E-02  0.8805431E-01
        1   -1    0    0  501    0  0.00000000000E+00  0.00000000000E+00  0.92315246921E+03  0.92315246922E+03  0.50400001928E-02 0.  1.
       -1   -1    0    0    0  501  0.00000000000E+00  0.00000000000E+00 -0.71497024982E+03  0.71497024984E+03  0.50400001928E-02 0. -1.
    10030    2    1    2    0    0  0.00000000000E+00  0.00000000000E+00  0.20818221939E+03  0.16381227191E+04  0.16248403633E+04 0.  0.
        3    1    3    3  502    0 -0.34743204747E+03  0.50873985469E+03 -0.42986204114E+03  0.75120346909E+03  0.10100000352E+00 0. -1.
       -3    1    3    3    0  502  0.34743204747E+03 -0.50873985469E+03  0.63804426053E+03  0.88691924997E+03  0.10100000352E+00 0.  1.
</event>
<event>
 5   0  0.3263294E-04  0.1634850E+04  0.7818609E-02  0.8799420E-01
        2   -1    0    0  501    0  0.00000000000E+00  0.00000000000E+00  0.90049354090E+03  0.90049354090E+03  0.25500000920E-02 0. -1.
       -2   -1    0    0    0  501  0.00000000000E+00  0.00000000000E+00 -0.74201952139E+03  0.74201952139E+03  0.25500000920E-02 0.  1.
    10030    2    1    2    0    0  0.00000000000E+00  0.00000000000E+00  0.15847401951E+03  0.16425130623E+04  0.16348501904E+04 0.  0.
        4    1    3    3  502    0  0.26348644932E+03  0.58468395215E+03  0.58846749283E+03  0.87038843966E+03  0.12699999809E+01 0. -1.
       -4    1    3    3    0  502 -0.26348644932E+03 -0.58468395215E+03 -0.42999347332E+03  0.77212462263E+03  0.12699999809E+01 0.  1.
</event>
<event>
 5   0  0.1761255E-04  0.1595579E+04  0.7818609E-02  0.8823269E-01
        1   -1    0    0  501    0  0.00000000000E+00  0.00000000000E+00  0.18466320466E+04  0.18466320466E+04  0.50400001928E-02 0.  1.
       -1   -1    0    0    0  501  0.00000000000E+00  0.00000000000E+00 -0.34466417058E+03  0.34466417062E+03  0.50400001928E-02 0. -1.
    10030    2    1    2    0    0  0.00000000000E+00  0.00000000000E+00  0.15019678760E+04  0.21912962172E+04  0.15955787699E+04 0.  0.
        2    1    3    3  502    0  0.54305795988E+03 -0.30600386364E+03  0.14347956123E+04  0.15643493093E+04  0.25500000920E-02 0.  1.
       -2    1    3    3    0  502 -0.54305795988E+03  0.30600386364E+03  0.67172263700E+02  0.62694690794E+03  0.25500000920E-02 0. -1.
</event>
<event>
 5   0  0.1219463E-04  0.1595292E+04  0.7818609E-02  0.8823445E-01
       -3   -1    0    0    0  501  0.00000000000E+00  0.00000000000E+00  0.12109293423E+04  0.12109293465E+04  0.10100000352E+00 0. -1.
        3   -1    0    0  501    0  0.00000000000E+00  0.00000000000E+00 -0.52541399664E+03  0.52541400635E+03  0.10100000352E+00 0.  1.
    10030    2    1    2    0    0  0.00000000000E+00  0.00000000000E+00  0.68551534569E+03  0.17363433529E+04  0.15952921206E+04 0.  0.
        1    1    3    3  502    0 -0.31562971472E+03  0.63473129269E+03  0.74078709882E+03  0.10253152962E+04  0.50400001928E-02 0. -1.
       -1    1    3    3    0  502  0.31562971472E+03 -0.63473129269E+03 -0.55271753134E+02  0.71102805673E+03  0.50400001928E-02 0.  1.
</event>
<event>
 5   0  0.3228393E-04  0.1606755E+04  0.7818609E-02  0.8816409E-01
        2   -1    0    0  501    0  0.00000000000E+00  0.00000000000E+00  0.70923940614E+03  0.70923940615E+03  0.25500000920E-02 0. -1.
       -2   -1    0    0    0  501  0.00000000000E+00  0.00000000000E+00 -0.91001057725E+03  0.91001057726E+03  0.25500000920E-02 0.  1.
    10030    2    1    2    0    0  0.00000000000E+00  0.00000000000E+00 -0.20077117111E+03  0.16192499834E+04  0.16067549426E+04 0.  0.
        1    1    3    3  502    0  0.69185533265E+03  0.64512186284E+02  0.30597429331E+03  0.75924033855E+03  0.50400001928E-02 0.  1.
       -1    1    3    3    0  502 -0.69185533265E+03 -0.64512186284E+02 -0.50674546442E+03  0.86000964485E+03  0.50400001928E-02 0. -1.
</event>
<event>
 5   0  0.3263294E-04  0.1598496E+04  0.7818609E-02  0.8821473E-01
       -2   -1    0    0    0  501  0.00000000000E+00  0.00000000000E+00  0.73658243031E+03  0.73658243032E+03  0.25500000920E-02 0.  1.
        2   -1    0    0  501    0  0.00000000000E+00  0.00000000000E+00 -0.86724481201E+03  0.86724481202E+03  0.25500000920E-02 0. -1.
    10030    2    1    2    0    0  0.00000000000E+00  0.00000000000E+00 -0.13066238170E+03  0.16038272423E+04  0.15984959072E+04 0.  0.
        4    1    3    3  502    0 -0.35561692479E+03  0.59128723446E+03  0.33938952275E+03  0.76894138391E+03  0.12699999809E+01 0.  1.
       -4    1    3    3    0  502  0.35561692479E+03 -0.59128723446E+03 -0.47005190444E+03  0.83488585843E+03  0.12699999809E+01 0. -1.
</event>
<event>
 5   0  0.3263294E-04  0.1622228E+04  0.7818609E-02  0.8807008E-01
        2   -1    0    0  501    0  0.00000000000E+00  0.00000000000E+00  0.12000016032E+04  0.12000016032E+04  0.25500000920E-02 0. -1.
       -2   -1    0    0    0  501  0.00000000000E+00  0.00000000000E+00 -0.54825428500E+03  0.54825428501E+03  0.25500000920E-02 0.  1.
    10030    2    1    2    0    0  0.00000000000E+00  0.00000000000E+00  0.65174731823E+03  0.17482558882E+04  0.16222281233E+04 0.  0.
        4    1    3    3  502    0 -0.59092701917E+03 -0.20557792788E+03  0.88216051950E+03  0.10815108975E+04  0.12699999809E+01 0. -1.
       -4    1    3    3    0  502  0.59092701917E+03  0.20557792788E+03 -0.23041320127E+03  0.66674499071E+03  0.12699999809E+01 0.  1.
</event>
<event>
 5   0  0.3210612E-04  0.1595450E+04  0.7818609E-02  0.8823348E-01
       -2   -1    0    0    0  501  0.00000000000E+00  0.00000000000E+00  0.45660767662E+03  0.45660767663E+03  0.25500000920E-02 0.  1.
        2   -1    0    0  501    0  0.00000000000E+00  0.00000000000E+00 -0.13936803546E+04  0.13936803546E+04  0.25500000920E-02 0. -1.
    10030    2    1    2    0    0  0.00000000000E+00  0.00000000000E+00 -0.93707267794E+03  0.18502880312E+04  0.15954499662E+04 0.  0.
        2    1    3    3  502    0  0.27264262332E+03  0.72302701004E+03 -0.69833547716E+03  0.10415250818E+04  0.25500000920E-02 0. -1.
       -2    1    3    3    0  502 -0.27264262332E+03 -0.72302701004E+03 -0.23873720078E+03  0.80876294941E+03  0.25500000920E-02 0.  1.
</event>
<event>
 5   0  0.3274900E-04  0.1612175E+04  0.7818609E-02  0.8813103E-01
        2   -1    0    0  501    0  0.00000000000E+00  0.00000000000E+00  0.24640814416E+04  0.24640814416E+04  0.25500000920E-02 0. -1.
       -2   -1    0    0    0  501  0.00000000000E+00  0.00000000000E+00 -0.26369948700E+03  0.26369948701E+03  0.25500000920E-02 0.  1.
    10030    2    1    2    0    0  0.00000000000E+00  0.00000000000E+00  0.22003819546E+04  0.27277809286E+04  0.16121749435E+04 0.  0.
        3    1    3    3  502    0  0.36478616464E+03 -0.55560460370E+03  0.32850416515E+03  0.74140435546E+03  0.10100000352E+00 0.  1.
       -3    1    3    3    0  502 -0.36478616464E+03  0.55560460370E+03  0.18718777895E+04  0.19863765732E+04  0.10100000352E+00 0. -1.
</event>
<event>
 5   0  0.1736537E-04  0.1609031E+04  0.7818609E-02  0.8815019E-01
       -1   -1    0    0    0  501  0.00000000000E+00  0.00000000000E+00  0.10469570892E+04  0.10469570892E+04  0.50400001928E-02 0. -1.
        1   -1    0    0  501    0  0.00000000000E+00  0.00000000000E+00 -0.61821575708E+03  0.61821575710E+03  0.50400001928E-02 0.  1.
    10030    2    1    2    0    0  0.00000000000E+00  0.00000000000E+00  0.42874133214E+03  0.16651728463E+04  0.16090312235E+04 0.  0.
        3    1    3    3  502    0  0.32539208141E+03  0.51082132687E+03 -0.33365980106E+03  0.69148196482E+03  0.10100000352E+00 0.  1.
       -3    1    3    3    0  502 -0.32539208141E+03 -0.51082132687E+03  0.76240113320E+03  0.97369088151E+03  0.10100000352E+00 0. -1.
</event>
<event>
 5   0  0.1787688E-04  0.1560170E+04  0.7818609E-02  0.8845398E-01
       -1   -1    0    0    0  501  0.00000000000E+00  0.00000000000E+00  0.67297958653E+03  0.67297958655E+03  0.50400001928E-02 0.  1.
        1   -1    0    0  501    0  0.00000000000E+00  0.00000000000E+00 -0.90423608948E+03  0.90423608949E+03  0.50400001928E-02 0. -1.
    10030    2    1    2    0    0  0.00000000000E+00  0.00000000000E+00 -0.23125650295E+03  0.15772156760E+04  0.15601697724E+04 0.  0.
        4    1    3    3  502    0 -0.42216461084E+03 -0.63353442595E+03 -0.28761041747E+03  0.81382442373E+03  0.12699999809E+01 0. -1.
       -4    1    3    3    0  502  0.42216461084E+03  0.63353442595E+03  0.56353914528E+02  0.76339125231E+03  0.12699999809E+01 0.  1.
</event>
<event>
 5   0  0.3274900E-04  0.1601372E+04  0.7818609E-02  0.8819706E-01
       -2   -1    0    0    0  501  0.00000000000E+00  0.00000000000E+00  0.57722115690E+03  0.57722115691E+03  0.25500000920E-02 0.  1.
        2   -1    0    0  501    0  0.00000000000E+00  0.00000000000E+00 -0.11106627216E+04  0.11106627216E+04  0.25500000920E-02 0. -1.
    10030    2    1    2    0    0  0.00000000000E+00  0.00000000000E+00 -0.53344156474E+03  0.16878838786E+04  0.16013719382E+04 0.  0.
        3    1    3    3  502    0 -0.43949840155E+03 -0.22053974163E+03 -0.93276147134E+03  0.10544385213E+04  0.10100000352E+00 0. -1.
       -3    1    3    3    0  502  0.43949840155E+03  0.22053974163E+03  0.39931990660E+03  0.63344535724E+03  0.10100000352E+00 0.  1.
</event>
<event>
 5   0  0.3210612E-04  0.1600801E+04  0.7818609E-02  0.8820056E-01
       -2   -1    0    0    0  501  0.00000000000E+00  0.00000000000E+00  0.38324454040E+03  0.38324454041E+03  0.25500000920E-02 0. -1.
        2   -1    0    0  501    0  0.00000000000E+00  0.00000000000E+00 -0.16716237926E+04  0.16716237926E+04  0.25500000920E-02 0.  1.
    10030    2    1    2    0    0  0.00000000000E+00  0.00000000000E+00 -0.12883792522E+04  0.20548683330E+04  0.16008006648E+04 0.  0.
        2    1    3    3  502    0  0.31730097568E+03  0.17086280061E+03  0.27320887285E+03  0.45223566203E+03  0.25500000920E-02 0. -1.
       -2    1    3    3    0  502 -0.31730097568E+03 -0.17086280061E+03 -0.15615881251E+04  0.16026326710E+04  0.25500000920E-02 0.  1.
</event>
<event>
 5   0  0.1819811E-04  0.1606954E+04  0.7818609E-02  0.8816287E-01
        1   -1    0    0  501    0  0.00000000000E+00  0.00000000000E+00  0.27384091647E+04  0.27384091647E+04  0.50400001928E-02 0.  1.
       -1   -1    0    0    0  501  0.00000000000E+00  0.00000000000E+00 -0.23574838097E+03  0.23574838103E+03  0.50400001928E-02 0. -1.
    10030    2    1    2    0    0  0.00000000000E+00  0.00000000000E+00  0.25026607838E+04  0.29741575458E+04  0.16069542957E+04 0.  0.
        1    1    3    3  502    0 -0.14272966421E+03  0.34528540626E+03  0.25678516468E+04  0.25948903346E+04  0.50400001928E-02 0.  1.
       -1    1    3    3    0  502  0.14272966421E+03 -0.34528540626E+03 -0.65190862997E+02  0.37926721117E+03  0.50400001928E-02 0. -1.
</event>
<event>
 5   0  0.3228393E-04  0.1600891E+04  0.7818609E-02  0.8820001E-01
       -2   -1    0    0    0  501  0.00000000000E+00  0.00000000000E+00  0.98906733996E+03  0.98906733996E+03  0.25500000920E-02 0.  1.
        2   -1    0    0  501    0  0.00000000000E+00  0.00000000000E+00 -0.64779481777E+03  0.64779481778E+03  0.25500000920E-02 0. -1.
    10030    2    1    2    0    0  0.00000000000E+00  0.00000000000E+00  0.34127252219E+03  0.16368621577E+04  0.16008906237E+04 0.  0.
        1    1    3    3  502    0  0.61597036030E+03  0.45289184437E+03 -0.71717508221E+02  0.76790227794E+03  0.50400001928E-02 0. -1.
       -1    1    3    3    0  502 -0.61597036030E+03 -0.45289184437E+03  0.41299003041E+03  0.86895987980E+03  0.50400001928E-02 0.  1.
</event>
<event>
 5   0  0.1761255E-04  0.1602268E+04  0.7818609E-02  0.8819156E-01
       -1   -1    0    0    0  501  0.00000000000E+00  0.00000000000E+00  0.81926940043E+03  0.81926940045E+03  0.50400001928E-02 0.  1.
        1   -1    0    0  501    0  0.00000000000E+00  0.00000000000E+00 -0.78340000209E+03  0.78340000210E+03  0.50400001928E-02 0. -1.
    10030    2    1    2    0    0  0.00000000000E+00  0.00000000000E+00  0.35869398344E+02  0.16026694026E+04  0.16022679552E+04 0.  0.
        2    1    3    3  502    0 -0.27228444336E+03 -0.67206673618E+02  0.76856265578E+03  0.81813453107E+03  0.25500000920E-02 0.  1.
       -2    1    3    3    0  502  0.27228444336E+03  0.67206673618E+02 -0.73269325743E+03  0.78453487148E+03  0.25500000920E-02 0. -1.
</event>
<event>
 5   0  0.3380454E-04  0.1623091E+04  0.7818609E-02  0.8806487E-01
       -2   -1    0    0    0  501  0.00000000000E+00  0.00000000000E+00  0.59535365892E+03  0.59535365892E+03  0.25500000920E-02 0. -1.
        2   -1    0    0  501    0  0.00000000000E+00  0.00000000000E+00 -0.11062434616E+04  0.11062434616E+04  0.25500000920E-02 0.  1.
    10030    2    1    2    0    0  0.00000000000E+00  0.00000000000E+00 -0.51088980264E+03  0.17015971205E+04  0.16230909925E+04 0.  0.
        5    1    3    3  502    0 -0.45918628585E+03  0.66890296002E+03 -0.27362698887E+03  0.85625757461E+03  0.46999998093E+01 0. -1.
       -5    1    3    3    0  502  0.45918628585E+03 -0.66890296002E+03 -0.23726281378E+03  0.84533954588E+03  0.46999998093E+01 0.  1.
</event>
<event>
 5   0  0.1761255E-04  0.1669100E+04  0.7818609E-02  0.8779187E-01
       -1   -1    0    0    0  501  0.00000000000E+00  0.00000000000E+00  0.16648726639E+04  0.16648726639E+04  0.50400001928E-02 0. -1.
        1   -1    0    0  501    0  0.00000000000E+00  0.00000000000E+00 -0.41833450051E+03  0.41833450054E+03  0.50400001928E-02 0.  1.
    10030    2    1    2    0    0  0.00000000000E+00  0.00000000000E+00  0.12465381634E+04  0.20832071644E+04  0.16690999662E+04 0.  0.
        2    1    3    3  502    0 -0.29465766979E+03 -0.60091351088E+03  0.12455121108E+04  0.14139379789E+04  0.25500000920E-02 0. -1.
       -2    1    3    3    0  502  0.29465766979E+03  0.60091351088E+03  0.10260525464E+01  0.66926918554E+03  0.25500000920E-02 0.  1.
</event>
<event>
 5   0  0.1736537E-04  0.1590457E+04  0.7818609E-02  0.8826432E-01
       -1   -1    0    0    0  501  0.00000000000E+00  0.00000000000E+00  0.33118654042E+03  0.33118654046E+03  0.50400001928E-02 0. -1.
        1   -1    0    0  501    0  0.00000000000E+00  0.00000000000E+00 -0.19094625177E+04  0.19094625177E+04  0.50400001928E-02 0.  1.
    10030    2    1    2    0    0  0.00000000000E+00  0.00000000000E+00 -0.15782759773E+04  0.22406490581E+04  0.15904568971E+04 0.  0.
        3    1    3    3  502    0 -0.17123068473E+03 -0.77530428538E+03 -0.72658320150E+03  0.10762619761E+04  0.10100000352E+00 0. -1.
       -3    1    3    3    0  502  0.17123068473E+03  0.77530428538E+03 -0.85169277576E+03  0.11643870820E+04  0.10100000352E+00 0.  1.
</event>
<event>
 5   0  0.1764099E-04  0.1582881E+04  0.7818609E-02  0.8831135E-01
        1   -1    0    0  501    0  0.00000000000E+00  0.00000000000E+00  0.81060127447E+03  0.81060127448E+03  0.50400001928E-02 0. -1.
       -1   -1    0    0    0  501  0.00000000000E+00  0.00000000000E+00 -0.77273224798E+03  0.77273224800E+03  0.50400001928E-02 0.  1.
    10030    2    1    2    0    0  0.00000000000E+00  0.00000000000E+00  0.37869026486E+02  0.15833335225E+04  0.15828805957E+04 0.  0.
        5    1    3    3  502    0  0.41644919135E+03  0.33947567870E+03  0.60020490343E+03  0.80556916619E+03  0.46999998093E+01 0. -1.
       -5    1    3    3    0  502 -0.41644919135E+03 -0.33947567870E+03 -0.56233587695E+03  0.77776435629E+03  0.46999998093E+01 0.  1.
</event>
<event>
 5   0  0.3228393E-04  0.1599414E+04  0.7818609E-02  0.8820908E-01
       -2   -1    0    0    0  501  0.00000000000E+00  0.00000000000E+00  0.61723652991E+03  0.61723652991E+03  0.25500000920E-02 0. -1.
        2   -1    0    0  501    0  0.00000000000E+00  0.00000000000E+00 -0.10361199649E+04  0.10361199649E+04  0.25500000920E-02 0.  1.
    10030    2    1    2    0    0  0.00000000000E+00  0.00000000000E+00 -0.41888343501E+03  0.16533564948E+04  0.15994137573E+04 0.  0.
        1    1    3    3  502    0 -0.17880699710E+03 -0.76945344325E+03 -0.33814191307E+03  0.85928487531E+03  0.50400001928E-02 0.  1.
       -1    1    3    3    0  502  0.17880699710E+03  0.76945344325E+03 -0.80741521944E+02  0.79407161952E+03  0.50400001928E-02 0. -1.
</event>
<event>
 5   0  0.1736537E-04  0.1602811E+04  0.7818609E-02  0.8818823E-01
       -1   -1    0    0    0  501  0.00000000000E+00  0.00000000000E+00  0.59208144483E+03  0.59208144485E+03  0.50400001928E-02 0. -1.
        1   -1    0    0  501    0  0.00000000000E+00  0.00000000000E+00 -0.10847334803E+04  0.10847334803E+04  0.50400001928E-02 0.  1.
    10030    2    1    2    0    0  0.00000000000E+00  0.00000000000E+00 -0.49265203544E+03  0.16768149251E+04  0.16028107390E+04 0.  0.
        3    1    3    3  502    0 -0.34776292603E+03 -0.40020525604E+03 -0.87502831502E+03  0.10231216262E+04  0.10100000352E+00 0.  1.
       -3    1    3    3    0  502  0.34776292603E+03  0.40020525604E+03  0.38237627959E+03  0.65369329893E+03  0.10100000352E+00 0. -1.
</event>
<event>
 5   0  0.3210612E-04  0.1608659E+04  0.7818609E-02  0.8815246E-01
       -2   -1    0    0    0  501  0.00000000000E+00  0.00000000000E+00  0.46621270887E+03  0.46621270887E+03  0.25500000920E-02 0. -1.
        2   -1    0    0  501    0  0.00000000000E+00  0.00000000000E+00 -0.13876631100E+04  0.13876631100E+04  0.25500000920E-02 0.  1.
    10030    2    1    2    0    0  0.00000000000E+00  0.00000000000E+00 -0.92145040117E+03  0.18538758189E+04  0.16086592896E+04 0.  0.
        2    1    3    3  502    0  0.51485518910E+02 -0.78723945350E+03 -0.28015854446E+03  0.83718906219E+03  0.25500000920E-02 0. -1.
       -2    1    3    3    0  502 -0.51485518910E+02  0.78723945350E+03 -0.64129185671E+03  0.10166867567E+04  0.25500000920E-02 0.  1.
</event>
<event>
 5   0  0.1787688E-04  0.1600300E+04  0.7818609E-02  0.8820364E-01
        1   -1    0    0  501    0  0.00000000000E+00  0.00000000000E+00  0.11664488360E+04  0.11664488361E+04  0.50400001928E-02 0.  1.
       -1   -1    0    0    0  501  0.00000000000E+00  0.00000000000E+00 -0.54887966776E+03  0.54887966778E+03  0.50400001928E-02 0. -1.
    10030    2    1    2    0    0  0.00000000000E+00  0.00000000000E+00  0.61756916828E+03  0.17153285038E+04  0.16003000339E+04 0.  0.
        4    1    3    3  502    0  0.58544655020E+02 -0.54249214587E+03  0.93609798727E+03  0.10835156942E+04  0.12699999809E+01 0.  1.
       -4    1    3    3    0  502 -0.58544655020E+02  0.54249214587E+03 -0.31852881899E+03  0.63181280961E+03  0.12699999809E+01 0. -1.
</event>
<event>
 5   0  0.1764099E-04  0.1581500E+04  0.7818609E-02  0.8831995E-01
        1   -1    0    0  501    0  0.00000000000E+00  0.00000000000E+00  0.57953195130E+03  0.57953195132E+03  0.50400001928E-02 0.  1.
       -1   -1    0    0    0  501  0.00000000000E+00  0.00000000000E+00 -0.10789486818E+04  0.10789486818E+04  0.50400001928E-02 0. -1.
    10030    2    1    2    0    0  0.00000000000E+00  0.00000000000E+00 -0.49941673050E+03  0.16584806331E+04  0.15814995858E+04 0.  0.
        5    1    3    3  502    0 -0.10075698775E+03  0.71476421977E+03 -0.58825905242E+03  0.93118777011E+03  0.46999998093E+01 0. -1.
       -5    1    3    3    0  502  0.10075698775E+03 -0.71476421977E+03  0.88842321915E+02  0.72729286303E+03  0.46999998093E+01 0.  1.
</event>
<event>
 5   0  0.3380454E-04  0.1593458E+04  0.7818609E-02  0.8824577E-01
       -2   -1    0    0    0  501  0.00000000000E+00  0.00000000000E+00  0.84850995504E+03  0.84850995505E+03  0.25500000920E-02 0. -1.
        2   -1    0    0  501    0  0.00000000000E+00  0.00000000000E+00 -0.74810813938E+03  0.74810813938E+03  0.25500000920E-02 0.  1.
    10030    2    1    2    0    0  0.00000000000E+00  0.00000000000E+00  0.10040181566E+03  0.15966180944E+04  0.15934581309E+04 0.  0.
        5    1    3    3  502    0  0.42440708708E+03 -0.91020910252E+02 -0.61921748411E+03  0.75621330608E+03  0.46999998093E+01 0.  1.
       -5    1    3    3    0  502 -0.42440708708E+03  0.91020910252E+02  0.71961929978E+03  0.84040478835E+03  0.46999998093E+01 0. -1.
</event>
<event>
 5   0  0.1764099E-04  0.1605190E+04  0.7818609E-02  0.8817366E-01
        1   -1    0    0  501    0  0.00000000000E+00  0.00000000000E+00  0.10019549051E+04  0.10019549051E+04  0.50400001928E-02 0.  1.
       -1   -1    0    0    0  501  0.00000000000E+00  0.00000000000E+00 -0.64290200964E+03  0.64290200966E+03  0.50400001928E-02 0. -1.
    10030    2    1    2    0    0  0.00000000000E+00  0.00000000000E+00  0.35905289544E+03  0.16448569148E+04  0.16051901097E+04 0.  0.
        5    1    3    3  502    0  0.29037349319E+03  0.73529734551E+03  0.37694442471E+02  0.79146820078E+03  0.46999998093E+01 0. -1.
       -5    1    3    3    0  502 -0.29037349319E+03 -0.73529734551E+03  0.32135845297E+03  0.85338871398E+03  0.46999998093E+01 0.  1.
</event>
<event>
 5   0  0.1761255E-04  0.1607123E+04  0.7818609E-02  0.8816184E-01
       -1   -1    0    0    0  501  0.00000000000E+00  0.00000000000E+00  0.73171345068E+03  0.73171345070E+03  0.50400001928E-02 0.  1.
        1   -1    0    0  501    0  0.00000000000E+00  0.00000000000E+00 -0.88246487490E+03  0.88246487492E+03  0.50400001928E-02 0. -1.
    10030    2    1    2    0    0  0.00000000000E+00  0.00000000000E+00 -0.15075142422E+03  0.16141783256E+04  0.16071234162E+04 0.  0.
        2    1    3    3  502    0  0.28116278022E+03 -0.56303252984E+03 -0.57722223661E+03  0.85395763893E+03  0.25500000920E-02 0. -1.
       -2    1    3    3    0  502 -0.28116278022E+03  0.56303252984E+03  0.42647081239E+03  0.76022068669E+03  0.25500000920E-02 0.  1.
</event>
<event>
 5   0  0.3228393E-04  0.1591534E+04  0.7818609E-02  0.8825766E-01
        2   -1    0    0  501    0  0.00000000000E+00  0.00000000000E+00  0.98375162844E+03  0.98375162845E+03  0.25500000920E-02 0.  1.
       -2   -1    0    0    0  501  0.00000000000E+00  0.00000000000E+00 -0.64370426308E+03  0.64370426309E+03  0.25500000920E-02 0. -1.
    10030    2    1    2    0    0  0.00000000000E+00  0.00000000000E+00  0.34004736536E+03  0.16274558915E+04  0.15915339984E+04 0.  0.
        1    1    3    3  502    0  0.59400932612E+03 -0.31988443410E+03  0.60153392435E+03  0.90388948045E+03  0.50400001928E-02 0.  1.
       -1    1    3    3    0  502 -0.59400932612E+03  0.31988443410E+03 -0.26148655899E+03  0.72356641109E+03  0.50400001928E-02 0. -1.
</event>
<event>
 5   0  0.1787688E-04  0.1606692E+04  0.7818609E-02  0.8816447E-01
       -1   -1    0    0    0  501  0.00000000000E+00  0.00000000000E+00  0.47027653501E+03  0.47027653503E+03  0.50400001928E-02 0.  1.
        1   -1    0    0  501    0  0.00000000000E+00  0.00000000000E+00 -0.13723095129E+04  0.13723095130E+04  0.50400001928E-02 0. -1.
    10030    2    1    2    0    0  0.00000000000E+00  0.00000000000E+00 -0.90203297794E+03  0.18425860480E+04  0.16066922079E+04 0.  0.
        4    1    3    3  502    0  0.66200756634E+03  0.43697133563E+03 -0.30520622349E+03  0.84991200592E+03  0.12699999809E+01 0. -1.
       -4    1    3    3    0  502 -0.66200756634E+03 -0.43697133563E+03 -0.59682675446E+03  0.99267404207E+03  0.12699999809E+01 0.  1.
</event>
<event>
 5   0  0.3228393E-04  0.1597163E+04  0.7818609E-02  0.8822293E-01
        2   -1    0    0  501    0  0.00000000000E+00  0.00000000000E+00  0.48414948670E+03  0.48414948671E+03  0.25500000920E-02 0.  1.
       -2   -1    0    0    0  501  0.00000000000E+00  0.00000000000E+00 -0.13172222459E+04  0.13172222459E+04  0.25500000920E-02 0. -1.
    10030    2    1    2    0    0  0.00000000000E+00  0.00000000000E+00 -0.83307275917E+03  0.18013717326E+04  0.15971630777E+04 0.  0.
        1    1    3    3  502    0 -0.33008232551E+03  0.63472706970E+03 -0.81672652862E+03  0.10857601103E+04  0.50400001928E-02 0. -1.
       -1    1    3    3    0  502  0.33008232551E+03 -0.63472706970E+03 -0.16346230556E+02  0.71561162225E+03  0.50400001928E-02 0.  1.
</event>
<event>
 5   0  0.3228393E-04  0.1608368E+04  0.7818609E-02  0.8815424E-01
       -2   -1    0    0    0  501  0.00000000000E+00  0.00000000000E+00  0.82306224276E+03  0.82306224276E+03  0.25500000920E-02 0.  1.
        2   -1    0    0  501    0  0.00000000000E+00  0.00000000000E+00 -0.78573892544E+03  0.78573892545E+03  0.25500000920E-02 0. -1.
    10030    2    1    2    0    0  0.00000000000E+00  0.00000000000E+00  0.37323317314E+02  0.16088011682E+04  0.16083681695E+04 0.  0.
        1    1    3    3  502    0 -0.35240671225E+03 -0.21469588950E+03  0.70908456144E+03  0.82041802218E+03  0.50400001928E-02 0.  1.
       -1    1    3    3    0  502  0.35240671225E+03  0.21469588950E+03 -0.67176124413E+03  0.78838314603E+03  0.50400001928E-02 0. -1.
</event>
<event>
 5   0  0.1787688E-04  0.1586858E+04  0.7818609E-02  0.8828662E-01
        1   -1    0    0  501    0  0.00000000000E+00  0.00000000000E+00  0.11244077557E+04  0.11244077557E+04  0.50400001928E-02 0.  1.
       -1   -1    0    0    0  501  0.00000000000E+00  0.00000000000E+00 -0.55987674123E+03  0.55987674126E+03  0.50400001928E-02 0. -1.
    10030    2    1    2    0    0  0.00000000000E+00  0.00000000000E+00  0.56453101443E+03  0.16842844969E+04  0.15868582168E+04 0.  0.
        4    1    3    3  502    0  0.41650365304E+03  0.46283339792E+03 -0.23969744431E+03  0.66719301925E+03  0.12699999809E+01 0. -1.
       -4    1    3    3    0  502 -0.41650365304E+03 -0.46283339792E+03  0.80422845875E+03  0.10170914777E+04  0.12699999809E+01 0.  1.
</event>
<event>
 5   0  0.1736537E-04  0.1613290E+04  0.7818609E-02  0.8812425E-01
        1   -1    0    0  501    0  0.00000000000E+00  0.00000000000E+00  0.10876274787E+04  0.10876274787E+04  0.50400001928E-02 0.  1.
       -1   -1    0    0    0  501  0.00000000000E+00  0.00000000000E+00 -0.59825257728E+03  0.59825257730E+03  0.50400001928E-02 0. -1.
    10030    2    1    2    0    0  0.00000000000E+00  0.00000000000E+00  0.48937490138E+03  0.16858800560E+04  0.16132897350E+04 0.  0.
        3    1    3    3  502    0 -0.11612051287E+03 -0.55421469285E+03  0.84502609115E+03  0.10172054877E+04  0.10100000352E+00 0.  1.
       -3    1    3    3    0  502  0.11612051287E+03  0.55421469285E+03 -0.35565118977E+03  0.66867456828E+03  0.10100000352E+00 0. -1.
</event>
<event>
 5   0  0.3263294E-04  0.1598345E+04  0.7818609E-02  0.8821565E-01
        2   -1    0    0  501    0  0.00000000000E+00  0.00000000000E+00  0.14227645675E+04  0.14227645675E+04  0.25500000920E-02 0.  1.
       -2   -1    0    0    0  501  0.00000000000E+00  0.00000000000E+00 -0.44889840351E+03  0.44889840352E+03  0.25500000920E-02 0. -1.
    10030    2    1    2    0    0  0.00000000000E+00  0.00000000000E+00  0.97386616399E+03  0.18716629710E+04  0.15983450728E+04 0.  0.
        4    1    3    3  502    0  0.17529113802E+03 -0.39426364515E+03  0.12746469094E+04  0.13456957908E+04  0.12699999809E+01 0.  1.
       -4    1    3    3    0  502 -0.17529113802E+03  0.39426364515E+03 -0.30078074538E+03  0.52596718020E+03  0.12699999809E+01 0. -1.
</event>
<event>
 5   0  0.1787688E-04  0.1600905E+04  0.7818609E-02  0.8819992E-01
       -1   -1    0    0    0  501  0.00000000000E+00  0.00000000000E+00  0.10273182778E+04  0.10273182778E+04  0.50400001928E-02 0. -1.
        1   -1    0    0  501    0  0.00000000000E+00  0.00000000000E+00 -0.62368607138E+03  0.62368607140E+03  0.50400001928E-02 0.  1.
    10030    2    1    2    0    0  0.00000000000E+00  0.00000000000E+00  0.40363220638E+03  0.16510043492E+04  0.16009048701E+04 0.  0.
        4    1    3    3  502    0  0.70910171412E+02  0.35631847034E+03 -0.53375888990E+03  0.64567117804E+03  0.12699999809E+01 0.  1.
       -4    1    3    3    0  502 -0.70910171412E+02 -0.35631847034E+03  0.93739109627E+03  0.10053331711E+04  0.12699999809E+01 0. -1.
</event>
<event>
 5   0  0.1819811E-04  0.1608934E+04  0.7818609E-02  0.8815078E-01
        1   -1    0    0  501    0  0.00000000000E+00  0.00000000000E+00  0.12667229515E+04  0.12667229515E+04  0.50400001928E-02 0. -1.
       -1   -1    0    0    0  501  0.00000000000E+00  0.00000000000E+00 -0.51089872726E+03  0.51089872728E+03  0.50400001928E-02 0.  1.
    10030    2    1    2    0    0  0.00000000000E+00  0.00000000000E+00  0.75582422424E+03  0.17776216788E+04  0.16089339871E+04 0.  0.
        1    1    3    3  502    0 -0.74100239556E+03 -0.27681543537E+03  0.53974752181E+03  0.95762138803E+03  0.50400001928E-02 0. -1.
       -1    1    3    3    0  502  0.74100239556E+03  0.27681543537E+03  0.21607670243E+03  0.82000029076E+03  0.50400001928E-02 0.  1.
</event>
<event>
 5   0  0.1764099E-04  0.1590179E+04  0.7818609E-02  0.8826605E-01
        1   -1    0    0  501    0  0.00000000000E+00  0.00000000000E+00  0.50328482416E+03  0.50328482419E+03  0.50400001928E-02 0.  1.
       -1   -1    0    0    0  501  0.00000000000E+00  0.00000000000E+00 -0.12560819070E+04  0.12560819070E+04  0.50400001928E-02 0. -1.
    10030    2    1    2    0    0  0.00000000000E+00  0.00000000000E+00 -0.75279708282E+03  0.17593667312E+04  0.15901785582E+04 0.  0.
        5    1    3    3  502    0  0.41720607147E+02  0.51544920243E+03  0.29177322096E+03  0.59378631831E+03  0.46999998093E+01 0. -1.
       -5    1    3    3    0  502 -0.41720607147E+02 -0.51544920243E+03 -0.10445703038E+04  0.11655804129E+04  0.46999998093E+01 0.  1.
</event>
<event>
 5   0  0.3263294E-04  0.1540098E+04  0.7818609E-02  0.8858218E-01
       -2   -1    0    0    0  501  0.00000000000E+00  0.00000000000E+00  0.23299672695E+03  0.23299672696E+03  0.25500000920E-02 0. -1.
        2   -1    0    0  501    0  0.00000000000E+00  0.00000000000E+00 -0.25449936831E+04  0.25449936831E+04  0.25500000920E-02 0.  1.
    10030    2    1    2    0    0  0.00000000000E+00  0.00000000000E+00 -0.23119969562E+04  0.27779904101E+04  0.15400976570E+04 0.  0.
        4    1    3    3  502    0  0.62587561455E+03 -0.43897086781E+03 -0.13228635809E+04  0.15278695541E+04  0.12699999809E+01 0.  1.
       -4    1    3    3    0  502 -0.62587561455E+03  0.43897086781E+03 -0.98913337528E+03  0.12501208560E+04  0.12699999809E+01 0. -1.
</event>
<event>
 5   0  0.3210612E-04  0.1551682E+04  0.7818609E-02  0.8850794E-01
       -2   -1    0    0    0  501  0.00000000000E+00  0.00000000000E+00  0.31245910030E+03  0.31245910031E+03  0.25500000920E-02 0.  1.
        2   -1    0    0  501    0  0.00000000000E+00  0.00000000000E+00 -0.19264246201E+04  0.19264246201E+04  0.25500000920E-02 0. -1.
    10030    2    1    2    0    0  0.00000000000E+00  0.00000000000E+00 -0.16139655198E+04  0.22388837204E+04  0.15516815441E+04 0.  0.
        2    1    3    3  502    0 -0.44199624107E+03 -0.45641676486E+03 -0.14494303320E+04  0.15825691858E+04  0.25500000920E-02 0. -1.
       -2    1    3    3    0  502  0.44199624107E+03  0.45641676486E+03 -0.16453518780E+03  0.65631453465E+03  0.25500000920E-02 0.  1.
</event>
<event>
 5   0  0.1764099E-04  0.1579470E+04  0.7818609E-02  0.8833261E-01
        1   -1    0    0  501    0  0.00000000000E+00  0.00000000000E+00  0.74810045886E+03  0.74810045888E+03  0.50400001928E-02 0.  1.
       -1   -1    0    0    0  501  0.00000000000E+00  0.00000000000E+00 -0.83368629792E+03  0.83368629794E+03  0.50400001928E-02 0. -1.
    10030    2    1    2    0    0  0.00000000000E+00  0.00000000000E+00 -0.85585839062E+02  0.15817867568E+04  0.15794696604E+04 0.  0.
        5    1    3    3  502    0  0.11641783628E+03 -0.38860589838E+03  0.63576387663E+03  0.75417866165E+03  0.46999998093E+01 0.  1.
       -5    1    3    3    0  502 -0.11641783628E+03  0.38860589838E+03 -0.72134971569E+03  0.82760809517E+03  0.46999998093E+01 0. -1.
</event>
<event>
 5   0  0.1819811E-04  0.1759669E+04  0.7818609E-02  0.8728046E-01
        1   -1    0    0  501    0  0.00000000000E+00  0.00000000000E+00  0.12585730834E+04  0.12585730834E+04  0.50400001928E-02 0.  1.
       -1   -1    0    0    0  501  0.00000000000E+00  0.00000000000E+00 -0.61506883980E+03  0.61506883982E+03  0.50400001928E-02 0. -1.
    10030    2    1    2    0    0  0.00000000000E+00  0.00000000000E+00  0.64350424360E+03  0.18736419232E+04  0.17596693851E+04 0.  0.
        1    1    3    3  502    0 -0.36119483548E+03 -0.60219587308E+02 -0.53007727140E+03  0.64425928131E+03  0.50400001928E-02 0. -1.
       -1    1    3    3    0  502  0.36119483548E+03  0.60219587308E+02  0.11735815150E+04  0.12293826419E+04  0.50400001928E-02 0.  1.
</event>
<event>
 5   0  0.3274900E-04  0.1601114E+04  0.7818609E-02  0.8819864E-01
        2   -1    0    0  501    0  0.00000000000E+00  0.00000000000E+00  0.55520221669E+03  0.55520221670E+03  0.25500000920E-02 0. -1.
       -2   -1    0    0    0  501  0.00000000000E+00  0.00000000000E+00 -0.11543394539E+04  0.11543394539E+04  0.25500000920E-02 0.  1.
    10030    2    1    2    0    0  0.00000000000E+00  0.00000000000E+00 -0.59913723723E+03  0.17095416706E+04  0.16011143915E+04 0.  0.
        3    1    3    3  502    0 -0.33559985672E+03 -0.58257626251E+03  0.16445296901E+03  0.69214677250E+03  0.10100000352E+00 0. -1.
       -3    1    3    3    0  502  0.33559985672E+03  0.58257626251E+03 -0.76359020624E+03  0.10173948981E+04  0.10100000352E+00 0.  1.
</event>
<event>
 5   0  0.3263294E-04  0.1648888E+04  0.7818609E-02  0.8791064E-01
        2   -1    0    0  501    0  0.00000000000E+00  0.00000000000E+00  0.18590363804E+04  0.18590363804E+04  0.25500000920E-02 0. -1.
       -2   -1    0    0    0  501  0.00000000000E+00  0.00000000000E+00 -0.36562391317E+03  0.36562391318E+03  0.25500000920E-02 0.  1.
    10030    2    1    2    0    0  0.00000000000E+00  0.00000000000E+00  0.14934124672E+04  0.22246602936E+04  0.16488882996E+04 0.  0.
        4    1    3    3  502    0 -0.71528742522E+03 -0.22396977122E+03  0.12099867909E+04  0.14233299709E+04  0.12699999809E+01 0. -1.
       -4    1    3    3    0  502  0.71528742522E+03  0.22396977122E+03  0.28342567635E+03  0.80133032266E+03  0.12699999809E+01 0.  1.
</event>
<event>
 5   0  0.3263294E-04  0.1546436E+04  0.7818609E-02  0.8854147E-01
       -2   -1    0    0    0  501  0.00000000000E+00  0.00000000000E+00  0.19596475500E+04  0.19596475500E+04  0.25500000920E-02 0.  1.
        2   -1    0    0  501    0  0.00000000000E+00  0.00000000000E+00 -0.30508874906E+03  0.30508874908E+03  0.25500000920E-02 0. -1.
    10030    2    1    2    0    0  0.00000000000E+00  0.00000000000E+00  0.16545588009E+04  0.22647362990E+04  0.15464364450E+04 0.  0.
        4    1    3    3  502    0 -0.67532846439E+03 -0.36821602385E+03  0.71184258433E+03  0.10480329445E+04  0.12699999809E+01 0. -1.
       -4    1    3    3    0  502  0.67532846439E+03  0.36821602385E+03  0.94271621657E+03  0.12167033545E+04  0.12699999809E+01 0.  1.
</event>
<event>
 5   0  0.1736537E-04  0.1600200E+04  0.7818609E-02  0.8820425E-01
        1   -1    0    0  501    0  0.00000000000E+00  0.00000000000E+00  0.75221227086E+03  0.75221227088E+03  0.50400001928E-02 0. -1.
       -1   -1    0    0    0  501  0.00000000000E+00  0.00000000000E+00 -0.85103610160E+03  0.85103610161E+03  0.50400001928E-02 0.  1.
    10030    2    1    2    0    0  0.00000000000E+00  0.00000000000E+00 -0.98823830735E+02  0.16032483725E+04  0.16001997358E+04 0.  0.
        3    1    3    3  502    0  0.36438874330E+03 -0.45333936502E+03  0.50105638221E+03  0.76769345736E+03  0.10100000352E+00 0.  1.
       -3    1    3    3    0  502 -0.36438874330E+03  0.45333936502E+03 -0.59988021294E+03  0.83555491513E+03  0.10100000352E+00 0. -1.
</event>
<event>
 5   0  0.1736537E-04  0.1619117E+04  0.7818609E-02  0.8808889E-01
        1   -1    0    0  501    0  0.00000000000E+00  0.00000000000E+00  0.78935059404E+03  0.78935059405E+03  0.50400001928E-02 0. -1.
       -1   -1    0    0    0  501  0.00000000000E+00  0.00000000000E+00 -0.83028365796E+03  0.83028365797E+03  0.50400001928E-02 0.  1.
    10030    2    1    2    0    0  0.00000000000E+00  0.00000000000E+00 -0.40933063920E+02  0.16196342520E+04  0.16191169181E+04 0.  0.
        3    1    3    3  502    0 -0.11040477514E+03 -0.57141535548E+03 -0.58338976539E+03  0.82404390139E+03  0.10100000352E+00 0.  1.
       -3    1    3    3    0  502  0.11040477514E+03  0.57141535548E+03  0.54245670147E+03  0.79559035064E+03  0.10100000352E+00 0. -1.
</event>
<event>
 5   0  0.1819811E-04  0.1602854E+04  0.7818609E-02  0.8818797E-01
        1   -1    0    0  501    0  0.00000000000E+00  0.00000000000E+00  0.11242926391E+04  0.11242926391E+04  0.50400001928E-02 0.  1.
       -1   -1    0    0    0  501  0.00000000000E+00  0.00000000000E+00 -0.57127925581E+03  0.57127925583E+03  0.50400001928E-02 0. -1.
    10030    2    1    2    0    0  0.00000000000E+00  0.00000000000E+00  0.55301338330E+03  0.16955718950E+04  0.16028537827E+04 0.  0.
        1    1    3    3  502    0 -0.20115177343E+03 -0.15974669467E+03 -0.52655355384E+03  0.58586661237E+03  0.50400001928E-02 0. -1.
       -1    1    3    3    0  502  0.20115177343E+03  0.15974669467E+03  0.10795669371E+04  0.11097052826E+04  0.50400001928E-02 0.  1.
</event>
<event>
 5   0  0.1761255E-04  0.1594003E+04  0.7818609E-02  0.8824241E-01
        1   -1    0    0  501    0  0.00000000000E+00  0.00000000000E+00  0.96726093685E+03  0.96726093687E+03  0.50400001928E-02 0. -1.
       -1   -1    0    0    0  501  0.00000000000E+00  0.00000000000E+00 -0.65671141543E+03  0.65671141545E+03  0.50400001928E-02 0.  1.
    10030    2    1    2    0    0  0.00000000000E+00  0.00000000000E+00  0.31054952142E+03  0.16239723523E+04  0.15940028845E+04 0.  0.
        2    1    3    3  502    0 -0.64176141116E+03 -0.45324461962E+03  0.18881243669E+02  0.78590387163E+03  0.25500000920E-02 0.  1.
       -2    1    3    3    0  502  0.64176141116E+03  0.45324461962E+03  0.29166827775E+03  0.83806848069E+03  0.25500000920E-02 0. -1.
</event>
<event>
 5   0  0.3274900E-04  0.1569103E+04  0.7818609E-02  0.8839757E-01
       -2   -1    0    0    0  501  0.00000000000E+00  0.00000000000E+00  0.57781238181E+03  0.57781238181E+03  0.25500000920E-02 0. -1.
        2   -1    0    0  501    0  0.00000000000E+00  0.00000000000E+00 -0.10652612082E+04  0.10652612082E+04  0.25500000920E-02 0.  1.
    10030    2    1    2    0    0  0.00000000000E+00  0.00000000000E+00 -0.48744882640E+03  0.16430735900E+04  0.15691030762E+04 0.  0.
        3    1    3    3  502    0  0.86260206866E+02 -0.32300066960E+03  0.49948882569E+03  0.60104854466E+03  0.10100000352E+00 0. -1.
       -3    1    3    3    0  502 -0.86260206866E+02  0.32300066960E+03 -0.98693765208E+03  0.10420250454E+04  0.10100000352E+00 0.  1.
</event>
<event>
 5   0  0.3274900E-04  0.1597742E+04  0.7818609E-02  0.8821936E-01
       -2   -1    0    0    0  501  0.00000000000E+00  0.00000000000E+00  0.37121969644E+03  0.37121969645E+03  0.25500000920E-02 0. -1.
        2   -1    0    0  501    0  0.00000000000E+00  0.00000000000E+00 -0.17191842693E+04  0.17191842693E+04  0.25500000920E-02 0.  1.
    10030    2    1    2    0    0  0.00000000000E+00  0.00000000000E+00 -0.13479645729E+04  0.20904039658E+04  0.15977422353E+04 0.  0.
        3    1    3    3  502    0 -0.70614045995E+03 -0.30574444070E+03 -0.95483889154E+03  0.12263080083E+04  0.10100000352E+00 0.  1.
       -3    1    3    3    0  502  0.70614045995E+03  0.30574444070E+03 -0.39312568133E+03  0.86409595748E+03  0.10100000352E+00 0. -1.
</event>
<event>
 5   0  0.1736537E-04  0.1593222E+04  0.7818609E-02  0.8824723E-01
       -1   -1    0    0    0  501  0.00000000000E+00  0.00000000000E+00  0.60822358728E+03  0.60822358730E+03  0.50400001928E-02 0. -1.
        1   -1    0    0  501    0  0.00000000000E+00  0.00000000000E+00 -0.10433482796E+04  0.10433482796E+04  0.50400001928E-02 0.  1.
    10030    2    1    2    0    0  0.00000000000E+00  0.00000000000E+00 -0.43512469228E+03  0.16515718669E+04  0.15932219348E+04 0.  0.
        3    1    3    3  502    0 -0.68902855221E+03  0.39631416584E+03 -0.16306550678E+03  0.81142814439E+03  0.10100000352E+00 0.  1.
       -3    1    3    3    0  502  0.68902855221E+03 -0.39631416584E+03 -0.27205918550E+03  0.84014372248E+03  0.10100000352E+00 0. -1.
</event>
<event>
 5   0  0.3210612E-04  0.1590716E+04  0.7818609E-02  0.8826272E-01
        2   -1    0    0  501    0  0.00000000000E+00  0.00000000000E+00  0.18772173599E+04  0.18772173599E+04  0.25500000920E-02 0. -1.
       -2   -1    0    0    0  501  0.00000000000E+00  0.00000000000E+00 -0.33698533450E+03  0.33698533451E+03  0.25500000920E-02 0.  1.
    10030    2    1    2    0    0  0.00000000000E+00  0.00000000000E+00  0.15402320254E+04  0.22142026945E+04  0.15907164675E+04 0.  0.
        2    1    3    3  502    0 -0.29905706660E+03 -0.39691724769E+03  0.16344911841E+04  0.17083734549E+04  0.25500000920E-02 0. -1.
       -2    1    3    3    0  502  0.29905706660E+03  0.39691724769E+03 -0.94259158637E+02  0.50582923956E+03  0.25500000920E-02 0.  1.
</event>
<event>
 5   0  0.3228393E-04  0.1568401E+04  0.7818609E-02  0.8840199E-01
       -2   -1    0    0    0  501  0.00000000000E+00  0.00000000000E+00  0.62849722021E+03  0.62849722022E+03  0.25500000920E-02 0.  1.
        2   -1    0    0  501    0  0.00000000000E+00  0.00000000000E+00 -0.97847763460E+03  0.97847763460E+03  0.25500000920E-02 0. -1.
    10030    2    1    2    0    0  0.00000000000E+00  0.00000000000E+00 -0.34998041438E+03  0.16069748548E+04  0.15684010627E+04 0.  0.
        1    1    3    3  502    0  0.20573651333E+03  0.61132504541E+03  0.28198880423E+03  0.70396271904E+03  0.50400001928E-02 0. -1.
       -1    1    3    3    0  502 -0.20573651333E+03 -0.61132504541E+03 -0.63196921861E+03  0.90301213578E+03  0.50400001928E-02 0.  1.
</event>
<event>
 5   0  0.3263294E-04  0.1633619E+04  0.7818609E-02  0.8800157E-01
        2   -1    0    0  501    0  0.00000000000E+00  0.00000000000E+00  0.20869351488E+04  0.20869351488E+04  0.25500000920E-02 0.  1.
       -2   -1    0    0    0  501  0.00000000000E+00  0.00000000000E+00 -0.31969264068E+03  0.31969264069E+03  0.25500000920E-02 0. -1.
    10030    2    1    2    0    0  0.00000000000E+00  0.00000000000E+00  0.17672425082E+04  0.24066277895E+04  0.16336190605E+04 0.  0.
        4    1    3    3  502    0 -0.21931572308E+03 -0.68320851038E+03  0.30869481660E+03  0.78113210005E+03  0.12699999809E+01 0. -1.
       -4    1    3    3    0  502  0.21931572308E+03  0.68320851038E+03  0.14585476916E+04  0.16254956895E+04  0.12699999809E+01 0.  1.
</event>
<event>
 5   0  0.1764099E-04  0.1617867E+04  0.7818609E-02  0.8809646E-01
        1   -1    0    0  501    0  0.00000000000E+00  0.00000000000E+00  0.65756544415E+03  0.65756544417E+03  0.50400001928E-02 0. -1.
       -1   -1    0    0    0  501  0.00000000000E+00  0.00000000000E+00 -0.99514623986E+03  0.99514623987E+03  0.50400001928E-02 0.  1.
    10030    2    1    2    0    0  0.00000000000E+00  0.00000000000E+00 -0.33758079571E+03  0.16527116840E+04  0.16178674596E+04 0.  0.
        5    1    3    3  502    0 -0.17693179742E+03 -0.83258940000E+02  0.63304452963E+03  0.66257405512E+03  0.46999998093E+01 0. -1.
       -5    1    3    3    0  502  0.17693179742E+03  0.83258940000E+02 -0.97062532533E+03  0.99013762892E+03  0.46999998093E+01 0.  1.
</event>
<event>
 5   0  0.3228393E-04  0.1605034E+04  0.7818609E-02  0.8817461E-01
        2   -1    0    0  501    0  0.00000000000E+00  0.00000000000E+00  0.10417929852E+04  0.10417929852E+04  0.25500000920E-02 0.  1.
       -2   -1    0    0    0  501  0.00000000000E+00  0.00000000000E+00 -0.61819721226E+03  0.61819721226E+03  0.25500000920E-02 0. -1.
    10030    2    1    2    0    0  0.00000000000E+00  0.00000000000E+00  0.42359577292E+03  0.16599901974E+04  0.16050339799E+04 0.  0.
        1    1    3    3  502    0  0.92108603856E+02  0.60677639853E+03  0.74658285870E+03  0.96646135859E+03  0.50400001928E-02 0.  1.
       -1    1    3    3    0  502 -0.92108603856E+02 -0.60677639853E+03 -0.32298708578E+03  0.69352883886E+03  0.50400001928E-02 0. -1.
</event>
<event>
 5   0  0.3274900E-04  0.1539696E+04  0.7818609E-02  0.8858477E-01
       -2   -1    0    0    0  501  0.00000000000E+00  0.00000000000E+00  0.80233305325E+03  0.80233305325E+03  0.25500000920E-02 0.  1.
        2   -1    0    0  501    0  0.00000000000E+00  0.00000000000E+00 -0.73867777960E+03  0.73867777961E+03  0.25500000920E-02 0. -1.
    10030    2    1    2    0    0  0.00000000000E+00  0.00000000000E+00  0.63655273644E+02  0.15410108329E+04  0.15396955521E+04 0.  0.
        3    1    3    3  502    0  0.70129493209E+03 -0.99012864829E+01 -0.28585959971E+03  0.75738255737E+03  0.10100000352E+00 0. -1.
       -3    1    3    3    0  502 -0.70129493209E+03  0.99012864829E+01  0.34951487335E+03  0.78362827549E+03  0.10100000352E+00 0.  1.
</event>
<event>
 5   0  0.1787688E-04  0.1592056E+04  0.7818609E-02  0.8825443E-01
       -1   -1    0    0    0  501  0.00000000000E+00  0.00000000000E+00  0.65025834702E+03  0.65025834704E+03  0.50400001928E-02 0.  1.
        1   -1    0    0  501    0  0.00000000000E+00  0.00000000000E+00 -0.97447469016E+03  0.97447469017E+03  0.50400001928E-02 0. -1.
    10030    2    1    2    0    0  0.00000000000E+00  0.00000000000E+00 -0.32421634314E+03  0.16247330372E+04  0.15920556539E+04 0.  0.
        4    1    3    3  502    0  0.42329895623E+03 -0.14188332583E+03  0.51046816165E+03  0.67815355301E+03  0.12699999809E+01 0.  1.
       -4    1    3    3    0  502 -0.42329895623E+03  0.14188332583E+03 -0.83468450479E+03  0.94657948421E+03  0.12699999809E+01 0. -1.
</event>
<event>
 5   0  0.3380454E-04  0.1599358E+04  0.7818609E-02  0.8820943E-01
       -2   -1    0    0    0  501  0.00000000000E+00  0.00000000000E+00  0.63375823642E+03  0.63375823643E+03  0.25500000920E-02 0. -1.
        2   -1    0    0  501    0  0.00000000000E+00  0.00000000000E+00 -0.10090380902E+04  0.10090380902E+04  0.25500000920E-02 0.  1.
    10030    2    1    2    0    0  0.00000000000E+00  0.00000000000E+00 -0.37527985382E+03  0.16427963267E+04  0.15993576217E+04 0.  0.
        5    1    3    3  502    0 -0.34267116610E+03 -0.88519400719E+02  0.54891687324E+03  0.65313936959E+03  0.46999998093E+01 0. -1.
       -5    1    3    3    0  502  0.34267116610E+03  0.88519400719E+02 -0.92419672706E+03  0.98965695707E+03  0.46999998093E+01 0.  1.
</event>
<event>
 5   0  0.3210612E-04  0.1547990E+04  0.7818609E-02  0.8853153E-01
        2   -1    0    0  501    0  0.00000000000E+00  0.00000000000E+00  0.11400970074E+04  0.11400970074E+04  0.25500000920E-02 0.  1.
       -2   -1    0    0    0  501  0.00000000000E+00  0.00000000000E+00 -0.52545379669E+03  0.52545379670E+03  0.25500000920E-02 0. -1.
    10030    2    1    2    0    0  0.00000000000E+00  0.00000000000E+00  0.61464321066E+03  0.16655508041E+04  0.15479900531E+04 0.  0.
        2    1    3    3  502    0 -0.17102118557E+03  0.57563741804E+03  0.83273236474E+03  0.10266693111E+04  0.25500000920E-02 0.  1.
       -2    1    3    3    0  502  0.17102118557E+03 -0.57563741804E+03 -0.21808915408E+03  0.63888149300E+03  0.25500000920E-02 0. -1.
</event>
<event>
 5   0  0.3210612E-04  0.1591871E+04  0.7818609E-02  0.8825557E-01
       -2   -1    0    0    0  501  0.00000000000E+00  0.00000000000E+00  0.60123078301E+03  0.60123078302E+03  0.25500000920E-02 0.  1.
        2   -1    0    0  501    0  0.00000000000E+00  0.00000000000E+00 -0.10536944474E+04  0.10536944474E+04  0.25500000920E-02 0. -1.
    10030    2    1    2    0    0  0.00000000000E+00  0.00000000000E+00 -0.45246366434E+03  0.16549252304E+04  0.15918712732E+04 0.  0.
        2    1    3    3  502    0  0.90530246406E+02  0.70835964870E+03  0.13917948968E+03  0.72755759069E+03  0.25500000920E-02 0.  1.
       -2    1    3    3    0  502 -0.90530246406E+02 -0.70835964870E+03 -0.59164315402E+03  0.92736763968E+03  0.25500000920E-02 0. -1.
</event>
<event>
 5   0  0.1736537E-04  0.1606947E+04  0.7818609E-02  0.8816291E-01
       -1   -1    0    0    0  501  0.00000000000E+00  0.00000000000E+00  0.10012573742E+04  0.10012573742E+04  0.50400001928E-02 0. -1.
        1   -1    0    0  501    0  0.00000000000E+00  0.00000000000E+00 -0.64475917211E+03  0.64475917213E+03  0.50400001928E-02 0.  1.
    10030    2    1    2    0    0  0.00000000000E+00  0.00000000000E+00  0.35649820206E+03  0.16460165463E+04  0.16069472619E+04 0.  0.
        3    1    3    3  502    0  0.58641881159E+03 -0.54509122950E+03  0.10909172262E+03  0.80803000267E+03  0.10100000352E+00 0. -1.
       -3    1    3    3    0  502 -0.58641881159E+03  0.54509122950E+03  0.24740647944E+03  0.83798654365E+03  0.10100000352E+00 0.  1.
</event>
<event>
 5   0  0.1761255E-04  0.1596878E+04  0.7818609E-02  0.8822468E-01
       -1   -1    0    0    0  501  0.00000000000E+00  0.00000000000E+00  0.61021069536E+03  0.61021069538E+03  0.50400001928E-02 0.  1.
        1   -1    0    0  501    0  0.00000000000E+00  0.00000000000E+00 -0.10447290660E+04  0.10447290660E+04  0.50400001928E-02 0. -1.
    10030    2    1    2    0    0  0.00000000000E+00  0.00000000000E+00 -0.43451837065E+03  0.16549397614E+04  0.15968780165E+04 0.  0.
        2    1    3    3  502    0 -0.39191069394E+03 -0.68540494564E+03 -0.94063459313E+02  0.79512380540E+03  0.25500000920E-02 0. -1.
       -2    1    3    3    0  502  0.39191069394E+03  0.68540494564E+03 -0.34045491134E+03  0.85981595600E+03  0.25500000920E-02 0.  1.
</event>
<event>
 5   0  0.3228393E-04  0.1615533E+04  0.7818609E-02  0.8811062E-01
       -2   -1    0    0    0  501  0.00000000000E+00  0.00000000000E+00  0.48732786623E+03  0.48732786623E+03  0.25500000920E-02 0. -1.
        2   -1    0    0  501    0  0.00000000000E+00  0.00000000000E+00 -0.13389076094E+04  0.13389076094E+04  0.25500000920E-02 0.  1.
    10030    2    1    2    0    0  0.00000000000E+00  0.00000000000E+00 -0.85157974317E+03  0.18262354756E+04  0.16155333341E+04 0.  0.
        1    1    3    3  502    0  0.35947796918E+03 -0.36087457263E+03  0.28289779368E+03  0.58265429647E+03  0.50400001928E-02 0. -1.
       -1    1    3    3    0  502 -0.35947796918E+03  0.36087457263E+03 -0.11344775369E+04  0.12435811792E+04  0.50400001928E-02 0.  1.
</event>
<event>
 5   0  0.1219463E-04  0.1598464E+04  0.7818609E-02  0.8821492E-01
        4   -1    0    0  501    0  0.00000000000E+00  0.00000000000E+00  0.92434372591E+03  0.92434459837E+03  0.12699999809E+01 0.  1.
       -4   -1    0    0    0  501  0.00000000000E+00  0.00000000000E+00 -0.69105296712E+03  0.69105413411E+03  0.12699999809E+01 0. -1.
    10030    2    1    2    0    0  0.00000000000E+00  0.00000000000E+00  0.23329075879E+03  0.16153987325E+04  0.15984644152E+04 0.  0.
        5    1    3    3  502    0  0.41041098524E+03  0.46434354472E+03  0.62666803788E+03  0.88135522012E+03  0.46999998093E+01 0. -1.
       -5    1    3    3    0  502 -0.41041098524E+03 -0.46434354472E+03 -0.39337727909E+03  0.73404351236E+03  0.46999998093E+01 0.  1.
</event>
<event>
 5   0  0.1764099E-04  0.1565845E+04  0.7818609E-02  0.8841810E-01
       -1   -1    0    0    0  501  0.00000000000E+00  0.00000000000E+00  0.50608872606E+03  0.50608872608E+03  0.50400001928E-02 0.  1.
        1   -1    0    0  501    0  0.00000000000E+00  0.00000000000E+00 -0.12111861440E+04  0.12111861440E+04  0.50400001928E-02 0. -1.
    10030    2    1    2    0    0  0.00000000000E+00  0.00000000000E+00 -0.70509741798E+03  0.17172748701E+04  0.15658450149E+04 0.  0.
        5    1    3    3  502    0 -0.79702631348E+02 -0.59778588683E+03  0.19497678248E+03  0.63382845600E+03  0.46999998093E+01 0.  1.
       -5    1    3    3    0  502  0.79702631348E+02  0.59778588683E+03 -0.90007420046E+03  0.10834464141E+04  0.46999998093E+01 0. -1.
</event>
<event>
 5   0  0.3380454E-04  0.1578423E+04  0.7818609E-02  0.8833914E-01
        2   -1    0    0  501    0  0.00000000000E+00  0.00000000000E+00  0.81072545407E+03  0.81072545408E+03  0.25500000920E-02 0.  1.
       -2   -1    0    0    0  501  0.00000000000E+00  0.00000000000E+00 -0.76826821600E+03  0.76826821601E+03  0.25500000920E-02 0. -1.
    10030    2    1    2    0    0  0.00000000000E+00  0.00000000000E+00  0.42457238074E+02  0.15789936701E+04  0.15784227549E+04 0.  0.
        5    1    3    3  502    0 -0.69221664268E+02  0.77769662607E+03  0.13628685966E+03  0.79259061256E+03  0.46999998093E+01 0.  1.
       -5    1    3    3    0  502  0.69221664268E+02 -0.77769662607E+03 -0.93829621581E+02  0.78640305753E+03  0.46999998093E+01 0. -1.
</event>
<event>
 5   0  0.1761255E-04  0.1602044E+04  0.7818609E-02  0.8819293E-01
       -1   -1    0    0    0  501  0.00000000000E+00  0.00000000000E+00  0.79287176363E+03  0.79287176365E+03  0.50400001928E-02 0. -1.
        1   -1    0    0  501    0  0.00000000000E+00  0.00000000000E+00 -0.80925646520E+03  0.80925646522E+03  0.50400001928E-02 0.  1.
    10030    2    1    2    0    0  0.00000000000E+00  0.00000000000E+00 -0.16384701569E+02  0.16021282289E+04  0.16020444449E+04 0.  0.
        2    1    3    3  502    0 -0.15543977853E+03 -0.78367960659E+03 -0.65826522057E+02  0.80165352961E+03  0.25500000920E-02 0. -1.
       -2    1    3    3    0  502  0.15543977853E+03  0.78367960659E+03  0.49441820487E+02  0.80047469925E+03  0.25500000920E-02 0.  1.
</event>
<event>
 5   0  0.1736537E-04  0.1598532E+04  0.7818609E-02  0.8821451E-01
       -1   -1    0    0    0  501  0.00000000000E+00  0.00000000000E+00  0.28106654548E+03  0.28106654552E+03  0.50400001928E-02 0. -1.
        1   -1    0    0  501    0  0.00000000000E+00  0.00000000000E+00 -0.22728630457E+04  0.22728630457E+04  0.50400001928E-02 0.  1.
    10030    2    1    2    0    0  0.00000000000E+00  0.00000000000E+00 -0.19917965002E+04  0.25539295912E+04  0.15985315319E+04 0.  0.
        3    1    3    3  502    0 -0.38992028909E+03  0.69768825224E+03 -0.98892952155E+03  0.12715299202E+04  0.10100000352E+00 0. -1.
       -3    1    3    3    0  502  0.38992028909E+03 -0.69768825224E+03 -0.10028669786E+04  0.12823996710E+04  0.10100000352E+00 0.  1.
</event>
<event>
 5   0  0.1764099E-04  0.1611677E+04  0.7818609E-02  0.8813406E-01
       -1   -1    0    0    0  501  0.00000000000E+00  0.00000000000E+00  0.56664047490E+03  0.56664047492E+03  0.50400001928E-02 0.  1.
        1   -1    0    0  501    0  0.00000000000E+00  0.00000000000E+00 -0.11460102355E+04  0.11460102355E+04  0.50400001928E-02 0. -1.
    10030    2    1    2    0    0  0.00000000000E+00  0.00000000000E+00 -0.57936976063E+03  0.17126507105E+04  0.16116771192E+04 0.  0.
        5    1    3    3  502    0 -0.41612347655E+03  0.91764852671E+02 -0.10164747607E+04  0.11021898952E+04  0.46999998093E+01 0. -1.
       -5    1    3    3    0  502  0.41612347655E+03 -0.91764852671E+02  0.43710500006E+03  0.61046081529E+03  0.46999998093E+01 0.  1.
</event>
<event>
 5   0  0.3210612E-04  0.1599661E+04  0.7818609E-02  0.8820756E-01
        2   -1    0    0  501    0  0.00000000000E+00  0.00000000000E+00  0.39396072609E+03  0.39396072610E+03  0.25500000920E-02 0. -1.
       -2   -1    0    0    0  501  0.00000000000E+00  0.00000000000E+00 -0.16238388882E+04  0.16238388882E+04  0.25500000920E-02 0.  1.
    10030    2    1    2    0    0  0.00000000000E+00  0.00000000000E+00 -0.12298781621E+04  0.20177996143E+04  0.15996608984E+04 0.  0.
        2    1    3    3  502    0 -0.21158505694E+02 -0.69323841697E+03 -0.11243371175E+03  0.70261548849E+03  0.25500000920E-02 0. -1.
       -2    1    3    3    0  502  0.21158505694E+02  0.69323841697E+03 -0.11174444504E+04  0.13151841258E+04  0.25500000920E-02 0.  1.
</event>
<event>
 5   0  0.3228393E-04  0.1614088E+04  0.7818609E-02  0.8811940E-01
        2   -1    0    0  501    0  0.00000000000E+00  0.00000000000E+00  0.17662981477E+04  0.17662981477E+04  0.25500000920E-02 0. -1.
       -2   -1    0    0    0  501  0.00000000000E+00  0.00000000000E+00 -0.36874844588E+03  0.36874844589E+03  0.25500000920E-02 0.  1.
    10030    2    1    2    0    0  0.00000000000E+00  0.00000000000E+00  0.13975497019E+04  0.21350465936E+04  0.16140876023E+04 0.  0.
        1    1    3    3  502    0 -0.11859124278E+03  0.18772209528E+03 -0.32754884233E+03  0.39571670683E+03  0.50400001928E-02 0.  1.
       -1    1    3    3    0  502  0.11859124278E+03 -0.18772209528E+03  0.17250985442E+04  0.17393298868E+04  0.50400001928E-02 0. -1.
</event>
<event>
 5   0  0.1736537E-04  0.1624860E+04  0.7818609E-02  0.8805419E-01
       -1   -1    0    0    0  501  0.00000000000E+00  0.00000000000E+00  0.14034225344E+04  0.14034225344E+04  0.50400001928E-02 0. -1.
        1   -1    0    0  501    0  0.00000000000E+00  0.00000000000E+00 -0.47030940384E+03  0.47030940386E+03  0.50400001928E-02 0.  1.
    10030    2    1    2    0    0  0.00000000000E+00  0.00000000000E+00  0.93311313055E+03  0.18737319383E+04  0.16248603823E+04 0.  0.
        3    1    3    3  502    0 -0.30731187579E+03  0.60637610442E+03  0.97956621990E+03  0.11923433056E+04  0.10100000352E+00 0. -1.
       -3    1    3    3    0  502  0.30731187579E+03 -0.60637610442E+03 -0.46453089357E+02  0.68138863266E+03  0.10100000352E+00 0.  1.
</event>
<event>
 5   0  0.3228393E-04  0.1600511E+04  0.7818609E-02  0.8820234E-01
       -2   -1    0    0    0  501  0.00000000000E+00  0.00000000000E+00  0.28823359647E+03  0.28823359648E+03  0.25500000920E-02 0.  1.
        2   -1    0    0  501    0  0.00000000000E+00  0.00000000000E+00 -0.22218392289E+04  0.22218392289E+04  0.25500000920E-02 0. -1.
    10030    2    1    2    0    0  0.00000000000E+00  0.00000000000E+00 -0.19336056324E+04  0.25100728254E+04  0.16005108081E+04 0.  0.
        1    1    3    3  502    0 -0.56772295374E+03  0.56265113932E+03 -0.90559801468E+03  0.12078880002E+04  0.50400001928E-02 0.  1.
       -1    1    3    3    0  502  0.56772295374E+03 -0.56265113932E+03 -0.10280076177E+04  0.13021848252E+04  0.50400001928E-02 0. -1.
</event>
<event>
 5   0  0.3228393E-04  0.1596405E+04  0.7818609E-02  0.8822759E-01
       -2   -1    0    0    0  501  0.00000000000E+00  0.00000000000E+00  0.69040966277E+03  0.69040966278E+03  0.25500000920E-02 0.  1.
        2   -1    0    0  501    0  0.00000000000E+00  0.00000000000E+00 -0.92282526582E+03  0.92282526583E+03  0.25500000920E-02 0. -1.
    10030    2    1    2    0    0  0.00000000000E+00  0.00000000000E+00 -0.23241560305E+03  0.16132349286E+04  0.15964053127E+04 0.  0.
        1    1    3    3  502    0  0.69266321874E+03 -0.34184002971E+03  0.87136139659E+02  0.77732210014E+03  0.50400001928E-02 0.  1.
       -1    1    3    3    0  502 -0.69266321874E+03  0.34184002971E+03 -0.31955174271E+03  0.83591282847E+03  0.50400001928E-02 0. -1.
</event>
<event>
 5   0  0.3380454E-04  0.1583448E+04  0.7818609E-02  0.8830782E-01
        2   -1    0    0  501    0  0.00000000000E+00  0.00000000000E+00  0.12250981070E+04  0.12250981070E+04  0.25500000920E-02 0. -1.
       -2   -1    0    0    0  501  0.00000000000E+00  0.00000000000E+00 -0.51165426877E+03  0.51165426878E+03  0.25500000920E-02 0.  1.
    10030    2    1    2    0    0  0.00000000000E+00  0.00000000000E+00  0.71344383827E+03  0.17367523758E+04  0.15834477271E+04 0.  0.
        5    1    3    3  502    0  0.12924225794E+03  0.19279770782E+03 -0.47348238095E+03  0.52733497176E+03  0.46999998093E+01 0.  1.
       -5    1    3    3    0  502 -0.12924225794E+03 -0.19279770782E+03  0.11869262192E+04  0.12094174041E+04  0.46999998093E+01 0. -1.
</event>
<event>
 5   0  0.3228393E-04  0.1599966E+04  0.7818609E-02  0.8820569E-01
       -2   -1    0    0    0  501  0.00000000000E+00  0.00000000000E+00  0.48823437402E+03  0.48823437402E+03  0.25500000920E-02 0. -1.
        2   -1    0    0  501    0  0.00000000000E+00  0.00000000000E+00 -0.13107907166E+04  0.13107907166E+04  0.25500000920E-02 0.  1.
    10030    2    1    2    0    0  0.00000000000E+00  0.00000000000E+00 -0.82255634254E+03  0.17990250906E+04  0.15999663559E+04 0.  0.
        1    1    3    3  502    0  0.31412108289E+03 -0.50812762132E+02 -0.12365700170E+04  0.12768552770E+04  0.50400001928E-02 0.  1.
       -1    1    3    3    0  502 -0.31412108289E+03  0.50812762132E+02  0.41401367447E+03  0.52216981355E+03  0.50400001928E-02 0. -1.
</event>
<event>
 5   0  0.1819811E-04  0.1594526E+04  0.7818609E-02  0.8823918E-01
        1   -1    0    0  501    0  0.00000000000E+00  0.00000000000E+00  0.18796539162E+04  0.18796539162E+04  0.50400001928E-02 0. -1.
       -1   -1    0    0    0  501  0.00000000000E+00  0.00000000000E+00 -0.33816227230E+03  0.33816227233E+03  0.50400001928E-02 0.  1.
    10030    2    1    2    0    0  0.00000000000E+00  0.00000000000E+00  0.15414916439E+04  0.22178161885E+04  0.15945256843E+04 0.  0.
        1    1    3    3  502    0 -0.76132258365E+03 -0.15297246045E+03  0.10219375388E+04  0.12834987274E+04  0.50400001928E-02 0. -1.
       -1    1    3    3    0  502  0.76132258365E+03  0.15297246045E+03  0.51955410514E+03  0.93431746116E+03  0.50400001928E-02 0.  1.
</event>
<event>
 5   0  0.1819811E-04  0.1601229E+04  0.7818609E-02  0.8819794E-01
        1   -1    0    0  501    0  0.00000000000E+00  0.00000000000E+00  0.65147420784E+03  0.65147420786E+03  0.50400001928E-02 0. -1.
       -1   -1    0    0    0  501  0.00000000000E+00  0.00000000000E+00 -0.98389665414E+03  0.98389665415E+03  0.50400001928E-02 0.  1.
    10030    2    1    2    0    0  0.00000000000E+00  0.00000000000E+00 -0.33242244629E+03  0.16353708620E+04  0.16012286450E+04 0.  0.
        1    1    3    3  502    0 -0.28040954783E+03  0.70923655772E+03  0.82575234683E+02  0.76711451475E+03  0.50400001928E-02 0. -1.
       -1    1    3    3    0  502  0.28040954783E+03 -0.70923655772E+03 -0.41499768098E+03  0.86825634727E+03  0.50400001928E-02 0.  1.
</event>
<event>
 5   0  0.1819811E-04  0.1596835E+04  0.7818609E-02  0.8822495E-01
        1   -1    0    0  501    0  0.00000000000E+00  0.00000000000E+00  0.70299514221E+03  0.70299514223E+03  0.50400001928E-02 0. -1.
       -1   -1    0    0    0  501  0.00000000000E+00  0.00000000000E+00 -0.90679208783E+03  0.90679208784E+03  0.50400001928E-02 0.  1.
    10030    2    1    2    0    0  0.00000000000E+00  0.00000000000E+00 -0.20379694562E+03  0.16097872301E+04  0.15968349104E+04 0.  0.
        1    1    3    3  502    0  0.47924339628E+03 -0.59779208055E+03  0.12451359130E+03  0.77623014557E+03  0.50400001928E-02 0.  1.
       -1    1    3    3    0  502 -0.47924339628E+03  0.59779208055E+03 -0.32831053692E+03  0.83355708450E+03  0.50400001928E-02 0. -1.
</event>
<event>
 5   0  0.3380454E-04  0.1601059E+04  0.7818609E-02  0.8819898E-01
        2   -1    0    0  501    0  0.00000000000E+00  0.00000000000E+00  0.20810751831E+04  0.20810751831E+04  0.25500000920E-02 0. -1.
       -2   -1    0    0    0  501  0.00000000000E+00  0.00000000000E+00 -0.30794038041E+03  0.30794038042E+03  0.25500000920E-02 0.  1.
    10030    2    1    2    0    0  0.00000000000E+00  0.00000000000E+00  0.17731348027E+04  0.23890155635E+04  0.16010585043E+04 0.  0.
        5    1    3    3  502    0 -0.51380506409E+03 -0.28742112360E+01 -0.29398649085E+02  0.51467492220E+03  0.46999998093E+01 0.  1.
       -5    1    3    3    0  502  0.51380506409E+03  0.28742112360E+01  0.18025334518E+04  0.18743406413E+04  0.46999998093E+01 0. -1.
</event>
<event>
 5   0  0.3228393E-04  0.1609735E+04  0.7818609E-02  0.8814590E-01
        2   -1    0    0  501    0  0.00000000000E+00  0.00000000000E+00  0.92029067387E+03  0.92029067387E+03  0.25500000920E-02 0. -1.
       -2   -1    0    0    0  501  0.00000000000E+00  0.00000000000E+00 -0.70392052283E+03  0.70392052283E+03  0.25500000920E-02 0.  1.
    10030    2    1    2    0    0  0.00000000000E+00  0.00000000000E+00  0.21637015104E+03  0.16242111967E+04  0.16097347512E+04 0.  0.
        1    1    3    3  502    0  0.70222705905E+03 -0.11327206269E+03  0.48821275848E+03  0.86273118653E+03  0.50400001928E-02 0. -1.
       -1    1    3    3    0  502 -0.70222705905E+03  0.11327206269E+03 -0.27184260743E+03  0.76148001017E+03  0.50400001928E-02 0.  1.
</event>
<event>
 5   0  0.1764099E-04  0.1603273E+04  0.7818609E-02  0.8818540E-01
       -1   -1    0    0    0  501  0.00000000000E+00  0.00000000000E+00  0.66924905385E+03  0.66924905387E+03  0.50400001928E-02 0. -1.
        1   -1    0    0  501    0  0.00000000000E+00  0.00000000000E+00 -0.96021219213E+03  0.96021219214E+03  0.50400001928E-02 0.  1.
    10030    2    1    2    0    0  0.00000000000E+00  0.00000000000E+00 -0.29096313828E+03  0.16294612460E+04  0.16032730287E+04 0.  0.
        5    1    3    3  502    0 -0.39181878850E+03 -0.89538532659E+02 -0.85039555506E+03  0.94060289279E+03  0.46999998093E+01 0.  1.
       -5    1    3    3    0  502  0.39181878850E+03  0.89538532659E+02  0.55943241678E+03  0.68885835322E+03  0.46999998093E+01 0. -1.
</event>
<event>
 5   0  0.1764099E-04  0.1574247E+04  0.7818609E-02  0.8836527E-01
       -1   -1    0    0    0  501  0.00000000000E+00  0.00000000000E+00  0.34759859775E+03  0.34759859778E+03  0.50400001928E-02 0. -1.
        1   -1    0    0  501    0  0.00000000000E+00  0.00000000000E+00 -0.17824101814E+04  0.17824101814E+04  0.50400001928E-02 0.  1.
    10030    2    1    2    0    0  0.00000000000E+00  0.00000000000E+00 -0.14348115836E+04  0.21300087792E+04  0.15742468418E+04 0.  0.
        5    1    3    3  502    0  0.34821049424E+03 -0.51343374769E+03 -0.61950162826E+02  0.62347788593E+03  0.46999998093E+01 0. -1.
       -5    1    3    3    0  502 -0.34821049424E+03  0.51343374769E+03 -0.13728614208E+04  0.15065308933E+04  0.46999998093E+01 0.  1.
</event>
<event>
 5   0  0.3228393E-04  0.1592955E+04  0.7818609E-02  0.8824888E-01
        2   -1    0    0  501    0  0.00000000000E+00  0.00000000000E+00  0.12491778886E+04  0.12491778886E+04  0.25500000920E-02 0. -1.
       -2   -1    0    0    0  501  0.00000000000E+00  0.00000000000E+00 -0.50783499682E+03  0.50783499683E+03  0.25500000920E-02 0.  1.
    10030    2    1    2    0    0  0.00000000000E+00  0.00000000000E+00  0.74134289182E+03  0.17570128855E+04  0.15929548005E+04 0.  0.
        1    1    3    3  502    0  0.58759003467E+03 -0.10191012864E+03  0.95299211111E+03  0.11242071371E+04  0.50400001928E-02 0. -1.
       -1    1    3    3    0  502 -0.58759003467E+03  0.10191012864E+03 -0.21164921930E+03  0.63280574840E+03  0.50400001928E-02 0.  1.
</event>
<event>
 5   0  0.1736537E-04  0.1533503E+04  0.7818609E-02  0.8862474E-01
       -1   -1    0    0    0  501  0.00000000000E+00  0.00000000000E+00  0.52549362231E+03  0.52549362233E+03  0.50400001928E-02 0. -1.
        1   -1    0    0  501    0  0.00000000000E+00  0.00000000000E+00 -0.11187728021E+04  0.11187728021E+04  0.50400001928E-02 0.  1.
    10030    2    1    2    0    0  0.00000000000E+00  0.00000000000E+00 -0.59327917977E+03  0.16442664244E+04  0.15335031429E+04 0.  0.
        3    1    3    3  502    0 -0.48068799010E+03 -0.27658133358E+03  0.27108490340E+03  0.61728859779E+03  0.10100000352E+00 0. -1.
       -3    1    3    3    0  502  0.48068799010E+03  0.27658133358E+03 -0.86436408317E+03  0.10269778266E+04  0.10100000352E+00 0.  1.
</event>
<event>
 5   0  0.1761255E-04  0.1586893E+04  0.7818609E-02  0.8828641E-01
        1   -1    0    0  501    0  0.00000000000E+00  0.00000000000E+00  0.43572044539E+03  0.43572044542E+03  0.50400001928E-02 0. -1.
       -1   -1    0    0    0  501  0.00000000000E+00  0.00000000000E+00 -0.14448648538E+04  0.14448648538E+04  0.50400001928E-02 0.  1.
    10030    2    1    2    0    0  0.00000000000E+00  0.00000000000E+00 -0.10091444084E+04  0.18805852992E+04  0.15868927596E+04 0.  0.
        2    1    3    3  502    0  0.12492945588E+03  0.57832031910E+03 -0.11310891012E+04  0.12764890581E+04  0.25500000920E-02 0.  1.
       -2    1    3    3    0  502 -0.12492945588E+03 -0.57832031910E+03  0.12194469285E+03  0.60409624113E+03  0.25500000920E-02 0. -1.
</event>
<event>
 5   0  0.1787688E-04  0.1581241E+04  0.7818609E-02  0.8832156E-01
        1   -1    0    0  501    0  0.00000000000E+00  0.00000000000E+00  0.78942134723E+03  0.78942134724E+03  0.50400001928E-02 0.  1.
       -1   -1    0    0    0  501  0.00000000000E+00  0.00000000000E+00 -0.79182151879E+03  0.79182151880E+03  0.50400001928E-02 0. -1.
    10030    2    1    2    0    0  0.00000000000E+00  0.00000000000E+00 -0.24001715574E+01  0.15812428660E+04  0.15812410444E+04 0.  0.
        4    1    3    3  502    0  0.71954970046E+03 -0.25124730310E+03  0.20904339295E+03  0.79030230405E+03  0.12699999809E+01 0. -1.
       -4    1    3    3    0  502 -0.71954970046E+03  0.25124730310E+03 -0.21144356451E+03  0.79094056200E+03  0.12699999809E+01 0.  1.
</event>
<event>
 5   0  0.1787688E-04  0.1616030E+04  0.7818609E-02  0.8810760E-01
       -1   -1    0    0    0  501  0.00000000000E+00  0.00000000000E+00  0.96791525173E+03  0.96791525174E+03  0.50400001928E-02 0. -1.
        1   -1    0    0  501    0  0.00000000000E+00  0.00000000000E+00 -0.67453053171E+03  0.67453053173E+03  0.50400001928E-02 0.  1.
    10030    2    1    2    0    0  0.00000000000E+00  0.00000000000E+00  0.29338472002E+03  0.16424457835E+04  0.16160301847E+04 0.  0.
        4    1    3    3  502    0 -0.71098178259E+03 -0.89491295673E+02  0.52613528675E+03  0.88900154108E+03  0.12699999809E+01 0. -1.
       -4    1    3    3    0  502  0.71098178259E+03  0.89491295673E+02 -0.23275056673E+03  0.75344424239E+03  0.12699999809E+01 0.  1.
</event>
<event>
 5   0  0.1819811E-04  0.1608127E+04  0.7818609E-02  0.8815571E-01
        1   -1    0    0  501    0  0.00000000000E+00  0.00000000000E+00  0.16882872946E+04  0.16882872946E+04  0.50400001928E-02 0.  1.
       -1   -1    0    0    0  501  0.00000000000E+00  0.00000000000E+00 -0.38294301412E+03  0.38294301416E+03  0.50400001928E-02 0. -1.
    10030    2    1    2    0    0  0.00000000000E+00  0.00000000000E+00  0.13053442805E+04  0.20712303088E+04  0.16081266434E+04 0.  0.
        1    1    3    3  502    0  0.48057580523E+03 -0.22693578596E+03 -0.12446476261E+03  0.54584286446E+03  0.50400001928E-02 0. -1.
       -1    1    3    3    0  502 -0.48057580523E+03  0.22693578596E+03  0.14298090431E+04  0.15253874443E+04  0.50400001928E-02 0.  1.
</event>
<event>
 5   0  0.1736537E-04  0.1608977E+04  0.7818609E-02  0.8815052E-01
        1   -1    0    0  501    0  0.00000000000E+00  0.00000000000E+00  0.22299001932E+04  0.22299001932E+04  0.50400001928E-02 0. -1.
       -1   -1    0    0    0  501  0.00000000000E+00  0.00000000000E+00 -0.29023783860E+03  0.29023783865E+03  0.50400001928E-02 0.  1.
    10030    2    1    2    0    0  0.00000000000E+00  0.00000000000E+00  0.19396623546E+04  0.25201380319E+04  0.16089765846E+04 0.  0.
        3    1    3    3  502    0  0.65290899815E+03 -0.46310121647E+03  0.10956090218E+04  0.13568758364E+04  0.10100000352E+00 0.  1.
       -3    1    3    3    0  502 -0.65290899815E+03  0.46310121647E+03  0.84405333280E+03  0.11632621955E+04  0.10100000352E+00 0. -1.
</event>
<event>
 5   0  0.1787688E-04  0.1699569E+04  0.7818609E-02  0.8761610E-01
       -1   -1    0    0    0  501  0.00000000000E+00  0.00000000000E+00  0.37504730035E+03  0.37504730038E+03  0.50400001928E-02 0.  1.
        1   -1    0    0  501    0  0.00000000000E+00  0.00000000000E+00 -0.19254472049E+04  0.19254472049E+04  0.50400001928E-02 0. -1.
    10030    2    1    2    0    0  0.00000000000E+00  0.00000000000E+00 -0.15503999046E+04  0.23004945053E+04  0.16995690939E+04 0.  0.
        4    1    3    3  502    0  0.59234685556E+03 -0.53771777093E+03 -0.38731867260E+03  0.88883776108E+03  0.12699999809E+01 0.  1.
       -4    1    3    3    0  502 -0.59234685556E+03  0.53771777093E+03 -0.11630812320E+04  0.14116567442E+04  0.12699999809E+01 0. -1.
</event>
<event>
 5   0  0.3274900E-04  0.1598687E+04  0.7818609E-02  0.8821355E-01
       -2   -1    0    0    0  501  0.00000000000E+00  0.00000000000E+00  0.11833139203E+04  0.11833139203E+04  0.25500000920E-02 0. -1.
        2   -1    0    0  501    0  0.00000000000E+00  0.00000000000E+00 -0.53996679658E+03  0.53996679659E+03  0.25500000920E-02 0.  1.
    10030    2    1    2    0    0  0.00000000000E+00  0.00000000000E+00  0.64334712374E+03  0.17232807169E+04  0.15986872451E+04 0.  0.
        3    1    3    3  502    0  0.21198795967E+03  0.28637190952E+03 -0.44963568582E+03  0.57368983412E+03  0.10100000352E+00 0.  1.
       -3    1    3    3    0  502 -0.21198795967E+03 -0.28637190952E+03  0.10929828096E+04  0.11495908828E+04  0.10100000352E+00 0. -1.
</event>
<event>
 5   0  0.1761255E-04  0.1591639E+04  0.7818609E-02  0.8825701E-01
        1   -1    0    0  501    0  0.00000000000E+00  0.00000000000E+00  0.71476323706E+03  0.71476323708E+03  0.50400001928E-02 0.  1.
       -1   -1    0    0    0  501  0.00000000000E+00  0.00000000000E+00 -0.88606828748E+03  0.88606828749E+03  0.50400001928E-02 0. -1.
    10030    2    1    2    0    0  0.00000000000E+00  0.00000000000E+00 -0.17130505041E+03  0.16008315246E+04  0.15916394534E+04 0.  0.
        2    1    3    3  502    0 -0.77619047623E+03 -0.69107084578E+02  0.76778127058E+02  0.78303405119E+03  0.25500000920E-02 0. -1.
       -2    1    3    3    0  502  0.77619047623E+03  0.69107084578E+02 -0.24808317747E+03  0.81779747338E+03  0.25500000920E-02 0.  1.
</event>
<event>
 5   0  0.1736537E-04  0.1596606E+04  0.7818609E-02  0.8822636E-01
        1   -1    0    0  501    0  0.00000000000E+00  0.00000000000E+00  0.62628522490E+03  0.62628522492E+03  0.50400001928E-02 0. -1.
       -1   -1    0    0    0  501  0.00000000000E+00  0.00000000000E+00 -0.10175674080E+04  0.10175674080E+04  0.50400001928E-02 0.  1.
    10030    2    1    2    0    0  0.00000000000E+00  0.00000000000E+00 -0.39128218308E+03  0.16438526329E+04  0.15966056908E+04 0.  0.
        3    1    3    3  502    0 -0.53584223191E+03  0.43934078614E+03  0.21249862448E+03  0.72477782766E+03  0.10100000352E+00 0. -1.
       -3    1    3    3    0  502  0.53584223191E+03 -0.43934078614E+03 -0.60378080756E+03  0.91907480525E+03  0.10100000352E+00 0.  1.
</event>
<event>
 5   0  0.1761255E-04  0.1599113E+04  0.7818609E-02  0.8821093E-01
        1   -1    0    0  501    0  0.00000000000E+00  0.00000000000E+00  0.19341272591E+04  0.19341272591E+04  0.50400001928E-02 0. -1.
       -1   -1    0    0    0  501  0.00000000000E+00  0.00000000000E+00 -0.33053167797E+03  0.33053167801E+03  0.50400001928E-02 0.  1.
    10030    2    1    2    0    0  0.00000000000E+00  0.00000000000E+00  0.16035955811E+04  0.22646589371E+04  0.15991126645E+04 0.  0.
        2    1    3    3  502    0 -0.96935147850E+02  0.75898430653E+03  0.11303943949E+04  0.13650073584E+04  0.25500000920E-02 0. -1.
       -2    1    3    3    0  502  0.96935147850E+02 -0.75898430653E+03  0.47320118626E+03  0.89965157874E+03  0.25500000920E-02 0.  1.
</event>
<event>
 5   0  0.3228393E-04  0.1581637E+04  0.7818609E-02  0.8831909E-01
        2   -1    0    0  501    0  0.00000000000E+00  0.00000000000E+00  0.17113743368E+04  0.17113743368E+04  0.25500000920E-02 0.  1.
       -2   -1    0    0    0  501  0.00000000000E+00  0.00000000000E+00 -0.36543390815E+03  0.36543390816E+03  0.25500000920E-02 0. -1.
    10030    2    1    2    0    0  0.00000000000E+00  0.00000000000E+00  0.13459404287E+04  0.20768082450E+04  0.15816373949E+04 0.  0.
        1    1    3    3  502    0  0.10908644061E+03  0.64495663892E+03  0.89389630916E+02  0.66019650390E+03  0.50400001928E-02 0.  1.
       -1    1    3    3    0  502 -0.10908644061E+03 -0.64495663892E+03  0.12565507978E+04  0.14166117411E+04  0.50400001928E-02 0. -1.
</event>
<event>
 5   0  0.1819811E-04  0.1603346E+04  0.7818609E-02  0.8818495E-01
       -1   -1    0    0    0  501  0.00000000000E+00  0.00000000000E+00  0.76919598563E+03  0.76919598565E+03  0.50400001928E-02 0. -1.
        1   -1    0    0  501    0  0.00000000000E+00  0.00000000000E+00 -0.83552110822E+03  0.83552110823E+03  0.50400001928E-02 0.  1.
    10030    2    1    2    0    0  0.00000000000E+00  0.00000000000E+00 -0.66325122589E+02  0.16047170939E+04  0.16033458546E+04 0.  0.
        1    1    3    3  502    0  0.58536596314E+03 -0.84850258409E+02  0.50843479020E+03  0.77997359767E+03  0.50400001928E-02 0. -1.
       -1    1    3    3    0  502 -0.58536596314E+03  0.84850258409E+02 -0.57475991279E+03  0.82474349621E+03  0.50400001928E-02 0.  1.
</event>
<event>
 5   0  0.3210612E-04  0.1650202E+04  0.7818609E-02  0.8790287E-01
        2   -1    0    0  501    0  0.00000000000E+00  0.00000000000E+00  0.18749076039E+04  0.18749076039E+04  0.25500000920E-02 0. -1.
       -2   -1    0    0    0  501  0.00000000000E+00  0.00000000000E+00 -0.36310683454E+03  0.36310683455E+03  0.25500000920E-02 0.  1.
    10030    2    1    2    0    0  0.00000000000E+00  0.00000000000E+00  0.15118007694E+04  0.22380144385E+04  0.16502021272E+04 0.  0.
        2    1    3    3  502    0  0.39054575214E+03  0.58547474710E+03  0.17180973092E+03  0.72444823670E+03  0.25500000920E-02 0.  1.
       -2    1    3    3    0  502 -0.39054575214E+03 -0.58547474710E+03  0.13399910385E+04  0.15135662018E+04  0.25500000920E-02 0. -1.
</event>
<event>
 5   0  0.1219463E-04  0.1606857E+04  0.7818609E-02  0.8816347E-01
        3   -1    0    0  501    0  0.00000000000E+00  0.00000000000E+00  0.13874248837E+04  0.13874248874E+04  0.10100000352E+00 0.  1.
       -3   -1    0    0    0  501  0.00000000000E+00  0.00000000000E+00 -0.46524821815E+03  0.46524822911E+03  0.10100000352E+00 0. -1.
    10030    2    1    2    0    0  0.00000000000E+00  0.00000000000E+00  0.92217666560E+03  0.18526731165E+04  0.16068565195E+04 0.  0.
        2    1    3    3  502    0 -0.49736978693E+03 -0.60989018975E+03  0.27462536728E+03  0.83352374943E+03  0.25500000920E-02 0. -1.
       -2    1    3    3    0  502  0.49736978693E+03  0.60989018975E+03  0.64755129832E+03  0.10191493671E+04  0.25500000920E-02 0.  1.
</event>
<event>
 5   0  0.1819811E-04  0.1556486E+04  0.7818609E-02  0.8847735E-01
        1   -1    0    0  501    0  0.00000000000E+00  0.00000000000E+00  0.79031899790E+03  0.79031899791E+03  0.50400001928E-02 0. -1.
       -1   -1    0    0    0  501  0.00000000000E+00  0.00000000000E+00 -0.76635176129E+03  0.76635176131E+03  0.50400001928E-02 0.  1.
    10030    2    1    2    0    0  0.00000000000E+00  0.00000000000E+00  0.23967236604E+02  0.15566707592E+04  0.15564862429E+04 0.  0.
        1    1    3    3  502    0 -0.55984615202E+03 -0.20239515717E+03  0.51331227364E+03  0.78605407184E+03  0.50400001928E-02 0. -1.
       -1    1    3    3    0  502  0.55984615202E+03  0.20239515717E+03 -0.48934503703E+03  0.77061668738E+03  0.50400001928E-02 0.  1.
</event>
<event>
 5   0  0.1736537E-04  0.1589715E+04  0.7818609E-02  0.8826892E-01
       -1   -1    0    0    0  501  0.00000000000E+00  0.00000000000E+00  0.95786393291E+03  0.95786393293E+03  0.50400001928E-02 0. -1.
        1   -1    0    0  501    0  0.00000000000E+00  0.00000000000E+00 -0.65959076328E+03  0.65959076330E+03  0.50400001928E-02 0.  1.
    10030    2    1    2    0    0  0.00000000000E+00  0.00000000000E+00  0.29827316963E+03  0.16174546962E+04  0.15897146947E+04 0.  0.
        3    1    3    3  502    0  0.27473458529E+03  0.58765969363E+03 -0.31819875580E+03  0.72254651495E+03  0.10100000352E+00 0.  1.
       -3    1    3    3    0  502 -0.27473458529E+03 -0.58765969363E+03  0.61647192543E+03  0.89490818128E+03  0.10100000352E+00 0. -1.
</event>
<event>
 5   0  0.3274900E-04  0.1592091E+04  0.7818609E-02  0.8825421E-01
        2   -1    0    0  501    0  0.00000000000E+00  0.00000000000E+00  0.88594630578E+03  0.88594630578E+03  0.25500000920E-02 0.  1.
       -2   -1    0    0    0  501  0.00000000000E+00  0.00000000000E+00 -0.71526754412E+03  0.71526754412E+03  0.25500000920E-02 0. -1.
    10030    2    1    2    0    0  0.00000000000E+00  0.00000000000E+00  0.17067876166E+03  0.16012138499E+04  0.15920912516E+04 0.  0.
        3    1    3    3  502    0  0.55291067844E+03 -0.32722380473E+03 -0.38735689481E+03  0.75022064146E+03  0.10100000352E+00 0. -1.
       -3    1    3    3    0  502 -0.55291067844E+03  0.32722380473E+03  0.55803565647E+03  0.85099320844E+03  0.10100000352E+00 0.  1.
</event>
<event>
 5   0  0.3263294E-04  0.1586488E+04  0.7818609E-02  0.8828892E-01
        2   -1    0    0  501    0  0.00000000000E+00  0.00000000000E+00  0.38681800795E+03  0.38681800795E+03  0.25500000920E-02 0. -1.
       -2   -1    0    0    0  501  0.00000000000E+00  0.00000000000E+00 -0.16266972101E+04  0.16266972101E+04  0.25500000920E-02 0.  1.
    10030    2    1    2    0    0  0.00000000000E+00  0.00000000000E+00 -0.12398792022E+04  0.20135152181E+04  0.15864876607E+04 0.  0.
        4    1    3    3  502    0 -0.11350818861E+03 -0.24099522825E+03 -0.15682289860E+04  0.15906937399E+04  0.12699999809E+01 0.  1.
       -4    1    3    3    0  502  0.11350818861E+03  0.24099522825E+03  0.32834978382E+03  0.42282147812E+03  0.12699999809E+01 0. -1.
</event>
<event>
 5   0  0.1819811E-04  0.1613134E+04  0.7818609E-02  0.8812520E-01
        1   -1    0    0  501    0  0.00000000000E+00  0.00000000000E+00  0.16758625750E+04  0.16758625750E+04  0.50400001928E-02 0. -1.
       -1   -1    0    0    0  501  0.00000000000E+00  0.00000000000E+00 -0.38818812388E+03  0.38818812391E+03  0.50400001928E-02 0.  1.
    10030    2    1    2    0    0  0.00000000000E+00  0.00000000000E+00  0.12876744512E+04  0.20640506990E+04  0.16131335331E+04 0.  0.
        1    1    3    3  502    0  0.20483328346E+03 -0.46237267622E+03 -0.16013536753E+03  0.53046065046E+03  0.50400001928E-02 0.  1.
       -1    1    3    3    0  502 -0.20483328346E+03  0.46237267622E+03  0.14478098187E+04  0.15335900485E+04  0.50400001928E-02 0. -1.
</event>
<event>
 5   0  0.1764099E-04  0.1757514E+04  0.7818609E-02  0.8729225E-01
        1   -1    0    0  501    0  0.00000000000E+00  0.00000000000E+00  0.66058416858E+03  0.66058416860E+03  0.50400001928E-02 0.  1.
       -1   -1    0    0    0  501  0.00000000000E+00  0.00000000000E+00 -0.11689866174E+04  0.11689866174E+04  0.50400001928E-02 0. -1.
    10030    2    1    2    0    0  0.00000000000E+00  0.00000000000E+00 -0.50840244884E+03  0.18295707860E+04  0.17575142136E+04 0.  0.
        5    1    3    3  502    0  0.75091706955E+02 -0.84639142709E+03 -0.48738212844E+03  0.97958187071E+03  0.46999998093E+01 0. -1.
       -5    1    3    3    0  502 -0.75091706955E+02  0.84639142709E+03 -0.21020320403E+02  0.84998891532E+03  0.46999998093E+01 0.  1.
</event>
<event>
 5   0  0.3274900E-04  0.1585902E+04  0.7818609E-02  0.8829256E-01
        2   -1    0    0  501    0  0.00000000000E+00  0.00000000000E+00  0.13785641868E+04  0.13785641868E+04  0.25500000920E-02 0. -1.
       -2   -1    0    0    0  501  0.00000000000E+00  0.00000000000E+00 -0.45610616783E+03  0.45610616784E+03  0.25500000920E-02 0.  1.
    10030    2    1    2    0    0  0.00000000000E+00  0.00000000000E+00  0.92245801901E+03  0.18346703547E+04  0.15859024287E+04 0.  0.
        3    1    3    3  502    0 -0.42076430062E+03  0.22510200201E+03 -0.27140188878E+03  0.54897404621E+03  0.10100000352E+00 0.  1.
       -3    1    3    3    0  502  0.42076430062E+03 -0.22510200201E+03  0.11938599078E+04  0.12856963085E+04  0.10100000352E+00 0. -1.
</event>
<event>
 5   0  0.1787688E-04  0.1614692E+04  0.7818609E-02  0.8811573E-01
       -1   -1    0    0    0  501  0.00000000000E+00  0.00000000000E+00  0.66553775389E+03  0.66553775391E+03  0.50400001928E-02 0. -1.
        1   -1    0    0  501    0  0.00000000000E+00  0.00000000000E+00 -0.97937001837E+03  0.97937001838E+03  0.50400001928E-02 0.  1.
    10030    2    1    2    0    0  0.00000000000E+00  0.00000000000E+00 -0.31383226448E+03  0.16449077723E+04  0.16146921964E+04 0.  0.
        4    1    3    3  502    0  0.53597748101E+03  0.56445085098E+02 -0.76928732884E+03  0.93928830238E+03  0.12699999809E+01 0.  1.
       -4    1    3    3    0  502 -0.53597748101E+03 -0.56445085098E+02  0.45545506436E+03  0.70561946992E+03  0.12699999809E+01 0. -1.
</event>
<event>
 5   0  0.3274900E-04  0.1590232E+04  0.7818609E-02  0.8826572E-01
       -2   -1    0    0    0  501  0.00000000000E+00  0.00000000000E+00  0.78811711986E+03  0.78811711987E+03  0.25500000920E-02 0. -1.
        2   -1    0    0  501    0  0.00000000000E+00  0.00000000000E+00 -0.80217668429E+03  0.80217668429E+03  0.25500000920E-02 0.  1.
    10030    2    1    2    0    0  0.00000000000E+00  0.00000000000E+00 -0.14059564427E+02  0.15902938042E+04  0.15902316536E+04 0.  0.
        3    1    3    3  502    0 -0.59669091848E+02  0.11419698433E+03 -0.79166723751E+03  0.80208377175E+03  0.10100000352E+00 0.  1.
       -3    1    3    3    0  502  0.59669091848E+02 -0.11419698433E+03  0.77760767308E+03  0.78821003241E+03  0.10100000352E+00 0. -1.
</event>
<event>
 5   0  0.1219463E-04  0.1591147E+04  0.7818609E-02  0.8826005E-01
        3   -1    0    0  501    0  0.00000000000E+00  0.00000000000E+00  0.14485144855E+04  0.14485144890E+04  0.10100000352E+00 0. -1.
       -3   -1    0    0    0  501  0.00000000000E+00  0.00000000000E+00 -0.43695608340E+03  0.43695609508E+03  0.10100000352E+00 0.  1.
    10030    2    1    2    0    0  0.00000000000E+00  0.00000000000E+00  0.10115584021E+04  0.18854705841E+04  0.15911470462E+04 0.  0.
        2    1    3    3  502    0 -0.71948017939E+03 -0.32121627383E+03  0.37540167398E+03  0.87278751134E+03  0.25500000920E-02 0.  1.
       -2    1    3    3    0  502  0.71948017939E+03  0.32121627383E+03  0.63615672812E+03  0.10126830728E+04  0.25500000920E-02 0. -1.
</event>
<event>
 5   0  0.1761255E-04  0.1584476E+04  0.7818609E-02  0.8830142E-01
       -1   -1    0    0    0  501  0.00000000000E+00  0.00000000000E+00  0.36989122496E+03  0.36989122499E+03  0.50400001928E-02 0.  1.
        1   -1    0    0  501    0  0.00000000000E+00  0.00000000000E+00 -0.16968261145E+04  0.16968261145E+04  0.50400001928E-02 0. -1.
    10030    2    1    2    0    0  0.00000000000E+00  0.00000000000E+00 -0.13269348895E+04  0.20667173395E+04  0.15844760523E+04 0.  0.
        2    1    3    3  502    0  0.56572627681E+03  0.32960529071E+03 -0.12452665847E+04  0.14069025321E+04  0.25500000920E-02 0. -1.
       -2    1    3    3    0  502 -0.56572627681E+03 -0.32960529071E+03 -0.81668304790E+02  0.65981480732E+03  0.25500000920E-02 0.  1.
</event>
<event>
 5   0  0.3380454E-04  0.1611731E+04  0.7818609E-02  0.8813374E-01
       -2   -1    0    0    0  501  0.00000000000E+00  0.00000000000E+00  0.36871432643E+03  0.36871432644E+03  0.25500000920E-02 0.  1.
        2   -1    0    0  501    0  0.00000000000E+00  0.00000000000E+00 -0.17613069021E+04  0.17613069021E+04  0.25500000920E-02 0. -1.
    10030    2    1    2    0    0  0.00000000000E+00  0.00000000000E+00 -0.13925925756E+04  0.21300212285E+04  0.16117308560E+04 0.  0.
        5    1    3    3  502    0 -0.53486828444E+03  0.59838142326E+03 -0.79207700973E+03  0.11276313621E+04  0.46999998093E+01 0. -1.
       -5    1    3    3    0  502  0.53486828444E+03 -0.59838142326E+03 -0.60051556590E+03  0.10023898664E+04  0.46999998093E+01 0.  1.
</event>
<event>
 5   0  0.1819811E-04  0.1667566E+04  0.7818609E-02  0.8780082E-01
        1   -1    0    0  501    0  0.00000000000E+00  0.00000000000E+00  0.65113701945E+03  0.65113701947E+03  0.50400001928E-02 0. -1.
       -1   -1    0    0    0  501  0.00000000000E+00  0.00000000000E+00 -0.10676618708E+04  0.10676618708E+04  0.50400001928E-02 0.  1.
    10030    2    1    2    0    0  0.00000000000E+00  0.00000000000E+00 -0.41652485131E+03  0.17187988902E+04  0.16675660926E+04 0.  0.
        1    1    3    3  502    0  0.51868048177E+03 -0.73235460756E+02 -0.87688424011E+03  0.10214298045E+04  0.50400001928E-02 0.  1.
       -1    1    3    3    0  502 -0.51868048177E+03  0.73235460756E+02  0.46035938881E+03  0.69736908576E+03  0.50400001928E-02 0. -1.
</event>
<event>
 5   0  0.1819811E-04  0.1600300E+04  0.7818609E-02  0.8820363E-01
       -1   -1    0    0    0  501  0.00000000000E+00  0.00000000000E+00  0.50049448499E+03  0.50049448501E+03  0.50400001928E-02 0.  1.
        1   -1    0    0  501    0  0.00000000000E+00  0.00000000000E+00 -0.12792157206E+04  0.12792157207E+04  0.50400001928E-02 0. -1.
    10030    2    1    2    0    0  0.00000000000E+00  0.00000000000E+00 -0.77872123566E+03  0.17797102057E+04  0.16003004884E+04 0.  0.
        1    1    3    3  502    0 -0.39484250143E+03 -0.61886134943E+03 -0.74340733984E+03  0.10447700435E+04  0.50400001928E-02 0. -1.
       -1    1    3    3    0  502  0.39484250143E+03  0.61886134943E+03 -0.35313895820E+02  0.73494016221E+03  0.50400001928E-02 0.  1.
</event>
<event>
 5   0  0.3274900E-04  0.1592711E+04  0.7818609E-02  0.8825038E-01
        2   -1    0    0  501    0  0.00000000000E+00  0.00000000000E+00  0.69249227236E+03  0.69249227236E+03  0.25500000920E-02 0. -1.
       -2   -1    0    0    0  501  0.00000000000E+00  0.00000000000E+00 -0.91579660968E+03  0.91579660969E+03  0.25500000920E-02 0.  1.
    10030    2    1    2    0    0  0.00000000000E+00  0.00000000000E+00 -0.22330433733E+03  0.16082888820E+04  0.15927109911E+04 0.  0.
        3    1    3    3  502    0  0.10808139895E+03  0.74271920087E+02 -0.90481816833E+03  0.91427229798E+03  0.10100000352E+00 0.  1.
       -3    1    3    3    0  502 -0.10808139895E+03 -0.74271920087E+02  0.68151383100E+03  0.69401658407E+03  0.10100000352E+00 0. -1.
</event>
<event>
 5   0  0.1787688E-04  0.1611465E+04  0.7818609E-02  0.8813535E-01
        1   -1    0    0  501    0  0.00000000000E+00  0.00000000000E+00  0.16075775786E+04  0.16075775786E+04  0.50400001928E-02 0. -1.
       -1   -1    0    0    0  501  0.00000000000E+00  0.00000000000E+00 -0.40384055915E+03  0.40384055918E+03  0.50400001928E-02 0.  1.
    10030    2    1    2    0    0  0.00000000000E+00  0.00000000000E+00  0.12037370194E+04  0.20114181378E+04  0.16114652069E+04 0.  0.
        4    1    3    3  502    0 -0.12307920202E+03 -0.36062180341E+03 -0.28426598804E+03  0.47540018923E+03  0.12699999809E+01 0.  1.
       -4    1    3    3    0  502  0.12307920202E+03  0.36062180341E+03  0.14880030075E+04  0.15360179485E+04  0.12699999809E+01 0. -1.
</event>
<event>
 5   0  0.1819811E-04  0.1590458E+04  0.7818609E-02  0.8826431E-01
       -1   -1    0    0    0  501  0.00000000000E+00  0.00000000000E+00  0.69015543220E+03  0.69015543222E+03  0.50400001928E-02 0.  1.
        1   -1    0    0  501    0  0.00000000000E+00  0.00000000000E+00 -0.91630019436E+03  0.91630019437E+03  0.50400001928E-02 0. -1.
    10030    2    1    2    0    0  0.00000000000E+00  0.00000000000E+00 -0.22614476216E+03  0.16064556266E+04  0.15904584958E+04 0.  0.
        1    1    3    3  502    0  0.19717037522E+03  0.13358588010E+02 -0.89110240816E+03  0.91275303921E+03  0.50400001928E-02 0. -1.
       -1    1    3    3    0  502 -0.19717037522E+03 -0.13358588010E+02  0.66495764600E+03  0.69370258738E+03  0.50400001928E-02 0.  1.
</event>
<event>
 5   0  0.3380454E-04  0.1594341E+04  0.7818609E-02  0.8824032E-01
        2   -1    0    0  501    0  0.00000000000E+00  0.00000000000E+00  0.16378357272E+04  0.16378357272E+04  0.25500000920E-02 0.  1.
       -2   -1    0    0    0  501  0.00000000000E+00  0.00000000000E+00 -0.38800049997E+03  0.38800049998E+03  0.25500000920E-02 0. -1.
    10030    2    1    2    0    0  0.00000000000E+00  0.00000000000E+00  0.12498352273E+04  0.20258362272E+04  0.15943413450E+04 0.  0.
        5    1    3    3  502    0  0.12078752094E+03  0.65242890135E+03  0.11863138393E+04  0.13592702866E+04  0.46999998093E+01 0. -1.
       -5    1    3    3    0  502 -0.12078752094E+03 -0.65242890135E+03  0.63521387932E+02  0.66656594066E+03  0.46999998093E+01 0.  1.
</event>
<event>
 5   0  0.1764099E-04  0.1595707E+04  0.7818609E-02  0.8823190E-01
        1   -1    0    0  501    0  0.00000000000E+00  0.00000000000E+00  0.79207279690E+03  0.79207279691E+03  0.50400001928E-02 0.  1.
       -1   -1    0    0    0  501  0.00000000000E+00  0.00000000000E+00 -0.80367598423E+03  0.80367598424E+03  0.50400001928E-02 0. -1.
    10030    2    1    2    0    0  0.00000000000E+00  0.00000000000E+00 -0.11603187329E+02  0.15957487812E+04  0.15957065954E+04 0.  0.
        5    1    3    3  502    0 -0.43643244737E+02 -0.77774923126E+03  0.16668251602E+03  0.79662020479E+03  0.46999998093E+01 0.  1.
       -5    1    3    3    0  502  0.43643244737E+02  0.77774923126E+03 -0.17828570335E+03  0.79912857636E+03  0.46999998093E+01 0. -1.
</event>
<event>
 5   0  0.3274900E-04  0.1594360E+04  0.7818609E-02  0.8824020E-01
        2   -1    0    0  501    0  0.00000000000E+00  0.00000000000E+00  0.18508226628E+04  0.18508226628E+04  0.25500000920E-02 0. -1.
       -2   -1    0    0    0  501  0.00000000000E+00  0.00000000000E+00 -0.34335878112E+03  0.34335878113E+03  0.25500000920E-02 0.  1.
    10030    2    1    2    0    0  0.00000000000E+00  0.00000000000E+00  0.15074638817E+04  0.21941814439E+04  0.15943603276E+04 0.  0.
        3    1    3    3  502    0 -0.44235440472E+03 -0.65266021850E+03  0.91571313984E+03  0.12083763258E+04  0.10100000352E+00 0.  1.
       -3    1    3    3    0  502  0.44235440472E+03  0.65266021850E+03  0.59175074184E+03  0.98580511809E+03  0.10100000352E+00 0. -1.
</event>
<event>
 5   0  0.1761255E-04  0.1605190E+04  0.7818609E-02  0.8817366E-01
        1   -1    0    0  501    0  0.00000000000E+00  0.00000000000E+00  0.72039440302E+03  0.72039440304E+03  0.50400001928E-02 0.  1.
       -1   -1    0    0    0  501  0.00000000000E+00  0.00000000000E+00 -0.89417517173E+03  0.89417517174E+03  0.50400001928E-02 0. -1.
    10030    2    1    2    0    0  0.00000000000E+00  0.00000000000E+00 -0.17378076870E+03  0.16145695748E+04  0.16051900686E+04 0.  0.
        2    1    3    3  502    0  0.14623829907E+03 -0.10378986932E+03  0.69998561573E+03  0.72259105954E+03  0.25500000920E-02 0.  1.
       -2    1    3    3    0  502 -0.14623829907E+03  0.10378986932E+03 -0.87376638443E+03  0.89197851525E+03  0.25500000920E-02 0. -1.
</event>
<event>
 5   0  0.1787688E-04  0.1599311E+04  0.7818609E-02  0.8820972E-01
        1   -1    0    0  501    0  0.00000000000E+00  0.00000000000E+00  0.13949416424E+04  0.13949416424E+04  0.50400001928E-02 0.  1.
       -1   -1    0    0    0  501  0.00000000000E+00  0.00000000000E+00 -0.45840525574E+03  0.45840525577E+03  0.50400001928E-02 0. -1.
    10030    2    1    2    0    0  0.00000000000E+00  0.00000000000E+00  0.93653638663E+03  0.18533468982E+04  0.15993105769E+04 0.  0.
        4    1    3    3  502    0 -0.13041572517E+03  0.69848641064E+03  0.89335197626E+03  0.11414775046E+04  0.12699999809E+01 0.  1.
       -4    1    3    3    0  502  0.13041572517E+03 -0.69848641064E+03  0.43184410368E+02  0.71186939351E+03  0.12699999809E+01 0. -1.
</event>
<event>
 5   0  0.1819811E-04  0.1620175E+04  0.7818609E-02  0.8808249E-01
       -1   -1    0    0    0  501  0.00000000000E+00  0.00000000000E+00  0.57943964432E+03  0.57943964434E+03  0.50400001928E-02 0.  1.
        1   -1    0    0  501    0  0.00000000000E+00  0.00000000000E+00 -0.11325455123E+04  0.11325455123E+04  0.50400001928E-02 0. -1.
    10030    2    1    2    0    0  0.00000000000E+00  0.00000000000E+00 -0.55310586801E+03  0.17119851567E+04  0.16201750138E+04 0.  0.
        1    1    3    3  502    0 -0.23000845453E+02 -0.36322061987E+02  0.57823332571E+03  0.57982938013E+03  0.50400001928E-02 0.  1.
       -1    1    3    3    0  502  0.23000845453E+02  0.36322061987E+02 -0.11313391937E+04  0.11321557765E+04  0.50400001928E-02 0. -1.
</event>
<event>
 5   0  0.1787688E-04  0.1603069E+04  0.7818609E-02  0.8818665E-01
        1   -1    0    0  501    0  0.00000000000E+00  0.00000000000E+00  0.13878181979E+04  0.13878181979E+04  0.50400001928E-02 0.  1.
       -1   -1    0    0    0  501  0.00000000000E+00  0.00000000000E+00 -0.46292656117E+03  0.46292656120E+03  0.50400001928E-02 0. -1.
    10030    2    1    2    0    0  0.00000000000E+00  0.00000000000E+00  0.92489163672E+03  0.18507447591E+04  0.16030694382E+04 0.  0.
        4    1    3    3  502    0 -0.47342924331E+03  0.56300533202E+03  0.82997987409E+03  0.11090439381E+04  0.12699999809E+01 0. -1.
       -4    1    3    3    0  502  0.47342924331E+03 -0.56300533202E+03  0.94911762630E+02  0.74170082102E+03  0.12699999809E+01 0.  1.
</event>
<event>
 5   0  0.3210612E-04  0.1561867E+04  0.7818609E-02  0.8844323E-01
       -2   -1    0    0    0  501  0.00000000000E+00  0.00000000000E+00  0.57622984061E+03  0.57622984061E+03  0.25500000920E-02 0.  1.
        2   -1    0    0  501    0  0.00000000000E+00  0.00000000000E+00 -0.10583568312E+04  0.10583568312E+04  0.25500000920E-02 0. -1.
    10030    2    1    2    0    0  0.00000000000E+00  0.00000000000E+00 -0.48212699061E+03  0.16345866718E+04  0.15618665605E+04 0.  0.
        2    1    3    3  502    0  0.63478966872E+03 -0.18037656853E+03 -0.67807351043E+03  0.94619095089E+03  0.25500000920E-02 0. -1.
       -2    1    3    3    0  502 -0.63478966872E+03  0.18037656853E+03  0.19594651982E+03  0.68839572095E+03  0.25500000920E-02 0.  1.
</event>
<event>
 5   0  0.3228393E-04  0.1601257E+04  0.7818609E-02  0.8819776E-01
       -2   -1    0    0    0  501  0.00000000000E+00  0.00000000000E+00  0.62381896283E+03  0.62381896283E+03  0.25500000920E-02 0.  1.
        2   -1    0    0  501    0  0.00000000000E+00  0.00000000000E+00 -0.10275519333E+04  0.10275519333E+04  0.25500000920E-02 0. -1.
    10030    2    1    2    0    0  0.00000000000E+00  0.00000000000E+00 -0.40373297052E+03  0.16513708962E+04  0.16012574825E+04 0.  0.
        1    1    3    3  502    0  0.36868421722E+03  0.22108142134E+03  0.49469864451E+03  0.65538675284E+03  0.50400001928E-02 0.  1.
       -1    1    3    3    0  502 -0.36868421722E+03 -0.22108142134E+03 -0.89843161502E+03  0.99598414334E+03  0.50400001928E-02 0. -1.
</event>
<event>
 5   0  0.3274900E-04  0.1606624E+04  0.7818609E-02  0.8816489E-01
       -2   -1    0    0    0  501  0.00000000000E+00  0.00000000000E+00  0.67758822544E+03  0.67758822545E+03  0.25500000920E-02 0.  1.
        2   -1    0    0  501    0  0.00000000000E+00  0.00000000000E+00 -0.95236280539E+03  0.95236280540E+03  0.25500000920E-02 0. -1.
    10030    2    1    2    0    0  0.00000000000E+00  0.00000000000E+00 -0.27477457995E+03  0.16299510308E+04  0.16066235692E+04 0.  0.
        3    1    3    3  502    0 -0.48566469334E+02 -0.42608319813E+03 -0.82651736532E+03  0.93114797914E+03  0.10100000352E+00 0. -1.
       -3    1    3    3    0  502  0.48566469334E+02  0.42608319813E+03  0.55174278536E+03  0.69880305171E+03  0.10100000352E+00 0.  1.
</event>
<event>
 5   0  0.3228393E-04  0.1590972E+04  0.7818609E-02  0.8826113E-01
        2   -1    0    0  501    0  0.00000000000E+00  0.00000000000E+00  0.18522080368E+04  0.18522080368E+04  0.25500000920E-02 0. -1.
       -2   -1    0    0    0  501  0.00000000000E+00  0.00000000000E+00 -0.34164526443E+03  0.34164526444E+03  0.25500000920E-02 0.  1.
    10030    2    1    2    0    0  0.00000000000E+00  0.00000000000E+00  0.15105627724E+04  0.21938533012E+04  0.15909721613E+04 0.  0.
        1    1    3    3  502    0 -0.20167308534E+03  0.42666003104E+03 -0.12776426776E+03  0.48891157031E+03  0.50400001928E-02 0.  1.
       -1    1    3    3    0  502  0.20167308534E+03 -0.42666003104E+03  0.16383270401E+04  0.17049417309E+04  0.50400001928E-02 0. -1.
</event>
<event>
 5   0  0.3263294E-04  0.1596632E+04  0.7818609E-02  0.8822620E-01
       -2   -1    0    0    0  501  0.00000000000E+00  0.00000000000E+00  0.10697179237E+04  0.10697179237E+04  0.25500000920E-02 0. -1.
        2   -1    0    0  501    0  0.00000000000E+00  0.00000000000E+00 -0.59577221920E+03  0.59577221921E+03  0.25500000920E-02 0.  1.
    10030    2    1    2    0    0  0.00000000000E+00  0.00000000000E+00  0.47394570453E+03  0.16654901429E+04  0.15966317313E+04 0.  0.
        4    1    3    3  502    0 -0.29092068528E+03 -0.72677311825E+03  0.40015676716E+03  0.87918204130E+03  0.12699999809E+01 0.  1.
       -4    1    3    3    0  502  0.29092068528E+03  0.72677311825E+03  0.73788937369E+02  0.78630810165E+03  0.12699999809E+01 0. -1.
</event>
<event>
 5   0  0.1736537E-04  0.1595495E+04  0.7818609E-02  0.8823320E-01
       -1   -1    0    0    0  501  0.00000000000E+00  0.00000000000E+00  0.33138999822E+03  0.33138999826E+03  0.50400001928E-02 0. -1.
        1   -1    0    0  501    0  0.00000000000E+00  0.00000000000E+00 -0.19203992373E+04  0.19203992373E+04  0.50400001928E-02 0.  1.
    10030    2    1    2    0    0  0.00000000000E+00  0.00000000000E+00 -0.15890092391E+04  0.22517892356E+04  0.15954950328E+04 0.  0.
        3    1    3    3  502    0 -0.73343381156E+03 -0.29934186832E+03 -0.66158062452E+03  0.10320947839E+04  0.10100000352E+00 0. -1.
       -3    1    3    3    0  502  0.73343381156E+03  0.29934186832E+03 -0.92742861457E+03  0.12196944517E+04  0.10100000352E+00 0.  1.
</event>
<event>
 5   0  0.1819811E-04  0.1574654E+04  0.7818609E-02  0.8836272E-01
        1   -1    0    0  501    0  0.00000000000E+00  0.00000000000E+00  0.10615350253E+04  0.10615350253E+04  0.50400001928E-02 0. -1.
       -1   -1    0    0    0  501  0.00000000000E+00  0.00000000000E+00 -0.58395061645E+03  0.58395061647E+03  0.50400001928E-02 0.  1.
    10030    2    1    2    0    0  0.00000000000E+00  0.00000000000E+00  0.47758440886E+03  0.16454856418E+04  0.15746542890E+04 0.  0.
        1    1    3    3  502    0 -0.31627257102E+01  0.31188160749E+02  0.10608826182E+04  0.10613456712E+04  0.50400001928E-02 0. -1.
       -1    1    3    3    0  502  0.31627257102E+01 -0.31188160749E+02 -0.58329820932E+03  0.58413997058E+03  0.50400001928E-02 0.  1.
</event>
<event>
 5   0  0.1219463E-04  0.1544768E+04  0.7818609E-02  0.8855217E-01
        3   -1    0    0  501    0  0.00000000000E+00  0.00000000000E+00  0.19701015191E+04  0.19701015217E+04  0.10100000352E+00 0.  1.
       -3   -1    0    0    0  501  0.00000000000E+00  0.00000000000E+00 -0.30281530037E+03  0.30281531721E+03  0.10100000352E+00 0. -1.
    10030    2    1    2    0    0  0.00000000000E+00  0.00000000000E+00  0.16672862187E+04  0.22729168389E+04  0.15447678212E+04 0.  0.
        2    1    3    3  502    0  0.30863071211E+03  0.70609797957E+03  0.91079696407E+03  0.11930542247E+04  0.25500000920E-02 0. -1.
       -2    1    3    3    0  502 -0.30863071211E+03 -0.70609797957E+03  0.75648925466E+03  0.10798626142E+04  0.25500000920E-02 0.  1.
</event>
<event>
 5   0  0.1819811E-04  0.1600663E+04  0.7818609E-02  0.8820141E-01
        1   -1    0    0  501    0  0.00000000000E+00  0.00000000000E+00  0.80510067244E+03  0.80510067245E+03  0.50400001928E-02 0.  1.
       -1   -1    0    0    0  501  0.00000000000E+00  0.00000000000E+00 -0.79559065516E+03  0.79559065517E+03  0.50400001928E-02 0. -1.
    10030    2    1    2    0    0  0.00000000000E+00  0.00000000000E+00  0.95100172792E+01  0.16006913276E+04  0.16006630770E+04 0.  0.
        1    1    3    3  502    0  0.55867372596E+03  0.25223614320E+02  0.57728411611E+03  0.80374717016E+03  0.50400001928E-02 0.  1.
       -1    1    3    3    0  502 -0.55867372596E+03 -0.25223614320E+02 -0.56777409883E+03  0.79694415747E+03  0.50400001928E-02 0. -1.
</event>
<event>
 5   0  0.1787688E-04  0.1600413E+04  0.7818609E-02  0.8820294E-01
        1   -1    0    0  501    0  0.00000000000E+00  0.00000000000E+00  0.94397043094E+03  0.94397043095E+03  0.50400001928E-02 0. -1.
       -1   -1    0    0    0  501  0.00000000000E+00  0.00000000000E+00 -0.67833759813E+03  0.67833759815E+03  0.50400001928E-02 0.  1.
    10030    2    1    2    0    0  0.00000000000E+00  0.00000000000E+00  0.26563283280E+03  0.16223080291E+04  0.16004132402E+04 0.  0.
        4    1    3    3  502    0 -0.36742946943E+03  0.59217777770E+03  0.53145218625E+03  0.87642568115E+03  0.12699999809E+01 0. -1.
       -4    1    3    3    0  502  0.36742946943E+03 -0.59217777770E+03 -0.26581935345E+03  0.74588234795E+03  0.12699999809E+01 0.  1.
</event>
<event>
 5   0  0.1736537E-04  0.1605827E+04  0.7818609E-02  0.8816976E-01
        1   -1    0    0  501    0  0.00000000000E+00  0.00000000000E+00  0.96033540457E+03  0.96033540458E+03  0.50400001928E-02 0. -1.
       -1   -1    0    0    0  501  0.00000000000E+00  0.00000000000E+00 -0.67129658622E+03  0.67129658624E+03  0.50400001928E-02 0.  1.
    10030    2    1    2    0    0  0.00000000000E+00  0.00000000000E+00  0.28903881834E+03  0.16316319908E+04  0.16058267388E+04 0.  0.
        3    1    3    3  502    0 -0.15623658485E+03  0.47871208687E+03  0.77994472276E+03  0.92837972474E+03  0.10100000352E+00 0. -1.
       -3    1    3    3    0  502  0.15623658485E+03 -0.47871208687E+03 -0.49090590442E+03  0.70325226608E+03  0.10100000352E+00 0.  1.
</event>
<event>
 5   0  0.3263294E-04  0.1594804E+04  0.7818609E-02  0.8823746E-01
       -2   -1    0    0    0  501  0.00000000000E+00  0.00000000000E+00  0.93636530024E+03  0.93636530024E+03  0.25500000920E-02 0. -1.
        2   -1    0    0  501    0  0.00000000000E+00  0.00000000000E+00 -0.67906195039E+03  0.67906195040E+03  0.25500000920E-02 0.  1.
    10030    2    1    2    0    0  0.00000000000E+00  0.00000000000E+00  0.25730334985E+03  0.16154272506E+04  0.15948041222E+04 0.  0.
        4    1    3    3  502    0  0.14734148234E+03  0.44110579161E+03 -0.52746258310E+03  0.70320851907E+03  0.12699999809E+01 0.  1.
       -4    1    3    3    0  502 -0.14734148234E+03 -0.44110579161E+03  0.78476593295E+03  0.91221873158E+03  0.12699999809E+01 0. -1.
</event>
<event>
 5   0  0.1761255E-04  0.1589476E+04  0.7818609E-02  0.8827040E-01
       -1   -1    0    0    0  501  0.00000000000E+00  0.00000000000E+00  0.98466439067E+03  0.98466439069E+03  0.50400001928E-02 0.  1.
        1   -1    0    0  501    0  0.00000000000E+00  0.00000000000E+00 -0.64144521426E+03  0.64144521428E+03  0.50400001928E-02 0. -1.
    10030    2    1    2    0    0  0.00000000000E+00  0.00000000000E+00  0.34321917642E+03  0.16261096050E+04  0.15894757137E+04 0.  0.
        2    1    3    3  502    0  0.59619490660E+03 -0.49686348414E+03  0.34668703025E+03  0.85000799142E+03  0.25500000920E-02 0.  1.
       -2    1    3    3    0  502 -0.59619490660E+03  0.49686348414E+03 -0.34678538328E+01  0.77610161354E+03  0.25500000920E-02 0. -1.
</event>
<event>
 5   0  0.1736537E-04  0.1594576E+04  0.7818609E-02  0.8823887E-01
       -1   -1    0    0    0  501  0.00000000000E+00  0.00000000000E+00  0.45760374623E+03  0.45760374626E+03  0.50400001928E-02 0. -1.
        1   -1    0    0  501    0  0.00000000000E+00  0.00000000000E+00 -0.13891231795E+04  0.13891231795E+04  0.50400001928E-02 0.  1.
    10030    2    1    2    0    0  0.00000000000E+00  0.00000000000E+00 -0.93151943327E+03  0.18467269258E+04  0.15945757692E+04 0.  0.
        3    1    3    3  502    0 -0.22372173801E+03  0.48495171325E+03  0.21982851366E+03  0.57754148411E+03  0.10100000352E+00 0. -1.
       -3    1    3    3    0  502  0.22372173801E+03 -0.48495171325E+03 -0.11513479469E+04  0.12691854417E+04  0.10100000352E+00 0.  1.
</event>
<event>
 5   0  0.3380454E-04  0.1595607E+04  0.7818609E-02  0.8823251E-01
        2   -1    0    0  501    0  0.00000000000E+00  0.00000000000E+00  0.16019403433E+04  0.16019403433E+04  0.25500000920E-02 0. -1.
       -2   -1    0    0    0  501  0.00000000000E+00  0.00000000000E+00 -0.39732458273E+03  0.39732458273E+03  0.25500000920E-02 0.  1.
    10030    2    1    2    0    0  0.00000000000E+00  0.00000000000E+00  0.12046157606E+04  0.19992649261E+04  0.15956068168E+04 0.  0.
        5    1    3    3  502    0 -0.21374258742E+03 -0.71314090087E+03  0.24304446344E+03  0.78316571642E+03  0.46999998093E+01 0.  1.
       -5    1    3    3    0  502  0.21374258742E+03  0.71314090087E+03  0.96157129715E+03  0.12160992096E+04  0.46999998093E+01 0. -1.
</event>
<event>
 5   0  0.1761255E-04  0.1601479E+04  0.7818609E-02  0.8819640E-01
        1   -1    0    0  501    0  0.00000000000E+00  0.00000000000E+00  0.17250389627E+04  0.17250389627E+04  0.50400001928E-02 0. -1.
       -1   -1    0    0    0  501  0.00000000000E+00  0.00000000000E+00 -0.37169211142E+03  0.37169211145E+03  0.50400001928E-02 0.  1.
    10030    2    1    2    0    0  0.00000000000E+00  0.00000000000E+00  0.13533468513E+04  0.20967310742E+04  0.16014785348E+04 0.  0.
        2    1    3    3  502    0  0.53224558160E+02  0.31553627661E+03 -0.28434190646E+03  0.42807279197E+03  0.25500000920E-02 0.  1.
       -2    1    3    3    0  502 -0.53224558160E+02 -0.31553627661E+03  0.16376887578E+04  0.16686582822E+04  0.25500000920E-02 0. -1.
</event>
<event>
 5   0  0.1764099E-04  0.1611990E+04  0.7818609E-02  0.8813216E-01
        1   -1    0    0  501    0  0.00000000000E+00  0.00000000000E+00  0.16557616103E+04  0.16557616103E+04  0.50400001928E-02 0.  1.
       -1   -1    0    0    0  501  0.00000000000E+00  0.00000000000E+00 -0.39234406897E+03  0.39234406900E+03  0.50400001928E-02 0. -1.
    10030    2    1    2    0    0  0.00000000000E+00  0.00000000000E+00  0.12634175414E+04  0.20481056793E+04  0.16119903815E+04 0.  0.
        5    1    3    3  502    0  0.11517468619E+03  0.35822220839E+03  0.15372941034E+04  0.15826824095E+04  0.46999998093E+01 0.  1.
       -5    1    3    3    0  502 -0.11517468619E+03 -0.35822220839E+03 -0.27387656202E+03  0.46542326988E+03  0.46999998093E+01 0. -1.
</event>
<event>
 5   0  0.1764099E-04  0.1628335E+04  0.7818609E-02  0.8803328E-01
        1   -1    0    0  501    0  0.00000000000E+00  0.00000000000E+00  0.75845848504E+03  0.75845848506E+03  0.50400001928E-02 0.  1.
       -1   -1    0    0    0  501  0.00000000000E+00  0.00000000000E+00 -0.87396788892E+03  0.87396788894E+03  0.50400001928E-02 0. -1.
    10030    2    1    2    0    0  0.00000000000E+00  0.00000000000E+00 -0.11550940388E+03  0.16324263740E+04  0.16283345615E+04 0.  0.
        5    1    3    3  502    0 -0.29292334881E+03  0.52931732769E+03 -0.60397736633E+03  0.85486353923E+03  0.46999998093E+01 0. -1.
       -5    1    3    3    0  502  0.29292334881E+03 -0.52931732769E+03  0.48846796245E+03  0.77756283476E+03  0.46999998093E+01 0.  1.
</event>
<event>
 5   0  0.3210612E-04  0.1606991E+04  0.7818609E-02  0.8816265E-01
        2   -1    0    0  501    0  0.00000000000E+00  0.00000000000E+00  0.95859468900E+03  0.95859468901E+03  0.25500000920E-02 0.  1.
       -2   -1    0    0    0  501  0.00000000000E+00  0.00000000000E+00 -0.67349079973E+03  0.67349079974E+03  0.25500000920E-02 0. -1.
    10030    2    1    2    0    0  0.00000000000E+00  0.00000000000E+00  0.28510388927E+03  0.16320854887E+04  0.16069906082E+04 0.  0.
        2    1    3    3  502    0 -0.22860961542E+03 -0.12170987936E+03  0.91504067343E+03  0.95098637479E+03  0.25500000920E-02 0.  1.
       -2    1    3    3    0  502  0.22860961542E+03  0.12170987936E+03 -0.62993678416E+03  0.68109911396E+03  0.25500000920E-02 0. -1.
</event>
<event>
 5   0  0.3210612E-04  0.1594734E+04  0.7818609E-02  0.8823790E-01
        2   -1    0    0  501    0  0.00000000000E+00  0.00000000000E+00  0.97186130184E+03  0.97186130185E+03  0.25500000920E-02 0. -1.
       -2   -1    0    0    0  501  0.00000000000E+00  0.00000000000E+00 -0.65420227170E+03  0.65420227171E+03  0.25500000920E-02 0.  1.
    10030    2    1    2    0    0  0.00000000000E+00  0.00000000000E+00  0.31765903014E+03  0.16260635736E+04  0.15947336724E+04 0.  0.
        2    1    3    3  502    0 -0.29810125313E+03  0.34858458077E+03 -0.50622530103E+03  0.68311025646E+03  0.25500000920E-02 0.  1.
       -2    1    3    3    0  502  0.29810125313E+03 -0.34858458077E+03  0.82388433117E+03  0.94295331710E+03  0.25500000920E-02 0. -1.
</event>
<event>
 5   0  0.3274900E-04  0.1639696E+04  0.7818609E-02  0.8796526E-01
       -2   -1    0    0    0  501  0.00000000000E+00  0.00000000000E+00  0.41198813089E+03  0.41198813090E+03  0.25500000920E-02 0. -1.
        2   -1    0    0  501    0  0.00000000000E+00  0.00000000000E+00 -0.16314803583E+04  0.16314803583E+04  0.25500000920E-02 0.  1.
    10030    2    1    2    0    0  0.00000000000E+00  0.00000000000E+00 -0.12194922274E+04  0.20434684892E+04  0.16396957564E+04 0.  0.
        3    1    3    3  502    0  0.40987346166E+03 -0.30845378294E+03  0.18727884893E+03  0.54608915778E+03  0.10100000352E+00 0. -1.
       -3    1    3    3    0  502 -0.40987346166E+03  0.30845378294E+03 -0.14067710764E+04  0.14973793315E+04  0.10100000352E+00 0.  1.
</event>
<event>
 5   0  0.3263294E-04  0.1609306E+04  0.7818609E-02  0.8814851E-01
        2   -1    0    0  501    0  0.00000000000E+00  0.00000000000E+00  0.17776635170E+04  0.17776635170E+04  0.25500000920E-02 0.  1.
       -2   -1    0    0    0  501  0.00000000000E+00  0.00000000000E+00 -0.36422326017E+03  0.36422326018E+03  0.25500000920E-02 0. -1.
    10030    2    1    2    0    0  0.00000000000E+00  0.00000000000E+00  0.14134402568E+04  0.21418867772E+04  0.16093059394E+04 0.  0.
        4    1    3    3  502    0 -0.21421218455E+03  0.84534998268E+02 -0.31942526382E+03  0.39378564982E+03  0.12699999809E+01 0. -1.
       -4    1    3    3    0  502  0.21421218455E+03 -0.84534998268E+02  0.17328655207E+04  0.17481011274E+04  0.12699999809E+01 0.  1.
</event>
<event>
 5   0  0.1819811E-04  0.1604267E+04  0.7818609E-02  0.8817931E-01
        1   -1    0    0  501    0  0.00000000000E+00  0.00000000000E+00  0.79903361762E+03  0.79903361764E+03  0.50400001928E-02 0.  1.
       -1   -1    0    0    0  501  0.00000000000E+00  0.00000000000E+00 -0.80524549546E+03  0.80524549547E+03  0.50400001928E-02 0. -1.
    10030    2    1    2    0    0  0.00000000000E+00  0.00000000000E+00 -0.62118778392E+01  0.16042791131E+04  0.16042670867E+04 0.  0.
        1    1    3    3  502    0 -0.34728433235E+03 -0.24820062470E+03 -0.68223418798E+03  0.80476918733E+03  0.50400001928E-02 0. -1.
       -1    1    3    3    0  502  0.34728433235E+03  0.24820062470E+03  0.67602231014E+03  0.79950992578E+03  0.50400001928E-02 0.  1.
</event>
<event>
 5   0  0.3263294E-04  0.1597259E+04  0.7818609E-02  0.8822234E-01
        2   -1    0    0  501    0  0.00000000000E+00  0.00000000000E+00  0.10505220685E+04  0.10505220685E+04  0.25500000920E-02 0. -1.
       -2   -1    0    0    0  501  0.00000000000E+00  0.00000000000E+00 -0.60713515374E+03  0.60713515374E+03  0.25500000920E-02 0.  1.
    10030    2    1    2    0    0  0.00000000000E+00  0.00000000000E+00  0.44338691480E+03  0.16576572223E+04  0.15972587487E+04 0.  0.
        4    1    3    3  502    0  0.60959720181E+02 -0.16381020454E+03 -0.58704083809E+03  0.61250994203E+03  0.12699999809E+01 0.  1.
       -4    1    3    3    0  502 -0.60959720181E+02  0.16381020454E+03  0.10304277529E+04  0.10451472803E+04  0.12699999809E+01 0. -1.
</event>
<event>
 5   0  0.1787688E-04  0.1595394E+04  0.7818609E-02  0.8823383E-01
       -1   -1    0    0    0  501  0.00000000000E+00  0.00000000000E+00  0.78562646966E+03  0.78562646968E+03  0.50400001928E-02 0.  1.
        1   -1    0    0  501    0  0.00000000000E+00  0.00000000000E+00 -0.80995316020E+03  0.80995316022E+03  0.50400001928E-02 0. -1.
    10030    2    1    2    0    0  0.00000000000E+00  0.00000000000E+00 -0.24326690537E+02  0.15955796299E+04  0.15953941731E+04 0.  0.
        4    1    3    3  502    0  0.51583274649E+03  0.43387987626E+02  0.59482819721E+03  0.78853543796E+03  0.12699999809E+01 0.  1.
       -4    1    3    3    0  502 -0.51583274649E+03 -0.43387987626E+02 -0.61915488775E+03  0.80704419194E+03  0.12699999809E+01 0. -1.
</event>
<event>
 5   0  0.3228393E-04  0.1606187E+04  0.7818609E-02  0.8816756E-01
        2   -1    0    0  501    0  0.00000000000E+00  0.00000000000E+00  0.16033445185E+04  0.16033445185E+04  0.25500000920E-02 0. -1.
       -2   -1    0    0    0  501  0.00000000000E+00  0.00000000000E+00 -0.40225878663E+03  0.40225878663E+03  0.25500000920E-02 0.  1.
    10030    2    1    2    0    0  0.00000000000E+00  0.00000000000E+00  0.12010857319E+04  0.20056033052E+04  0.16061873123E+04 0.  0.
        1    1    3    3  502    0 -0.11355507124E+03  0.20033563557E+03 -0.36014903887E+03  0.42747684300E+03  0.50400001928E-02 0.  1.
       -1    1    3    3    0  502  0.11355507124E+03 -0.20033563557E+03  0.15612347708E+04  0.15781264622E+04  0.50400001928E-02 0. -1.
</event>
<event>
 5   0  0.1736537E-04  0.1609211E+04  0.7818609E-02  0.8814909E-01
        1   -1    0    0  501    0  0.00000000000E+00  0.00000000000E+00  0.14667472525E+04  0.14667472525E+04  0.50400001928E-02 0.  1.
       -1   -1    0    0    0  501  0.00000000000E+00  0.00000000000E+00 -0.44137785381E+03  0.44137785384E+03  0.50400001928E-02 0. -1.
    10030    2    1    2    0    0  0.00000000000E+00  0.00000000000E+00  0.10253693987E+04  0.19081251063E+04  0.16092106816E+04 0.  0.
        3    1    3    3  502    0  0.15532875095E+03 -0.71259492278E+03  0.10975361036E+03  0.73753942948E+03  0.10100000352E+00 0. -1.
       -3    1    3    3    0  502 -0.15532875095E+03  0.71259492278E+03  0.91561578834E+03  0.11705856769E+04  0.10100000352E+00 0.  1.
</event>
<event>
 5   0  0.3274900E-04  0.1599140E+04  0.7818609E-02  0.8821077E-01
        2   -1    0    0  501    0  0.00000000000E+00  0.00000000000E+00  0.99710440013E+03  0.99710440013E+03  0.25500000920E-02 0. -1.
       -2   -1    0    0    0  501  0.00000000000E+00  0.00000000000E+00 -0.64116840093E+03  0.64116840093E+03  0.25500000920E-02 0.  1.
    10030    2    1    2    0    0  0.00000000000E+00  0.00000000000E+00  0.35593599920E+03  0.16382728011E+04  0.15991395609E+04 0.  0.
        3    1    3    3  502    0  0.44890273885E+03  0.14380844687E+03 -0.48368296101E+03  0.67538415388E+03  0.10100000352E+00 0.  1.
       -3    1    3    3    0  502 -0.44890273885E+03 -0.14380844687E+03  0.83961896021E+03  0.96288864719E+03  0.10100000352E+00 0. -1.
</event>
<event>
 5   0  0.1764099E-04  0.1595716E+04  0.7818609E-02  0.8823184E-01
       -1   -1    0    0    0  501  0.00000000000E+00  0.00000000000E+00  0.82899576404E+03  0.82899576406E+03  0.50400001928E-02 0. -1.
        1   -1    0    0  501    0  0.00000000000E+00  0.00000000000E+00 -0.76788989086E+03  0.76788989087E+03  0.50400001928E-02 0.  1.
    10030    2    1    2    0    0  0.00000000000E+00  0.00000000000E+00  0.61105873185E+02  0.15968856549E+04  0.15957160986E+04 0.  0.
        5    1    3    3  502    0  0.35970450162E+03  0.47906041018E+03 -0.49677651247E+03  0.77826422148E+03  0.46999998093E+01 0.  1.
       -5    1    3    3    0  502 -0.35970450162E+03 -0.47906041018E+03  0.55788238566E+03  0.81862143345E+03  0.46999998093E+01 0. -1.
</event>
<event>
 5   0  0.3228393E-04  0.1593843E+04  0.7818609E-02  0.8824339E-01
        2   -1    0    0  501    0  0.00000000000E+00  0.00000000000E+00  0.22112702623E+04  0.22112702623E+04  0.25500000920E-02 0.  1.
       -2   -1    0    0    0  501  0.00000000000E+00  0.00000000000E+00 -0.28720319211E+03  0.28720319212E+03  0.25500000920E-02 0. -1.
    10030    2    1    2    0    0  0.00000000000E+00  0.00000000000E+00  0.19240670702E+04  0.24984734544E+04  0.15938430010E+04 0.  0.
        1    1    3    3  502    0  0.85799060946E+02  0.32342932851E+02 -0.27890664551E+03  0.29359233829E+03  0.50400001928E-02 0. -1.
       -1    1    3    3    0  502 -0.85799060946E+02 -0.32342932851E+02  0.22029737157E+04  0.22048811161E+04  0.50400001928E-02 0.  1.
</event>
<event>
 5   0  0.3274900E-04  0.1595483E+04  0.7818609E-02  0.8823328E-01
        2   -1    0    0  501    0  0.00000000000E+00  0.00000000000E+00  0.88620032994E+03  0.88620032994E+03  0.25500000920E-02 0.  1.
       -2   -1    0    0    0  501  0.00000000000E+00  0.00000000000E+00 -0.71811264607E+03  0.71811264607E+03  0.25500000920E-02 0. -1.
    10030    2    1    2    0    0  0.00000000000E+00  0.00000000000E+00  0.16808768387E+03  0.16043129760E+04  0.15954832044E+04 0.  0.
        3    1    3    3  502    0 -0.43653642809E+03 -0.31291765565E+03 -0.50905954437E+03  0.74001563645E+03  0.10100000352E+00 0. -1.
       -3    1    3    3    0  502  0.43653642809E+03  0.31291765565E+03  0.67714722824E+03  0.86429733957E+03  0.10100000352E+00 0.  1.
</event>
<event>
 5   0  0.1219463E-04  0.1596755E+04  0.7818609E-02  0.8822544E-01
        3   -1    0    0  501    0  0.00000000000E+00  0.00000000000E+00  0.51672550407E+03  0.51672551394E+03  0.10100000352E+00 0.  1.
       -3   -1    0    0    0  501  0.00000000000E+00  0.00000000000E+00 -0.12335498954E+04  0.12335498995E+04  0.10100000352E+00 0. -1.
    10030    2    1    2    0    0  0.00000000000E+00  0.00000000000E+00 -0.71682439131E+03  0.17502754135E+04  0.15967550892E+04 0.  0.
        2    1    3    3  502    0 -0.49814038498E+03 -0.70683177024E+02  0.32108002079E+03  0.59685202054E+03  0.25500000920E-02 0.  1.
       -2    1    3    3    0  502  0.49814038498E+03  0.70683177024E+02 -0.10379044121E+04  0.11534233929E+04  0.25500000920E-02 0. -1.
</event>
<event>
 5   0  0.1787688E-04  0.1449014E+04  0.7818609E-02  0.8919084E-01
       -1   -1    0    0    0  501  0.00000000000E+00  0.00000000000E+00  0.52845798047E+03  0.52845798049E+03  0.50400001928E-02 0.  1.
        1   -1    0    0  501    0  0.00000000000E+00  0.00000000000E+00 -0.99328689456E+03  0.99328689457E+03  0.50400001928E-02 0. -1.
    10030    2    1    2    0    0  0.00000000000E+00  0.00000000000E+00 -0.46482891408E+03  0.15217448751E+04  0.14490139908E+04 0.  0.
        4    1    3    3  502    0 -0.18611293506E+03 -0.23412976765E+03  0.46059699523E+03  0.54918665098E+03  0.12699999809E+01 0.  1.
       -4    1    3    3    0  502  0.18611293506E+03  0.23412976765E+03 -0.92542590932E+03  0.97255822408E+03  0.12699999809E+01 0. -1.
</event>
<event>
 5   0  0.1761255E-04  0.1512392E+04  0.7818609E-02  0.8876254E-01
       -1   -1    0    0    0  501  0.00000000000E+00  0.00000000000E+00  0.11766675421E+04  0.11766675421E+04  0.50400001928E-02 0.  1.
        1   -1    0    0  501    0  0.00000000000E+00  0.00000000000E+00 -0.48597592328E+03  0.48597592331E+03  0.50400001928E-02 0. -1.
    10030    2    1    2    0    0  0.00000000000E+00  0.00000000000E+00  0.69069161885E+03  0.16626434654E+04  0.15123916096E+04 0.  0.
        2    1    3    3  502    0  0.13600639052E+03 -0.12156579274E+03 -0.46142532506E+03  0.49617467775E+03  0.25500000920E-02 0. -1.
       -2    1    3    3    0  502 -0.13600639052E+03  0.12156579274E+03  0.11521169439E+04  0.11664687877E+04  0.25500000920E-02 0.  1.
</event>
<event>
 5   0  0.3263294E-04  0.1599371E+04  0.7818609E-02  0.8820935E-01
        2   -1    0    0  501    0  0.00000000000E+00  0.00000000000E+00  0.94028422175E+03  0.94028422175E+03  0.25500000920E-02 0.  1.
       -2   -1    0    0    0  501  0.00000000000E+00  0.00000000000E+00 -0.68010990740E+03  0.68010990740E+03  0.25500000920E-02 0. -1.
    10030    2    1    2    0    0  0.00000000000E+00  0.00000000000E+00  0.26017431435E+03  0.16203941292E+04  0.15993706450E+04 0.  0.
        4    1    3    3  502    0 -0.64309926964E+03  0.80801158770E+02 -0.34446009580E+03  0.73400263512E+03  0.12699999809E+01 0. -1.
       -4    1    3    3    0  502  0.64309926964E+03 -0.80801158770E+02  0.60463441015E+03  0.88639149403E+03  0.12699999809E+01 0.  1.
</event>
<event>
 5   0  0.3228393E-04  0.1593613E+04  0.7818609E-02  0.8824481E-01
        2   -1    0    0  501    0  0.00000000000E+00  0.00000000000E+00  0.16854987386E+04  0.16854987386E+04  0.25500000920E-02 0.  1.
       -2   -1    0    0    0  501  0.00000000000E+00  0.00000000000E+00 -0.37668409322E+03  0.37668409323E+03  0.25500000920E-02 0. -1.
    10030    2    1    2    0    0  0.00000000000E+00  0.00000000000E+00  0.13088146454E+04  0.20621828318E+04  0.15936129568E+04 0.  0.
        1    1    3    3  502    0  0.29823347848E+03 -0.28048934586E+03  0.15389816772E+04  0.15925081110E+04  0.50400001928E-02 0.  1.
       -1    1    3    3    0  502 -0.29823347848E+03  0.28048934586E+03 -0.23016703183E+03  0.46967472083E+03  0.50400001928E-02 0. -1.
</event>
<event>
 5   0  0.1819811E-04  0.1606583E+04  0.7818609E-02  0.8816514E-01
       -1   -1    0    0    0  501  0.00000000000E+00  0.00000000000E+00  0.56084092949E+03  0.56084092951E+03  0.50400001928E-02 0. -1.
        1   -1    0    0  501    0  0.00000000000E+00  0.00000000000E+00 -0.11505523335E+04  0.11505523335E+04  0.50400001928E-02 0.  1.
    10030    2    1    2    0    0  0.00000000000E+00  0.00000000000E+00 -0.58971140403E+03  0.17113932630E+04  0.16065825098E+04 0.  0.
        1    1    3    3  502    0  0.15561250108E+03  0.74555576838E+03 -0.22837577153E+02  0.76196470339E+03  0.50400001928E-02 0. -1.
       -1    1    3    3    0  502 -0.15561250108E+03 -0.74555576838E+03 -0.56687382688E+03  0.94942855965E+03  0.50400001928E-02 0.  1.
</event>
<event>
 5   0  0.3380454E-04  0.1629093E+04  0.7818609E-02  0.8802872E-01
       -2   -1    0    0    0  501  0.00000000000E+00  0.00000000000E+00  0.76719805289E+03  0.76719805290E+03  0.25500000920E-02 0. -1.
        2   -1    0    0  501    0  0.00000000000E+00  0.00000000000E+00 -0.86481697764E+03  0.86481697764E+03  0.25500000920E-02 0.  1.
    10030    2    1    2    0    0  0.00000000000E+00  0.00000000000E+00 -0.97618924745E+02  0.16320150305E+04  0.16290928781E+04 0.  0.
        5    1    3    3  502    0 -0.25751973368E+02  0.22294910335E+02 -0.86408959981E+03  0.86477346956E+03  0.46999998093E+01 0.  1.
       -5    1    3    3    0  502  0.25751973368E+02 -0.22294910335E+02  0.76647067507E+03  0.76724156098E+03  0.46999998093E+01 0. -1.
</event>
<event>
 5   0  0.1787688E-04  0.1681995E+04  0.7818609E-02  0.8771701E-01
       -1   -1    0    0    0  501  0.00000000000E+00  0.00000000000E+00  0.11340319517E+04  0.11340319517E+04  0.50400001928E-02 0. -1.
        1   -1    0    0  501    0  0.00000000000E+00  0.00000000000E+00 -0.62368303342E+03  0.62368303344E+03  0.50400001928E-02 0.  1.
    10030    2    1    2    0    0  0.00000000000E+00  0.00000000000E+00  0.51034891830E+03  0.17577149852E+04  0.16819946346E+04 0.  0.
        4    1    3    3  502    0 -0.80116729098E+03 -0.59345245488E+02  0.51513833150E+03  0.95433746640E+03  0.12699999809E+01 0. -1.
       -4    1    3    3    0  502  0.80116729098E+03  0.59345245488E+02 -0.47894131979E+01  0.80337751877E+03  0.12699999809E+01 0.  1.
</event>
<event>
 5   0  0.1736537E-04  0.1589878E+04  0.7818609E-02  0.8826791E-01
        1   -1    0    0  501    0  0.00000000000E+00  0.00000000000E+00  0.14232294820E+04  0.14232294820E+04  0.50400001928E-02 0. -1.
       -1   -1    0    0    0  501  0.00000000000E+00  0.00000000000E+00 -0.44400990958E+03  0.44400990961E+03  0.50400001928E-02 0.  1.
    10030    2    1    2    0    0  0.00000000000E+00  0.00000000000E+00  0.97921957240E+03  0.18672393916E+04  0.15898779747E+04 0.  0.
        3    1    3    3  502    0  0.24333340769E+03  0.33008516197E+03  0.12894129960E+04  0.13530533049E+04  0.10100000352E+00 0. -1.
       -3    1    3    3    0  502 -0.24333340769E+03 -0.33008516197E+03 -0.31019342363E+03  0.51418608666E+03  0.10100000352E+00 0.  1.
</event>
<event>
 5   0  0.1761255E-04  0.1595599E+04  0.7818609E-02  0.8823256E-01
       -1   -1    0    0    0  501  0.00000000000E+00  0.00000000000E+00  0.38569627220E+03  0.38569627224E+03  0.50400001928E-02 0. -1.
        1   -1    0    0  501    0  0.00000000000E+00  0.00000000000E+00 -0.16502209882E+04  0.16502209882E+04  0.50400001928E-02 0.  1.
    10030    2    1    2    0    0  0.00000000000E+00  0.00000000000E+00 -0.12645247160E+04  0.20359172605E+04  0.15955990518E+04 0.  0.
        2    1    3    3  502    0  0.76219543510E+03 -0.23482101863E+03 -0.65782267837E+03  0.10338343524E+04  0.25500000920E-02 0. -1.
       -2    1    3    3    0  502 -0.76219543510E+03  0.23482101863E+03 -0.60670203764E+03  0.10020829080E+04  0.25500000920E-02 0.  1.
</event>
<event>
 5   0  0.3263294E-04  0.1608876E+04  0.7818609E-02  0.8815114E-01
        2   -1    0    0  501    0  0.00000000000E+00  0.00000000000E+00  0.11209724953E+04  0.11209724953E+04  0.25500000920E-02 0. -1.
       -2   -1    0    0    0  501  0.00000000000E+00  0.00000000000E+00 -0.57728464084E+03  0.57728464085E+03  0.25500000920E-02 0.  1.
    10030    2    1    2    0    0  0.00000000000E+00  0.00000000000E+00  0.54368785448E+03  0.16982571362E+04  0.16088756377E+04 0.  0.
        4    1    3    3  502    0  0.14747230707E+03  0.97983816399E+02 -0.55646076920E+03  0.58395129094E+03  0.12699999809E+01 0.  1.
       -4    1    3    3    0  502 -0.14747230707E+03 -0.97983816399E+02  0.11001486237E+04  0.11143058452E+04  0.12699999809E+01 0. -1.
</event>
<event>
 5   0  0.1819811E-04  0.1598814E+04  0.7818609E-02  0.8821277E-01
        1   -1    0    0  501    0  0.00000000000E+00  0.00000000000E+00  0.12402920923E+04  0.12402920923E+04  0.50400001928E-02 0.  1.
       -1   -1    0    0    0  501  0.00000000000E+00  0.00000000000E+00 -0.51524286754E+03  0.51524286757E+03  0.50400001928E-02 0. -1.
    10030    2    1    2    0    0  0.00000000000E+00  0.00000000000E+00  0.72504922472E+03  0.17555349598E+04  0.15988141283E+04 0.  0.
        1    1    3    3  502    0  0.61740246606E+03 -0.46956775253E+03  0.57479261304E+03  0.96543577070E+03  0.50400001928E-02 0. -1.
       -1    1    3    3    0  502 -0.61740246606E+03  0.46956775253E+03  0.15025661168E+03  0.79009918915E+03  0.50400001928E-02 0.  1.
</event>
<event>
 5   0  0.1736537E-04  0.1598669E+04  0.7818609E-02  0.8821366E-01
        1   -1    0    0  501    0  0.00000000000E+00  0.00000000000E+00  0.11933044274E+04  0.11933044274E+04  0.50400001928E-02 0.  1.
       -1   -1    0    0    0  501  0.00000000000E+00  0.00000000000E+00 -0.53543377780E+03  0.53543377782E+03  0.50400001928E-02 0. -1.
    10030    2    1    2    0    0  0.00000000000E+00  0.00000000000E+00  0.65787064960E+03  0.17287382052E+04  0.15986688183E+04 0.  0.
        3    1    3    3  502    0 -0.11078695935E+03 -0.75431883132E+03  0.58860800661E+03  0.96318744037E+03  0.10100000352E+00 0.  1.
       -3    1    3    3    0  502  0.11078695935E+03  0.75431883132E+03  0.69262642989E+02  0.76555076485E+03  0.10100000352E+00 0. -1.
</event>
<event>
 5   0  0.3210612E-04  0.1656108E+04  0.7818609E-02  0.8786801E-01
        2   -1    0    0  501    0  0.00000000000E+00  0.00000000000E+00  0.10405840352E+04  0.10405840352E+04  0.25500000920E-02 0. -1.
       -2   -1    0    0    0  501  0.00000000000E+00  0.00000000000E+00 -0.65893101131E+03  0.65893101131E+03  0.25500000920E-02 0.  1.
    10030    2    1    2    0    0  0.00000000000E+00  0.00000000000E+00  0.38165302393E+03  0.16995150465E+04  0.16561075940E+04 0.  0.
        2    1    3    3  502    0 -0.29989095121E+03  0.74010154941E+03 -0.33977323386E+02  0.79927426117E+03  0.25500000920E-02 0.  1.
       -2    1    3    3    0  502  0.29989095121E+03 -0.74010154941E+03  0.41563034731E+03  0.90024078538E+03  0.25500000920E-02 0. -1.
</event>
<event>
 5   0  0.3263294E-04  0.1588150E+04  0.7818609E-02  0.8827861E-01
        2   -1    0    0  501    0  0.00000000000E+00  0.00000000000E+00  0.79099720300E+03  0.79099720300E+03  0.25500000920E-02 0.  1.
       -2   -1    0    0    0  501  0.00000000000E+00  0.00000000000E+00 -0.79716494068E+03  0.79716494069E+03  0.25500000920E-02 0. -1.
    10030    2    1    2    0    0  0.00000000000E+00  0.00000000000E+00 -0.61677376847E+01  0.15881621437E+04  0.15881501672E+04 0.  0.
        4    1    3    3  502    0 -0.61820889912E+03  0.33388342591E+03  0.36690978668E+03  0.79264417586E+03  0.12699999809E+01 0.  1.
       -4    1    3    3    0  502  0.61820889912E+03 -0.33388342591E+03 -0.37307752437E+03  0.79551796783E+03  0.12699999809E+01 0. -1.
</event>
<event>
 5   0  0.1764099E-04  0.1592370E+04  0.7818609E-02  0.8825249E-01
        1   -1    0    0  501    0  0.00000000000E+00  0.00000000000E+00  0.15065283571E+04  0.15065283571E+04  0.50400001928E-02 0. -1.
       -1   -1    0    0    0  501  0.00000000000E+00  0.00000000000E+00 -0.42077568622E+03  0.42077568625E+03  0.50400001928E-02 0.  1.
    10030    2    1    2    0    0  0.00000000000E+00  0.00000000000E+00  0.10857526709E+04  0.19273040434E+04  0.15923699361E+04 0.  0.
        5    1    3    3  502    0 -0.47259803747E+03 -0.41794806736E+03  0.11306801729E+04  0.12947931245E+04  0.46999998093E+01 0. -1.
       -5    1    3    3    0  502  0.47259803747E+03  0.41794806736E+03 -0.44927501969E+02  0.63251091885E+03  0.46999998093E+01 0.  1.
</event>
<event>
 5   0  0.3263294E-04  0.1610742E+04  0.7818609E-02  0.8813976E-01
       -2   -1    0    0    0  501  0.00000000000E+00  0.00000000000E+00  0.88209996856E+03  0.88209996856E+03  0.25500000920E-02 0.  1.
        2   -1    0    0  501    0  0.00000000000E+00  0.00000000000E+00 -0.73531652503E+03  0.73531652503E+03  0.25500000920E-02 0. -1.
    10030    2    1    2    0    0  0.00000000000E+00  0.00000000000E+00  0.14678344353E+03  0.16174164936E+04  0.16107422930E+04 0.  0.
        4    1    3    3  502    0 -0.32821120636E+03  0.40946264548E+03 -0.54007245534E+03  0.75303527403E+03  0.12699999809E+01 0. -1.
       -4    1    3    3    0  502  0.32821120636E+03 -0.40946264548E+03  0.68685589887E+03  0.86438121956E+03  0.12699999809E+01 0.  1.
</event>
<event>
 5   0  0.1761255E-04  0.1594634E+04  0.7818609E-02  0.8823852E-01
       -1   -1    0    0    0  501  0.00000000000E+00  0.00000000000E+00  0.54230423215E+03  0.54230423217E+03  0.50400001928E-02 0.  1.
        1   -1    0    0  501    0  0.00000000000E+00  0.00000000000E+00 -0.11722461082E+04  0.11722461082E+04  0.50400001928E-02 0. -1.
    10030    2    1    2    0    0  0.00000000000E+00  0.00000000000E+00 -0.62994187601E+03  0.17145503403E+04  0.15946335323E+04 0.  0.
        2    1    3    3  502    0  0.24247025479E+03  0.47228812611E+03 -0.95457151221E+03  0.10922704200E+04  0.25500000920E-02 0. -1.
       -2    1    3    3    0  502 -0.24247025479E+03 -0.47228812611E+03  0.32462963620E+03  0.62227992032E+03  0.25500000920E-02 0.  1.
</event>
<event>
 5   0  0.3380454E-04  0.1605899E+04  0.7818609E-02  0.8816932E-01
       -2   -1    0    0    0  501  0.00000000000E+00  0.00000000000E+00  0.52748888247E+03  0.52748888248E+03  0.25500000920E-02 0.  1.
        2   -1    0    0  501    0  0.00000000000E+00  0.00000000000E+00 -0.12222593457E+04  0.12222593457E+04  0.25500000920E-02 0. -1.
    10030    2    1    2    0    0  0.00000000000E+00  0.00000000000E+00 -0.69477046325E+03  0.17497482282E+04  0.16058993946E+04 0.  0.
        5    1    3    3  502    0 -0.33194550153E+03 -0.59367842633E+03  0.11752547747E+03  0.69027256771E+03  0.46999998093E+01 0.  1.
       -5    1    3    3    0  502  0.33194550153E+03  0.59367842633E+03 -0.81229594072E+03  0.10594756605E+04  0.46999998093E+01 0. -1.
</event>
<event>
 5   0  0.1787688E-04  0.1603564E+04  0.7818609E-02  0.8818361E-01
       -1   -1    0    0    0  501  0.00000000000E+00  0.00000000000E+00  0.63885613393E+03  0.63885613395E+03  0.50400001928E-02 0. -1.
        1   -1    0    0  501    0  0.00000000000E+00  0.00000000000E+00 -0.10062588079E+04  0.10062588080E+04  0.50400001928E-02 0.  1.
    10030    2    1    2    0    0  0.00000000000E+00  0.00000000000E+00 -0.36740267401E+03  0.16451149419E+04  0.16035642947E+04 0.  0.
        4    1    3    3  502    0  0.33963742774E+03  0.22575799691E+03 -0.89190185958E+03  0.98071952948E+03  0.12699999809E+01 0.  1.
       -4    1    3    3    0  502 -0.33963742774E+03 -0.22575799691E+03  0.52449918557E+03  0.66439541243E+03  0.12699999809E+01 0. -1.
</event>
<event>
 5   0  0.3274900E-04  0.1595289E+04  0.7818609E-02  0.8823447E-01
       -2   -1    0    0    0  501  0.00000000000E+00  0.00000000000E+00  0.61554959999E+03  0.61554959999E+03  0.25500000920E-02 0.  1.
        2   -1    0    0  501    0  0.00000000000E+00  0.00000000000E+00 -0.10336075757E+04  0.10336075757E+04  0.25500000920E-02 0. -1.
    10030    2    1    2    0    0  0.00000000000E+00  0.00000000000E+00 -0.41805797574E+03  0.16491571757E+04  0.15952889767E+04 0.  0.
        3    1    3    3  502    0  0.49274499861E+03 -0.53797132790E+03  0.12439243552E+03  0.74005693802E+03  0.10100000352E+00 0.  1.
       -3    1    3    3    0  502 -0.49274499861E+03  0.53797132790E+03 -0.54245041126E+03  0.90910023770E+03  0.10100000352E+00 0. -1.
</event>
<event>
 5   0  0.1219463E-04  0.1611096E+04  0.7818609E-02  0.8813760E-01
        4   -1    0    0  501    0  0.00000000000E+00  0.00000000000E+00  0.37322599373E+03  0.37322815448E+03  0.12699999809E+01 0. -1.
       -4   -1    0    0    0  501  0.00000000000E+00  0.00000000000E+00 -0.17386380189E+04  0.17386384827E+04  0.12699999809E+01 0.  1.
    10030    2    1    2    0    0  0.00000000000E+00  0.00000000000E+00 -0.13654120251E+04  0.21118666372E+04  0.16110961160E+04 0.  0.
        4    1    3    3  502    0  0.64794604030E+02  0.49663315830E+03 -0.15097356400E+04  0.15906433133E+04  0.12699999809E+01 0.  1.
       -4    1    3    3    0  502 -0.64794604030E+02 -0.49663315830E+03  0.14432361487E+03  0.52122332386E+03  0.12699999809E+01 0. -1.
</event>
<event>
 5   0  0.3210612E-04  0.1595935E+04  0.7818609E-02  0.8823049E-01
       -2   -1    0    0    0  501  0.00000000000E+00  0.00000000000E+00  0.10972209951E+04  0.10972209951E+04  0.25500000920E-02 0. -1.
        2   -1    0    0  501    0  0.00000000000E+00  0.00000000000E+00 -0.58033167195E+03  0.58033167196E+03  0.25500000920E-02 0.  1.
    10030    2    1    2    0    0  0.00000000000E+00  0.00000000000E+00  0.51688932318E+03  0.16775526671E+04  0.15959349543E+04 0.  0.
        2    1    3    3  502    0  0.28810032655E+03 -0.28966245451E+03  0.97895252504E+03  0.10607799876E+04  0.25500000920E-02 0. -1.
       -2    1    3    3    0  502 -0.28810032655E+03  0.28966245451E+03 -0.46206320186E+03  0.61677267954E+03  0.25500000920E-02 0.  1.
</event>
<event>
 5   0  0.1219463E-04  0.1619062E+04  0.7818609E-02  0.8808922E-01
        3   -1    0    0  501    0  0.00000000000E+00  0.00000000000E+00  0.88235403487E+03  0.88235404065E+03  0.10100000352E+00 0. -1.
       -3   -1    0    0    0  501  0.00000000000E+00  0.00000000000E+00 -0.74271812313E+03  0.74271813000E+03  0.10100000352E+00 0.  1.
    10030    2    1    2    0    0  0.00000000000E+00  0.00000000000E+00  0.13963591174E+03  0.16250721706E+04  0.16190618802E+04 0.  0.
        1    1    3    3  502    0 -0.62343641769E+03 -0.18061318117E+02 -0.44818036598E+03  0.76802657414E+03  0.50400001928E-02 0.  1.
       -1    1    3    3    0  502  0.62343641769E+03  0.18061318117E+02  0.58781627772E+03  0.85704559650E+03  0.50400001928E-02 0. -1.
</event>
<event>
 5   0  0.3263294E-04  0.1597420E+04  0.7818609E-02  0.8822135E-01
        2   -1    0    0  501    0  0.00000000000E+00  0.00000000000E+00  0.10658991033E+04  0.10658991033E+04  0.25500000920E-02 0. -1.
       -2   -1    0    0    0  501  0.00000000000E+00  0.00000000000E+00 -0.59849698864E+03  0.59849698864E+03  0.25500000920E-02 0.  1.
    10030    2    1    2    0    0  0.00000000000E+00  0.00000000000E+00  0.46740211464E+03  0.16643960919E+04  0.15974196737E+04 0.  0.
        4    1    3    3  502    0 -0.14848079872E+03  0.75140884397E+03  0.46963271823E+03  0.89845328277E+03  0.12699999809E+01 0. -1.
       -4    1    3    3    0  502  0.14848079872E+03 -0.75140884397E+03 -0.22306035912E+01  0.76594280915E+03  0.12699999809E+01 0.  1.
</event>
<event>
 5   0  0.3380454E-04  0.1589991E+04  0.7818609E-02  0.8826721E-01
       -2   -1    0    0    0  501  0.00000000000E+00  0.00000000000E+00  0.50989638663E+03  0.50989638663E+03  0.25500000920E-02 0. -1.
        2   -1    0    0  501    0  0.00000000000E+00  0.00000000000E+00 -0.12395021963E+04  0.12395021963E+04  0.25500000920E-02 0.  1.
    10030    2    1    2    0    0  0.00000000000E+00  0.00000000000E+00 -0.72960580964E+03  0.17493985829E+04  0.15899908064E+04 0.  0.
        5    1    3    3  502    0  0.37933121995E+03  0.29862966893E+03  0.33012396183E+03  0.58487244231E+03  0.46999998093E+01 0. -1.
       -5    1    3    3    0  502 -0.37933121995E+03 -0.29862966893E+03 -0.10597297715E+04  0.11645261406E+04  0.46999998093E+01 0.  1.
</event>
<event>
 5   0  0.1787688E-04  0.1601900E+04  0.7818609E-02  0.8819381E-01
       -1   -1    0    0    0  501  0.00000000000E+00  0.00000000000E+00  0.14205423251E+04  0.14205423251E+04  0.50400001928E-02 0.  1.
        1   -1    0    0  501    0  0.00000000000E+00  0.00000000000E+00 -0.45160297957E+03  0.45160297960E+03  0.50400001928E-02 0. -1.
    10030    2    1    2    0    0  0.00000000000E+00  0.00000000000E+00  0.96893934550E+03  0.18721453047E+04  0.16019003048E+04 0.  0.
        4    1    3    3  502    0 -0.55685289072E+03  0.14168055279E+03  0.11366026836E+04  0.12735877646E+04  0.12699999809E+01 0.  1.
       -4    1    3    3    0  502  0.55685289072E+03 -0.14168055279E+03 -0.16766333808E+03  0.59855754007E+03  0.12699999809E+01 0. -1.
</event>
<event>
 5   0  0.1219463E-04  0.1585332E+04  0.7818609E-02  0.8829610E-01
       -4   -1    0    0    0  501  0.00000000000E+00  0.00000000000E+00  0.12444471550E+04  0.12444478030E+04  0.12699999809E+01 0. -1.
        4   -1    0    0  501    0  0.00000000000E+00  0.00000000000E+00 -0.50489674878E+03  0.50489834604E+03  0.12699999809E+01 0.  1.
    10030    2    1    2    0    0  0.00000000000E+00  0.00000000000E+00  0.73955040618E+03  0.17493461490E+04  0.15853318725E+04 0.  0.
        5    1    3    3  502    0  0.64743419542E+03  0.38772577567E+03  0.10221265475E+03  0.76155881671E+03  0.46999998093E+01 0.  1.
       -5    1    3    3    0  502 -0.64743419542E+03 -0.38772577567E+03  0.63733775144E+03  0.98778733233E+03  0.46999998093E+01 0. -1.
</event>
<event>
 5   0  0.3380454E-04  0.1542847E+04  0.7818609E-02  0.8856450E-01
        2   -1    0    0  501    0  0.00000000000E+00  0.00000000000E+00  0.16121828262E+04  0.16121828262E+04  0.25500000920E-02 0. -1.
       -2   -1    0    0    0  501  0.00000000000E+00  0.00000000000E+00 -0.36912312081E+03  0.36912312081E+03  0.25500000920E-02 0.  1.
    10030    2    1    2    0    0  0.00000000000E+00  0.00000000000E+00  0.12430597054E+04  0.19813059470E+04  0.15428466627E+04 0.  0.
        5    1    3    3  502    0  0.69844851417E+03  0.14953614845E+03  0.99566860169E+03  0.12253854255E+04  0.46999998093E+01 0.  1.
       -5    1    3    3    0  502 -0.69844851417E+03 -0.14953614845E+03  0.24739110369E+03  0.75592052150E+03  0.46999998093E+01 0. -1.
</event>
<event>
 5   0  0.1736537E-04  0.1605246E+04  0.7818609E-02  0.8817332E-01
        1   -1    0    0  501    0  0.00000000000E+00  0.00000000000E+00  0.14101328089E+04  0.14101328089E+04  0.50400001928E-02 0.  1.
       -1   -1    0    0    0  501  0.00000000000E+00  0.00000000000E+00 -0.45683900922E+03  0.45683900924E+03  0.50400001928E-02 0. -1.
    10030    2    1    2    0    0  0.00000000000E+00  0.00000000000E+00  0.95329379965E+03  0.18669718181E+04  0.16052459940E+04 0.  0.
        3    1    3    3  502    0 -0.21275038957E+02 -0.68551734176E+03 -0.82420728007E+01  0.68589692746E+03  0.10100000352E+00 0. -1.
       -3    1    3    3    0  502  0.21275038957E+02  0.68551734176E+03  0.96153587245E+03  0.11810748907E+04  0.10100000352E+00 0.  1.
</event>
<event>
 5   0  0.3228393E-04  0.1606972E+04  0.7818609E-02  0.8816276E-01
       -2   -1    0    0    0  501  0.00000000000E+00  0.00000000000E+00  0.79162080867E+03  0.79162080868E+03  0.25500000920E-02 0. -1.
        2   -1    0    0  501    0  0.00000000000E+00  0.00000000000E+00 -0.81552871077E+03  0.81552871077E+03  0.25500000920E-02 0.  1.
    10030    2    1    2    0    0  0.00000000000E+00  0.00000000000E+00 -0.23907902098E+02  0.16071495195E+04  0.16069716830E+04 0.  0.
        1    1    3    3  502    0 -0.78471670247E+03  0.53413879081E+02 -0.17615540794E+03  0.80601741507E+03  0.50400001928E-02 0. -1.
       -1    1    3    3    0  502  0.78471670247E+03 -0.53413879081E+02  0.15224750584E+03  0.80113210439E+03  0.50400001928E-02 0.  1.
</event>
<event>
 5   0  0.1819811E-04  0.1600294E+04  0.7818609E-02  0.8820367E-01
        1   -1    0    0  501    0  0.00000000000E+00  0.00000000000E+00  0.75595758317E+03  0.75595758319E+03  0.50400001928E-02 0.  1.
       -1   -1    0    0    0  501  0.00000000000E+00  0.00000000000E+00 -0.84691992720E+03  0.84691992722E+03  0.50400001928E-02 0. -1.
    10030    2    1    2    0    0  0.00000000000E+00  0.00000000000E+00 -0.90962344032E+02  0.16028775104E+04  0.16002943996E+04 0.  0.
        1    1    3    3  502    0 -0.69236792774E+03 -0.25703705252E+03 -0.35386472863E+03  0.81893933836E+03  0.50400001928E-02 0.  1.
       -1    1    3    3    0  502  0.69236792774E+03  0.25703705252E+03  0.26290238460E+03  0.78393817204E+03  0.50400001928E-02 0. -1.
</event>
<event>
 5   0  0.3228393E-04  0.1593657E+04  0.7818609E-02  0.8824454E-01
       -2   -1    0    0    0  501  0.00000000000E+00  0.00000000000E+00  0.58692075731E+03  0.58692075731E+03  0.25500000920E-02 0. -1.
        2   -1    0    0  501    0  0.00000000000E+00  0.00000000000E+00 -0.10818083594E+04  0.10818083594E+04  0.25500000920E-02 0.  1.
    10030    2    1    2    0    0  0.00000000000E+00  0.00000000000E+00 -0.49488760212E+03  0.16687291167E+04  0.15936571546E+04 0.  0.
        1    1    3    3  502    0  0.16652610499E+02 -0.26767971750E+02 -0.10811551088E+04  0.10816146278E+04  0.50400001928E-02 0.  1.
       -1    1    3    3    0  502 -0.16652610499E+02  0.26767971750E+02  0.58626750667E+03  0.58711448896E+03  0.50400001928E-02 0. -1.
</event>
<event>
 5   0  0.3228393E-04  0.1595831E+04  0.7818609E-02  0.8823113E-01
       -2   -1    0    0    0  501  0.00000000000E+00  0.00000000000E+00  0.11644724386E+04  0.11644724386E+04  0.25500000920E-02 0. -1.
        2   -1    0    0  501    0  0.00000000000E+00  0.00000000000E+00 -0.54674481425E+03  0.54674481425E+03  0.25500000920E-02 0.  1.
    10030    2    1    2    0    0  0.00000000000E+00  0.00000000000E+00  0.61772762433E+03  0.17112172528E+04  0.15958311529E+04 0.  0.
        1    1    3    3  502    0 -0.39730085190E+03  0.38991708293E+03 -0.30412127881E+03  0.63432881909E+03  0.50400001928E-02 0.  1.
       -1    1    3    3    0  502  0.39730085190E+03 -0.38991708293E+03  0.92184890314E+03  0.10768884337E+04  0.50400001928E-02 0. -1.
</event>
<event>
 5   0  0.3380454E-04  0.1579104E+04  0.7818609E-02  0.8833489E-01
        2   -1    0    0  501    0  0.00000000000E+00  0.00000000000E+00  0.19850875956E+04  0.19850875956E+04  0.25500000920E-02 0. -1.
       -2   -1    0    0    0  501  0.00000000000E+00  0.00000000000E+00 -0.31403770070E+03  0.31403770071E+03  0.25500000920E-02 0.  1.
    10030    2    1    2    0    0  0.00000000000E+00  0.00000000000E+00  0.16710498949E+04  0.22991252963E+04  0.15791039791E+04 0.  0.
        5    1    3    3  502    0 -0.66259365830E+03  0.39042570292E+01  0.14606164955E+04  0.16038915912E+04  0.46999998093E+01 0. -1.
       -5    1    3    3    0  502  0.66259365830E+03 -0.39042570292E+01  0.21043339942E+03  0.69523370519E+03  0.46999998093E+01 0.  1.
</event>
<event>
 5   0  0.3274900E-04  0.1604736E+04  0.7818609E-02  0.8817644E-01
       -2   -1    0    0    0  501  0.00000000000E+00  0.00000000000E+00  0.24389006623E+03  0.24389006625E+03  0.25500000920E-02 0.  1.
        2   -1    0    0  501    0  0.00000000000E+00  0.00000000000E+00 -0.26396921491E+04  0.26396921491E+04  0.25500000920E-02 0. -1.
    10030    2    1    2    0    0  0.00000000000E+00  0.00000000000E+00 -0.23958020829E+04  0.28835822153E+04  0.16047363560E+04 0.  0.
        3    1    3    3  502    0 -0.45666067362E+03  0.56281623971E+03 -0.57934923500E+03  0.92787210154E+03  0.10100000352E+00 0.  1.
       -3    1    3    3    0  502  0.45666067362E+03 -0.56281623971E+03 -0.18164528479E+04  0.19557101138E+04  0.10100000352E+00 0. -1.
</event>
<event>
 5   0  0.1761255E-04  0.1603961E+04  0.7818609E-02  0.8818118E-01
        1   -1    0    0  501    0  0.00000000000E+00  0.00000000000E+00  0.15530842802E+04  0.15530842802E+04  0.50400001928E-02 0.  1.
       -1   -1    0    0    0  501  0.00000000000E+00  0.00000000000E+00 -0.41412617191E+03  0.41412617194E+03  0.50400001928E-02 0. -1.
    10030    2    1    2    0    0  0.00000000000E+00  0.00000000000E+00  0.11389581083E+04  0.19672104521E+04  0.16039611562E+04 0.  0.
        2    1    3    3  502    0 -0.68160181311E+03  0.20536740321E+03  0.10224701911E+04  0.12458740280E+04  0.25500000920E-02 0.  1.
       -2    1    3    3    0  502  0.68160181311E+03 -0.20536740321E+03  0.11648791718E+03  0.72133642414E+03  0.25500000920E-02 0. -1.
</event>
<event>
 5   0  0.1736537E-04  0.1610843E+04  0.7818609E-02  0.8813914E-01
        1   -1    0    0  501    0  0.00000000000E+00  0.00000000000E+00  0.83816713407E+03  0.83816713409E+03  0.50400001928E-02 0.  1.
       -1   -1    0    0    0  501  0.00000000000E+00  0.00000000000E+00 -0.77395525993E+03  0.77395525995E+03  0.50400001928E-02 0. -1.
    10030    2    1    2    0    0  0.00000000000E+00  0.00000000000E+00  0.64211874137E+02  0.16121223940E+04  0.16108430863E+04 0.  0.
        3    1    3    3  502    0 -0.46400699688E+03 -0.44941113345E+03 -0.44934887498E+03  0.78688454151E+03  0.10100000352E+00 0.  1.
       -3    1    3    3    0  502  0.46400699688E+03  0.44941113345E+03  0.51356074911E+03  0.82523785253E+03  0.10100000352E+00 0. -1.
</event>
<event>
 5   0  0.1219463E-04  0.1586512E+04  0.7818609E-02  0.8828877E-01
        3   -1    0    0  501    0  0.00000000000E+00  0.00000000000E+00  0.11609750699E+04  0.11609750743E+04  0.10100000352E+00 0.  1.
       -3   -1    0    0    0  501  0.00000000000E+00  0.00000000000E+00 -0.54200574043E+03  0.54200574984E+03  0.10100000352E+00 0. -1.
    10030    2    1    2    0    0  0.00000000000E+00  0.00000000000E+00  0.61896932950E+03  0.17029808242E+04  0.15865121041E+04 0.  0.
        3    1    3    3  502    0 -0.31841522478E+03  0.71851489339E+03  0.42511083148E+03  0.89351616473E+03  0.10100000352E+00 0. -1.
       -3    1    3    3    0  502  0.31841522478E+03 -0.71851489339E+03  0.19385849802E+03  0.80946465942E+03  0.10100000352E+00 0.  1.
</event>
<event>
 5   0  0.1761255E-04  0.1606914E+04  0.7818609E-02  0.8816312E-01
       -1   -1    0    0    0  501  0.00000000000E+00  0.00000000000E+00  0.51864989190E+03  0.51864989192E+03  0.50400001928E-02 0. -1.
        1   -1    0    0  501    0  0.00000000000E+00  0.00000000000E+00 -0.12446603144E+04  0.12446603144E+04  0.50400001928E-02 0.  1.
    10030    2    1    2    0    0  0.00000000000E+00  0.00000000000E+00 -0.72601042247E+03  0.17633102063E+04  0.16069137345E+04 0.  0.
        2    1    3    3  502    0  0.29091706599E+03  0.58571439809E+03 -0.87517479865E+03  0.10925314749E+04  0.25500000920E-02 0.  1.
       -2    1    3    3    0  502 -0.29091706599E+03 -0.58571439809E+03  0.14916437617E+03  0.67077873143E+03  0.25500000920E-02 0. -1.
</event>
<event>
 5   0  0.1819811E-04  0.1588267E+04  0.7818609E-02  0.8827788E-01
       -1   -1    0    0    0  501  0.00000000000E+00  0.00000000000E+00  0.62162343302E+03  0.62162343304E+03  0.50400001928E-02 0. -1.
        1   -1    0    0  501    0  0.00000000000E+00  0.00000000000E+00 -0.10145182090E+04  0.10145182090E+04  0.50400001928E-02 0.  1.
    10030    2    1    2    0    0  0.00000000000E+00  0.00000000000E+00 -0.39289477594E+03  0.16361416420E+04  0.15882673477E+04 0.  0.
        1    1    3    3  502    0 -0.22289086746E+02 -0.38444379306E+03 -0.91189928437E+03  0.98987581962E+03  0.50400001928E-02 0.  1.
       -1    1    3    3    0  502  0.22289086746E+02  0.38444379306E+03  0.51900450843E+03  0.64626582240E+03  0.50400001928E-02 0. -1.
</event>
<event>
 5   0  0.3263294E-04  0.1600956E+04  0.7818609E-02  0.8819961E-01
        2   -1    0    0  501    0  0.00000000000E+00  0.00000000000E+00  0.98436062537E+03  0.98436062537E+03  0.25500000920E-02 0.  1.
       -2   -1    0    0    0  501  0.00000000000E+00  0.00000000000E+00 -0.65094570749E+03  0.65094570749E+03  0.25500000920E-02 0. -1.
    10030    2    1    2    0    0  0.00000000000E+00  0.00000000000E+00  0.33341491788E+03  0.16353063329E+04  0.16009563688E+04 0.  0.
        4    1    3    3  502    0  0.50243483879E+03 -0.15444485906E+03 -0.44995903838E+03  0.69192393428E+03  0.12699999809E+01 0. -1.
       -4    1    3    3    0  502 -0.50243483879E+03  0.15444485906E+03  0.78337395625E+03  0.94338239858E+03  0.12699999809E+01 0.  1.
</event>
<event>
 5   0  0.1736537E-04  0.1585091E+04  0.7818609E-02  0.8829760E-01
        1   -1    0    0  501    0  0.00000000000E+00  0.00000000000E+00  0.14457294953E+04  0.14457294953E+04  0.50400001928E-02 0. -1.
       -1   -1    0    0    0  501  0.00000000000E+00  0.00000000000E+00 -0.43447131864E+03  0.43447131867E+03  0.50400001928E-02 0.  1.
    10030    2    1    2    0    0  0.00000000000E+00  0.00000000000E+00  0.10112581767E+04  0.18802008140E+04  0.15850905340E+04 0.  0.
        3    1    3    3  502    0 -0.39177724796E+03 -0.20042546024E+03  0.12874893990E+04  0.13606207186E+04  0.10100000352E+00 0. -1.
       -3    1    3    3    0  502  0.39177724796E+03  0.20042546024E+03 -0.27623122233E+03  0.51958009539E+03  0.10100000352E+00 0.  1.
</event>
<event>
 5   0  0.3210612E-04  0.1600261E+04  0.7818609E-02  0.8820388E-01
       -2   -1    0    0    0  501  0.00000000000E+00  0.00000000000E+00  0.41555504555E+03  0.41555504556E+03  0.25500000920E-02 0.  1.
        2   -1    0    0  501    0  0.00000000000E+00  0.00000000000E+00 -0.15406117421E+04  0.15406117421E+04  0.25500000920E-02 0. -1.
    10030    2    1    2    0    0  0.00000000000E+00  0.00000000000E+00 -0.11250566966E+04  0.19561667877E+04  0.16002612070E+04 0.  0.
        2    1    3    3  502    0 -0.75071902411E+03  0.20971134855E+03 -0.78341210391E+03  0.11051210013E+04  0.25500000920E-02 0. -1.
       -2    1    3    3    0  502  0.75071902411E+03 -0.20971134855E+03 -0.34164459267E+03  0.85104578642E+03  0.25500000920E-02 0.  1.
</event>
<event>
 5   0  0.1764099E-04  0.1469150E+04  0.7818609E-02  0.8905231E-01
       -1   -1    0    0    0  501  0.00000000000E+00  0.00000000000E+00  0.12265410769E+04  0.12265410769E+04  0.50400001928E-02 0. -1.
        1   -1    0    0  501    0  0.00000000000E+00  0.00000000000E+00 -0.43993647143E+03  0.43993647146E+03  0.50400001928E-02 0.  1.
    10030    2    1    2    0    0  0.00000000000E+00  0.00000000000E+00  0.78660460547E+03  0.16664775484E+04  0.14691496227E+04 0.  0.
        5    1    3    3  502    0  0.19491322393E+03  0.10756785964E+03  0.11873353785E+04  0.12080353473E+04  0.46999998093E+01 0. -1.
       -5    1    3    3    0  502 -0.19491322393E+03 -0.10756785964E+03 -0.40073077302E+03  0.45844220109E+03  0.46999998093E+01 0.  1.
</event>
<event>
 5   0  0.3263294E-04  0.1586786E+04  0.7818609E-02  0.8828707E-01
        2   -1    0    0  501    0  0.00000000000E+00  0.00000000000E+00  0.17908633811E+04  0.17908633811E+04  0.25500000920E-02 0. -1.
       -2   -1    0    0    0  501  0.00000000000E+00  0.00000000000E+00 -0.35149093066E+03  0.35149093067E+03  0.25500000920E-02 0.  1.
    10030    2    1    2    0    0  0.00000000000E+00  0.00000000000E+00  0.14393724504E+04  0.21423543118E+04  0.15867857279E+04 0.  0.
        4    1    3    3  502    0  0.42577020329E+02  0.26404633545E+03 -0.28879015613E+03  0.39361737399E+03  0.12699999809E+01 0.  1.
       -4    1    3    3    0  502 -0.42577020329E+02 -0.26404633545E+03  0.17281626066E+04  0.17487369378E+04  0.12699999809E+01 0. -1.
</event>
<event>
 5   0  0.3228393E-04  0.1606710E+04  0.7818609E-02  0.8816437E-01
        2   -1    0    0  501    0  0.00000000000E+00  0.00000000000E+00  0.16594004768E+04  0.16594004768E+04  0.25500000920E-02 0.  1.
       -2   -1    0    0    0  501  0.00000000000E+00  0.00000000000E+00 -0.38892294511E+03  0.38892294512E+03  0.25500000920E-02 0. -1.
    10030    2    1    2    0    0  0.00000000000E+00  0.00000000000E+00  0.12704775316E+04  0.20483234219E+04  0.16067095824E+04 0.  0.
        1    1    3    3  502    0  0.54957956691E+02 -0.27538577752E+03 -0.32431482935E+03  0.42899628440E+03  0.50400001928E-02 0. -1.
       -1    1    3    3    0  502 -0.54957956691E+02  0.27538577752E+03  0.15947923610E+04  0.16193271375E+04  0.50400001928E-02 0.  1.
</event>
<event>
 5   0  0.3228393E-04  0.1603057E+04  0.7818609E-02  0.8818672E-01
        2   -1    0    0  501    0  0.00000000000E+00  0.00000000000E+00  0.25795085220E+04  0.25795085220E+04  0.25500000920E-02 0.  1.
       -2   -1    0    0    0  501  0.00000000000E+00  0.00000000000E+00 -0.24905811809E+03  0.24905811811E+03  0.25500000920E-02 0. -1.
    10030    2    1    2    0    0  0.00000000000E+00  0.00000000000E+00  0.23304504039E+04  0.28285666401E+04  0.16030565032E+04 0.  0.
        1    1    3    3  502    0  0.87062351330E+02  0.18195999280E+03 -0.20353891035E+03  0.28656130243E+03  0.50400001928E-02 0. -1.
       -1    1    3    3    0  502 -0.87062351330E+02 -0.18195999280E+03  0.25339893143E+04  0.25420053377E+04  0.50400001928E-02 0.  1.
</event>
<event>
 5   0  0.1787688E-04  0.1636033E+04  0.7818609E-02  0.8798712E-01
        1   -1    0    0  501    0  0.00000000000E+00  0.00000000000E+00  0.85163620150E+03  0.85163620152E+03  0.50400001928E-02 0. -1.
       -1   -1    0    0    0  501  0.00000000000E+00  0.00000000000E+00 -0.78572401105E+03  0.78572401107E+03  0.50400001928E-02 0.  1.
    10030    2    1    2    0    0  0.00000000000E+00  0.00000000000E+00  0.65912190450E+02  0.16373602126E+04  0.16360330219E+04 0.  0.
        4    1    3    3  502    0 -0.61476278765E+02  0.13688222255E+03 -0.77183137933E+03  0.78628326112E+03  0.12699999809E+01 0.  1.
       -4    1    3    3    0  502  0.61476278765E+02 -0.13688222255E+03  0.83774356978E+03  0.85107695146E+03  0.12699999809E+01 0. -1.
</event>
<event>
 5   0  0.3263294E-04  0.1598020E+04  0.7818609E-02  0.8821765E-01
        2   -1    0    0  501    0  0.00000000000E+00  0.00000000000E+00  0.15016359101E+04  0.15016359101E+04  0.25500000920E-02 0. -1.
       -2   -1    0    0    0  501  0.00000000000E+00  0.00000000000E+00 -0.42514766193E+03  0.42514766194E+03  0.25500000920E-02 0.  1.
    10030    2    1    2    0    0  0.00000000000E+00  0.00000000000E+00  0.10764882482E+04  0.19267835721E+04  0.15980200202E+04 0.  0.
        4    1    3    3  502    0 -0.55203875574E+03 -0.57701110691E+03  0.50573901584E+03  0.94523127877E+03  0.12699999809E+01 0.  1.
       -4    1    3    3    0  502  0.55203875574E+03  0.57701110691E+03  0.57074923235E+03  0.98155229329E+03  0.12699999809E+01 0. -1.
</event>
<event>
 5   0  0.3263294E-04  0.1604700E+04  0.7818609E-02  0.8817666E-01
        2   -1    0    0  501    0  0.00000000000E+00  0.00000000000E+00  0.87387957714E+03  0.87387957715E+03  0.25500000920E-02 0. -1.
       -2   -1    0    0    0  501  0.00000000000E+00  0.00000000000E+00 -0.73667513100E+03  0.73667513100E+03  0.25500000920E-02 0.  1.
    10030    2    1    2    0    0  0.00000000000E+00  0.00000000000E+00  0.13720444614E+03  0.16105547082E+04  0.16046997875E+04 0.  0.
        4    1    3    3  502    0 -0.57101748291E+03 -0.15974534036E+03 -0.47391065278E+03  0.75906024746E+03  0.12699999809E+01 0.  1.
       -4    1    3    3    0  502  0.57101748291E+03  0.15974534036E+03  0.61111509892E+03  0.85149446069E+03  0.12699999809E+01 0. -1.
</event>
<event>
 5   0  0.1219463E-04  0.1599585E+04  0.7818609E-02  0.8820803E-01
        4   -1    0    0  501    0  0.00000000000E+00  0.00000000000E+00  0.74180250519E+03  0.74180359234E+03  0.12699999809E+01 0. -1.
       -4   -1    0    0    0  501  0.00000000000E+00  0.00000000000E+00 -0.86231320779E+03  0.86231414301E+03  0.12699999809E+01 0.  1.
    10030    2    1    2    0    0  0.00000000000E+00  0.00000000000E+00 -0.12051070260E+03  0.16041177354E+04  0.15995845959E+04 0.  0.
        5    1    3    3  502    0 -0.74974561844E+03  0.20856620894E+03  0.12473224371E+03  0.78816151803E+03  0.46999998093E+01 0. -1.
       -5    1    3    3    0  502  0.74974561844E+03 -0.20856620894E+03 -0.24524294631E+03  0.81595621732E+03  0.46999998093E+01 0.  1.
</event>
<event>
 5   0  0.3263294E-04  0.1608279E+04  0.7818609E-02  0.8815478E-01
        2   -1    0    0  501    0  0.00000000000E+00  0.00000000000E+00  0.15581259622E+04  0.15581259622E+04  0.25500000920E-02 0. -1.
       -2   -1    0    0    0  501  0.00000000000E+00  0.00000000000E+00 -0.41501152041E+03  0.41501152042E+03  0.25500000920E-02 0.  1.
    10030    2    1    2    0    0  0.00000000000E+00  0.00000000000E+00  0.11431144418E+04  0.19731374826E+04  0.16082788621E+04 0.  0.
        4    1    3    3  502    0  0.47296508754E+03  0.54909269614E+03  0.99909707179E+03  0.12342590225E+04  0.12699999809E+01 0. -1.
       -4    1    3    3    0  502 -0.47296508754E+03 -0.54909269614E+03  0.14401737000E+03  0.73887846006E+03  0.12699999809E+01 0.  1.
</event>
<event>
 5   0  0.1764099E-04  0.1592360E+04  0.7818609E-02  0.8825255E-01
        1   -1    0    0  501    0  0.00000000000E+00  0.00000000000E+00  0.10275171699E+04  0.10275171699E+04  0.50400001928E-02 0.  1.
       -1   -1    0    0    0  501  0.00000000000E+00  0.00000000000E+00 -0.61692672721E+03  0.61692672723E+03  0.50400001928E-02 0. -1.
    10030    2    1    2    0    0  0.00000000000E+00  0.00000000000E+00  0.41059044267E+03  0.16444438971E+04  0.15923602668E+04 0.  0.
        5    1    3    3  502    0 -0.58066778823E+03  0.23165920606E+03 -0.30382024630E+03  0.69510423686E+03  0.46999998093E+01 0. -1.
       -5    1    3    3    0  502  0.58066778823E+03 -0.23165920606E+03  0.71441068898E+03  0.94933966027E+03  0.46999998093E+01 0.  1.
</event>
<event>
 5   0  0.1764099E-04  0.1599750E+04  0.7818609E-02  0.8820702E-01
        1   -1    0    0  501    0  0.00000000000E+00  0.00000000000E+00  0.10760531178E+04  0.10760531178E+04  0.50400001928E-02 0. -1.
       -1   -1    0    0    0  501  0.00000000000E+00  0.00000000000E+00 -0.59458003417E+03  0.59458003419E+03  0.50400001928E-02 0.  1.
    10030    2    1    2    0    0  0.00000000000E+00  0.00000000000E+00  0.48147308359E+03  0.16706331520E+04  0.15997496049E+04 0.  0.
        5    1    3    3  502    0 -0.48255434904E+03  0.63780924296E+03  0.22937901955E+03  0.83204336112E+03  0.46999998093E+01 0. -1.
       -5    1    3    3    0  502  0.48255434904E+03 -0.63780924296E+03  0.25209406404E+03  0.83858979084E+03  0.46999998093E+01 0.  1.
</event>
<event>
 5   0  0.1764099E-04  0.1601048E+04  0.7818609E-02  0.8819905E-01
        1   -1    0    0  501    0  0.00000000000E+00  0.00000000000E+00  0.95105631544E+03  0.95105631545E+03  0.50400001928E-02 0.  1.
       -1   -1    0    0    0  501  0.00000000000E+00  0.00000000000E+00 -0.67381749971E+03  0.67381749973E+03  0.50400001928E-02 0. -1.
    10030    2    1    2    0    0  0.00000000000E+00  0.00000000000E+00  0.27723881573E+03  0.16248738152E+04  0.16010476427E+04 0.  0.
        5    1    3    3  502    0 -0.33558622983E+03  0.70908123690E+03  0.30037122671E+03  0.84003528617E+03  0.46999998093E+01 0.  1.
       -5    1    3    3    0  502  0.33558622983E+03 -0.70908123690E+03 -0.23132410982E+02  0.78483852901E+03  0.46999998093E+01 0. -1.
</event>
<event>
 5   0  0.1761255E-04  0.1640298E+04  0.7818609E-02  0.8796167E-01
       -1   -1    0    0    0  501  0.00000000000E+00  0.00000000000E+00  0.10100894545E+04  0.10100894545E+04  0.50400001928E-02 0. -1.
        1   -1    0    0  501    0  0.00000000000E+00  0.00000000000E+00 -0.66592540959E+03  0.66592540961E+03  0.50400001928E-02 0.  1.
    10030    2    1    2    0    0  0.00000000000E+00  0.00000000000E+00  0.34416404488E+03  0.16760148641E+04  0.16402978190E+04 0.  0.
        2    1    3    3  502    0  0.62689662908E+03  0.29088110176E+03 -0.27915969950E+03  0.74534645417E+03  0.25500000920E-02 0.  1.
       -2    1    3    3    0  502 -0.62689662908E+03 -0.29088110176E+03  0.62332374438E+03  0.93066840992E+03  0.25500000920E-02 0. -1.
</event>
<event>
 5   0  0.3274900E-04  0.1580655E+04  0.7818609E-02  0.8832521E-01
        2   -1    0    0  501    0  0.00000000000E+00  0.00000000000E+00  0.63161226892E+03  0.63161226893E+03  0.25500000920E-02 0. -1.
       -2   -1    0    0    0  501  0.00000000000E+00  0.00000000000E+00 -0.98892618745E+03  0.98892618745E+03  0.25500000920E-02 0.  1.
    10030    2    1    2    0    0  0.00000000000E+00  0.00000000000E+00 -0.35731391853E+03  0.16205384564E+04  0.15806554502E+04 0.  0.
        3    1    3    3  502    0  0.15939397715E+03 -0.35315776857E+03 -0.88487066612E+03  0.96598289603E+03  0.10100000352E+00 0.  1.
       -3    1    3    3    0  502 -0.15939397715E+03  0.35315776857E+03  0.52755674760E+03  0.65455556035E+03  0.10100000352E+00 0. -1.
</event>
<event>
 5   0  0.3380454E-04  0.1606996E+04  0.7818609E-02  0.8816262E-01
       -2   -1    0    0    0  501  0.00000000000E+00  0.00000000000E+00  0.30307768853E+03  0.30307768854E+03  0.25500000920E-02 0.  1.
        2   -1    0    0  501    0  0.00000000000E+00  0.00000000000E+00 -0.21301756370E+04  0.21301756370E+04  0.25500000920E-02 0. -1.
    10030    2    1    2    0    0  0.00000000000E+00  0.00000000000E+00 -0.18270979485E+04  0.24332533256E+04  0.16069955921E+04 0.  0.
        5    1    3    3  502    0  0.61413584529E+02  0.20169212694E+03  0.26042575123E+03  0.33510446780E+03  0.46999998093E+01 0.  1.
       -5    1    3    3    0  502 -0.61413584529E+02 -0.20169212694E+03 -0.20875236997E+04  0.20981488578E+04  0.46999998093E+01 0. -1.
</event>
<event>
 5   0  0.3210612E-04  0.1603702E+04  0.7818609E-02  0.8818277E-01
        2   -1    0    0  501    0  0.00000000000E+00  0.00000000000E+00  0.60292942006E+03  0.60292942007E+03  0.25500000920E-02 0.  1.
       -2   -1    0    0    0  501  0.00000000000E+00  0.00000000000E+00 -0.10664013832E+04  0.10664013832E+04  0.25500000920E-02 0. -1.
    10030    2    1    2    0    0  0.00000000000E+00  0.00000000000E+00 -0.46347196317E+03  0.16693308033E+04  0.16037016774E+04 0.  0.
        2    1    3    3  502    0 -0.11999285057E+03  0.53845974256E+03 -0.83746725016E+03  0.10028402533E+04  0.25500000920E-02 0. -1.
       -2    1    3    3    0  502  0.11999285057E+03 -0.53845974256E+03  0.37399528700E+03  0.66649055000E+03  0.25500000920E-02 0.  1.
</event>
<event>
 5   0  0.1761255E-04  0.1610947E+04  0.7818609E-02  0.8813851E-01
       -1   -1    0    0    0  501  0.00000000000E+00  0.00000000000E+00  0.11115958879E+04  0.11115958879E+04  0.50400001928E-02 0. -1.
        1   -1    0    0  501    0  0.00000000000E+00  0.00000000000E+00 -0.58365419764E+03  0.58365419766E+03  0.50400001928E-02 0.  1.
    10030    2    1    2    0    0  0.00000000000E+00  0.00000000000E+00  0.52794169028E+03  0.16952500856E+04  0.16109470582E+04 0.  0.
        2    1    3    3  502    0 -0.10188302006E+03 -0.13073651037E+01  0.11047867164E+04  0.11094753480E+04  0.25500000920E-02 0. -1.
       -2    1    3    3    0  502  0.10188302006E+03  0.13073651037E+01 -0.57684502616E+03  0.58577473759E+03  0.25500000920E-02 0.  1.
</event>
<event>
 5   0  0.3228393E-04  0.1595384E+04  0.7818609E-02  0.8823389E-01
        2   -1    0    0  501    0  0.00000000000E+00  0.00000000000E+00  0.18434502854E+04  0.18434502854E+04  0.25500000920E-02 0.  1.
       -2   -1    0    0    0  501  0.00000000000E+00  0.00000000000E+00 -0.34517480601E+03  0.34517480602E+03  0.25500000920E-02 0. -1.
    10030    2    1    2    0    0  0.00000000000E+00  0.00000000000E+00  0.14982754794E+04  0.21886250914E+04  0.15953840850E+04 0.  0.
        1    1    3    3  502    0  0.49759701024E+03 -0.60480064408E+03  0.95685384782E+03  0.12365095591E+04  0.50400001928E-02 0. -1.
       -1    1    3    3    0  502 -0.49759701024E+03  0.60480064408E+03  0.54142163156E+03  0.95211553229E+03  0.50400001928E-02 0.  1.
</event>
<event>
 5   0  0.1219463E-04  0.1602987E+04  0.7818609E-02  0.8818715E-01
       -3   -1    0    0    0  501  0.00000000000E+00  0.00000000000E+00  0.73786763176E+03  0.73786763868E+03  0.10100000352E+00 0. -1.
        3   -1    0    0  501    0  0.00000000000E+00  0.00000000000E+00 -0.87060628114E+03  0.87060628700E+03  0.10100000352E+00 0.  1.
    10030    2    1    2    0    0  0.00000000000E+00  0.00000000000E+00 -0.13273864938E+03  0.16084739257E+04  0.16029874674E+04 0.  0.
        5    1    3    3  502    0 -0.49338286844E+03 -0.43021932090E+02 -0.69867893225E+03  0.85641805322E+03  0.46999998093E+01 0.  1.
       -5    1    3    3    0  502  0.49338286844E+03  0.43021932090E+02  0.56594028287E+03  0.75205587245E+03  0.46999998093E+01 0. -1.
</event>
<event>
 5   0  0.1219463E-04  0.1632653E+04  0.7818609E-02  0.8800735E-01
       -4   -1    0    0    0  501  0.00000000000E+00  0.00000000000E+00  0.94823214742E+03  0.94823299790E+03  0.12699999809E+01 0. -1.
        4   -1    0    0  501    0  0.00000000000E+00  0.00000000000E+00 -0.70276817024E+03  0.70276931777E+03  0.12699999809E+01 0.  1.
    10030    2    1    2    0    0  0.00000000000E+00  0.00000000000E+00  0.24546397718E+03  0.16510023157E+04  0.16326530808E+04 0.  0.
        3    1    3    3  502    0  0.63592168611E+03 -0.48669755023E+03  0.28300016104E+03  0.84932914563E+03  0.10100000352E+00 0. -1.
       -3    1    3    3    0  502 -0.63592168611E+03  0.48669755023E+03 -0.37536183860E+02  0.80167317004E+03  0.10100000352E+00 0.  1.
</event>
<event>
 5   0  0.1819811E-04  0.1597633E+04  0.7818609E-02  0.8822003E-01
       -1   -1    0    0    0  501  0.00000000000E+00  0.00000000000E+00  0.44894137189E+03  0.44894137192E+03  0.50400001928E-02 0.  1.
        1   -1    0    0  501    0  0.00000000000E+00  0.00000000000E+00 -0.14213618626E+04  0.14213618627E+04  0.50400001928E-02 0. -1.
    10030    2    1    2    0    0  0.00000000000E+00  0.00000000000E+00 -0.97242049076E+03  0.18703032346E+04  0.15976334306E+04 0.  0.
        1    1    3    3  502    0 -0.11773009862E+03 -0.75515261502E+03 -0.21419027727E+03  0.79372118718E+03  0.50400001928E-02 0.  1.
       -1    1    3    3    0  502  0.11773009862E+03  0.75515261502E+03 -0.75823021349E+03  0.10765820474E+04  0.50400001928E-02 0. -1.
</event>
<event>
 5   0  0.1736537E-04  0.1591535E+04  0.7818609E-02  0.8825766E-01
        1   -1    0    0  501    0  0.00000000000E+00  0.00000000000E+00  0.65076922434E+03  0.65076922436E+03  0.50400001928E-02 0.  1.
       -1   -1    0    0    0  501  0.00000000000E+00  0.00000000000E+00 -0.97307236802E+03  0.97307236803E+03  0.50400001928E-02 0. -1.
    10030    2    1    2    0    0  0.00000000000E+00  0.00000000000E+00 -0.32230314368E+03  0.16238415924E+04  0.15915345427E+04 0.  0.
        3    1    3    3  502    0 -0.57589004441E+02  0.44826292036E+02 -0.96965083618E+03  0.97239325594E+03  0.10100000352E+00 0. -1.
       -3    1    3    3    0  502  0.57589004441E+02 -0.44826292036E+02  0.64734769249E+03  0.65144833645E+03  0.10100000352E+00 0.  1.
</event>
<event>
 5   0  0.1761255E-04  0.1611604E+04  0.7818609E-02  0.8813451E-01
        1   -1    0    0  501    0  0.00000000000E+00  0.00000000000E+00  0.87497664315E+03  0.87497664316E+03  0.50400001928E-02 0. -1.
       -1   -1    0    0    0  501  0.00000000000E+00  0.00000000000E+00 -0.74209652134E+03  0.74209652136E+03  0.50400001928E-02 0.  1.
    10030    2    1    2    0    0  0.00000000000E+00  0.00000000000E+00  0.13288012180E+03  0.16170731645E+04  0.16116043226E+04 0.  0.
        2    1    3    3  502    0 -0.25515594726E+03 -0.57822565068E+03 -0.43512384245E+03  0.76732145728E+03  0.25500000920E-02 0.  1.
       -2    1    3    3    0  502  0.25515594726E+03  0.57822565068E+03  0.56800396426E+03  0.84975170724E+03  0.25500000920E-02 0. -1.
</event>
<event>
 5   0  0.1736537E-04  0.1612216E+04  0.7818609E-02  0.8813078E-01
       -1   -1    0    0    0  501  0.00000000000E+00  0.00000000000E+00  0.46610949469E+03  0.46610949471E+03  0.50400001928E-02 0.  1.
        1   -1    0    0  501    0  0.00000000000E+00  0.00000000000E+00 -0.13941146826E+04  0.13941146826E+04  0.50400001928E-02 0. -1.
    10030    2    1    2    0    0  0.00000000000E+00  0.00000000000E+00 -0.92800518793E+03  0.18602241773E+04  0.16122159784E+04 0.  0.
        3    1    3    3  502    0  0.40466794040E+03 -0.69412147656E+03 -0.53921707597E+03  0.96763414131E+03  0.10100000352E+00 0. -1.
       -3    1    3    3    0  502 -0.40466794040E+03  0.69412147656E+03 -0.38878811196E+03  0.89259003603E+03  0.10100000352E+00 0.  1.
</event>
<event>
 5   0  0.1787688E-04  0.1620186E+04  0.7818609E-02  0.8808242E-01
        1   -1    0    0  501    0  0.00000000000E+00  0.00000000000E+00  0.43943050675E+03  0.43943050678E+03  0.50400001928E-02 0. -1.
       -1   -1    0    0    0  501  0.00000000000E+00  0.00000000000E+00 -0.14934109482E+04  0.14934109482E+04  0.50400001928E-02 0.  1.
    10030    2    1    2    0    0  0.00000000000E+00  0.00000000000E+00 -0.10539804414E+04  0.19328414550E+04  0.16201855817E+04 0.  0.
        4    1    3    3  502    0  0.18607967542E+03  0.48143940461E+03 -0.12718494547E+04  0.13725932370E+04  0.12699999809E+01 0.  1.
       -4    1    3    3    0  502 -0.18607967542E+03 -0.48143940461E+03  0.21786901326E+03  0.56024821798E+03  0.12699999809E+01 0. -1.
</event>
<event>
 5   0  0.1761255E-04  0.1610801E+04  0.7818609E-02  0.8813940E-01
       -1   -1    0    0    0  501  0.00000000000E+00  0.00000000000E+00  0.91080600943E+03  0.91080600944E+03  0.50400001928E-02 0.  1.
        1   -1    0    0  501    0  0.00000000000E+00  0.00000000000E+00 -0.71219299107E+03  0.71219299109E+03  0.50400001928E-02 0. -1.
    10030    2    1    2    0    0  0.00000000000E+00  0.00000000000E+00  0.19861301836E+03  0.16229990005E+04  0.16108006160E+04 0.  0.
        2    1    3    3  502    0  0.51013916765E+03  0.60537245711E+03 -0.49977147872E+02  0.79323104926E+03  0.25500000920E-02 0. -1.
       -2    1    3    3    0  502 -0.51013916765E+03 -0.60537245711E+03  0.24859016623E+03  0.82976795127E+03  0.25500000920E-02 0.  1.
</event>
<event>
 5   0  0.3210612E-04  0.1625785E+04  0.7818609E-02  0.8804862E-01
        2   -1    0    0  501    0  0.00000000000E+00  0.00000000000E+00  0.15617718297E+04  0.15617718297E+04  0.25500000920E-02 0.  1.
       -2   -1    0    0    0  501  0.00000000000E+00  0.00000000000E+00 -0.42310544468E+03  0.42310544469E+03  0.25500000920E-02 0. -1.
    10030    2    1    2    0    0  0.00000000000E+00  0.00000000000E+00  0.11386663851E+04  0.19848772744E+04  0.16257849360E+04 0.  0.
        2    1    3    3  502    0  0.37252042926E+03 -0.67796284365E+03  0.87428052887E+03  0.11673780582E+04  0.25500000920E-02 0.  1.
       -2    1    3    3    0  502 -0.37252042926E+03  0.67796284365E+03  0.26438585618E+03  0.81749921623E+03  0.25500000920E-02 0. -1.
</event>
<event>
 5   0  0.1761255E-04  0.1571285E+04  0.7818609E-02  0.8838386E-01
        1   -1    0    0  501    0  0.00000000000E+00  0.00000000000E+00  0.74522856035E+03  0.74522856037E+03  0.50400001928E-02 0.  1.
       -1   -1    0    0    0  501  0.00000000000E+00  0.00000000000E+00 -0.82824790690E+03  0.82824790691E+03  0.50400001928E-02 0. -1.
    10030    2    1    2    0    0  0.00000000000E+00  0.00000000000E+00 -0.83019346546E+02  0.15734764673E+04  0.15712848186E+04 0.  0.
        2    1    3    3  502    0  0.81589823504E+02 -0.73934794988E+03 -0.29472934639E+03  0.80009854263E+03  0.25500000920E-02 0. -1.
       -2    1    3    3    0  502 -0.81589823504E+02  0.73934794988E+03  0.21170999985E+03  0.77337792465E+03  0.25500000920E-02 0.  1.
</event>
<event>
 5   0  0.1764099E-04  0.1604945E+04  0.7818609E-02  0.8817516E-01
        1   -1    0    0  501    0  0.00000000000E+00  0.00000000000E+00  0.12920095852E+04  0.12920095852E+04  0.50400001928E-02 0. -1.
       -1   -1    0    0    0  501  0.00000000000E+00  0.00000000000E+00 -0.49841902233E+03  0.49841902236E+03  0.50400001928E-02 0.  1.
    10030    2    1    2    0    0  0.00000000000E+00  0.00000000000E+00  0.79359056284E+03  0.17904286075E+04  0.16049450512E+04 0.  0.
        5    1    3    3  502    0  0.45640900333E+03  0.10868270571E+03  0.11230467588E+04  0.12171184089E+04  0.46999998093E+01 0.  1.
       -5    1    3    3    0  502 -0.45640900333E+03 -0.10868270571E+03 -0.32945619594E+03  0.57331019866E+03  0.46999998093E+01 0. -1.
</event>
<event>
 5   0  0.1219463E-04  0.1576405E+04  0.7818609E-02  0.8835176E-01
       -3   -1    0    0    0  501  0.00000000000E+00  0.00000000000E+00  0.12405423001E+04  0.12405423042E+04  0.10100000352E+00 0. -1.
        3   -1    0    0  501    0  0.00000000000E+00  0.00000000000E+00 -0.50079943800E+03  0.50079944818E+03  0.10100000352E+00 0.  1.
    10030    2    1    2    0    0  0.00000000000E+00  0.00000000000E+00  0.73974286211E+03  0.17413417524E+04  0.15764046424E+04 0.  0.
        3    1    3    3  502    0  0.49845045912E+03  0.88092443734E+02 -0.29753799471E+03  0.58714734721E+03  0.10100000352E+00 0.  1.
       -3    1    3    3    0  502 -0.49845045912E+03 -0.88092443734E+02  0.10372808568E+04  0.11541944052E+04  0.10100000352E+00 0. -1.
</event>
<event>
 5   0  0.3274900E-04  0.1601534E+04  0.7818609E-02  0.8819606E-01
        2   -1    0    0  501    0  0.00000000000E+00  0.00000000000E+00  0.13150603412E+04  0.13150603412E+04  0.25500000920E-02 0.  1.
       -2   -1    0    0    0  501  0.00000000000E+00  0.00000000000E+00 -0.48760351871E+03  0.48760351872E+03  0.25500000920E-02 0. -1.
    10030    2    1    2    0    0  0.00000000000E+00  0.00000000000E+00  0.82745682248E+03  0.18026638599E+04  0.16015343264E+04 0.  0.
        3    1    3    3  502    0 -0.50953993107E+03  0.27832449718E+03  0.10344687489E+04  0.11862634909E+04  0.10100000352E+00 0.  1.
       -3    1    3    3    0  502  0.50953993107E+03 -0.27832449718E+03 -0.20701192643E+03  0.61640036905E+03  0.10100000352E+00 0. -1.
</event>
<event>
 5   0  0.3274900E-04  0.1591126E+04  0.7818609E-02  0.8826018E-01
        2   -1    0    0  501    0  0.00000000000E+00  0.00000000000E+00  0.15730792013E+04  0.15730792013E+04  0.25500000920E-02 0.  1.
       -2   -1    0    0    0  501  0.00000000000E+00  0.00000000000E+00 -0.40234478974E+03  0.40234478975E+03  0.25500000920E-02 0. -1.
    10030    2    1    2    0    0  0.00000000000E+00  0.00000000000E+00  0.11707344115E+04  0.19754239910E+04  0.15911256650E+04 0.  0.
        3    1    3    3  502    0  0.30527994614E+03 -0.68710186188E+03  0.26253367098E+03  0.79638480191E+03  0.10100000352E+00 0. -1.
       -3    1    3    3    0  502 -0.30527994614E+03  0.68710186188E+03  0.90820074054E+03  0.11790391891E+04  0.10100000352E+00 0.  1.
</event>
<event>
 5   0  0.3263294E-04  0.1529387E+04  0.7818609E-02  0.8865142E-01
       -2   -1    0    0    0  501  0.00000000000E+00  0.00000000000E+00  0.11329886825E+04  0.11329886825E+04  0.25500000920E-02 0. -1.
        2   -1    0    0  501    0  0.00000000000E+00  0.00000000000E+00 -0.51611853285E+03  0.51611853286E+03  0.25500000920E-02 0.  1.
    10030    2    1    2    0    0  0.00000000000E+00  0.00000000000E+00  0.61687014969E+03  0.16491072154E+04  0.15293874023E+04 0.  0.
        4    1    3    3  502    0 -0.21249800839E+03 -0.56862209835E+03  0.80988534096E+03  0.10121276464E+04  0.12699999809E+01 0. -1.
       -4    1    3    3    0  502  0.21249800839E+03  0.56862209835E+03 -0.19301519127E+03  0.63697956895E+03  0.12699999809E+01 0.  1.
</event>
<event>
 5   0  0.3274900E-04  0.1595470E+04  0.7818609E-02  0.8823336E-01
        2   -1    0    0  501    0  0.00000000000E+00  0.00000000000E+00  0.12262888620E+04  0.12262888620E+04  0.25500000920E-02 0. -1.
       -2   -1    0    0    0  501  0.00000000000E+00  0.00000000000E+00 -0.51894854759E+03  0.51894854760E+03  0.25500000920E-02 0.  1.
    10030    2    1    2    0    0  0.00000000000E+00  0.00000000000E+00  0.70734031440E+03  0.17452374096E+04  0.15954696160E+04 0.  0.
        3    1    3    3  502    0 -0.28003181236E+03 -0.31314535966E+03 -0.38815078254E+03  0.57196055143E+03  0.10100000352E+00 0.  1.
       -3    1    3    3    0  502  0.28003181236E+03  0.31314535966E+03  0.10954910969E+04  0.11732768582E+04  0.10100000352E+00 0. -1.
</event>
<event>
 5   0  0.3228393E-04  0.1613672E+04  0.7818609E-02  0.8812192E-01
        2   -1    0    0  501    0  0.00000000000E+00  0.00000000000E+00  0.84705855060E+03  0.84705855061E+03  0.25500000920E-02 0. -1.
       -2   -1    0    0    0  501  0.00000000000E+00  0.00000000000E+00 -0.76852377068E+03  0.76852377068E+03  0.25500000920E-02 0.  1.
    10030    2    1    2    0    0  0.00000000000E+00  0.00000000000E+00  0.78534779922E+02  0.16155823213E+04  0.16136723723E+04 0.  0.
        1    1    3    3  502    0  0.18352872160E+03 -0.66180457069E+03 -0.38469166536E+03  0.78718216371E+03  0.50400001928E-02 0. -1.
       -1    1    3    3    0  502 -0.18352872160E+03  0.66180457069E+03  0.46322644529E+03  0.82840015758E+03  0.50400001928E-02 0.  1.
</event>
<event>
 5   0  0.3274900E-04  0.1604063E+04  0.7818609E-02  0.8818056E-01
       -2   -1    0    0    0  501  0.00000000000E+00  0.00000000000E+00  0.67356801800E+03  0.67356801800E+03  0.25500000920E-02 0. -1.
        2   -1    0    0  501    0  0.00000000000E+00  0.00000000000E+00 -0.95499583001E+03  0.95499583001E+03  0.25500000920E-02 0.  1.
    10030    2    1    2    0    0  0.00000000000E+00  0.00000000000E+00 -0.28142781201E+03  0.16285638480E+04  0.16040631514E+04 0.  0.
        3    1    3    3  502    0  0.47055971223E+03 -0.64692387176E+03 -0.82234647551E+02  0.80417627799E+03  0.10100000352E+00 0. -1.
       -3    1    3    3    0  502 -0.47055971223E+03  0.64692387176E+03 -0.19919316446E+03  0.82438757002E+03  0.10100000352E+00 0.  1.
</event>
<event>
 5   0  0.3380454E-04  0.1588600E+04  0.7818609E-02  0.8827582E-01
        2   -1    0    0  501    0  0.00000000000E+00  0.00000000000E+00  0.95793840216E+03  0.95793840216E+03  0.25500000920E-02 0.  1.
       -2   -1    0    0    0  501  0.00000000000E+00  0.00000000000E+00 -0.65861455896E+03  0.65861455897E+03  0.25500000920E-02 0. -1.
    10030    2    1    2    0    0  0.00000000000E+00  0.00000000000E+00  0.29932384320E+03  0.16165529611E+04  0.15885996075E+04 0.  0.
        5    1    3    3  502    0  0.49023766898E+03  0.30557872554E+03  0.70439538996E+03  0.91099192367E+03  0.46999998093E+01 0.  1.
       -5    1    3    3    0  502 -0.49023766898E+03 -0.30557872554E+03 -0.40507154677E+03  0.70556103746E+03  0.46999998093E+01 0. -1.
</event>
<event>
 5   0  0.1736537E-04  0.1616689E+04  0.7818609E-02  0.8810360E-01
       -1   -1    0    0    0  501  0.00000000000E+00  0.00000000000E+00  0.82606418461E+03  0.82606418463E+03  0.50400001928E-02 0.  1.
        1   -1    0    0  501    0  0.00000000000E+00  0.00000000000E+00 -0.79100500412E+03  0.79100500414E+03  0.50400001928E-02 0. -1.
    10030    2    1    2    0    0  0.00000000000E+00  0.00000000000E+00  0.35059180488E+02  0.16170691888E+04  0.16166890904E+04 0.  0.
        3    1    3    3  502    0 -0.52927511696E+03  0.60454077124E+03  0.10597662082E+03  0.81045218729E+03  0.10100000352E+00 0. -1.
       -3    1    3    3    0  502  0.52927511696E+03 -0.60454077124E+03 -0.70917440334E+02  0.80661700148E+03  0.10100000352E+00 0.  1.
</event>
<event>
 5   0  0.1819811E-04  0.1586632E+04  0.7818609E-02  0.8828803E-01
       -1   -1    0    0    0  501  0.00000000000E+00  0.00000000000E+00  0.71747709521E+03  0.71747709523E+03  0.50400001928E-02 0. -1.
        1   -1    0    0  501    0  0.00000000000E+00  0.00000000000E+00 -0.87717151768E+03  0.87717151770E+03  0.50400001928E-02 0.  1.
    10030    2    1    2    0    0  0.00000000000E+00  0.00000000000E+00 -0.15969442247E+03  0.15946486129E+04  0.15866322479E+04 0.  0.
        1    1    3    3  502    0  0.13217372572E+03  0.30307900005E+03 -0.80461734775E+03  0.86990565601E+03  0.50400001928E-02 0.  1.
       -1    1    3    3    0  502 -0.13217372572E+03 -0.30307900005E+03  0.64492292527E+03  0.72474295692E+03  0.50400001928E-02 0. -1.
</event>
<event>
 5   0  0.1736537E-04  0.1606700E+04  0.7818609E-02  0.8816442E-01
       -1   -1    0    0    0  501  0.00000000000E+00  0.00000000000E+00  0.39016832296E+03  0.39016832299E+03  0.50400001928E-02 0.  1.
        1   -1    0    0  501    0  0.00000000000E+00  0.00000000000E+00 -0.16540841951E+04  0.16540841951E+04  0.50400001928E-02 0. -1.
    10030    2    1    2    0    0  0.00000000000E+00  0.00000000000E+00 -0.12639158721E+04  0.20442525181E+04  0.16067000423E+04 0.  0.
        3    1    3    3  502    0  0.30829907959E+03 -0.24993514686E+03  0.25672178604E+03  0.47267534920E+03  0.10100000352E+00 0.  1.
       -3    1    3    3    0  502 -0.30829907959E+03  0.24993514686E+03 -0.15206376582E+04  0.15715771689E+04  0.10100000352E+00 0. -1.
</event>
<event>
 5   0  0.1819811E-04  0.1578828E+04  0.7818609E-02  0.8833661E-01
       -1   -1    0    0    0  501  0.00000000000E+00  0.00000000000E+00  0.10107830081E+04  0.10107830081E+04  0.50400001928E-02 0.  1.
        1   -1    0    0  501    0  0.00000000000E+00  0.00000000000E+00 -0.61652649837E+03  0.61652649839E+03  0.50400001928E-02 0. -1.
    10030    2    1    2    0    0  0.00000000000E+00  0.00000000000E+00  0.39425650972E+03  0.16273095065E+04  0.15788280573E+04 0.  0.
        1    1    3    3  502    0 -0.33711810652E+03 -0.58637017191E+03  0.61668549817E+03  0.91530300990E+03  0.50400001928E-02 0.  1.
       -1    1    3    3    0  502  0.33711810652E+03  0.58637017191E+03 -0.22242898846E+03  0.71200649658E+03  0.50400001928E-02 0. -1.
</event>
<event>
 5   0  0.1787688E-04  0.1595845E+04  0.7818609E-02  0.8823105E-01
        1   -1    0    0  501    0  0.00000000000E+00  0.00000000000E+00  0.82175548624E+03  0.82175548625E+03  0.50400001928E-02 0.  1.
       -1   -1    0    0    0  501  0.00000000000E+00  0.00000000000E+00 -0.77478073786E+03  0.77478073788E+03  0.50400001928E-02 0. -1.
    10030    2    1    2    0    0  0.00000000000E+00  0.00000000000E+00  0.46974748372E+02  0.15965362241E+04  0.15958450075E+04 0.  0.
        4    1    3    3  502    0 -0.11499943771E+03 -0.78903757970E+03  0.53055822435E+02  0.79913810198E+03  0.12699999809E+01 0. -1.
       -4    1    3    3    0  502  0.11499943771E+03  0.78903757970E+03 -0.60810740632E+01  0.79739812215E+03  0.12699999809E+01 0.  1.
</event>
<event>
 5   0  0.3263294E-04  0.1604043E+04  0.7818609E-02  0.8818068E-01
        2   -1    0    0  501    0  0.00000000000E+00  0.00000000000E+00  0.11016369167E+04  0.11016369167E+04  0.25500000920E-02 0. -1.
       -2   -1    0    0    0  501  0.00000000000E+00  0.00000000000E+00 -0.58389366911E+03  0.58389366912E+03  0.25500000920E-02 0.  1.
    10030    2    1    2    0    0  0.00000000000E+00  0.00000000000E+00  0.51774324763E+03  0.16855305859E+04  0.16040434176E+04 0.  0.
        4    1    3    3  502    0  0.57253512024E+03 -0.55784940650E+03  0.32733342597E+03  0.86379465668E+03  0.12699999809E+01 0. -1.
       -4    1    3    3    0  502 -0.57253512024E+03  0.55784940650E+03  0.19040982166E+03  0.82173592919E+03  0.12699999809E+01 0.  1.
</event>
<event>
 5   0  0.3380454E-04  0.1599708E+04  0.7818609E-02  0.8820728E-01
       -2   -1    0    0    0  501  0.00000000000E+00  0.00000000000E+00  0.11443141177E+04  0.11443141177E+04  0.25500000920E-02 0. -1.
        2   -1    0    0  501    0  0.00000000000E+00  0.00000000000E+00 -0.55908268021E+03  0.55908268022E+03  0.25500000920E-02 0.  1.
    10030    2    1    2    0    0  0.00000000000E+00  0.00000000000E+00  0.58523143744E+03  0.17033967979E+04  0.15997077282E+04 0.  0.
        5    1    3    3  502    0 -0.30402435527E+03 -0.69165580437E+03  0.57216946404E+03  0.94774392422E+03  0.46999998093E+01 0.  1.
       -5    1    3    3    0  502  0.30402435527E+03  0.69165580437E+03  0.13061973402E+02  0.75565287365E+03  0.46999998093E+01 0. -1.
</event>
<event>
 5   0  0.1819811E-04  0.1597383E+04  0.7818609E-02  0.8822157E-01
       -1   -1    0    0    0  501  0.00000000000E+00  0.00000000000E+00  0.23289724895E+03  0.23289724900E+03  0.50400001928E-02 0. -1.
        1   -1    0    0  501    0  0.00000000000E+00  0.00000000000E+00 -0.27390103382E+04  0.27390103383E+04  0.50400001928E-02 0.  1.
    10030    2    1    2    0    0  0.00000000000E+00  0.00000000000E+00 -0.25061130893E+04  0.29719075873E+04  0.15973828254E+04 0.  0.
        1    1    3    3  502    0 -0.64253451230E+02  0.59520714965E+03 -0.26944561506E+03  0.65650666142E+03  0.50400001928E-02 0. -1.
       -1    1    3    3    0  502  0.64253451230E+02 -0.59520714965E+03 -0.22366674742E+04  0.23154009258E+04  0.50400001928E-02 0.  1.
</event>
<event>
 5   0  0.3274900E-04  0.1600774E+04  0.7818609E-02  0.8820073E-01
        2   -1    0    0  501    0  0.00000000000E+00  0.00000000000E+00  0.13587456304E+04  0.13587456304E+04  0.25500000920E-02 0. -1.
       -2   -1    0    0    0  501  0.00000000000E+00  0.00000000000E+00 -0.47147856794E+03  0.47147856795E+03  0.25500000920E-02 0.  1.
    10030    2    1    2    0    0  0.00000000000E+00  0.00000000000E+00  0.88726706247E+03  0.18302241984E+04  0.16007741178E+04 0.  0.
        3    1    3    3  502    0 -0.37446815671E+02 -0.65152659608E+03 -0.86177344159E+02  0.65826720581E+03  0.10100000352E+00 0.  1.
       -3    1    3    3    0  502  0.37446815671E+02  0.65152659608E+03  0.97344440663E+03  0.11719569926E+04  0.10100000352E+00 0. -1.
</event>
<event>
 5   0  0.3228393E-04  0.1599095E+04  0.7818609E-02  0.8821104E-01
       -2   -1    0    0    0  501  0.00000000000E+00  0.00000000000E+00  0.52707815137E+03  0.52707815138E+03  0.25500000920E-02 0. -1.
        2   -1    0    0  501    0  0.00000000000E+00  0.00000000000E+00 -0.12128686253E+04  0.12128686253E+04  0.25500000920E-02 0.  1.
    10030    2    1    2    0    0  0.00000000000E+00  0.00000000000E+00 -0.68579047392E+03  0.17399467767E+04  0.15990954354E+04 0.  0.
        1    1    3    3  502    0 -0.55610206357E+02 -0.80158085582E+02 -0.12063680770E+04  0.12103064699E+04  0.50400001928E-02 0.  1.
       -1    1    3    3    0  502  0.55610206357E+02  0.80158085582E+02  0.52057760309E+03  0.52964030681E+03  0.50400001928E-02 0. -1.
</event>
<event>
 5   0  0.3210612E-04  0.1606397E+04  0.7818609E-02  0.8816628E-01
        2   -1    0    0  501    0  0.00000000000E+00  0.00000000000E+00  0.18536008691E+04  0.18536008691E+04  0.25500000920E-02 0.  1.
       -2   -1    0    0    0  501  0.00000000000E+00  0.00000000000E+00 -0.34804038508E+03  0.34804038509E+03  0.25500000920E-02 0. -1.
    10030    2    1    2    0    0  0.00000000000E+00  0.00000000000E+00  0.15055604840E+04  0.22016412542E+04  0.16063971617E+04 0.  0.
        2    1    3    3  502    0 -0.38511685494E+03  0.65766718814E+03  0.40528036219E+03  0.86318786733E+03  0.25500000920E-02 0. -1.
       -2    1    3    3    0  502  0.38511685494E+03 -0.65766718814E+03  0.11002801219E+04  0.13384533869E+04  0.25500000920E-02 0.  1.
</event>
<event>
 5   0  0.1219463E-04  0.1610822E+04  0.7818609E-02  0.8813927E-01
       -4   -1    0    0    0  501  0.00000000000E+00  0.00000000000E+00  0.73181132124E+03  0.73181242323E+03  0.12699999809E+01 0. -1.
        4   -1    0    0  501    0  0.00000000000E+00  0.00000000000E+00 -0.88641082565E+03  0.88641173544E+03  0.12699999809E+01 0.  1.
    10030    2    1    2    0    0  0.00000000000E+00  0.00000000000E+00 -0.15459950441E+03  0.16182241587E+04  0.16108222810E+04 0.  0.
        5    1    3    3  502    0 -0.55278151321E+03  0.47849695378E+03  0.26209624230E+03  0.77668736718E+03  0.46999998093E+01 0. -1.
       -5    1    3    3    0  502  0.55278151321E+03 -0.47849695378E+03 -0.41669574671E+03  0.84153679149E+03  0.46999998093E+01 0.  1.
</event>
<event>
 5   0  0.1787688E-04  0.1469722E+04  0.7818609E-02  0.8904841E-01
       -1   -1    0    0    0  501  0.00000000000E+00  0.00000000000E+00  0.68170876260E+03  0.68170876262E+03  0.50400001928E-02 0. -1.
        1   -1    0    0  501    0  0.00000000000E+00  0.00000000000E+00 -0.79215714106E+03  0.79215714108E+03  0.50400001928E-02 0.  1.
    10030    2    1    2    0    0  0.00000000000E+00  0.00000000000E+00 -0.11044837846E+03  0.14738659037E+04  0.14697216940E+04 0.  0.
        4    1    3    3  502    0 -0.12484507966E+03 -0.63662477306E+03 -0.40136620532E+03  0.76287209889E+03  0.12699999809E+01 0.  1.
       -4    1    3    3    0  502  0.12484507966E+03  0.63662477306E+03  0.29091782686E+03  0.71099380481E+03  0.12699999809E+01 0. -1.
</event>
<event>
 5   0  0.3380454E-04  0.1675410E+04  0.7818609E-02  0.8775515E-01
        2   -1    0    0  501    0  0.00000000000E+00  0.00000000000E+00  0.26273399433E+04  0.26273399433E+04  0.25500000920E-02 0.  1.
       -2   -1    0    0    0  501  0.00000000000E+00  0.00000000000E+00 -0.26709511325E+03  0.26709511326E+03  0.25500000920E-02 0. -1.
    10030    2    1    2    0    0  0.00000000000E+00  0.00000000000E+00  0.23602448300E+04  0.28944350565E+04  0.16754099913E+04 0.  0.
        5    1    3    3  502    0  0.88181487198E+02  0.66018413571E+03  0.30242693119E+03  0.73150748898E+03  0.46999998093E+01 0. -1.
       -5    1    3    3    0  502 -0.88181487198E+02 -0.66018413571E+03  0.20578178988E+04  0.21629275676E+04  0.46999998093E+01 0.  1.
</event>
<event>
 5   0  0.1219463E-04  0.1598137E+04  0.7818609E-02  0.8821693E-01
        4   -1    0    0  501    0  0.00000000000E+00  0.00000000000E+00  0.15943659050E+04  0.15943664108E+04  0.12699999809E+01 0.  1.
       -4   -1    0    0    0  501  0.00000000000E+00  0.00000000000E+00 -0.40047784490E+03  0.40047985862E+03  0.12699999809E+01 0. -1.
    10030    2    1    2    0    0  0.00000000000E+00  0.00000000000E+00  0.11938880601E+04  0.19948462694E+04  0.15981373341E+04 0.  0.
        4    1    3    3  502    0 -0.93917685897E+02  0.55383807100E+03  0.13063001374E+04  0.14219630102E+04  0.12699999809E+01 0.  1.
       -4    1    3    3    0  502  0.93917685897E+02 -0.55383807100E+03 -0.11241207732E+03  0.57288325918E+03  0.12699999809E+01 0. -1.
</event>
<event>
 5   0  0.1764099E-04  0.1621725E+04  0.7818609E-02  0.8807311E-01
        1   -1    0    0  501    0  0.00000000000E+00  0.00000000000E+00  0.12080755574E+04  0.12080755575E+04  0.50400001928E-02 0.  1.
       -1   -1    0    0    0  501  0.00000000000E+00  0.00000000000E+00 -0.54425268405E+03  0.54425268408E+03  0.50400001928E-02 0. -1.
    10030    2    1    2    0    0  0.00000000000E+00  0.00000000000E+00  0.66382287339E+03  0.17523282415E+04  0.16217254573E+04 0.  0.
        5    1    3    3  502    0 -0.56572223542E+03  0.36786051295E+03  0.81768686187E+03  0.10601871998E+04  0.46999998093E+01 0.  1.
       -5    1    3    3    0  502  0.56572223542E+03 -0.36786051295E+03 -0.15386398848E+03  0.69214104169E+03  0.46999998093E+01 0. -1.
</event>
<event>
 5   0  0.1787688E-04  0.1586827E+04  0.7818609E-02  0.8828682E-01
        1   -1    0    0  501    0  0.00000000000E+00  0.00000000000E+00  0.88558091946E+03  0.88558091948E+03  0.50400001928E-02 0. -1.
       -1   -1    0    0    0  501  0.00000000000E+00  0.00000000000E+00 -0.71083875113E+03  0.71083875115E+03  0.50400001928E-02 0.  1.
    10030    2    1    2    0    0  0.00000000000E+00  0.00000000000E+00  0.17474216833E+03  0.15964196706E+04  0.15868273187E+04 0.  0.
        4    1    3    3  502    0 -0.15856166932E+03 -0.66626970885E+03 -0.31560801117E+03  0.75410023042E+03  0.12699999809E+01 0.  1.
       -4    1    3    3    0  502  0.15856166932E+03  0.66626970885E+03  0.49035017950E+03  0.84231944021E+03  0.12699999809E+01 0. -1.
</event>
<event>
 5   0  0.1736537E-04  0.1600686E+04  0.7818609E-02  0.8820127E-01
        1   -1    0    0  501    0  0.00000000000E+00  0.00000000000E+00  0.32627970632E+03  0.32627970636E+03  0.50400001928E-02 0.  1.
       -1   -1    0    0    0  501  0.00000000000E+00  0.00000000000E+00 -0.19631890851E+04  0.19631890851E+04  0.50400001928E-02 0. -1.
    10030    2    1    2    0    0  0.00000000000E+00  0.00000000000E+00 -0.16369093788E+04  0.22894687915E+04  0.16006858008E+04 0.  0.
        3    1    3    3  502    0 -0.75843188540E+03 -0.22248576611E+03 -0.63849807329E+03  0.10160701948E+04  0.10100000352E+00 0.  1.
       -3    1    3    3    0  502  0.75843188540E+03  0.22248576611E+03 -0.99841130550E+03  0.12733985967E+04  0.10100000352E+00 0. -1.
</event>
<event>
 5   0  0.1764099E-04  0.1609266E+04  0.7818609E-02  0.8814875E-01
        1   -1    0    0  501    0  0.00000000000E+00  0.00000000000E+00  0.81345130118E+03  0.81345130119E+03  0.50400001928E-02 0.  1.
       -1   -1    0    0    0  501  0.00000000000E+00  0.00000000000E+00 -0.79591066273E+03  0.79591066274E+03  0.50400001928E-02 0. -1.
    10030    2    1    2    0    0  0.00000000000E+00  0.00000000000E+00  0.17540638451E+02  0.16093619639E+04  0.16092663723E+04 0.  0.
        5    1    3    3  502    0 -0.66728890307E+03 -0.28949588795E+03  0.35278221314E+03  0.80843041087E+03  0.46999998093E+01 0.  1.
       -5    1    3    3    0  502  0.66728890307E+03  0.28949588795E+03 -0.33524157469E+03  0.80093155307E+03  0.46999998093E+01 0. -1.
</event>
<event>
 5   0  0.1819811E-04  0.1592003E+04  0.7818609E-02  0.8825476E-01
        1   -1    0    0  501    0  0.00000000000E+00  0.00000000000E+00  0.12293737520E+04  0.12293737520E+04  0.50400001928E-02 0. -1.
       -1   -1    0    0    0  501  0.00000000000E+00  0.00000000000E+00 -0.51539945553E+03  0.51539945556E+03  0.50400001928E-02 0.  1.
    10030    2    1    2    0    0  0.00000000000E+00  0.00000000000E+00  0.71397429651E+03  0.17447732076E+04  0.15920032192E+04 0.  0.
        1    1    3    3  502    0 -0.60434663981E+03 -0.50197651002E+03  0.49735267333E+03  0.92982523055E+03  0.50400001928E-02 0.  1.
       -1    1    3    3    0  502  0.60434663981E+03  0.50197651002E+03  0.21662162317E+03  0.81494797706E+03  0.50400001928E-02 0. -1.
</event>
<event>
 5   0  0.1219463E-04  0.1577111E+04  0.7818609E-02  0.8834734E-01
       -3   -1    0    0    0  501  0.00000000000E+00  0.00000000000E+00  0.10652811640E+04  0.10652811688E+04  0.10100000352E+00 0. -1.
        3   -1    0    0  501    0  0.00000000000E+00  0.00000000000E+00 -0.58371398697E+03  0.58371399571E+03  0.10100000352E+00 0.  1.
    10030    2    1    2    0    0  0.00000000000E+00  0.00000000000E+00  0.48156717704E+03  0.16489951645E+04  0.15771106830E+04 0.  0.
        3    1    3    3  502    0 -0.15947271833E+03 -0.13391954146E+03  0.10360111881E+04  0.10567332604E+04  0.10100000352E+00 0. -1.
       -3    1    3    3    0  502  0.15947271833E+03  0.13391954146E+03 -0.55444401108E+03  0.59226190414E+03  0.10100000352E+00 0.  1.
</event>
<event>
 5   0  0.3228393E-04  0.1566726E+04  0.7818609E-02  0.8841254E-01
       -2   -1    0    0    0  501  0.00000000000E+00  0.00000000000E+00  0.91781410281E+03  0.91781410281E+03  0.25500000920E-02 0.  1.
        2   -1    0    0  501    0  0.00000000000E+00  0.00000000000E+00 -0.66860797243E+03  0.66860797244E+03  0.25500000920E-02 0. -1.
    10030    2    1    2    0    0  0.00000000000E+00  0.00000000000E+00  0.24920613037E+03  0.15864220752E+04  0.15667263020E+04 0.  0.
        1    1    3    3  502    0  0.30090557486E+03 -0.72277004354E+03  0.15171891342E+03  0.79747058224E+03  0.50400001928E-02 0. -1.
       -1    1    3    3    0  502 -0.30090557486E+03  0.72277004354E+03  0.97487216956E+02  0.78895149301E+03  0.50400001928E-02 0.  1.
</event>
<event>
 5   0  0.1819811E-04  0.1607407E+04  0.7818609E-02  0.8816010E-01
       -1   -1    0    0    0  501  0.00000000000E+00  0.00000000000E+00  0.46128192428E+03  0.46128192431E+03  0.50400001928E-02 0. -1.
        1   -1    0    0  501    0  0.00000000000E+00  0.00000000000E+00 -0.14003136283E+04  0.14003136283E+04  0.50400001928E-02 0.  1.
    10030    2    1    2    0    0  0.00000000000E+00  0.00000000000E+00 -0.93903170402E+03  0.18615955526E+04  0.16074070612E+04 0.  0.
        1    1    3    3  502    0  0.71751344846E+03  0.32516185938E+03 -0.28499905340E+03  0.83772325023E+03  0.50400001928E-02 0. -1.
       -1    1    3    3    0  502 -0.71751344846E+03 -0.32516185938E+03 -0.65403265062E+03  0.10238723024E+04  0.50400001928E-02 0.  1.
</event>
<event>
 5   0  0.3263294E-04  0.1596007E+04  0.7818609E-02  0.8823005E-01
        2   -1    0    0  501    0  0.00000000000E+00  0.00000000000E+00  0.87991283725E+03  0.87991283726E+03  0.25500000920E-02 0.  1.
       -2   -1    0    0    0  501  0.00000000000E+00  0.00000000000E+00 -0.72371926292E+03  0.72371926292E+03  0.25500000920E-02 0. -1.
    10030    2    1    2    0    0  0.00000000000E+00  0.00000000000E+00  0.15619357433E+03  0.16036321002E+04  0.15960073559E+04 0.  0.
        4    1    3    3  502    0  0.54938465973E+03 -0.45925577855E+03 -0.27582010191E+03  0.76734458752E+03  0.12699999809E+01 0. -1.
       -4    1    3    3    0  502 -0.54938465973E+03  0.45925577855E+03  0.43201367624E+03  0.83628751266E+03  0.12699999809E+01 0.  1.
</event>
<event>
 5   0  0.3380454E-04  0.1603780E+04  0.7818609E-02  0.8818229E-01
        2   -1    0    0  501    0  0.00000000000E+00  0.00000000000E+00  0.10740110914E+04  0.10740110914E+04  0.25500000920E-02 0.  1.
       -2   -1    0    0    0  501  0.00000000000E+00  0.00000000000E+00 -0.59871609754E+03  0.59871609755E+03  0.25500000920E-02 0. -1.
    10030    2    1    2    0    0  0.00000000000E+00  0.00000000000E+00  0.47529499381E+03  0.16727271889E+04  0.16037801961E+04 0.  0.
        5    1    3    3  502    0  0.41794771784E+03  0.19597614370E+03  0.92151731248E+03  0.10306809356E+04  0.46999998093E+01 0.  1.
       -5    1    3    3    0  502 -0.41794771784E+03 -0.19597614370E+03 -0.44622231866E+03  0.64204625333E+03  0.46999998093E+01 0. -1.
</event>
<event>
 5   0  0.1761255E-04  0.1619188E+04  0.7818609E-02  0.8808846E-01
        1   -1    0    0  501    0  0.00000000000E+00  0.00000000000E+00  0.14189510240E+04  0.14189510240E+04  0.50400001928E-02 0. -1.
       -1   -1    0    0    0  501  0.00000000000E+00  0.00000000000E+00 -0.46192032451E+03  0.46192032453E+03  0.50400001928E-02 0.  1.
    10030    2    1    2    0    0  0.00000000000E+00  0.00000000000E+00  0.95703069952E+03  0.18808713486E+04  0.16191878427E+04 0.  0.
        2    1    3    3  502    0  0.60411174507E+03 -0.49196050921E+03  0.73424508362E+03  0.10705568579E+04  0.25500000920E-02 0. -1.
       -2    1    3    3    0  502 -0.60411174507E+03  0.49196050921E+03  0.22278561590E+03  0.81031449068E+03  0.25500000920E-02 0.  1.
</event>
<event>
 5   0  0.1819811E-04  0.1610218E+04  0.7818609E-02  0.8814295E-01
        1   -1    0    0  501    0  0.00000000000E+00  0.00000000000E+00  0.87881961953E+03  0.87881961955E+03  0.50400001928E-02 0.  1.
       -1   -1    0    0    0  501  0.00000000000E+00  0.00000000000E+00 -0.73758074059E+03  0.73758074061E+03  0.50400001928E-02 0. -1.
    10030    2    1    2    0    0  0.00000000000E+00  0.00000000000E+00  0.14123887894E+03  0.16164003602E+04  0.16102179056E+04 0.  0.
        1    1    3    3  502    0 -0.44872033394E+03  0.10001669632E+03 -0.59286239889E+03  0.75022603372E+03  0.50400001928E-02 0. -1.
       -1    1    3    3    0  502  0.44872033394E+03 -0.10001669632E+03  0.73410127783E+03  0.86617432643E+03  0.50400001928E-02 0.  1.
</event>
<event>
 5   0  0.3210612E-04  0.1597562E+04  0.7818609E-02  0.8822047E-01
        2   -1    0    0  501    0  0.00000000000E+00  0.00000000000E+00  0.59285511433E+03  0.59285511433E+03  0.25500000920E-02 0. -1.
       -2   -1    0    0    0  501  0.00000000000E+00  0.00000000000E+00 -0.10762339156E+04  0.10762339156E+04  0.25500000920E-02 0.  1.
    10030    2    1    2    0    0  0.00000000000E+00  0.00000000000E+00 -0.48337880122E+03  0.16690890299E+04  0.15975616183E+04 0.  0.
        2    1    3    3  502    0  0.62903949743E+03 -0.39029271135E+03 -0.55517643891E+03  0.92533235553E+03  0.25500000920E-02 0.  1.
       -2    1    3    3    0  502 -0.62903949743E+03  0.39029271135E+03  0.71797637688E+02  0.74375667436E+03  0.25500000920E-02 0. -1.
</event>
<event>
 5   0  0.1736537E-04  0.1551509E+04  0.7818609E-02  0.8850904E-01
        1   -1    0    0  501    0  0.00000000000E+00  0.00000000000E+00  0.91582801121E+03  0.91582801122E+03  0.50400001928E-02 0. -1.
       -1   -1    0    0    0  501  0.00000000000E+00  0.00000000000E+00 -0.65710514013E+03  0.65710514015E+03  0.50400001928E-02 0.  1.
    10030    2    1    2    0    0  0.00000000000E+00  0.00000000000E+00  0.25872287108E+03  0.15729331514E+04  0.15515093215E+04 0.  0.
        3    1    3    3  502    0 -0.32181737075E+02 -0.14189799684E+03  0.90187050056E+03  0.91353221930E+03  0.10100000352E+00 0. -1.
       -3    1    3    3    0  502  0.32181737075E+02  0.14189799684E+03 -0.64314762948E+03  0.65940093207E+03  0.10100000352E+00 0.  1.
</event>
<event>
 5   0  0.1736537E-04  0.1604407E+04  0.7818609E-02  0.8817845E-01
       -1   -1    0    0    0  501  0.00000000000E+00  0.00000000000E+00  0.35272550526E+03  0.35272550530E+03  0.50400001928E-02 0.  1.
        1   -1    0    0  501    0  0.00000000000E+00  0.00000000000E+00 -0.18244500690E+04  0.18244500690E+04  0.50400001928E-02 0. -1.
    10030    2    1    2    0    0  0.00000000000E+00  0.00000000000E+00 -0.14717245637E+04  0.21771755743E+04  0.16044065226E+04 0.  0.
        3    1    3    3  502    0 -0.53672955238E+03 -0.49942455642E+03 -0.29400056602E+03  0.78989862828E+03  0.10100000352E+00 0.  1.
       -3    1    3    3    0  502  0.53672955238E+03  0.49942455642E+03 -0.11777239977E+04  0.13872769460E+04  0.10100000352E+00 0. -1.
</event>
<event>
 5   0  0.3210612E-04  0.1594552E+04  0.7818609E-02  0.8823902E-01
        2   -1    0    0  501    0  0.00000000000E+00  0.00000000000E+00  0.84013076253E+03  0.84013076254E+03  0.25500000920E-02 0. -1.
       -2   -1    0    0    0  501  0.00000000000E+00  0.00000000000E+00 -0.75660716486E+03  0.75660716487E+03  0.25500000920E-02 0.  1.
    10030    2    1    2    0    0  0.00000000000E+00  0.00000000000E+00  0.83523597670E+02  0.15967379274E+04  0.15945519175E+04 0.  0.
        2    1    3    3  502    0  0.36042006295E+03 -0.69658345521E+03  0.18519860662E+03  0.80587198472E+03  0.25500000920E-02 0. -1.
       -2    1    3    3    0  502 -0.36042006295E+03  0.69658345521E+03 -0.10167500895E+03  0.79086594269E+03  0.25500000920E-02 0.  1.
</event>
<event>
 5   0  0.1764099E-04  0.1600420E+04  0.7818609E-02  0.8820290E-01
        1   -1    0    0  501    0  0.00000000000E+00  0.00000000000E+00  0.70851715469E+03  0.70851715471E+03  0.50400001928E-02 0.  1.
       -1   -1    0    0    0  501  0.00000000000E+00  0.00000000000E+00 -0.90376940639E+03  0.90376940641E+03  0.50400001928E-02 0. -1.
    10030    2    1    2    0    0  0.00000000000E+00  0.00000000000E+00 -0.19525225170E+03  0.16122865611E+04  0.16004201053E+04 0.  0.
        5    1    3    3  502    0  0.48771689829E+03  0.25718024183E+03  0.48659146836E+03  0.73539295397E+03  0.46999998093E+01 0.  1.
       -5    1    3    3    0  502 -0.48771689829E+03 -0.25718024183E+03 -0.68184372006E+03  0.87689360715E+03  0.46999998093E+01 0. -1.
</event>
<event>
 5   0  0.3274900E-04  0.1595796E+04  0.7818609E-02  0.8823135E-01
        2   -1    0    0  501    0  0.00000000000E+00  0.00000000000E+00  0.13640328370E+04  0.13640328370E+04  0.25500000920E-02 0.  1.
       -2   -1    0    0    0  501  0.00000000000E+00  0.00000000000E+00 -0.46673458224E+03  0.46673458225E+03  0.25500000920E-02 0. -1.
    10030    2    1    2    0    0  0.00000000000E+00  0.00000000000E+00  0.89729825478E+03  0.18307674193E+04  0.15957960977E+04 0.  0.
        3    1    3    3  502    0 -0.70988513395E+02  0.31421731155E+03  0.12861131645E+04  0.13258427396E+04  0.10100000352E+00 0.  1.
       -3    1    3    3    0  502  0.70988513395E+02 -0.31421731155E+03 -0.38881490976E+03  0.50492467969E+03  0.10100000352E+00 0. -1.
</event>
<event>
 5   0  0.3274900E-04  0.1602795E+04  0.7818609E-02  0.8818833E-01
       -2   -1    0    0    0  501  0.00000000000E+00  0.00000000000E+00  0.29127965973E+03  0.29127965974E+03  0.25500000920E-02 0.  1.
        2   -1    0    0  501    0  0.00000000000E+00  0.00000000000E+00 -0.22048833623E+04  0.22048833623E+04  0.25500000920E-02 0. -1.
    10030    2    1    2    0    0  0.00000000000E+00  0.00000000000E+00 -0.19136037025E+04  0.24961630220E+04  0.16027946538E+04 0.  0.
        3    1    3    3  502    0 -0.62608880679E+03  0.43172719685E+02 -0.17329759226E+04  0.18431105871E+04  0.10100000352E+00 0. -1.
       -3    1    3    3    0  502  0.62608880679E+03 -0.43172719685E+02 -0.18062777997E+03  0.65305243496E+03  0.10100000352E+00 0.  1.
</event>
<event>
 5   0  0.3210612E-04  0.1598660E+04  0.7818609E-02  0.8821372E-01
       -2   -1    0    0    0  501  0.00000000000E+00  0.00000000000E+00  0.54245041326E+03  0.54245041326E+03  0.25500000920E-02 0.  1.
        2   -1    0    0  501    0  0.00000000000E+00  0.00000000000E+00 -0.11778558974E+04  0.11778558974E+04  0.25500000920E-02 0. -1.
    10030    2    1    2    0    0  0.00000000000E+00  0.00000000000E+00 -0.63540548410E+03  0.17203063106E+04  0.15986599617E+04 0.  0.
        2    1    3    3  502    0  0.42570917526E+03  0.54747091647E+03 -0.74540825183E+03  0.10181287582E+04  0.25500000920E-02 0.  1.
       -2    1    3    3    0  502 -0.42570917526E+03 -0.54747091647E+03  0.11000276773E+03  0.70217755247E+03  0.25500000920E-02 0. -1.
</event>
<event>
 5   0  0.1787688E-04  0.1608427E+04  0.7818609E-02  0.8815388E-01
        1   -1    0    0  501    0  0.00000000000E+00  0.00000000000E+00  0.62259128766E+03  0.62259128768E+03  0.50400001928E-02 0.  1.
       -1   -1    0    0    0  501  0.00000000000E+00  0.00000000000E+00 -0.10388188243E+04  0.10388188243E+04  0.50400001928E-02 0. -1.
    10030    2    1    2    0    0  0.00000000000E+00  0.00000000000E+00 -0.41622753659E+03  0.16614101120E+04  0.16084272436E+04 0.  0.
        4    1    3    3  502    0 -0.58488468027E+03 -0.45689437199E+03  0.11179014679E+03  0.75056059462E+03  0.12699999809E+01 0.  1.
       -4    1    3    3    0  502  0.58488468027E+03  0.45689437199E+03 -0.52801768339E+03  0.91084951734E+03  0.12699999809E+01 0. -1.
</event>
<event>
 5   0  0.3228393E-04  0.1604916E+04  0.7818609E-02  0.8817534E-01
        2   -1    0    0  501    0  0.00000000000E+00  0.00000000000E+00  0.60301978056E+03  0.60301978056E+03  0.25500000920E-02 0.  1.
       -2   -1    0    0    0  501  0.00000000000E+00  0.00000000000E+00 -0.10678570928E+04  0.10678570928E+04  0.25500000920E-02 0. -1.
    10030    2    1    2    0    0  0.00000000000E+00  0.00000000000E+00 -0.46483731220E+03  0.16708768733E+04  0.16049161346E+04 0.  0.
        1    1    3    3  502    0 -0.22270274177E+03  0.40916392973E+03 -0.91266948079E+03  0.10246839580E+04  0.50400001928E-02 0. -1.
       -1    1    3    3    0  502  0.22270274177E+03 -0.40916392973E+03  0.44783216858E+03  0.64619291533E+03  0.50400001928E-02 0.  1.
</event>
<event>
 5   0  0.3210612E-04  0.1606407E+04  0.7818609E-02  0.8816621E-01
       -2   -1    0    0    0  501  0.00000000000E+00  0.00000000000E+00  0.15515242115E+04  0.15515242115E+04  0.25500000920E-02 0. -1.
        2   -1    0    0  501    0  0.00000000000E+00  0.00000000000E+00 -0.41580789921E+03  0.41580789922E+03  0.25500000920E-02 0.  1.
    10030    2    1    2    0    0  0.00000000000E+00  0.00000000000E+00  0.11357163123E+04  0.19673321108E+04  0.16064071999E+04 0.  0.
        2    1    3    3  502    0 -0.42933421205E+03  0.39552645732E+03  0.12435066382E+04  0.13737095047E+04  0.25500000920E-02 0. -1.
       -2    1    3    3    0  502  0.42933421205E+03 -0.39552645732E+03 -0.10779032585E+03  0.59362260606E+03  0.25500000920E-02 0.  1.
</event>
<event>
 5   0  0.3228393E-04  0.1611015E+04  0.7818609E-02  0.8813809E-01
       -2   -1    0    0    0  501  0.00000000000E+00  0.00000000000E+00  0.65231750094E+03  0.65231750094E+03  0.25500000920E-02 0.  1.
        2   -1    0    0  501    0  0.00000000000E+00  0.00000000000E+00 -0.99467282826E+03  0.99467282826E+03  0.25500000920E-02 0. -1.
    10030    2    1    2    0    0  0.00000000000E+00  0.00000000000E+00 -0.34235532732E+03  0.16469903292E+04  0.16110151999E+04 0.  0.
        1    1    3    3  502    0  0.13249636350E+03  0.48889502921E+03 -0.81147740508E+03  0.95659250201E+03  0.50400001928E-02 0. -1.
       -1    1    3    3    0  502 -0.13249636350E+03 -0.48889502921E+03  0.46912207775E+03  0.69039782719E+03  0.50400001928E-02 0.  1.
</event>
<event>
 5   0  0.3274900E-04  0.1670728E+04  0.7818609E-02  0.8778238E-01
        2   -1    0    0  501    0  0.00000000000E+00  0.00000000000E+00  0.81011639851E+03  0.81011639851E+03  0.25500000920E-02 0. -1.
       -2   -1    0    0    0  501  0.00000000000E+00  0.00000000000E+00 -0.86139824852E+03  0.86139824853E+03  0.25500000920E-02 0.  1.
    10030    2    1    2    0    0  0.00000000000E+00  0.00000000000E+00 -0.51281850014E+02  0.16715146470E+04  0.16707278016E+04 0.  0.
        3    1    3    3  502    0  0.15180935778E+03 -0.39200920072E+03 -0.74786423287E+03  0.85791503983E+03  0.10100000352E+00 0.  1.
       -3    1    3    3    0  502 -0.15180935778E+03  0.39200920072E+03  0.69658238285E+03  0.81359960721E+03  0.10100000352E+00 0. -1.
</event>
<event>
 5   0  0.1761255E-04  0.1565482E+04  0.7818609E-02  0.8842039E-01
        1   -1    0    0  501    0  0.00000000000E+00  0.00000000000E+00  0.60425471305E+03  0.60425471307E+03  0.50400001928E-02 0. -1.
       -1   -1    0    0    0  501  0.00000000000E+00  0.00000000000E+00 -0.10139484401E+04  0.10139484401E+04  0.50400001928E-02 0.  1.
    10030    2    1    2    0    0  0.00000000000E+00  0.00000000000E+00 -0.40969372708E+03  0.16182031532E+04  0.15654815537E+04 0.  0.
        2    1    3    3  502    0  0.10843565548E+03  0.50058028189E+02 -0.10044744804E+04  0.10115498403E+04  0.25500000920E-02 0.  1.
       -2    1    3    3    0  502 -0.10843565548E+03 -0.50058028189E+02  0.59478075332E+03  0.60665331294E+03  0.25500000920E-02 0. -1.
</event>
<event>
 5   0  0.3228393E-04  0.1575112E+04  0.7818609E-02  0.8835985E-01
       -2   -1    0    0    0  501  0.00000000000E+00  0.00000000000E+00  0.24217442361E+03  0.24217442363E+03  0.25500000920E-02 0. -1.
        2   -1    0    0  501    0  0.00000000000E+00  0.00000000000E+00 -0.25611471165E+04  0.25611471165E+04  0.25500000920E-02 0.  1.
    10030    2    1    2    0    0  0.00000000000E+00  0.00000000000E+00 -0.23189726929E+04  0.28033215401E+04  0.15751118395E+04 0.  0.
        1    1    3    3  502    0 -0.29840120933E+03  0.60416230856E+02 -0.24521743312E+04  0.24710022973E+04  0.50400001928E-02 0.  1.
       -1    1    3    3    0  502  0.29840120933E+03 -0.60416230856E+02  0.13320163830E+03  0.33231924283E+03  0.50400001928E-02 0. -1.
</event>
<event>
 5   0  0.3263294E-04  0.1604426E+04  0.7818609E-02  0.8817834E-01
        2   -1    0    0  501    0  0.00000000000E+00  0.00000000000E+00  0.36425255055E+03  0.36425255056E+03  0.25500000920E-02 0. -1.
       -2   -1    0    0    0  501  0.00000000000E+00  0.00000000000E+00 -0.17667559316E+04  0.17667559316E+04  0.25500000920E-02 0.  1.
    10030    2    1    2    0    0  0.00000000000E+00  0.00000000000E+00 -0.14025033811E+04  0.21310084822E+04  0.16044255724E+04 0.  0.
        4    1    3    3  502    0  0.54254373500E+03  0.47744737445E+03 -0.11637156518E+04  0.13698705891E+04  0.12699999809E+01 0.  1.
       -4    1    3    3    0  502 -0.54254373500E+03 -0.47744737445E+03 -0.23878772932E+03  0.76113789311E+03  0.12699999809E+01 0. -1.
</event>
<event>
 5   0  0.1819811E-04  0.1573285E+04  0.7818609E-02  0.8837130E-01
       -1   -1    0    0    0  501  0.00000000000E+00  0.00000000000E+00  0.56856491938E+03  0.56856491940E+03  0.50400001928E-02 0.  1.
        1   -1    0    0  501    0  0.00000000000E+00  0.00000000000E+00 -0.10883651922E+04  0.10883651922E+04  0.50400001928E-02 0. -1.
    10030    2    1    2    0    0  0.00000000000E+00  0.00000000000E+00 -0.51980027277E+03  0.16569301116E+04  0.15732848029E+04 0.  0.
        1    1    3    3  502    0  0.26306366009E+03  0.81500201209E+02 -0.10359352262E+04  0.10719172380E+04  0.50400001928E-02 0. -1.
       -1    1    3    3    0  502 -0.26306366009E+03 -0.81500201209E+02  0.51613495347E+03  0.58501287360E+03  0.50400001928E-02 0.  1.
</event>
<event>
 5   0  0.1761255E-04  0.1601620E+04  0.7818609E-02  0.8819553E-01
       -1   -1    0    0    0  501  0.00000000000E+00  0.00000000000E+00  0.60321484847E+03  0.60321484849E+03  0.50400001928E-02 0. -1.
        1   -1    0    0  501    0  0.00000000000E+00  0.00000000000E+00 -0.10631318653E+04  0.10631318653E+04  0.50400001928E-02 0.  1.
    10030    2    1    2    0    0  0.00000000000E+00  0.00000000000E+00 -0.45991701684E+03  0.16663467138E+04  0.16016203384E+04 0.  0.
        2    1    3    3  502    0  0.17620422237E+03 -0.32620575587E+03 -0.96846038020E+03  0.10370022330E+04  0.25500000920E-02 0.  1.
       -2    1    3    3    0  502 -0.17620422237E+03  0.32620575587E+03  0.50854336336E+03  0.62934448085E+03  0.25500000920E-02 0. -1.
</event>
<event>
 5   0  0.1764099E-04  0.1570321E+04  0.7818609E-02  0.8838991E-01
        1   -1    0    0  501    0  0.00000000000E+00  0.00000000000E+00  0.18384057400E+04  0.18384057400E+04  0.50400001928E-02 0.  1.
       -1   -1    0    0    0  501  0.00000000000E+00  0.00000000000E+00 -0.33533239848E+03  0.33533239852E+03  0.50400001928E-02 0. -1.
    10030    2    1    2    0    0  0.00000000000E+00  0.00000000000E+00  0.15030733415E+04  0.21737381385E+04  0.15703209942E+04 0.  0.
        5    1    3    3  502    0 -0.18158465773E+03 -0.95336748165E+02  0.18006521485E+04  0.18123002879E+04  0.46999998093E+01 0.  1.
       -5    1    3    3    0  502  0.18158465773E+03  0.95336748165E+02 -0.29757880702E+03  0.36143785062E+03  0.46999998093E+01 0. -1.
</event>
<event>
 5   0  0.1219463E-04  0.1687697E+04  0.7818609E-02  0.8768413E-01
       -3   -1    0    0    0  501  0.00000000000E+00  0.00000000000E+00  0.14285900959E+04  0.14285900995E+04  0.10100000352E+00 0. -1.
        3   -1    0    0  501    0  0.00000000000E+00  0.00000000000E+00 -0.49844940900E+03  0.49844941923E+03  0.10100000352E+00 0.  1.
    10030    2    1    2    0    0  0.00000000000E+00  0.00000000000E+00  0.93014068690E+03  0.19270395187E+04  0.16876965394E+04 0.  0.
        1    1    3    3  502    0  0.69448258726E+03 -0.41421243777E+03  0.74053432625E+03  0.10964803218E+04  0.50400001928E-02 0. -1.
       -1    1    3    3    0  502 -0.69448258726E+03  0.41421243777E+03  0.18960636065E+03  0.83055919695E+03  0.50400001928E-02 0.  1.
</event>
<event>
 5   0  0.1736537E-04  0.1538305E+04  0.7818609E-02  0.8859373E-01
       -1   -1    0    0    0  501  0.00000000000E+00  0.00000000000E+00  0.82695554585E+03  0.82695554586E+03  0.50400001928E-02 0. -1.
        1   -1    0    0  501    0  0.00000000000E+00  0.00000000000E+00 -0.71538974611E+03  0.71538974612E+03  0.50400001928E-02 0.  1.
    10030    2    1    2    0    0  0.00000000000E+00  0.00000000000E+00  0.11156579974E+03  0.15423452920E+04  0.15383049347E+04 0.  0.
        3    1    3    3  502    0 -0.27918317737E+03 -0.67585637501E+03  0.29488445621E+03  0.78846809630E+03  0.10100000352E+00 0. -1.
       -3    1    3    3    0  502  0.27918317737E+03  0.67585637501E+03 -0.18331865647E+03  0.75387719569E+03  0.10100000352E+00 0.  1.
</event>
<event>
 5   0  0.3263294E-04  0.1598578E+04  0.7818609E-02  0.8821422E-01
        2   -1    0    0  501    0  0.00000000000E+00  0.00000000000E+00  0.63531124306E+03  0.63531124307E+03  0.25500000920E-02 0. -1.
       -2   -1    0    0    0  501  0.00000000000E+00  0.00000000000E+00 -0.10055910136E+04  0.10055910136E+04  0.25500000920E-02 0.  1.
    10030    2    1    2    0    0  0.00000000000E+00  0.00000000000E+00 -0.37027977057E+03  0.16409022567E+04  0.15985784646E+04 0.  0.
        4    1    3    3  502    0  0.63647428189E+03 -0.45603210955E+03 -0.20273452512E+02  0.78324799535E+03  0.12699999809E+01 0.  1.
       -4    1    3    3    0  502 -0.63647428189E+03  0.45603210955E+03 -0.35000631806E+03  0.85765426136E+03  0.12699999809E+01 0. -1.
</event>
<event>
 5   0  0.1819811E-04  0.1593479E+04  0.7818609E-02  0.8824564E-01
        1   -1    0    0  501    0  0.00000000000E+00  0.00000000000E+00  0.89910927005E+03  0.89910927007E+03  0.50400001928E-02 0.  1.
       -1   -1    0    0    0  501  0.00000000000E+00  0.00000000000E+00 -0.70602504154E+03  0.70602504156E+03  0.50400001928E-02 0. -1.
    10030    2    1    2    0    0  0.00000000000E+00  0.00000000000E+00  0.19308422851E+03  0.16051343116E+04  0.15934787853E+04 0.  0.
        1    1    3    3  502    0 -0.73403726475E+03  0.30888621975E+03  0.12063898376E+03  0.80546580761E+03  0.50400001928E-02 0.  1.
       -1    1    3    3    0  502  0.73403726475E+03 -0.30888621975E+03  0.72445244753E+02  0.79966850401E+03  0.50400001928E-02 0. -1.
</event>
<event>
 5   0  0.3380454E-04  0.1640397E+04  0.7818609E-02  0.8796108E-01
        2   -1    0    0  501    0  0.00000000000E+00  0.00000000000E+00  0.14054147131E+04  0.14054147131E+04  0.25500000920E-02 0. -1.
       -2   -1    0    0    0  501  0.00000000000E+00  0.00000000000E+00 -0.47866714702E+03  0.47866714702E+03  0.25500000920E-02 0.  1.
    10030    2    1    2    0    0  0.00000000000E+00  0.00000000000E+00  0.92674756610E+03  0.18840818601E+04  0.16403973313E+04 0.  0.
        5    1    3    3  502    0  0.56783299701E+03  0.57920590609E+03  0.60305381197E+03  0.10107471416E+04  0.46999998093E+01 0.  1.
       -5    1    3    3    0  502 -0.56783299701E+03 -0.57920590609E+03  0.32369375414E+03  0.87333471854E+03  0.46999998093E+01 0. -1.
</event>
<event>
 5   0  0.3380454E-04  0.1604882E+04  0.7818609E-02  0.8817554E-01
        2   -1    0    0  501    0  0.00000000000E+00  0.00000000000E+00  0.16747167395E+04  0.16747167395E+04  0.25500000920E-02 0. -1.
       -2   -1    0    0    0  501  0.00000000000E+00  0.00000000000E+00 -0.38448983138E+03  0.38448983139E+03  0.25500000920E-02 0.  1.
    10030    2    1    2    0    0  0.00000000000E+00  0.00000000000E+00  0.12902269081E+04  0.20592065709E+04  0.16048819979E+04 0.  0.
        5    1    3    3  502    0 -0.71399547987E+03 -0.35055438420E+03  0.78097280844E+03  0.11147280113E+04  0.46999998093E+01 0. -1.
       -5    1    3    3    0  502  0.71399547987E+03  0.35055438420E+03  0.50925409964E+03  0.94447855961E+03  0.46999998093E+01 0.  1.
</event>
<event>
 5   0  0.3380454E-04  0.1605253E+04  0.7818609E-02  0.8817327E-01
       -2   -1    0    0    0  501  0.00000000000E+00  0.00000000000E+00  0.36600511588E+03  0.36600511589E+03  0.25500000920E-02 0. -1.
        2   -1    0    0  501    0  0.00000000000E+00  0.00000000000E+00 -0.17601103955E+04  0.17601103955E+04  0.25500000920E-02 0.  1.
    10030    2    1    2    0    0  0.00000000000E+00  0.00000000000E+00 -0.13941052796E+04  0.21261155114E+04  0.16052531380E+04 0.  0.
        5    1    3    3  502    0 -0.12281924238E+03 -0.54127934305E+03  0.70821664469E+02  0.55955847922E+03  0.46999998093E+01 0. -1.
       -5    1    3    3    0  502  0.12281924238E+03  0.54127934305E+03 -0.14649269441E+04  0.15665570321E+04  0.46999998093E+01 0.  1.
</event>
<event>
 5   0  0.3210612E-04  0.1595160E+04  0.7818609E-02  0.8823527E-01
        2   -1    0    0  501    0  0.00000000000E+00  0.00000000000E+00  0.46253691050E+03  0.46253691051E+03  0.25500000920E-02 0.  1.
       -2   -1    0    0    0  501  0.00000000000E+00  0.00000000000E+00 -0.13753143155E+04  0.13753143155E+04  0.25500000920E-02 0. -1.
    10030    2    1    2    0    0  0.00000000000E+00  0.00000000000E+00 -0.91277740500E+03  0.18378512260E+04  0.15951597217E+04 0.  0.
        2    1    3    3  502    0  0.35635104984E+03  0.24581019771E+03 -0.12281735843E+04  0.13022361833E+04  0.25500000920E-02 0. -1.
       -2    1    3    3    0  502 -0.35635104984E+03 -0.24581019771E+03  0.31539617929E+03  0.53561504267E+03  0.25500000920E-02 0.  1.
</event>
<event>
 5   0  0.1787688E-04  0.1585764E+04  0.7818609E-02  0.8829342E-01
       -1   -1    0    0    0  501  0.00000000000E+00  0.00000000000E+00  0.36801214144E+03  0.36801214148E+03  0.50400001928E-02 0. -1.
        1   -1    0    0  501    0  0.00000000000E+00  0.00000000000E+00 -0.17082638073E+04  0.17082638073E+04  0.50400001928E-02 0.  1.
    10030    2    1    2    0    0  0.00000000000E+00  0.00000000000E+00 -0.13402516659E+04  0.20762759488E+04  0.15857639445E+04 0.  0.
        4    1    3    3  502    0  0.30250808725E+03  0.16241761855E+03  0.26562246870E+03  0.43410544162E+03  0.12699999809E+01 0. -1.
       -4    1    3    3    0  502 -0.30250808725E+03 -0.16241761855E+03 -0.16058741346E+04  0.16421705072E+04  0.12699999809E+01 0.  1.
</event>
<event>
 5   0  0.3228393E-04  0.1596531E+04  0.7818609E-02  0.8822682E-01
        2   -1    0    0  501    0  0.00000000000E+00  0.00000000000E+00  0.11585340841E+04  0.11585340841E+04  0.25500000920E-02 0. -1.
       -2   -1    0    0    0  501  0.00000000000E+00  0.00000000000E+00 -0.55002930107E+03  0.55002930107E+03  0.25500000920E-02 0.  1.
    10030    2    1    2    0    0  0.00000000000E+00  0.00000000000E+00  0.60850478307E+03  0.17085633852E+04  0.15965308548E+04 0.  0.
        1    1    3    3  502    0  0.69477878705E+03  0.38892953390E+03  0.36520477219E+03  0.87598988060E+03  0.50400001928E-02 0.  1.
       -1    1    3    3    0  502 -0.69477878705E+03 -0.38892953390E+03  0.24330001089E+03  0.83257350462E+03  0.50400001928E-02 0. -1.
</event>
<event>
 5   0  0.3380454E-04  0.1594999E+04  0.7818609E-02  0.8823626E-01
       -2   -1    0    0    0  501  0.00000000000E+00  0.00000000000E+00  0.38763715790E+03  0.38763715791E+03  0.25500000920E-02 0. -1.
        2   -1    0    0  501    0  0.00000000000E+00  0.00000000000E+00 -0.16407231575E+04  0.16407231575E+04  0.25500000920E-02 0.  1.
    10030    2    1    2    0    0  0.00000000000E+00  0.00000000000E+00 -0.12530859996E+04  0.20283603154E+04  0.15949987607E+04 0.  0.
        5    1    3    3  502    0  0.38644782654E+03  0.58465126374E+03 -0.11104982966E+04  0.13131593885E+04  0.46999998093E+01 0.  1.
       -5    1    3    3    0  502 -0.38644782654E+03 -0.58465126374E+03 -0.14258770301E+03  0.71520092693E+03  0.46999998093E+01 0. -1.
</event>
<event>
 5   0  0.3263294E-04  0.1574775E+04  0.7818609E-02  0.8836196E-01
        2   -1    0    0  501    0  0.00000000000E+00  0.00000000000E+00  0.47126721127E+03  0.47126721127E+03  0.25500000920E-02 0.  1.
       -2   -1    0    0    0  501  0.00000000000E+00  0.00000000000E+00 -0.13155570928E+04  0.13155570928E+04  0.25500000920E-02 0. -1.
    10030    2    1    2    0    0  0.00000000000E+00  0.00000000000E+00 -0.84428988154E+03  0.17868243041E+04  0.15747748060E+04 0.  0.
        4    1    3    3  502    0  0.57531303060E+03 -0.53740143715E+03 -0.43786395832E+03  0.90083952329E+03  0.12699999809E+01 0.  1.
       -4    1    3    3    0  502 -0.57531303060E+03  0.53740143715E+03 -0.40642592322E+03  0.88598478079E+03  0.12699999809E+01 0. -1.
</event>
<event>
 5   0  0.3274900E-04  0.1602227E+04  0.7818609E-02  0.8819181E-01
       -2   -1    0    0    0  501  0.00000000000E+00  0.00000000000E+00  0.78008667042E+03  0.78008667042E+03  0.25500000920E-02 0. -1.
        2   -1    0    0  501    0  0.00000000000E+00  0.00000000000E+00 -0.82270729484E+03  0.82270729485E+03  0.25500000920E-02 0.  1.
    10030    2    1    2    0    0  0.00000000000E+00  0.00000000000E+00 -0.42620624421E+02  0.16027939653E+04  0.16022271928E+04 0.  0.
        3    1    3    3  502    0  0.26665312846E+03 -0.60616418810E+03  0.42967514987E+03  0.78940462278E+03  0.10100000352E+00 0. -1.
       -3    1    3    3    0  502 -0.26665312846E+03  0.60616418810E+03 -0.47229577429E+03  0.81338934249E+03  0.10100000352E+00 0.  1.
</event>
<event>
 5   0  0.3380454E-04  0.1613873E+04  0.7818609E-02  0.8812070E-01
        2   -1    0    0  501    0  0.00000000000E+00  0.00000000000E+00  0.60216222796E+03  0.60216222796E+03  0.25500000920E-02 0. -1.
       -2   -1    0    0    0  501  0.00000000000E+00  0.00000000000E+00 -0.10813479930E+04  0.10813479930E+04  0.25500000920E-02 0.  1.
    10030    2    1    2    0    0  0.00000000000E+00  0.00000000000E+00 -0.47918576504E+03  0.16835102210E+04  0.16138734977E+04 0.  0.
        5    1    3    3  502    0 -0.24612951282E+02  0.43900071557E+03 -0.94539495451E+03  0.10426510134E+04  0.46999998093E+01 0.  1.
       -5    1    3    3    0  502  0.24612951282E+02 -0.43900071557E+03  0.46620918946E+03  0.64085920761E+03  0.46999998093E+01 0. -1.
</event>
<event>
 5   0  0.1787688E-04  0.1644207E+04  0.7818609E-02  0.8793841E-01
       -1   -1    0    0    0  501  0.00000000000E+00  0.00000000000E+00  0.73950654610E+03  0.73950654611E+03  0.50400001928E-02 0.  1.
        1   -1    0    0  501    0  0.00000000000E+00  0.00000000000E+00 -0.91392601452E+03  0.91392601454E+03  0.50400001928E-02 0. -1.
    10030    2    1    2    0    0  0.00000000000E+00  0.00000000000E+00 -0.17441946843E+03  0.16534325607E+04  0.16442071286E+04 0.  0.
        4    1    3    3  502    0 -0.12168640209E+03  0.19452081891E+03 -0.88107358360E+03  0.91046043410E+03  0.12699999809E+01 0. -1.
       -4    1    3    3    0  502  0.12168640209E+03 -0.19452081891E+03  0.70665411517E+03  0.74297212655E+03  0.12699999809E+01 0.  1.
</event>
<event>
 5   0  0.1736537E-04  0.1608727E+04  0.7818609E-02  0.8815204E-01
       -1   -1    0    0    0  501  0.00000000000E+00  0.00000000000E+00  0.10513294356E+04  0.10513294356E+04  0.50400001928E-02 0. -1.
        1   -1    0    0  501    0  0.00000000000E+00  0.00000000000E+00 -0.61541207684E+03  0.61541207686E+03  0.50400001928E-02 0.  1.
    10030    2    1    2    0    0  0.00000000000E+00  0.00000000000E+00  0.43591735879E+03  0.16667415125E+04  0.16087272379E+04 0.  0.
        3    1    3    3  502    0 -0.59019308616E+03  0.44957890235E+03  0.53989199211E+03  0.91756876676E+03  0.10100000352E+00 0. -1.
       -3    1    3    3    0  502  0.59019308616E+03 -0.44957890235E+03 -0.10397463332E+03  0.74917274575E+03  0.10100000352E+00 0.  1.
</event>
<event>
 5   0  0.1764099E-04  0.1589827E+04  0.7818609E-02  0.8826822E-01
        1   -1    0    0  501    0  0.00000000000E+00  0.00000000000E+00  0.13214922729E+04  0.13214922729E+04  0.50400001928E-02 0. -1.
       -1   -1    0    0    0  501  0.00000000000E+00  0.00000000000E+00 -0.47816209742E+03  0.47816209745E+03  0.50400001928E-02 0.  1.
    10030    2    1    2    0    0  0.00000000000E+00  0.00000000000E+00  0.84333017546E+03  0.17996543703E+04  0.15898270559E+04 0.  0.
        5    1    3    3  502    0  0.17968215761E+03 -0.35732275426E+03 -0.35594932563E+03  0.53543182655E+03  0.46999998093E+01 0.  1.
       -5    1    3    3    0  502 -0.17968215761E+03  0.35732275426E+03  0.11992795011E+04  0.12642225438E+04  0.46999998093E+01 0. -1.
</event>
<event>
 5   0  0.3228393E-04  0.1580496E+04  0.7818609E-02  0.8832620E-01
       -2   -1    0    0    0  501  0.00000000000E+00  0.00000000000E+00  0.61941062049E+03  0.61941062050E+03  0.25500000920E-02 0.  1.
        2   -1    0    0  501    0  0.00000000000E+00  0.00000000000E+00 -0.10082037019E+04  0.10082037019E+04  0.25500000920E-02 0. -1.
    10030    2    1    2    0    0  0.00000000000E+00  0.00000000000E+00 -0.38879308142E+03  0.16276143224E+04  0.15804962266E+04 0.  0.
        1    1    3    3  502    0  0.37477761961E+03 -0.12025143837E+03 -0.90007975447E+03  0.98237581252E+03  0.50400001928E-02 0. -1.
       -1    1    3    3    0  502 -0.37477761961E+03  0.12025143837E+03  0.51128667305E+03  0.64523850989E+03  0.50400001928E-02 0.  1.
</event>
<event>
 5   0  0.3380454E-04  0.1607458E+04  0.7818609E-02  0.8815979E-01
       -2   -1    0    0    0  501  0.00000000000E+00  0.00000000000E+00  0.11259011363E+04  0.11259011363E+04  0.25500000920E-02 0. -1.
        2   -1    0    0  501    0  0.00000000000E+00  0.00000000000E+00 -0.57374518333E+03  0.57374518334E+03  0.25500000920E-02 0.  1.
    10030    2    1    2    0    0  0.00000000000E+00  0.00000000000E+00  0.55215595300E+03  0.16996463197E+04  0.16074580603E+04 0.  0.
        5    1    3    3  502    0 -0.28078304661E+03  0.35607916976E+03  0.97770523310E+03  0.10777574436E+04  0.46999998093E+01 0. -1.
       -5    1    3    3    0  502  0.28078304661E+03 -0.35607916976E+03 -0.42554928010E+03  0.62188887608E+03  0.46999998093E+01 0.  1.
</event>
<event>
 5   0  0.1764099E-04  0.1611685E+04  0.7818609E-02  0.8813402E-01
        1   -1    0    0  501    0  0.00000000000E+00  0.00000000000E+00  0.50917303054E+03  0.50917303057E+03  0.50400001928E-02 0.  1.
       -1   -1    0    0    0  501  0.00000000000E+00  0.00000000000E+00 -0.12753656661E+04  0.12753656661E+04  0.50400001928E-02 0. -1.
    10030    2    1    2    0    0  0.00000000000E+00  0.00000000000E+00 -0.76619263553E+03  0.17845386966E+04  0.16116845861E+04 0.  0.
        5    1    3    3  502    0  0.16989286769E+03  0.34042470255E+03  0.40344694596E+03  0.55456658104E+03  0.46999998093E+01 0.  1.
       -5    1    3    3    0  502 -0.16989286769E+03 -0.34042470255E+03 -0.11696395815E+04  0.12299721156E+04  0.46999998093E+01 0. -1.
</event>
<event>
 5   0  0.1819811E-04  0.1590193E+04  0.7818609E-02  0.8826595E-01
        1   -1    0    0  501    0  0.00000000000E+00  0.00000000000E+00  0.26806062194E+04  0.26806062195E+04  0.50400001928E-02 0.  1.
       -1   -1    0    0    0  501  0.00000000000E+00  0.00000000000E+00 -0.23583425103E+03  0.23583425108E+03  0.50400001928E-02 0. -1.
    10030    2    1    2    0    0  0.00000000000E+00  0.00000000000E+00  0.24447719684E+04  0.29164404705E+04  0.15901933972E+04 0.  0.
        1    1    3    3  502    0 -0.72842809582E+03 -0.14201552250E+03  0.17456525713E+04  0.18968602477E+04  0.50400001928E-02 0.  1.
       -1    1    3    3    0  502  0.72842809582E+03  0.14201552250E+03  0.69911939709E+03  0.10195802229E+04  0.50400001928E-02 0. -1.
</event>
<event>
 5   0  0.3210612E-04  0.1605916E+04  0.7818609E-02  0.8816922E-01
       -2   -1    0    0    0  501  0.00000000000E+00  0.00000000000E+00  0.68006886645E+03  0.68006886646E+03  0.25500000920E-02 0. -1.
        2   -1    0    0  501    0  0.00000000000E+00  0.00000000000E+00 -0.94805295109E+03  0.94805295109E+03  0.25500000920E-02 0.  1.
    10030    2    1    2    0    0  0.00000000000E+00  0.00000000000E+00 -0.26798408464E+03  0.16281218175E+04  0.16059156837E+04 0.  0.
        2    1    3    3  502    0  0.69379114297E+03 -0.35864710256E+03  0.55046462337E+02  0.78294572434E+03  0.25500000920E-02 0. -1.
       -2    1    3    3    0  502 -0.69379114297E+03  0.35864710256E+03 -0.32303054697E+03  0.84517609321E+03  0.25500000920E-02 0.  1.
</event>
<event>
 5   0  0.1819811E-04  0.1599840E+04  0.7818609E-02  0.8820646E-01
       -1   -1    0    0    0  501  0.00000000000E+00  0.00000000000E+00  0.51155047448E+03  0.51155047450E+03  0.50400001928E-02 0. -1.
        1   -1    0    0  501    0  0.00000000000E+00  0.00000000000E+00 -0.12508480982E+04  0.12508480982E+04  0.50400001928E-02 0.  1.
    10030    2    1    2    0    0  0.00000000000E+00  0.00000000000E+00 -0.73929762369E+03  0.17623985727E+04  0.15998399147E+04 0.  0.
        1    1    3    3  502    0  0.19063291137E+03  0.57022009375E+03  0.21157939056E+03  0.63738348013E+03  0.50400001928E-02 0. -1.
       -1    1    3    3    0  502 -0.19063291137E+03 -0.57022009375E+03 -0.95087701425E+03  0.11250150925E+04  0.50400001928E-02 0.  1.
</event>
<event>
 5   0  0.3263294E-04  0.1570605E+04  0.7818609E-02  0.8838813E-01
       -2   -1    0    0    0  501  0.00000000000E+00  0.00000000000E+00  0.52675742557E+03  0.52675742558E+03  0.25500000920E-02 0.  1.
        2   -1    0    0  501    0  0.00000000000E+00  0.00000000000E+00 -0.11707482774E+04  0.11707482774E+04  0.25500000920E-02 0. -1.
    10030    2    1    2    0    0  0.00000000000E+00  0.00000000000E+00 -0.64399085185E+03  0.16975057030E+04  0.15706054229E+04 0.  0.
        4    1    3    3  502    0 -0.46062427697E+03 -0.63417386475E+03 -0.37436135838E+03  0.86861916558E+03  0.12699999809E+01 0.  1.
       -4    1    3    3    0  502  0.46062427697E+03  0.63417386475E+03 -0.26962949347E+03  0.82888653742E+03  0.12699999809E+01 0. -1.
</event>
<event>
 5   0  0.3228393E-04  0.1607467E+04  0.7818609E-02  0.8815974E-01
        2   -1    0    0  501    0  0.00000000000E+00  0.00000000000E+00  0.13213186299E+04  0.13213186299E+04  0.25500000920E-02 0. -1.
       -2   -1    0    0    0  501  0.00000000000E+00  0.00000000000E+00 -0.48889631791E+03  0.48889631792E+03  0.25500000920E-02 0.  1.
    10030    2    1    2    0    0  0.00000000000E+00  0.00000000000E+00  0.83242231199E+03  0.18102149478E+04  0.16074673408E+04 0.  0.
        1    1    3    3  502    0  0.51009193473E+03  0.61610521117E+03  0.32747965519E+03  0.86430453991E+03  0.50400001928E-02 0. -1.
       -1    1    3    3    0  502 -0.51009193473E+03 -0.61610521117E+03  0.50494265680E+03  0.94591040791E+03  0.50400001928E-02 0.  1.
</event>
<event>
 5   0  0.1219463E-04  0.1564900E+04  0.7818609E-02  0.8842406E-01
        4   -1    0    0  501    0  0.00000000000E+00  0.00000000000E+00  0.10490498710E+04  0.10490506398E+04  0.12699999809E+01 0.  1.
       -4   -1    0    0    0  501  0.00000000000E+00  0.00000000000E+00 -0.58360090061E+03  0.58360228246E+03  0.12699999809E+01 0. -1.
    10030    2    1    2    0    0  0.00000000000E+00  0.00000000000E+00  0.46544897041E+03  0.16326529222E+04  0.15649002589E+04 0.  0.
        2    1    3    3  502    0  0.39774198406E+03 -0.65459714086E+03  0.39943020316E+03  0.86385218059E+03  0.25500000920E-02 0.  1.
       -2    1    3    3    0  502 -0.39774198406E+03  0.65459714086E+03  0.66018767250E+02  0.76880074164E+03  0.25500000920E-02 0. -1.
</event>
<event>
 5   0  0.1819811E-04  0.1605614E+04  0.7818609E-02  0.8817107E-01
        1   -1    0    0  501    0  0.00000000000E+00  0.00000000000E+00  0.12663428439E+04  0.12663428439E+04  0.50400001928E-02 0. -1.
       -1   -1    0    0    0  501  0.00000000000E+00  0.00000000000E+00 -0.50894489735E+03  0.50894489737E+03  0.50400001928E-02 0.  1.
    10030    2    1    2    0    0  0.00000000000E+00  0.00000000000E+00  0.75739794658E+03  0.17752877413E+04  0.16056135634E+04 0.  0.
        1    1    3    3  502    0  0.70641993324E+03  0.15398925122E+03  0.76450992164E+03  0.10522439032E+04  0.50400001928E-02 0.  1.
       -1    1    3    3    0  502 -0.70641993324E+03 -0.15398925122E+03 -0.71119750597E+01  0.72304383808E+03  0.50400001928E-02 0. -1.
</event>
<event>
 5   0  0.1219463E-04  0.1651920E+04  0.7818609E-02  0.8789271E-01
       -3   -1    0    0    0  501  0.00000000000E+00  0.00000000000E+00  0.18364360396E+04  0.18364360423E+04  0.10100000352E+00 0.  1.
        3   -1    0    0  501    0  0.00000000000E+00  0.00000000000E+00 -0.37148593051E+03  0.37148594424E+03  0.10100000352E+00 0. -1.
    10030    2    1    2    0    0  0.00000000000E+00  0.00000000000E+00  0.14649501090E+04  0.22079219866E+04  0.16519202998E+04 0.  0.
        4    1    3    3  502    0 -0.45491455456E+03 -0.19673446903E+03  0.16155855357E+04  0.16899023461E+04  0.12699999809E+01 0.  1.
       -4    1    3    3    0  502  0.45491455456E+03  0.19673446903E+03 -0.15063542667E+03  0.51801964048E+03  0.12699999809E+01 0. -1.
</event>
<event>
 5   0  0.3263294E-04  0.1602761E+04  0.7818609E-02  0.8818853E-01
        2   -1    0    0  501    0  0.00000000000E+00  0.00000000000E+00  0.15055849829E+04  0.15055849829E+04  0.25500000920E-02 0.  1.
       -2   -1    0    0    0  501  0.00000000000E+00  0.00000000000E+00 -0.42655247161E+03  0.42655247162E+03  0.25500000920E-02 0. -1.
    10030    2    1    2    0    0  0.00000000000E+00  0.00000000000E+00  0.10790325112E+04  0.19321374545E+04  0.16027613617E+04 0.  0.
        4    1    3    3  502    0 -0.10049083275E+03  0.77213210489E+03  0.76800003887E+03  0.10936690850E+04  0.12699999809E+01 0. -1.
       -4    1    3    3    0  502  0.10049083275E+03 -0.77213210489E+03  0.31103247238E+03  0.83846836949E+03  0.12699999809E+01 0.  1.
</event>
<event>
 5   0  0.1787688E-04  0.1602500E+04  0.7818609E-02  0.8819014E-01
        1   -1    0    0  501    0  0.00000000000E+00  0.00000000000E+00  0.16192531240E+04  0.16192531240E+04  0.50400001928E-02 0. -1.
       -1   -1    0    0    0  501  0.00000000000E+00  0.00000000000E+00 -0.39647989278E+03  0.39647989282E+03  0.50400001928E-02 0.  1.
    10030    2    1    2    0    0  0.00000000000E+00  0.00000000000E+00  0.12227732312E+04  0.20157330169E+04  0.16024996787E+04 0.  0.
        4    1    3    3  502    0 -0.14245351695E+03 -0.13442844026E+03  0.15886744898E+04  0.16007036758E+04  0.12699999809E+01 0. -1.
       -4    1    3    3    0  502  0.14245351695E+03  0.13442844026E+03 -0.36590125858E+03  0.41502934110E+03  0.12699999809E+01 0.  1.
</event>
<event>
 5   0  0.3263294E-04  0.1636051E+04  0.7818609E-02  0.8798702E-01
       -2   -1    0    0    0  501  0.00000000000E+00  0.00000000000E+00  0.46000446027E+03  0.46000446028E+03  0.25500000920E-02 0. -1.
        2   -1    0    0  501    0  0.00000000000E+00  0.00000000000E+00 -0.14546932775E+04  0.14546932775E+04  0.25500000920E-02 0.  1.
    10030    2    1    2    0    0  0.00000000000E+00  0.00000000000E+00 -0.99468881722E+03  0.19146977378E+04  0.16360506056E+04 0.  0.
        4    1    3    3  502    0  0.73551112295E+03 -0.99863627414E+02 -0.89972658194E+03  0.11663871104E+04  0.12699999809E+01 0.  1.
       -4    1    3    3    0  502 -0.73551112295E+03  0.99863627414E+02 -0.94962235281E+02  0.74831062741E+03  0.12699999809E+01 0. -1.
</event>
<event>
 5   0  0.1761255E-04  0.1588571E+04  0.7818609E-02  0.8827600E-01
       -1   -1    0    0    0  501  0.00000000000E+00  0.00000000000E+00  0.35320141505E+03  0.35320141508E+03  0.50400001928E-02 0.  1.
        1   -1    0    0  501    0  0.00000000000E+00  0.00000000000E+00 -0.17862041161E+04  0.17862041161E+04  0.50400001928E-02 0. -1.
    10030    2    1    2    0    0  0.00000000000E+00  0.00000000000E+00 -0.14330027010E+04  0.21394055312E+04  0.15885714607E+04 0.  0.
        2    1    3    3  502    0  0.14733470992E+03 -0.72194659249E+03 -0.31704710781E+03  0.80214292226E+03  0.25500000920E-02 0.  1.
       -2    1    3    3    0  502 -0.14733470992E+03  0.72194659249E+03 -0.11159555932E+04  0.13372626089E+04  0.25500000920E-02 0. -1.
</event>
<event>
 5   0  0.3228393E-04  0.1598284E+04  0.7818609E-02  0.8821603E-01
        2   -1    0    0  501    0  0.00000000000E+00  0.00000000000E+00  0.61178674412E+03  0.61178674412E+03  0.25500000920E-02 0.  1.
       -2   -1    0    0    0  501  0.00000000000E+00  0.00000000000E+00 -0.10438739547E+04  0.10438739547E+04  0.25500000920E-02 0. -1.
    10030    2    1    2    0    0  0.00000000000E+00  0.00000000000E+00 -0.43208721062E+03  0.16556606989E+04  0.15982843903E+04 0.  0.
        1    1    3    3  502    0  0.17900506317E+03  0.11624735251E+03  0.58171406408E+03  0.61963498286E+03  0.50400001928E-02 0.  1.
       -1    1    3    3    0  502 -0.17900506317E+03 -0.11624735251E+03 -0.10138012747E+04  0.10360257160E+04  0.50400001928E-02 0. -1.
</event>
<event>
 5   0  0.1736537E-04  0.1603671E+04  0.7818609E-02  0.8818296E-01
       -1   -1    0    0    0  501  0.00000000000E+00  0.00000000000E+00  0.89688540080E+03  0.89688540081E+03  0.50400001928E-02 0. -1.
        1   -1    0    0  501    0  0.00000000000E+00  0.00000000000E+00 -0.71685864439E+03  0.71685864441E+03  0.50400001928E-02 0.  1.
    10030    2    1    2    0    0  0.00000000000E+00  0.00000000000E+00  0.18002675641E+03  0.16137440452E+04  0.16036708548E+04 0.  0.
        3    1    3    3  502    0 -0.35250986474E+03 -0.17178694858E+03  0.79381065872E+03  0.88538654414E+03  0.10100000352E+00 0. -1.
       -3    1    3    3    0  502  0.35250986474E+03  0.17178694858E+03 -0.61378390231E+03  0.72835750108E+03  0.10100000352E+00 0.  1.
</event>
<event>
 5   0  0.1819811E-04  0.1582440E+04  0.7818609E-02  0.8831409E-01
       -1   -1    0    0    0  501  0.00000000000E+00  0.00000000000E+00  0.68988457336E+03  0.68988457338E+03  0.50400001928E-02 0. -1.
        1   -1    0    0  501    0  0.00000000000E+00  0.00000000000E+00 -0.90744080949E+03  0.90744080950E+03  0.50400001928E-02 0.  1.
    10030    2    1    2    0    0  0.00000000000E+00  0.00000000000E+00 -0.21755623613E+03  0.15973253829E+04  0.15824404137E+04 0.  0.
        1    1    3    3  502    0  0.20259367756E+03 -0.45460272831E+03 -0.72964226719E+03  0.88322459028E+03  0.50400001928E-02 0.  1.
       -1    1    3    3    0  502 -0.20259367756E+03  0.45460272831E+03  0.51208603106E+03  0.71410079261E+03  0.50400001928E-02 0. -1.
</event>
<event>
 5   0  0.1736537E-04  0.1592263E+04  0.7818609E-02  0.8825315E-01
       -1   -1    0    0    0  501  0.00000000000E+00  0.00000000000E+00  0.67650905642E+03  0.67650905644E+03  0.50400001928E-02 0. -1.
        1   -1    0    0  501    0  0.00000000000E+00  0.00000000000E+00 -0.93690627614E+03  0.93690627616E+03  0.50400001928E-02 0.  1.
    10030    2    1    2    0    0  0.00000000000E+00  0.00000000000E+00 -0.26039721972E+03  0.16134153326E+04  0.15922632708E+04 0.  0.
        3    1    3    3  502    0  0.68198936609E+03 -0.31771533222E+03 -0.39398950105E+03  0.84928220570E+03  0.10100000352E+00 0.  1.
       -3    1    3    3    0  502 -0.68198936609E+03  0.31771533222E+03  0.13359228133E+03  0.76413312689E+03  0.10100000352E+00 0. -1.
</event>
<event>
 5   0  0.3274900E-04  0.1597648E+04  0.7818609E-02  0.8821994E-01
       -2   -1    0    0    0  501  0.00000000000E+00  0.00000000000E+00  0.83630811174E+03  0.83630811174E+03  0.25500000920E-02 0. -1.
        2   -1    0    0  501    0  0.00000000000E+00  0.00000000000E+00 -0.76301972510E+03  0.76301972511E+03  0.25500000920E-02 0.  1.
    10030    2    1    2    0    0  0.00000000000E+00  0.00000000000E+00  0.73288386634E+02  0.15993278368E+04  0.15976477528E+04 0.  0.
        3    1    3    3  502    0 -0.12170318864E+03 -0.67939991084E+03 -0.36592752196E+03  0.78121627383E+03  0.10100000352E+00 0.  1.
       -3    1    3    3    0  502  0.12170318864E+03  0.67939991084E+03  0.43921590859E+03  0.81811156301E+03  0.10100000352E+00 0. -1.
</event>
<event>
 5   0  0.3210612E-04  0.1615095E+04  0.7818609E-02  0.8811328E-01
       -2   -1    0    0    0  501  0.00000000000E+00  0.00000000000E+00  0.11335608540E+04  0.11335608540E+04  0.25500000920E-02 0.  1.
        2   -1    0    0  501    0  0.00000000000E+00  0.00000000000E+00 -0.57529629528E+03  0.57529629529E+03  0.25500000920E-02 0. -1.
    10030    2    1    2    0    0  0.00000000000E+00  0.00000000000E+00  0.55826455875E+03  0.17088571493E+04  0.16150954892E+04 0.  0.
        2    1    3    3  502    0 -0.52323605353E+03  0.43673228555E+03  0.73743220480E+03  0.10041500454E+04  0.25500000920E-02 0. -1.
       -2    1    3    3    0  502  0.52323605353E+03 -0.43673228555E+03 -0.17916764605E+03  0.70470710394E+03  0.25500000920E-02 0.  1.
</event>
<event>
 5   0  0.1787688E-04  0.1587735E+04  0.7818609E-02  0.8828118E-01
       -1   -1    0    0    0  501  0.00000000000E+00  0.00000000000E+00  0.11749141087E+04  0.11749141087E+04  0.50400001928E-02 0.  1.
        1   -1    0    0  501    0  0.00000000000E+00  0.00000000000E+00 -0.53640149245E+03  0.53640149247E+03  0.50400001928E-02 0. -1.
    10030    2    1    2    0    0  0.00000000000E+00  0.00000000000E+00  0.63851261628E+03  0.17113156012E+04  0.15877350931E+04 0.  0.
        4    1    3    3  502    0  0.33022872317E+03  0.37297432189E+02 -0.45781820878E+03  0.56572186916E+03  0.12699999809E+01 0. -1.
       -4    1    3    3    0  502 -0.33022872317E+03 -0.37297432189E+02  0.10963308251E+04  0.11455937321E+04  0.12699999809E+01 0.  1.
</event>
<event>
 5   0  0.3228393E-04  0.1521136E+04  0.7818609E-02  0.8870518E-01
       -2   -1    0    0    0  501  0.00000000000E+00  0.00000000000E+00  0.44734216373E+03  0.44734216374E+03  0.25500000920E-02 0.  1.
        2   -1    0    0  501    0  0.00000000000E+00  0.00000000000E+00 -0.12931126191E+04  0.12931126191E+04  0.25500000920E-02 0. -1.
    10030    2    1    2    0    0  0.00000000000E+00  0.00000000000E+00 -0.84577045535E+03  0.17404547828E+04  0.15211361503E+04 0.  0.
        1    1    3    3  502    0  0.62631797765E+03 -0.23388772421E+03 -0.79936558181E+01  0.66861167745E+03  0.50400001928E-02 0.  1.
       -1    1    3    3    0  502 -0.62631797765E+03  0.23388772421E+03 -0.83777679953E+03  0.10718431054E+04  0.50400001928E-02 0. -1.
</event>
<event>
 5   0  0.3380454E-04  0.1594051E+04  0.7818609E-02  0.8824211E-01
        2   -1    0    0  501    0  0.00000000000E+00  0.00000000000E+00  0.21387420801E+04  0.21387420801E+04  0.25500000920E-02 0.  1.
       -2   -1    0    0    0  501  0.00000000000E+00  0.00000000000E+00 -0.29702009489E+03  0.29702009490E+03  0.25500000920E-02 0. -1.
    10030    2    1    2    0    0  0.00000000000E+00  0.00000000000E+00  0.18417219852E+04  0.24357621750E+04  0.15940506586E+04 0.  0.
        5    1    3    3  502    0 -0.47929224453E+03 -0.63311599967E+03  0.81643515128E+03  0.11389228995E+04  0.46999998093E+01 0.  1.
       -5    1    3    3    0  502  0.47929224453E+03  0.63311599967E+03  0.10252868339E+04  0.12968392755E+04  0.46999998093E+01 0. -1.
</event>
<event>
 5   0  0.1787688E-04  0.1605664E+04  0.7818609E-02  0.8817076E-01
        1   -1    0    0  501    0  0.00000000000E+00  0.00000000000E+00  0.20556475245E+04  0.20556475245E+04  0.50400001928E-02 0.  1.
       -1   -1    0    0    0  501  0.00000000000E+00  0.00000000000E+00 -0.31354565763E+03  0.31354565767E+03  0.50400001928E-02 0. -1.
    10030    2    1    2    0    0  0.00000000000E+00  0.00000000000E+00  0.17421018668E+04  0.23691931821E+04  0.16056641678E+04 0.  0.
        4    1    3    3  502    0  0.39835998289E+03  0.63016068155E+03  0.43149243471E+03  0.86138289665E+03  0.12699999809E+01 0. -1.
       -4    1    3    3    0  502 -0.39835998289E+03 -0.63016068155E+03  0.13106094321E+04  0.15078102855E+04  0.12699999809E+01 0.  1.
</event>
<event>
 5   0  0.3228393E-04  0.1598105E+04  0.7818609E-02  0.8821713E-01
        2   -1    0    0  501    0  0.00000000000E+00  0.00000000000E+00  0.17909020635E+04  0.17909020636E+04  0.25500000920E-02 0.  1.
       -2   -1    0    0    0  501  0.00000000000E+00  0.00000000000E+00 -0.35651595041E+03  0.35651595042E+03  0.25500000920E-02 0. -1.
    10030    2    1    2    0    0  0.00000000000E+00  0.00000000000E+00  0.14343861131E+04  0.21474180140E+04  0.15981053173E+04 0.  0.
        1    1    3    3  502    0 -0.18764180718E+03 -0.54047721932E+03 -0.32361298532E+02  0.57303780510E+03  0.50400001928E-02 0. -1.
       -1    1    3    3    0  502  0.18764180718E+03  0.54047721932E+03  0.14667474117E+04  0.15743802089E+04  0.50400001928E-02 0.  1.
</event>
<event>
 5   0  0.1819811E-04  0.1614081E+04  0.7818609E-02  0.8811944E-01
       -1   -1    0    0    0  501  0.00000000000E+00  0.00000000000E+00  0.42924545119E+03  0.42924545122E+03  0.50400001928E-02 0. -1.
        1   -1    0    0  501    0  0.00000000000E+00  0.00000000000E+00 -0.15173471694E+04  0.15173471694E+04  0.50400001928E-02 0.  1.
    10030    2    1    2    0    0  0.00000000000E+00  0.00000000000E+00 -0.10881017182E+04  0.19465926206E+04  0.16140810022E+04 0.  0.
        1    1    3    3  502    0  0.93762302311E+02  0.13935752994E+03 -0.14960345027E+04  0.15054338656E+04  0.50400001928E-02 0.  1.
       -1    1    3    3    0  502 -0.93762302311E+02 -0.13935752994E+03  0.40793278446E+03  0.44115875504E+03  0.50400001928E-02 0. -1.
</event>
<event>
 5   0  0.3228393E-04  0.1601501E+04  0.7818609E-02  0.8819626E-01
       -2   -1    0    0    0  501  0.00000000000E+00  0.00000000000E+00  0.59351767869E+03  0.59351767870E+03  0.25500000920E-02 0. -1.
        2   -1    0    0  501    0  0.00000000000E+00  0.00000000000E+00 -0.10803408741E+04  0.10803408741E+04  0.25500000920E-02 0.  1.
    10030    2    1    2    0    0  0.00000000000E+00  0.00000000000E+00 -0.48682319540E+03  0.16738585528E+04  0.16015010556E+04 0.  0.
        1    1    3    3  502    0 -0.50057978483E+03 -0.55863637786E+03 -0.53633593387E+03  0.92212307076E+03  0.50400001928E-02 0. -1.
       -1    1    3    3    0  502  0.50057978483E+03  0.55863637786E+03  0.49512738471E+02  0.75173548203E+03  0.50400001928E-02 0.  1.
</event>
<event>
 5   0  0.1787688E-04  0.1658913E+04  0.7818609E-02  0.8785151E-01
        1   -1    0    0  501    0  0.00000000000E+00  0.00000000000E+00  0.63373558918E+03  0.63373558920E+03  0.50400001928E-02 0. -1.
       -1   -1    0    0    0  501  0.00000000000E+00  0.00000000000E+00 -0.10856230812E+04  0.10856230812E+04  0.50400001928E-02 0.  1.
    10030    2    1    2    0    0  0.00000000000E+00  0.00000000000E+00 -0.45188749201E+03  0.17193586704E+04  0.16589128766E+04 0.  0.
        4    1    3    3  502    0  0.12097811633E+03  0.43234080715E+03  0.49692338655E+03  0.66969302158E+03  0.12699999809E+01 0. -1.
       -4    1    3    3    0  502 -0.12097811633E+03 -0.43234080715E+03 -0.94881087856E+03  0.10496656488E+04  0.12699999809E+01 0.  1.
</event>
<event>
 5   0  0.3210612E-04  0.1592242E+04  0.7818609E-02  0.8825329E-01
        2   -1    0    0  501    0  0.00000000000E+00  0.00000000000E+00  0.67431782876E+03  0.67431782876E+03  0.25500000920E-02 0.  1.
       -2   -1    0    0    0  501  0.00000000000E+00  0.00000000000E+00 -0.93992521242E+03  0.93992521243E+03  0.25500000920E-02 0. -1.
    10030    2    1    2    0    0  0.00000000000E+00  0.00000000000E+00 -0.26560738366E+03  0.16142430412E+04  0.15922416003E+04 0.  0.
        2    1    3    3  502    0 -0.76293673730E+03  0.13211015645E+03 -0.32051822952E+03  0.83800805128E+03  0.25500000920E-02 0. -1.
       -2    1    3    3    0  502  0.76293673730E+03 -0.13211015645E+03  0.54910845858E+02  0.77623498991E+03  0.25500000920E-02 0.  1.
</event>
<event>
 5   0  0.3210612E-04  0.1578199E+04  0.7818609E-02  0.8834054E-01
       -2   -1    0    0    0  501  0.00000000000E+00  0.00000000000E+00  0.10352684946E+04  0.10352684946E+04  0.25500000920E-02 0.  1.
        2   -1    0    0  501    0  0.00000000000E+00  0.00000000000E+00 -0.60146506562E+03  0.60146506562E+03  0.25500000920E-02 0. -1.
    10030    2    1    2    0    0  0.00000000000E+00  0.00000000000E+00  0.43380342897E+03  0.16367335602E+04  0.15781987619E+04 0.  0.
        2    1    3    3  502    0 -0.48041951120E+03 -0.52242615971E+03 -0.14077519708E+03  0.72356731215E+03  0.25500000920E-02 0. -1.
       -2    1    3    3    0  502  0.48041951120E+03  0.52242615971E+03  0.57457862605E+03  0.91316624807E+03  0.25500000920E-02 0.  1.
</event>
<event>
 5   0  0.1787688E-04  0.1597101E+04  0.7818609E-02  0.8822331E-01
        1   -1    0    0  501    0  0.00000000000E+00  0.00000000000E+00  0.99328466194E+03  0.99328466196E+03  0.50400001928E-02 0.  1.
       -1   -1    0    0    0  501  0.00000000000E+00  0.00000000000E+00 -0.64199375732E+03  0.64199375734E+03  0.50400001928E-02 0. -1.
    10030    2    1    2    0    0  0.00000000000E+00  0.00000000000E+00  0.35129090462E+03  0.16352784193E+04  0.15971005632E+04 0.  0.
        4    1    3    3  502    0 -0.28758698340E+03  0.74470225019E+03  0.19594937417E+03  0.82200090304E+03  0.12699999809E+01 0.  1.
       -4    1    3    3    0  502  0.28758698340E+03 -0.74470225019E+03  0.15534153045E+03  0.81327751625E+03  0.12699999809E+01 0. -1.
</event>
<event>
 5   0  0.1764099E-04  0.1535443E+04  0.7818609E-02  0.8861220E-01
       -1   -1    0    0    0  501  0.00000000000E+00  0.00000000000E+00  0.33362234984E+03  0.33362234988E+03  0.50400001928E-02 0.  1.
        1   -1    0    0  501    0  0.00000000000E+00  0.00000000000E+00 -0.17666582105E+04  0.17666582105E+04  0.50400001928E-02 0. -1.
    10030    2    1    2    0    0  0.00000000000E+00  0.00000000000E+00 -0.14330358607E+04  0.21002805604E+04  0.15354434716E+04 0.  0.
        5    1    3    3  502    0 -0.73325757295E+03 -0.63690900239E+02 -0.10151120129E+04  0.12538730749E+04  0.46999998093E+01 0. -1.
       -5    1    3    3    0  502  0.73325757295E+03  0.63690900239E+02 -0.41792384773E+03  0.84640748553E+03  0.46999998093E+01 0.  1.
</event>
<event>
 5   0  0.1761255E-04  0.1626355E+04  0.7818609E-02  0.8804518E-01
        1   -1    0    0  501    0  0.00000000000E+00  0.00000000000E+00  0.69622274656E+03  0.69622274658E+03  0.50400001928E-02 0.  1.
       -1   -1    0    0    0  501  0.00000000000E+00  0.00000000000E+00 -0.94977940667E+03  0.94977940668E+03  0.50400001928E-02 0. -1.
    10030    2    1    2    0    0  0.00000000000E+00  0.00000000000E+00 -0.25355666010E+03  0.16460021533E+04  0.16263554681E+04 0.  0.
        2    1    3    3  502    0  0.54742370619E+03 -0.59713790469E+03 -0.55130230049E+02  0.81196412087E+03  0.25500000920E-02 0.  1.
       -2    1    3    3    0  502 -0.54742370619E+03  0.59713790469E+03 -0.19842643006E+03  0.83403803239E+03  0.25500000920E-02 0. -1.
</event>
<event>
 5   0  0.3274900E-04  0.1603833E+04  0.7818609E-02  0.8818197E-01
       -2   -1    0    0    0  501  0.00000000000E+00  0.00000000000E+00  0.68050697425E+03  0.68050697426E+03  0.25500000920E-02 0.  1.
        2   -1    0    0  501    0  0.00000000000E+00  0.00000000000E+00 -0.94498672378E+03  0.94498672378E+03  0.25500000920E-02 0. -1.
    10030    2    1    2    0    0  0.00000000000E+00  0.00000000000E+00 -0.26447974952E+03  0.16254936980E+04  0.16038329790E+04 0.  0.
        3    1    3    3  502    0  0.38334499531E+03  0.65709000625E+03 -0.38933766753E+03  0.85457854601E+03  0.10100000352E+00 0. -1.
       -3    1    3    3    0  502 -0.38334499531E+03 -0.65709000625E+03  0.12485791801E+03  0.77091515203E+03  0.10100000352E+00 0.  1.
</event>
<event>
 5   0  0.1761255E-04  0.1590581E+04  0.7818609E-02  0.8826355E-01
       -1   -1    0    0    0  501  0.00000000000E+00  0.00000000000E+00  0.36636424059E+03  0.36636424063E+03  0.50400001928E-02 0. -1.
        1   -1    0    0  501    0  0.00000000000E+00  0.00000000000E+00 -0.17263890163E+04  0.17263890163E+04  0.50400001928E-02 0.  1.
    10030    2    1    2    0    0  0.00000000000E+00  0.00000000000E+00 -0.13600247757E+04  0.20927532569E+04  0.15905812786E+04 0.  0.
        2    1    3    3  502    0 -0.39449055237E+03 -0.30061396040E+03 -0.14979769081E+04  0.15779500519E+04  0.25500000920E-02 0.  1.
       -2    1    3    3    0  502  0.39449055237E+03  0.30061396040E+03  0.13795213237E+03  0.51480320505E+03  0.25500000920E-02 0. -1.
</event>
<event>
 5   0  0.1819811E-04  0.1606508E+04  0.7818609E-02  0.8816560E-01
        1   -1    0    0  501    0  0.00000000000E+00  0.00000000000E+00  0.13099934964E+04  0.13099934964E+04  0.50400001928E-02 0.  1.
       -1   -1    0    0    0  501  0.00000000000E+00  0.00000000000E+00 -0.49253464795E+03  0.49253464798E+03  0.50400001928E-02 0. -1.
    10030    2    1    2    0    0  0.00000000000E+00  0.00000000000E+00  0.81745884846E+03  0.18025281444E+04  0.16065082454E+04 0.  0.
        1    1    3    3  502    0 -0.42257150843E+03  0.19165389159E+02  0.11748973671E+04  0.12487264773E+04  0.50400001928E-02 0.  1.
       -1    1    3    3    0  502  0.42257150843E+03 -0.19165389159E+02 -0.35743851862E+03  0.55380166711E+03  0.50400001928E-02 0. -1.
</event>
<event>
 5   0  0.3228393E-04  0.1615523E+04  0.7818609E-02  0.8811068E-01
        2   -1    0    0  501    0  0.00000000000E+00  0.00000000000E+00  0.11518879526E+04  0.11518879526E+04  0.25500000920E-02 0. -1.
       -2   -1    0    0    0  501  0.00000000000E+00  0.00000000000E+00 -0.56644247100E+03  0.56644247100E+03  0.25500000920E-02 0.  1.
    10030    2    1    2    0    0  0.00000000000E+00  0.00000000000E+00  0.58544548158E+03  0.17183304236E+04  0.16155225262E+04 0.  0.
        1    1    3    3  502    0 -0.30889356602E+03 -0.24829789796E+03  0.10413688324E+04  0.11142334255E+04  0.50400001928E-02 0. -1.
       -1    1    3    3    0  502  0.30889356602E+03  0.24829789796E+03 -0.45592335085E+03  0.60409699812E+03  0.50400001928E-02 0.  1.
</event>
<event>
 5   0  0.1219463E-04  0.1586069E+04  0.7818609E-02  0.8829153E-01
       -3   -1    0    0    0  501  0.00000000000E+00  0.00000000000E+00  0.97312159541E+03  0.97312160065E+03  0.10100000352E+00 0.  1.
        3   -1    0    0  501    0  0.00000000000E+00  0.00000000000E+00 -0.64627418496E+03  0.64627419285E+03  0.10100000352E+00 0. -1.
    10030    2    1    2    0    0  0.00000000000E+00  0.00000000000E+00  0.32684741045E+03  0.16193957935E+04  0.15860685692E+04 0.  0.
        2    1    3    3  502    0  0.35135155112E+03  0.68661430991E+03 -0.24886686923E+02  0.77169065709E+03  0.25500000920E-02 0. -1.
       -2    1    3    3    0  502 -0.35135155112E+03 -0.68661430991E+03  0.35173409737E+03  0.84770513642E+03  0.25500000920E-02 0.  1.
</event>
<event>
 5   0  0.1764099E-04  0.1609014E+04  0.7818609E-02  0.8815030E-01
       -1   -1    0    0    0  501  0.00000000000E+00  0.00000000000E+00  0.92298277308E+03  0.92298277309E+03  0.50400001928E-02 0. -1.
        1   -1    0    0  501    0  0.00000000000E+00  0.00000000000E+00 -0.70123862715E+03  0.70123862717E+03  0.50400001928E-02 0.  1.
    10030    2    1    2    0    0  0.00000000000E+00  0.00000000000E+00  0.22174414592E+03  0.16242214003E+04  0.16090135770E+04 0.  0.
        5    1    3    3  502    0  0.27156112029E+03  0.47612966807E+03 -0.48356054777E+03  0.73095676769E+03  0.46999998093E+01 0.  1.
       -5    1    3    3    0  502 -0.27156112029E+03 -0.47612966807E+03  0.70530469369E+03  0.89326463258E+03  0.46999998093E+01 0. -1.
</event>
<event>
 5   0  0.3210612E-04  0.1610660E+04  0.7818609E-02  0.8814026E-01
        2   -1    0    0  501    0  0.00000000000E+00  0.00000000000E+00  0.80396303808E+03  0.80396303808E+03  0.25500000920E-02 0.  1.
       -2   -1    0    0    0  501  0.00000000000E+00  0.00000000000E+00 -0.80669975444E+03  0.80669975445E+03  0.25500000920E-02 0. -1.
    10030    2    1    2    0    0  0.00000000000E+00  0.00000000000E+00 -0.27367163636E+01  0.16106627925E+04  0.16106604675E+04 0.  0.
        2    1    3    3  502    0  0.36462561713E+03 -0.71759582532E+03 -0.27081742255E+02  0.80537508650E+03  0.25500000920E-02 0.  1.
       -2    1    3    3    0  502 -0.36462561713E+03  0.71759582532E+03  0.24345025891E+02  0.80528770603E+03  0.25500000920E-02 0. -1.
</event>
<event>
 5   0  0.3210612E-04  0.1607514E+04  0.7818609E-02  0.8815945E-01
       -2   -1    0    0    0  501  0.00000000000E+00  0.00000000000E+00  0.92557369261E+03  0.92557369261E+03  0.25500000920E-02 0.  1.
        2   -1    0    0  501    0  0.00000000000E+00  0.00000000000E+00 -0.69797317011E+03  0.69797317011E+03  0.25500000920E-02 0. -1.
    10030    2    1    2    0    0  0.00000000000E+00  0.00000000000E+00  0.22760052250E+03  0.16235468627E+04  0.16075143600E+04 0.  0.
        2    1    3    3  502    0  0.51382791965E+02 -0.20237627470E+02 -0.69605479637E+03  0.69824210159E+03  0.25500000920E-02 0. -1.
       -2    1    3    3    0  502 -0.51382791965E+02  0.20237627470E+02  0.92365531888E+03  0.92530476113E+03  0.25500000920E-02 0.  1.
</event>
<event>
 5   0  0.1736537E-04  0.1604364E+04  0.7818609E-02  0.8817871E-01
        1   -1    0    0  501    0  0.00000000000E+00  0.00000000000E+00  0.40641181271E+03  0.40641181274E+03  0.50400001928E-02 0. -1.
       -1   -1    0    0    0  501  0.00000000000E+00  0.00000000000E+00 -0.15833600214E+04  0.15833600214E+04  0.50400001928E-02 0.  1.
    10030    2    1    2    0    0  0.00000000000E+00  0.00000000000E+00 -0.11769482087E+04  0.19897718342E+04  0.16043643184E+04 0.  0.
        3    1    3    3  502    0  0.75806335025E+03 -0.22359145730E+03 -0.75871958030E+03  0.10955859594E+04  0.10100000352E+00 0. -1.
       -3    1    3    3    0  502 -0.75806335025E+03  0.22359145730E+03 -0.41822862842E+03  0.89418587475E+03  0.10100000352E+00 0.  1.
</event>
<event>
 5   0  0.3380454E-04  0.1599370E+04  0.7818609E-02  0.8820935E-01
       -2   -1    0    0    0  501  0.00000000000E+00  0.00000000000E+00  0.28633197526E+03  0.28633197527E+03  0.25500000920E-02 0.  1.
        2   -1    0    0  501    0  0.00000000000E+00  0.00000000000E+00 -0.22334066981E+04  0.22334066981E+04  0.25500000920E-02 0. -1.
    10030    2    1    2    0    0  0.00000000000E+00  0.00000000000E+00 -0.19470747229E+04  0.25197386734E+04  0.15993695651E+04 0.  0.
        5    1    3    3  502    0  0.59432065559E+03  0.53502144513E+03 -0.96889763021E+03  0.12562840826E+04  0.46999998093E+01 0.  1.
       -5    1    3    3    0  502 -0.59432065559E+03 -0.53502144513E+03 -0.97817709266E+03  0.12634545908E+04  0.46999998093E+01 0. -1.
</event>
<event>
 5   0  0.1787688E-04  0.1566334E+04  0.7818609E-02  0.8841501E-01
        1   -1    0    0  501    0  0.00000000000E+00  0.00000000000E+00  0.80286051562E+03  0.80286051564E+03  0.50400001928E-02 0. -1.
       -1   -1    0    0    0  501  0.00000000000E+00  0.00000000000E+00 -0.76395685653E+03  0.76395685654E+03  0.50400001928E-02 0.  1.
    10030    2    1    2    0    0  0.00000000000E+00  0.00000000000E+00  0.38903659096E+02  0.15668173722E+04  0.15663343140E+04 0.  0.
        4    1    3    3  502    0 -0.46282182782E+03  0.19817529516E+03  0.61952990312E+03  0.79830846524E+03  0.12699999809E+01 0. -1.
       -4    1    3    3    0  502  0.46282182782E+03 -0.19817529516E+03 -0.58062624402E+03  0.76850890695E+03  0.12699999809E+01 0.  1.
</event>
<event>
 5   0  0.3210612E-04  0.1602913E+04  0.7818609E-02  0.8818760E-01
       -2   -1    0    0    0  501  0.00000000000E+00  0.00000000000E+00  0.44651442474E+03  0.44651442475E+03  0.25500000920E-02 0.  1.
        2   -1    0    0  501    0  0.00000000000E+00  0.00000000000E+00 -0.14385482302E+04  0.14385482302E+04  0.25500000920E-02 0. -1.
    10030    2    1    2    0    0  0.00000000000E+00  0.00000000000E+00 -0.99203380550E+03  0.18850626550E+04  0.16029130176E+04 0.  0.
        2    1    3    3  502    0  0.24169704162E+03  0.39534063269E+03 -0.12650504317E+04  0.13472432113E+04  0.25500000920E-02 0. -1.
       -2    1    3    3    0  502 -0.24169704162E+03 -0.39534063269E+03  0.27301662619E+03  0.53781944365E+03  0.25500000920E-02 0.  1.
</event>
<event>
 5   0  0.1764099E-04  0.1597960E+04  0.7818609E-02  0.8821802E-01
        1   -1    0    0  501    0  0.00000000000E+00  0.00000000000E+00  0.16959894228E+04  0.16959894228E+04  0.50400001928E-02 0. -1.
       -1   -1    0    0    0  501  0.00000000000E+00  0.00000000000E+00 -0.37639911212E+03  0.37639911215E+03  0.50400001928E-02 0.  1.
    10030    2    1    2    0    0  0.00000000000E+00  0.00000000000E+00  0.13195903107E+04  0.20723885349E+04  0.15979598405E+04 0.  0.
        5    1    3    3  502    0 -0.68307266547E+03  0.15527835133E+03  0.11581261660E+04  0.13535057957E+04  0.46999998093E+01 0. -1.
       -5    1    3    3    0  502  0.68307266547E+03 -0.15527835133E+03  0.16146414466E+03  0.71888273920E+03  0.46999998093E+01 0.  1.
</event>
<event>
 5   0  0.1219463E-04  0.1592741E+04  0.7818609E-02  0.8825020E-01
       -3   -1    0    0    0  501  0.00000000000E+00  0.00000000000E+00  0.75607854083E+03  0.75607854757E+03  0.10100000352E+00 0. -1.
        3   -1    0    0  501    0  0.00000000000E+00  0.00000000000E+00 -0.83880980195E+03  0.83880980804E+03  0.10100000352E+00 0.  1.
    10030    2    1    2    0    0  0.00000000000E+00  0.00000000000E+00 -0.82731261129E+02  0.15948883556E+04  0.15927411608E+04 0.  0.
        2    1    3    3  502    0 -0.49276259832E+03 -0.62557552958E+03 -0.48185082747E+02  0.79779792161E+03  0.25500000920E-02 0. -1.
       -2    1    3    3    0  502  0.49276259832E+03  0.62557552958E+03 -0.34546178382E+02  0.79709043400E+03  0.25500000920E-02 0.  1.
</event>
<event>
 5   0  0.1761255E-04  0.1584707E+04  0.7818609E-02  0.8829998E-01
        1   -1    0    0  501    0  0.00000000000E+00  0.00000000000E+00  0.40127553334E+03  0.40127553337E+03  0.50400001928E-02 0.  1.
       -1   -1    0    0    0  501  0.00000000000E+00  0.00000000000E+00 -0.15645719474E+04  0.15645719474E+04  0.50400001928E-02 0. -1.
    10030    2    1    2    0    0  0.00000000000E+00  0.00000000000E+00 -0.11632964141E+04  0.19658474808E+04  0.15847074717E+04 0.  0.
        2    1    3    3  502    0  0.33552249533E+02  0.25160161068E+02  0.39989778668E+03  0.40209081928E+03  0.25500000920E-02 0.  1.
       -2    1    3    3    0  502 -0.33552249533E+02 -0.25160161068E+02 -0.15631942008E+04  0.15637566615E+04  0.25500000920E-02 0. -1.
</event>
<event>
 5   0  0.1764099E-04  0.1604631E+04  0.7818609E-02  0.8817708E-01
        1   -1    0    0  501    0  0.00000000000E+00  0.00000000000E+00  0.68326399080E+03  0.68326399082E+03  0.50400001928E-02 0. -1.
       -1   -1    0    0    0  501  0.00000000000E+00  0.00000000000E+00 -0.94211008857E+03  0.94211008859E+03  0.50400001928E-02 0.  1.
    10030    2    1    2    0    0  0.00000000000E+00  0.00000000000E+00 -0.25884609777E+03  0.16253740794E+04  0.16046306727E+04 0.  0.
        5    1    3    3  502    0 -0.32974844078E+03 -0.29235379345E+03  0.54967876735E+03  0.70453787124E+03  0.46999998093E+01 0. -1.
       -5    1    3    3    0  502  0.32974844078E+03  0.29235379345E+03 -0.80852486512E+03  0.92083620816E+03  0.46999998093E+01 0.  1.
</event>
<event>
 5   0  0.3210612E-04  0.1613410E+04  0.7818609E-02  0.8812352E-01
        2   -1    0    0  501    0  0.00000000000E+00  0.00000000000E+00  0.70914935148E+03  0.70914935149E+03  0.25500000920E-02 0. -1.
       -2   -1    0    0    0  501  0.00000000000E+00  0.00000000000E+00 -0.91768053432E+03  0.91768053433E+03  0.25500000920E-02 0.  1.
    10030    2    1    2    0    0  0.00000000000E+00  0.00000000000E+00 -0.20853118284E+03  0.16268298858E+04  0.16134095026E+04 0.  0.
        2    1    3    3  502    0  0.23115333703E+03 -0.42768763450E+03  0.54484690348E+03  0.73021005619E+03  0.25500000920E-02 0. -1.
       -2    1    3    3    0  502 -0.23115333703E+03  0.42768763450E+03 -0.75337808632E+03  0.89661982962E+03  0.25500000920E-02 0.  1.
</event>
<event>
 5   0  0.3210612E-04  0.1606310E+04  0.7818609E-02  0.8816681E-01
       -2   -1    0    0    0  501  0.00000000000E+00  0.00000000000E+00  0.41175909831E+03  0.41175909832E+03  0.25500000920E-02 0.  1.
        2   -1    0    0  501    0  0.00000000000E+00  0.00000000000E+00 -0.15665904483E+04  0.15665904483E+04  0.25500000920E-02 0. -1.
    10030    2    1    2    0    0  0.00000000000E+00  0.00000000000E+00 -0.11548313500E+04  0.19783495466E+04  0.16063098959E+04 0.  0.
        2    1    3    3  502    0 -0.46750916351E+03 -0.54899489498E+03 -0.14180523265E+03  0.73489382682E+03  0.25500000920E-02 0.  1.
       -2    1    3    3    0  502  0.46750916351E+03  0.54899489498E+03 -0.10130261173E+04  0.12434557198E+04  0.25500000920E-02 0. -1.
</event>
<event>
 5   0  0.1787688E-04  0.1610436E+04  0.7818609E-02  0.8814163E-01
        1   -1    0    0  501    0  0.00000000000E+00  0.00000000000E+00  0.81687965143E+03  0.81687965145E+03  0.50400001928E-02 0.  1.
       -1   -1    0    0    0  501  0.00000000000E+00  0.00000000000E+00 -0.79372243472E+03  0.79372243473E+03  0.50400001928E-02 0. -1.
    10030    2    1    2    0    0  0.00000000000E+00  0.00000000000E+00  0.23157216718E+02  0.16106020862E+04  0.16104356005E+04 0.  0.
        4    1    3    3  502    0  0.69488022444E+03  0.25073144385E+03  0.33200103954E+03  0.80990807281E+03  0.12699999809E+01 0.  1.
       -4    1    3    3    0  502 -0.69488022444E+03 -0.25073144385E+03 -0.30884382282E+03  0.80069401337E+03  0.12699999809E+01 0. -1.
</event>
<event>
 5   0  0.3263294E-04  0.1598212E+04  0.7818609E-02  0.8821647E-01
        2   -1    0    0  501    0  0.00000000000E+00  0.00000000000E+00  0.15425766319E+04  0.15425766319E+04  0.25500000920E-02 0. -1.
       -2   -1    0    0    0  501  0.00000000000E+00  0.00000000000E+00 -0.41396352215E+03  0.41396352216E+03  0.25500000920E-02 0.  1.
    10030    2    1    2    0    0  0.00000000000E+00  0.00000000000E+00  0.11286131097E+04  0.19565401540E+04  0.15982120707E+04 0.  0.
        4    1    3    3  502    0 -0.13081803176E+03 -0.65075847880E+03  0.19612255096E+02  0.66406792470E+03  0.12699999809E+01 0.  1.
       -4    1    3    3    0  502  0.13081803176E+03  0.65075847880E+03  0.11090008546E+04  0.12924722293E+04  0.12699999809E+01 0. -1.
</event>
<event>
 5   0  0.1219463E-04  0.1605226E+04  0.7818609E-02  0.8817344E-01
        3   -1    0    0  501    0  0.00000000000E+00  0.00000000000E+00  0.13900230278E+04  0.13900230315E+04  0.10100000352E+00 0. -1.
       -3   -1    0    0    0  501  0.00000000000E+00  0.00000000000E+00 -0.46343688726E+03  0.46343689827E+03  0.10100000352E+00 0.  1.
    10030    2    1    2    0    0  0.00000000000E+00  0.00000000000E+00  0.92658614055E+03  0.18534599297E+04  0.16052264125E+04 0.  0.
        1    1    3    3  502    0  0.27718278557E+03  0.40242756176E+03  0.11984735761E+04  0.12942631694E+04  0.50400001928E-02 0. -1.
       -1    1    3    3    0  502 -0.27718278557E+03 -0.40242756176E+03 -0.27188743558E+03  0.55919676030E+03  0.50400001928E-02 0.  1.
</event>
<event>
 5   0  0.1219463E-04  0.1569326E+04  0.7818609E-02  0.8839617E-01
        3   -1    0    0  501    0  0.00000000000E+00  0.00000000000E+00  0.11337385754E+04  0.11337385799E+04  0.10100000352E+00 0. -1.
       -3   -1    0    0    0  501  0.00000000000E+00  0.00000000000E+00 -0.54306680301E+03  0.54306681240E+03  0.10100000352E+00 0.  1.
    10030    2    1    2    0    0  0.00000000000E+00  0.00000000000E+00  0.59067177242E+03  0.16768053923E+04  0.15693257090E+04 0.  0.
        2    1    3    3  502    0 -0.51043645998E+03  0.40855207732E+03 -0.16823960999E+03  0.67510350757E+03  0.25500000920E-02 0.  1.
       -2    1    3    3    0  502  0.51043645998E+03 -0.40855207732E+03  0.75891138241E+03  0.10017018848E+04  0.25500000920E-02 0. -1.
</event>
<event>
 5   0  0.1736537E-04  0.1584692E+04  0.7818609E-02  0.8830008E-01
        1   -1    0    0  501    0  0.00000000000E+00  0.00000000000E+00  0.10641695393E+04  0.10641695393E+04  0.50400001928E-02 0.  1.
       -1   -1    0    0    0  501  0.00000000000E+00  0.00000000000E+00 -0.58995472058E+03  0.58995472060E+03  0.50400001928E-02 0. -1.
    10030    2    1    2    0    0  0.00000000000E+00  0.00000000000E+00  0.47421481874E+03  0.16541242599E+04  0.15846915703E+04 0.  0.
        3    1    3    3  502    0  0.41960034682E+03 -0.66407821400E+02  0.93524493104E+03  0.10272086161E+04  0.10100000352E+00 0.  1.
       -3    1    3    3    0  502 -0.41960034682E+03  0.66407821400E+02 -0.46103011230E+03  0.62691564381E+03  0.10100000352E+00 0. -1.
</event>
<event>
 5   0  0.3210612E-04  0.1629262E+04  0.7818609E-02  0.8802770E-01
        2   -1    0    0  501    0  0.00000000000E+00  0.00000000000E+00  0.15165938249E+04  0.15165938249E+04  0.25500000920E-02 0. -1.
       -2   -1    0    0    0  501  0.00000000000E+00  0.00000000000E+00 -0.43757522890E+03  0.43757522891E+03  0.25500000920E-02 0.  1.
    10030    2    1    2    0    0  0.00000000000E+00  0.00000000000E+00  0.10790185960E+04  0.19541690539E+04  0.16292622749E+04 0.  0.
        2    1    3    3  502    0 -0.70278770934E+03  0.32376033949E+02  0.10320972295E+04  0.12490730415E+04  0.25500000920E-02 0. -1.
       -2    1    3    3    0  502  0.70278770934E+03 -0.32376033949E+02  0.46921366590E+02  0.70509601234E+03  0.25500000920E-02 0.  1.
</event>
<event>
 5   0  0.1819811E-04  0.1601802E+04  0.7818609E-02  0.8819442E-01
        1   -1    0    0  501    0  0.00000000000E+00  0.00000000000E+00  0.73884411459E+03  0.73884411461E+03  0.50400001928E-02 0. -1.
       -1   -1    0    0    0  501  0.00000000000E+00  0.00000000000E+00 -0.86817045807E+03  0.86817045808E+03  0.50400001928E-02 0.  1.
    10030    2    1    2    0    0  0.00000000000E+00  0.00000000000E+00 -0.12932634348E+03  0.16070145727E+04  0.16018022767E+04 0.  0.
        1    1    3    3  502    0  0.27701653423E+03  0.66983130354E+02 -0.81557567284E+03  0.86393783233E+03  0.50400001928E-02 0.  1.
       -1    1    3    3    0  502 -0.27701653423E+03 -0.66983130354E+02  0.68624932936E+03  0.74307674036E+03  0.50400001928E-02 0. -1.
</event>
<event>
 5   0  0.3210612E-04  0.1623147E+04  0.7818609E-02  0.8806453E-01
       -2   -1    0    0    0  501  0.00000000000E+00  0.00000000000E+00  0.77060866335E+03  0.77060866336E+03  0.25500000920E-02 0.  1.
        2   -1    0    0  501    0  0.00000000000E+00  0.00000000000E+00 -0.85471638327E+03  0.85471638327E+03  0.25500000920E-02 0. -1.
    10030    2    1    2    0    0  0.00000000000E+00  0.00000000000E+00 -0.84107719913E+02  0.16253250466E+04  0.16231473743E+04 0.  0.
        2    1    3    3  502    0  0.45917196543E+03 -0.49136175273E+03  0.41284252341E+03  0.78912243348E+03  0.25500000920E-02 0.  1.
       -2    1    3    3    0  502 -0.45917196543E+03  0.49136175273E+03 -0.49695024332E+03  0.83620261314E+03  0.25500000920E-02 0. -1.
</event>
<event>
 5   0  0.3210612E-04  0.1594997E+04  0.7818609E-02  0.8823627E-01
        2   -1    0    0  501    0  0.00000000000E+00  0.00000000000E+00  0.78677174124E+03  0.78677174125E+03  0.25500000920E-02 0. -1.
       -2   -1    0    0    0  501  0.00000000000E+00  0.00000000000E+00 -0.80837187295E+03  0.80837187296E+03  0.25500000920E-02 0.  1.
    10030    2    1    2    0    0  0.00000000000E+00  0.00000000000E+00 -0.21600131708E+02  0.15951436142E+04  0.15949973618E+04 0.  0.
        2    1    3    3  502    0 -0.11288454990E+03 -0.67797994018E+03 -0.41531759300E+03  0.80304945299E+03  0.25500000920E-02 0. -1.
       -2    1    3    3    0  502  0.11288454990E+03  0.67797994018E+03  0.39371746130E+03  0.79209416121E+03  0.25500000920E-02 0.  1.
</event>
<event>
 5   0  0.1736537E-04  0.1583444E+04  0.7818609E-02  0.8830784E-01
        1   -1    0    0  501    0  0.00000000000E+00  0.00000000000E+00  0.63627482901E+03  0.63627482903E+03  0.50400001928E-02 0. -1.
       -1   -1    0    0    0  501  0.00000000000E+00  0.00000000000E+00 -0.98514587118E+03  0.98514587119E+03  0.50400001928E-02 0.  1.
    10030    2    1    2    0    0  0.00000000000E+00  0.00000000000E+00 -0.34887104217E+03  0.16214207002E+04  0.15834437417E+04 0.  0.
        3    1    3    3  502    0  0.69222857694E+03  0.86956825327E+02  0.20881579119E+03  0.72824854072E+03  0.10100000352E+00 0. -1.
       -3    1    3    3    0  502 -0.69222857694E+03 -0.86956825327E+02 -0.55768683336E+03  0.89317215950E+03  0.10100000352E+00 0.  1.
</event>
<event>
 5   0  0.1819811E-04  0.1557191E+04  0.7818609E-02  0.8847288E-01
        1   -1    0    0  501    0  0.00000000000E+00  0.00000000000E+00  0.19218575574E+04  0.19218575574E+04  0.50400001928E-02 0.  1.
       -1   -1    0    0    0  501  0.00000000000E+00  0.00000000000E+00 -0.31542957936E+03  0.31542957940E+03  0.50400001928E-02 0. -1.
    10030    2    1    2    0    0  0.00000000000E+00  0.00000000000E+00  0.16064279781E+04  0.22372871368E+04  0.15571907025E+04 0.  0.
        1    1    3    3  502    0  0.65619774704E+01  0.59121829525E+03  0.75379817758E+02  0.59604047609E+03  0.50400001928E-02 0. -1.
       -1    1    3    3    0  502 -0.65619774704E+01 -0.59121829525E+03  0.15310481603E+04  0.16412466607E+04  0.50400001928E-02 0.  1.
</event>
<event>
 5   0  0.1736537E-04  0.1547317E+04  0.7818609E-02  0.8853583E-01
       -1   -1    0    0    0  501  0.00000000000E+00  0.00000000000E+00  0.59203842631E+03  0.59203842633E+03  0.50400001928E-02 0. -1.
        1   -1    0    0  501    0  0.00000000000E+00  0.00000000000E+00 -0.10109943202E+04  0.10109943202E+04  0.50400001928E-02 0.  1.
    10030    2    1    2    0    0  0.00000000000E+00  0.00000000000E+00 -0.41895589386E+03  0.16030327465E+04  0.15473170151E+04 0.  0.
        3    1    3    3  502    0  0.53313089510E+03 -0.56042016496E+03 -0.22579839517E+03  0.80578175585E+03  0.10100000352E+00 0. -1.
       -3    1    3    3    0  502 -0.53313089510E+03  0.56042016496E+03 -0.19315749868E+03  0.79725099065E+03  0.10100000352E+00 0.  1.
</event>
<event>
 5   0  0.1219463E-04  0.1600332E+04  0.7818609E-02  0.8820344E-01
        3   -1    0    0  501    0  0.00000000000E+00  0.00000000000E+00  0.13982752603E+04  0.13982752639E+04  0.10100000352E+00 0.  1.
       -3   -1    0    0    0  501  0.00000000000E+00  0.00000000000E+00 -0.45789652267E+03  0.45789653381E+03  0.10100000352E+00 0. -1.
    10030    2    1    2    0    0  0.00000000000E+00  0.00000000000E+00  0.94037873761E+03  0.18561717977E+04  0.16003317070E+04 0.  0.
        4    1    3    3  502    0 -0.94362189933E+02  0.14491626646E+03  0.13763407921E+04  0.13871627648E+04  0.12699999809E+01 0.  1.
       -4    1    3    3    0  502  0.94362189933E+02 -0.14491626646E+03 -0.43596205446E+03  0.46900903296E+03  0.12699999809E+01 0. -1.
</event>
<event>
 5   0  0.1787688E-04  0.1587558E+04  0.7818609E-02  0.8828228E-01
       -1   -1    0    0    0  501  0.00000000000E+00  0.00000000000E+00  0.30779617863E+03  0.30779617868E+03  0.50400001928E-02 0. -1.
        1   -1    0    0  501    0  0.00000000000E+00  0.00000000000E+00 -0.20470850068E+04  0.20470850068E+04  0.50400001928E-02 0.  1.
    10030    2    1    2    0    0  0.00000000000E+00  0.00000000000E+00 -0.17392888282E+04  0.23548811855E+04  0.15875578005E+04 0.  0.
        4    1    3    3  502    0 -0.53833597577E+03 -0.32199379988E+03 -0.14813049696E+03  0.64453850700E+03  0.12699999809E+01 0. -1.
       -4    1    3    3    0  502  0.53833597577E+03  0.32199379988E+03 -0.15911583312E+04  0.17103426785E+04  0.12699999809E+01 0.  1.
</event>
<event>
 5   0  0.1787688E-04  0.1593674E+04  0.7818609E-02  0.8824444E-01
        1   -1    0    0  501    0  0.00000000000E+00  0.00000000000E+00  0.18675464439E+04  0.18675464439E+04  0.50400001928E-02 0.  1.
       -1   -1    0    0    0  501  0.00000000000E+00  0.00000000000E+00 -0.33999123501E+03  0.33999123505E+03  0.50400001928E-02 0. -1.
    10030    2    1    2    0    0  0.00000000000E+00  0.00000000000E+00  0.15275552089E+04  0.22075376790E+04  0.15936742728E+04 0.  0.
        4    1    3    3  502    0  0.42742791669E+03  0.56831459747E+01  0.16952797766E+04  0.17483426598E+04  0.12699999809E+01 0.  1.
       -4    1    3    3    0  502 -0.42742791669E+03 -0.56831459747E+01 -0.16772456773E+03  0.45919501918E+03  0.12699999809E+01 0. -1.
</event>
<event>
 5   0  0.3228393E-04  0.1597768E+04  0.7818609E-02  0.8821920E-01
        2   -1    0    0  501    0  0.00000000000E+00  0.00000000000E+00  0.19179380897E+04  0.19179380897E+04  0.25500000920E-02 0.  1.
       -2   -1    0    0    0  501  0.00000000000E+00  0.00000000000E+00 -0.33276139238E+03  0.33276139239E+03  0.25500000920E-02 0. -1.
    10030    2    1    2    0    0  0.00000000000E+00  0.00000000000E+00  0.15851766973E+04  0.22506994821E+04  0.15977681299E+04 0.  0.
        1    1    3    3  502    0 -0.36147155344E+03  0.80638786786E+02  0.17897025897E+04  0.18276213113E+04  0.50400001928E-02 0.  1.
       -1    1    3    3    0  502  0.36147155344E+03 -0.80638786786E+02 -0.20452589242E+03  0.42307817076E+03  0.50400001928E-02 0. -1.
</event>
<event>
 5   0  0.3274900E-04  0.1607328E+04  0.7818609E-02  0.8816059E-01
       -2   -1    0    0    0  501  0.00000000000E+00  0.00000000000E+00  0.96652783942E+03  0.96652783942E+03  0.25500000920E-02 0.  1.
        2   -1    0    0  501    0  0.00000000000E+00  0.00000000000E+00 -0.66824296715E+03  0.66824296716E+03  0.25500000920E-02 0. -1.
    10030    2    1    2    0    0  0.00000000000E+00  0.00000000000E+00  0.29828487227E+03  0.16347708066E+04  0.16073275102E+04 0.  0.
        3    1    3    3  502    0 -0.36962114900E+03  0.67676724993E+03  0.37937371776E+03  0.85939404949E+03  0.10100000352E+00 0.  1.
       -3    1    3    3    0  502  0.36962114900E+03 -0.67676724993E+03 -0.81088845491E+02  0.77537675709E+03  0.10100000352E+00 0. -1.
</event>
<event>
 5   0  0.1219463E-04  0.1595765E+04  0.7818609E-02  0.8823154E-01
        3   -1    0    0  501    0  0.00000000000E+00  0.00000000000E+00  0.10672965251E+04  0.10672965299E+04  0.10100000352E+00 0. -1.
       -3   -1    0    0    0  501  0.00000000000E+00  0.00000000000E+00 -0.59647598955E+03  0.59647599810E+03  0.10100000352E+00 0.  1.
    10030    2    1    2    0    0  0.00000000000E+00  0.00000000000E+00  0.47082053556E+03  0.16637725280E+04  0.15957653487E+04 0.  0.
        2    1    3    3  502    0 -0.93896143525E+02  0.38612809215E+03 -0.48596138067E+03  0.62774983300E+03  0.25500000920E-02 0.  1.
       -2    1    3    3    0  502  0.93896143525E+02 -0.38612809215E+03  0.95678191623E+03  0.10360226950E+04  0.25500000920E-02 0. -1.
</event>
<event>
 5   0  0.3210612E-04  0.1595089E+04  0.7818609E-02  0.8823571E-01
       -2   -1    0    0    0  501  0.00000000000E+00  0.00000000000E+00  0.71376619131E+03  0.71376619131E+03  0.25500000920E-02 0.  1.
        2   -1    0    0  501    0  0.00000000000E+00  0.00000000000E+00 -0.89115662417E+03  0.89115662417E+03  0.25500000920E-02 0. -1.
    10030    2    1    2    0    0  0.00000000000E+00  0.00000000000E+00 -0.17739043286E+03  0.16049228155E+04  0.15950893009E+04 0.  0.
        2    1    3    3  502    0 -0.30974745043E+03 -0.70973238163E+03 -0.28069597422E+03  0.82368304981E+03  0.25500000920E-02 0. -1.
       -2    1    3    3    0  502  0.30974745043E+03  0.70973238163E+03  0.10330554137E+03  0.78123976568E+03  0.25500000920E-02 0.  1.
</event>
<event>
 5   0  0.3263294E-04  0.1596150E+04  0.7818609E-02  0.8822917E-01
       -2   -1    0    0    0  501  0.00000000000E+00  0.00000000000E+00  0.47828177678E+03  0.47828177679E+03  0.25500000920E-02 0. -1.
        2   -1    0    0  501    0  0.00000000000E+00  0.00000000000E+00 -0.13316915594E+04  0.13316915594E+04  0.25500000920E-02 0.  1.
    10030    2    1    2    0    0  0.00000000000E+00  0.00000000000E+00 -0.85340978259E+03  0.18099733362E+04  0.15961501247E+04 0.  0.
        4    1    3    3  502    0  0.64721349264E+03 -0.33314282459E+03 -0.55684869997E+02  0.73004922045E+03  0.12699999809E+01 0. -1.
       -4    1    3    3    0  502 -0.64721349264E+03  0.33314282459E+03 -0.79772491260E+03  0.10799241157E+04  0.12699999809E+01 0.  1.
</event>
<event>
 5   0  0.1787688E-04  0.1580277E+04  0.7818609E-02  0.8832757E-01
       -1   -1    0    0    0  501  0.00000000000E+00  0.00000000000E+00  0.57852970665E+03  0.57852970668E+03  0.50400001928E-02 0. -1.
        1   -1    0    0  501    0  0.00000000000E+00  0.00000000000E+00 -0.10791469012E+04  0.10791469012E+04  0.50400001928E-02 0.  1.
    10030    2    1    2    0    0  0.00000000000E+00  0.00000000000E+00 -0.50061719451E+03  0.16576766079E+04  0.15802766089E+04 0.  0.
        4    1    3    3  502    0  0.50305964909E+03  0.58836149251E+03 -0.84189732178E+02  0.77867052102E+03  0.12699999809E+01 0. -1.
       -4    1    3    3    0  502 -0.50305964909E+03 -0.58836149251E+03 -0.41642746233E+03  0.87900608683E+03  0.12699999809E+01 0.  1.
</event>
<event>
 5   0  0.3380454E-04  0.1592718E+04  0.7818609E-02  0.8825034E-01
        2   -1    0    0  501    0  0.00000000000E+00  0.00000000000E+00  0.83232670862E+03  0.83232670862E+03  0.25500000920E-02 0. -1.
       -2   -1    0    0    0  501  0.00000000000E+00  0.00000000000E+00 -0.76194568418E+03  0.76194568419E+03  0.25500000920E-02 0.  1.
    10030    2    1    2    0    0  0.00000000000E+00  0.00000000000E+00  0.70381024431E+02  0.15942723928E+04  0.15927181087E+04 0.  0.
        5    1    3    3  502    0  0.51596538904E+03 -0.51458064771E+03 -0.28629596015E+03  0.78294379906E+03  0.46999998093E+01 0.  1.
       -5    1    3    3    0  502 -0.51596538904E+03  0.51458064771E+03  0.35667698459E+03  0.81132859374E+03  0.46999998093E+01 0. -1.
</event>
<event>
 5   0  0.3228393E-04  0.1602811E+04  0.7818609E-02  0.8818823E-01
       -2   -1    0    0    0  501  0.00000000000E+00  0.00000000000E+00  0.34074879331E+03  0.34074879332E+03  0.25500000920E-02 0. -1.
        2   -1    0    0  501    0  0.00000000000E+00  0.00000000000E+00 -0.18848228820E+04  0.18848228820E+04  0.25500000920E-02 0.  1.
    10030    2    1    2    0    0  0.00000000000E+00  0.00000000000E+00 -0.15440740887E+04  0.22255716753E+04  0.16028114333E+04 0.  0.
        1    1    3    3  502    0  0.47156642034E+03  0.18075998003E+03  0.91991291225E+02  0.51333367010E+03  0.50400001928E-02 0. -1.
       -1    1    3    3    0  502 -0.47156642034E+03 -0.18075998003E+03 -0.16360653799E+04  0.17122380052E+04  0.50400001928E-02 0.  1.
</event>
<event>
 5   0  0.1787688E-04  0.1599583E+04  0.7818609E-02  0.8820804E-01
        1   -1    0    0  501    0  0.00000000000E+00  0.00000000000E+00  0.91514508639E+03  0.91514508640E+03  0.50400001928E-02 0.  1.
       -1   -1    0    0    0  501  0.00000000000E+00  0.00000000000E+00 -0.69897795120E+03  0.69897795122E+03  0.50400001928E-02 0. -1.
    10030    2    1    2    0    0  0.00000000000E+00  0.00000000000E+00  0.21616713519E+03  0.16141230376E+04  0.15995827425E+04 0.  0.
        4    1    3    3  502    0  0.15122952537E+03  0.63917523710E+02 -0.68178891991E+03  0.70127994652E+03  0.12699999809E+01 0. -1.
       -4    1    3    3    0  502 -0.15122952537E+03 -0.63917523710E+02  0.89795605510E+03  0.91284309110E+03  0.12699999809E+01 0.  1.
</event>
<event>
 5   0  0.1736537E-04  0.1571636E+04  0.7818609E-02  0.8838165E-01
       -1   -1    0    0    0  501  0.00000000000E+00  0.00000000000E+00  0.89155488002E+03  0.89155488004E+03  0.50400001928E-02 0. -1.
        1   -1    0    0  501    0  0.00000000000E+00  0.00000000000E+00 -0.69262131949E+03  0.69262131951E+03  0.50400001928E-02 0.  1.
    10030    2    1    2    0    0  0.00000000000E+00  0.00000000000E+00  0.19893356053E+03  0.15841761995E+04  0.15716359851E+04 0.  0.
        3    1    3    3  502    0 -0.15053521522E+03  0.34710632915E+03 -0.59477126900E+03  0.70490887878E+03  0.10100000352E+00 0.  1.
       -3    1    3    3    0  502  0.15053521522E+03 -0.34710632915E+03  0.79370482952E+03  0.87926732077E+03  0.10100000352E+00 0. -1.
</event>
<event>
 5   0  0.3263294E-04  0.1599616E+04  0.7818609E-02  0.8820784E-01
       -2   -1    0    0    0  501  0.00000000000E+00  0.00000000000E+00  0.38403076315E+03  0.38403076315E+03  0.25500000920E-02 0.  1.
        2   -1    0    0  501    0  0.00000000000E+00  0.00000000000E+00 -0.16657341250E+04  0.16657341250E+04  0.25500000920E-02 0. -1.
    10030    2    1    2    0    0  0.00000000000E+00  0.00000000000E+00 -0.12817033619E+04  0.20497648882E+04  0.15996163881E+04 0.  0.
        4    1    3    3  502    0 -0.59534518840E+03  0.34001451300E+02  0.42152672291E+02  0.59780469446E+03  0.12699999809E+01 0.  1.
       -4    1    3    3    0  502  0.59534518840E+03 -0.34001451300E+02 -0.13238560342E+04  0.14519601937E+04  0.12699999809E+01 0. -1.
</event>
<event>
 5   0  0.3274900E-04  0.1602682E+04  0.7818609E-02  0.8818902E-01
        2   -1    0    0  501    0  0.00000000000E+00  0.00000000000E+00  0.12875792866E+04  0.12875792866E+04  0.25500000920E-02 0.  1.
       -2   -1    0    0    0  501  0.00000000000E+00  0.00000000000E+00 -0.49872470763E+03  0.49872470764E+03  0.25500000920E-02 0. -1.
    10030    2    1    2    0    0  0.00000000000E+00  0.00000000000E+00  0.78885457898E+03  0.17863039943E+04  0.16026822558E+04 0.  0.
        3    1    3    3  502    0  0.80468542374E+02 -0.34427435569E+03 -0.40709422991E+03  0.53918989282E+03  0.10100000352E+00 0. -1.
       -3    1    3    3    0  502 -0.80468542374E+02  0.34427435569E+03  0.11959488089E+04  0.12471141014E+04  0.10100000352E+00 0.  1.
</event>
<event>
 5   0  0.3210612E-04  0.1576289E+04  0.7818609E-02  0.8835249E-01
        2   -1    0    0  501    0  0.00000000000E+00  0.00000000000E+00  0.18337240202E+04  0.18337240202E+04  0.25500000920E-02 0.  1.
       -2   -1    0    0    0  501  0.00000000000E+00  0.00000000000E+00 -0.33874855996E+03  0.33874855997E+03  0.25500000920E-02 0. -1.
    10030    2    1    2    0    0  0.00000000000E+00  0.00000000000E+00  0.14949754602E+04  0.21724725801E+04  0.15762885157E+04 0.  0.
        2    1    3    3  502    0 -0.56965362070E+03 -0.42712972244E+03  0.28168536182E+03  0.76569686589E+03  0.25500000920E-02 0. -1.
       -2    1    3    3    0  502  0.56965362070E+03  0.42712972244E+03  0.12132900984E+04  0.14067757142E+04  0.25500000920E-02 0.  1.
</event>
<event>
 5   0  0.3210612E-04  0.1602409E+04  0.7818609E-02  0.8819069E-01
        2   -1    0    0  501    0  0.00000000000E+00  0.00000000000E+00  0.12248110347E+04  0.12248110347E+04  0.25500000920E-02 0.  1.
       -2   -1    0    0    0  501  0.00000000000E+00  0.00000000000E+00 -0.52410421294E+03  0.52410421295E+03  0.25500000920E-02 0. -1.
    10030    2    1    2    0    0  0.00000000000E+00  0.00000000000E+00  0.70070682173E+03  0.17489152476E+04  0.16024089657E+04 0.  0.
        2    1    3    3  502    0  0.30793673460E+03  0.48628650856E+03 -0.25794462309E+03  0.63074165037E+03  0.25500000920E-02 0. -1.
       -2    1    3    3    0  502 -0.30793673460E+03 -0.48628650856E+03  0.95865144482E+03  0.11181735973E+04  0.25500000920E-02 0.  1.
</event>
<event>
 5   0  0.3263294E-04  0.1512798E+04  0.7818609E-02  0.8875987E-01
       -2   -1    0    0    0  501  0.00000000000E+00  0.00000000000E+00  0.58508572912E+03  0.58508572912E+03  0.25500000920E-02 0. -1.
        2   -1    0    0  501    0  0.00000000000E+00  0.00000000000E+00 -0.97787243236E+03  0.97787243236E+03  0.25500000920E-02 0.  1.
    10030    2    1    2    0    0  0.00000000000E+00  0.00000000000E+00 -0.39278670324E+03  0.15629581615E+04  0.15127976799E+04 0.  0.
        4    1    3    3  502    0  0.75519639440E+03 -0.31190232806E+02 -0.16639320221E+03  0.77393974919E+03  0.12699999809E+01 0.  1.
       -4    1    3    3    0  502 -0.75519639440E+03  0.31190232806E+02 -0.22639350103E+03  0.78901841230E+03  0.12699999809E+01 0. -1.
</event>
<event>
 5   0  0.3380454E-04  0.1604146E+04  0.7818609E-02  0.8818005E-01
       -2   -1    0    0    0  501  0.00000000000E+00  0.00000000000E+00  0.99035628078E+03  0.99035628079E+03  0.25500000920E-02 0.  1.
        2   -1    0    0  501    0  0.00000000000E+00  0.00000000000E+00 -0.64958552782E+03  0.64958552783E+03  0.25500000920E-02 0. -1.
    10030    2    1    2    0    0  0.00000000000E+00  0.00000000000E+00  0.34077075296E+03  0.16399418086E+04  0.16041460125E+04 0.  0.
        5    1    3    3  502    0 -0.64889917174E+03 -0.54121757104E+02 -0.30835888151E+03  0.72049052005E+03  0.46999998093E+01 0. -1.
       -5    1    3    3    0  502  0.64889917174E+03  0.54121757104E+02  0.64912963447E+03  0.91945128856E+03  0.46999998093E+01 0.  1.
</event>
<event>
 5   0  0.3380454E-04  0.1585154E+04  0.7818609E-02  0.8829721E-01
        2   -1    0    0  501    0  0.00000000000E+00  0.00000000000E+00  0.11666731085E+04  0.11666731085E+04  0.25500000920E-02 0. -1.
       -2   -1    0    0    0  501  0.00000000000E+00  0.00000000000E+00 -0.53843539955E+03  0.53843539956E+03  0.25500000920E-02 0.  1.
    10030    2    1    2    0    0  0.00000000000E+00  0.00000000000E+00  0.62823770897E+03  0.17051085081E+04  0.15851537482E+04 0.  0.
        5    1    3    3  502    0 -0.12249331721E+03  0.16405105186E+03 -0.50948401985E+03  0.54910237375E+03  0.46999998093E+01 0.  1.
       -5    1    3    3    0  502  0.12249331721E+03 -0.16405105186E+03  0.11377217288E+04  0.11560061343E+04  0.46999998093E+01 0. -1.
</event>
<event>
 5   0  0.3274900E-04  0.1589838E+04  0.7818609E-02  0.8826815E-01
       -2   -1    0    0    0  501  0.00000000000E+00  0.00000000000E+00  0.62723918641E+03  0.62723918641E+03  0.25500000920E-02 0. -1.
        2   -1    0    0  501    0  0.00000000000E+00  0.00000000000E+00 -0.10074248693E+04  0.10074248693E+04  0.25500000920E-02 0.  1.
    10030    2    1    2    0    0  0.00000000000E+00  0.00000000000E+00 -0.38018568287E+03  0.16346640557E+04  0.15898381746E+04 0.  0.
        3    1    3    3  502    0 -0.39564757184E+03  0.14195414442E+03 -0.88380724090E+03  0.97867422031E+03  0.10100000352E+00 0.  1.
       -3    1    3    3    0  502  0.39564757184E+03 -0.14195414442E+03  0.50362155803E+03  0.65598983539E+03  0.10100000352E+00 0. -1.
</event>
<event>
 5   0  0.1819811E-04  0.1613369E+04  0.7818609E-02  0.8812377E-01
       -1   -1    0    0    0  501  0.00000000000E+00  0.00000000000E+00  0.56428640703E+03  0.56428640705E+03  0.50400001928E-02 0. -1.
        1   -1    0    0  501    0  0.00000000000E+00  0.00000000000E+00 -0.11532083012E+04  0.11532083012E+04  0.50400001928E-02 0.  1.
    10030    2    1    2    0    0  0.00000000000E+00  0.00000000000E+00 -0.58892189419E+03  0.17174947083E+04  0.16133688591E+04 0.  0.
        1    1    3    3  502    0  0.34060536932E+03 -0.44567468547E+03 -0.91162009901E+03  0.10703686971E+04  0.50400001928E-02 0.  1.
       -1    1    3    3    0  502 -0.34060536932E+03  0.44567468547E+03  0.32269820481E+03  0.64712601114E+03  0.50400001928E-02 0. -1.
</event>
<event>
 5   0  0.1819811E-04  0.1599046E+04  0.7818609E-02  0.8821134E-01
        1   -1    0    0  501    0  0.00000000000E+00  0.00000000000E+00  0.82194922923E+03  0.82194922925E+03  0.50400001928E-02 0.  1.
       -1   -1    0    0    0  501  0.00000000000E+00  0.00000000000E+00 -0.77770890431E+03  0.77770890433E+03  0.50400001928E-02 0. -1.
    10030    2    1    2    0    0  0.00000000000E+00  0.00000000000E+00  0.44240324918E+02  0.15996581336E+04  0.15990462589E+04 0.  0.
        1    1    3    3  502    0  0.51526275706E+03 -0.13642997106E+03 -0.57403436470E+03  0.78334175026E+03  0.50400001928E-02 0. -1.
       -1    1    3    3    0  502 -0.51526275706E+03  0.13642997106E+03  0.61827468962E+03  0.81631638331E+03  0.50400001928E-02 0.  1.
</event>
<event>
 5   0  0.3210612E-04  0.1596594E+04  0.7818609E-02  0.8822643E-01
        2   -1    0    0  501    0  0.00000000000E+00  0.00000000000E+00  0.11652518931E+04  0.11652518931E+04  0.25500000920E-02 0. -1.
       -2   -1    0    0    0  501  0.00000000000E+00  0.00000000000E+00 -0.54690171803E+03  0.54690171803E+03  0.25500000920E-02 0.  1.
    10030    2    1    2    0    0  0.00000000000E+00  0.00000000000E+00  0.61835017508E+03  0.17121536111E+04  0.15965942030E+04 0.  0.
        2    1    3    3  502    0 -0.69054048589E+03  0.21244645485E+02  0.73810078112E+03  0.10109847975E+04  0.25500000920E-02 0. -1.
       -2    1    3    3    0  502  0.69054048589E+03 -0.21244645485E+02 -0.11975060604E+03  0.70116881368E+03  0.25500000920E-02 0.  1.
</event>
<event>
 5   0  0.3263294E-04  0.1605353E+04  0.7818609E-02  0.8817266E-01
        2   -1    0    0  501    0  0.00000000000E+00  0.00000000000E+00  0.34758589231E+03  0.34758589232E+03  0.25500000920E-02 0. -1.
       -2   -1    0    0    0  501  0.00000000000E+00  0.00000000000E+00 -0.18536125667E+04  0.18536125667E+04  0.25500000920E-02 0.  1.
    10030    2    1    2    0    0  0.00000000000E+00  0.00000000000E+00 -0.15060266744E+04  0.22011984590E+04  0.16053530179E+04 0.  0.
        4    1    3    3  502    0 -0.37458382178E+03  0.62588198694E+03 -0.12123968162E+04  0.14149024539E+04  0.12699999809E+01 0.  1.
       -4    1    3    3    0  502  0.37458382178E+03 -0.62588198694E+03 -0.29362985811E+03  0.78629600507E+03  0.12699999809E+01 0. -1.
</event>
<event>
 5   0  0.1764099E-04  0.1589738E+04  0.7818609E-02  0.8826877E-01
        1   -1    0    0  501    0  0.00000000000E+00  0.00000000000E+00  0.88620362749E+03  0.88620362750E+03  0.50400001928E-02 0. -1.
       -1   -1    0    0    0  501  0.00000000000E+00  0.00000000000E+00 -0.71294801166E+03  0.71294801168E+03  0.50400001928E-02 0.  1.
    10030    2    1    2    0    0  0.00000000000E+00  0.00000000000E+00  0.17325561583E+03  0.15991516392E+04  0.15897384869E+04 0.  0.
        5    1    3    3  502    0  0.34106844598E+03  0.29118631472E+03  0.74677417421E+03  0.87109753300E+03  0.46999998093E+01 0. -1.
       -5    1    3    3    0  502 -0.34106844598E+03 -0.29118631472E+03 -0.57351855838E+03  0.72805410618E+03  0.46999998093E+01 0.  1.
</event>
<event>
 5   0  0.3263294E-04  0.1627766E+04  0.7818609E-02  0.8803669E-01
       -2   -1    0    0    0  501  0.00000000000E+00  0.00000000000E+00  0.78116454359E+03  0.78116454359E+03  0.25500000920E-02 0. -1.
        2   -1    0    0  501    0  0.00000000000E+00  0.00000000000E+00 -0.84797223559E+03  0.84797223559E+03  0.25500000920E-02 0.  1.
    10030    2    1    2    0    0  0.00000000000E+00  0.00000000000E+00 -0.66807692004E+02  0.16291367792E+04  0.16277663768E+04 0.  0.
        4    1    3    3  502    0  0.49582046390E+03  0.17121800983E+03  0.58941475731E+03  0.78902782482E+03  0.12699999809E+01 0. -1.
       -4    1    3    3    0  502 -0.49582046390E+03 -0.17121800983E+03 -0.65622244932E+03  0.84010895436E+03  0.12699999809E+01 0.  1.
</event>
<event>
 5   0  0.1764099E-04  0.1617317E+04  0.7818609E-02  0.8809980E-01
       -1   -1    0    0    0  501  0.00000000000E+00  0.00000000000E+00  0.34436041374E+03  0.34436041378E+03  0.50400001928E-02 0. -1.
        1   -1    0    0  501    0  0.00000000000E+00  0.00000000000E+00 -0.18989649799E+04  0.18989649799E+04  0.50400001928E-02 0.  1.
    10030    2    1    2    0    0  0.00000000000E+00  0.00000000000E+00 -0.15546045662E+04  0.22433253937E+04  0.16173167485E+04 0.  0.
        5    1    3    3  502    0 -0.62308698915E+03 -0.28078056855E+03 -0.17775721490E+03  0.70618329148E+03  0.46999998093E+01 0.  1.
       -5    1    3    3    0  502  0.62308698915E+03  0.28078056855E+03 -0.13768473513E+04  0.15371421022E+04  0.46999998093E+01 0. -1.
</event>
<event>
 5   0  0.1787688E-04  0.1606185E+04  0.7818609E-02  0.8816757E-01
       -1   -1    0    0    0  501  0.00000000000E+00  0.00000000000E+00  0.34219972699E+03  0.34219972703E+03  0.50400001928E-02 0.  1.
        1   -1    0    0  501    0  0.00000000000E+00  0.00000000000E+00 -0.18847397933E+04  0.18847397933E+04  0.50400001928E-02 0. -1.
    10030    2    1    2    0    0  0.00000000000E+00  0.00000000000E+00 -0.15425400663E+04  0.22269395204E+04  0.16061848496E+04 0.  0.
        4    1    3    3  502    0 -0.27081953320E+03  0.18552241181E+03 -0.17874683993E+04  0.18173625605E+04  0.12699999809E+01 0. -1.
       -4    1    3    3    0  502  0.27081953320E+03 -0.18552241181E+03  0.24492833298E+03  0.40957695986E+03  0.12699999809E+01 0.  1.
</event>
<event>
 5   0  0.1819811E-04  0.1601285E+04  0.7818609E-02  0.8819759E-01
        1   -1    0    0  501    0  0.00000000000E+00  0.00000000000E+00  0.12369908642E+04  0.12369908642E+04  0.50400001928E-02 0. -1.
       -1   -1    0    0    0  501  0.00000000000E+00  0.00000000000E+00 -0.51821575061E+03  0.51821575063E+03  0.50400001928E-02 0.  1.
    10030    2    1    2    0    0  0.00000000000E+00  0.00000000000E+00  0.71877511358E+03  0.17552066148E+04  0.16012846708E+04 0.  0.
        1    1    3    3  502    0  0.36828622302E+03  0.58102120330E+03 -0.89632491082E+02  0.69372499179E+03  0.50400001928E-02 0.  1.
       -1    1    3    3    0  502 -0.36828622302E+03 -0.58102120330E+03  0.80840760466E+03  0.10614816230E+04  0.50400001928E-02 0. -1.
</event>
<event>
 5   0  0.1819811E-04  0.1598714E+04  0.7818609E-02  0.8821338E-01
        1   -1    0    0  501    0  0.00000000000E+00  0.00000000000E+00  0.45737191903E+03  0.45737191905E+03  0.50400001928E-02 0. -1.
       -1   -1    0    0    0  501  0.00000000000E+00  0.00000000000E+00 -0.13970503100E+04  0.13970503100E+04  0.50400001928E-02 0.  1.
    10030    2    1    2    0    0  0.00000000000E+00  0.00000000000E+00 -0.93967839097E+03  0.18544222291E+04  0.15987139598E+04 0.  0.
        1    1    3    3  502    0 -0.58682054790E+03  0.21327864812E+02 -0.10989518866E+04  0.12459969833E+04  0.50400001928E-02 0.  1.
       -1    1    3    3    0  502  0.58682054790E+03 -0.21327864812E+02  0.15927349563E+03  0.60842524578E+03  0.50400001928E-02 0. -1.
</event>
<event>
 5   0  0.1819811E-04  0.1607968E+04  0.7818609E-02  0.8815668E-01
        1   -1    0    0  501    0  0.00000000000E+00  0.00000000000E+00  0.18283880720E+04  0.18283880720E+04  0.50400001928E-02 0.  1.
       -1   -1    0    0    0  501  0.00000000000E+00  0.00000000000E+00 -0.35352999875E+03  0.35352999879E+03  0.50400001928E-02 0. -1.
    10030    2    1    2    0    0  0.00000000000E+00  0.00000000000E+00  0.14748580733E+04  0.21819180708E+04  0.16079677023E+04 0.  0.
        1    1    3    3  502    0  0.59439549850E+03 -0.50110692053E+03  0.10154394187E+04  0.12788789495E+04  0.50400001928E-02 0.  1.
       -1    1    3    3    0  502 -0.59439549850E+03  0.50110692053E+03  0.45941865461E+03  0.90303912134E+03  0.50400001928E-02 0. -1.
</event>
<event>
 5   0  0.1219463E-04  0.1470677E+04  0.7818609E-02  0.8904190E-01
       -4   -1    0    0    0  501  0.00000000000E+00  0.00000000000E+00  0.58273517171E+03  0.58273655562E+03  0.12699999809E+01 0. -1.
        4   -1    0    0  501    0  0.00000000000E+00  0.00000000000E+00 -0.92790181819E+03  0.92790268730E+03  0.12699999809E+01 0.  1.
    10030    2    1    2    0    0  0.00000000000E+00  0.00000000000E+00 -0.34516664647E+03  0.15106392429E+04  0.14706770238E+04 0.  0.
        5    1    3    3  502    0 -0.57111743797E+03 -0.12123848243E+03  0.28658324114E+03  0.65040444469E+03  0.46999998093E+01 0. -1.
       -5    1    3    3    0  502  0.57111743797E+03  0.12123848243E+03 -0.63174988762E+03  0.86023479822E+03  0.46999998093E+01 0.  1.
</event>
<event>
 5   0  0.1764099E-04  0.1604347E+04  0.7818609E-02  0.8817882E-01
        1   -1    0    0  501    0  0.00000000000E+00  0.00000000000E+00  0.58283538273E+03  0.58283538275E+03  0.50400001928E-02 0.  1.
       -1   -1    0    0    0  501  0.00000000000E+00  0.00000000000E+00 -0.11040551204E+04  0.11040551205E+04  0.50400001928E-02 0. -1.
    10030    2    1    2    0    0  0.00000000000E+00  0.00000000000E+00 -0.52121973772E+03  0.16868905032E+04  0.16043470805E+04 0.  0.
        5    1    3    3  502    0  0.25604602492E+03 -0.15043626199E+02  0.53854349867E+03  0.59652080225E+03  0.46999998093E+01 0.  1.
       -5    1    3    3    0  502 -0.25604602492E+03  0.15043626199E+02 -0.10597632364E+04  0.10903697010E+04  0.46999998093E+01 0. -1.
</event>
<event>
 5   0  0.3274900E-04  0.1593090E+04  0.7818609E-02  0.8824804E-01
        2   -1    0    0  501    0  0.00000000000E+00  0.00000000000E+00  0.19444743113E+04  0.19444743113E+04  0.25500000920E-02 0.  1.
       -2   -1    0    0    0  501  0.00000000000E+00  0.00000000000E+00 -0.32630110874E+03  0.32630110875E+03  0.25500000920E-02 0. -1.
    10030    2    1    2    0    0  0.00000000000E+00  0.00000000000E+00  0.16181732026E+04  0.22707754201E+04  0.15930902344E+04 0.  0.
        3    1    3    3  502    0  0.63616459231E+03 -0.46917622399E+03  0.66904683698E+03  0.10355942246E+04  0.10100000352E+00 0. -1.
       -3    1    3    3    0  502 -0.63616459231E+03  0.46917622399E+03  0.94912636560E+03  0.12351811955E+04  0.10100000352E+00 0.  1.
</event>
<event>
 5   0  0.1736537E-04  0.1606295E+04  0.7818609E-02  0.8816690E-01
       -1   -1    0    0    0  501  0.00000000000E+00  0.00000000000E+00  0.11024423499E+04  0.11024423499E+04  0.50400001928E-02 0. -1.
        1   -1    0    0  501    0  0.00000000000E+00  0.00000000000E+00 -0.58510636543E+03  0.58510636546E+03  0.50400001928E-02 0.  1.
    10030    2    1    2    0    0  0.00000000000E+00  0.00000000000E+00  0.51733598445E+03  0.16875487154E+04  0.16062951615E+04 0.  0.
        3    1    3    3  502    0  0.17442990971E+03  0.15612448535E+03  0.10658050084E+04  0.10912107837E+04  0.10100000352E+00 0. -1.
       -3    1    3    3    0  502 -0.17442990971E+03 -0.15612448535E+03 -0.54846902394E+03  0.59633793167E+03  0.10100000352E+00 0.  1.
</event>
<event>
 5   0  0.1761255E-04  0.1601786E+04  0.7818609E-02  0.8819452E-01
        1   -1    0    0  501    0  0.00000000000E+00  0.00000000000E+00  0.10894851537E+04  0.10894851537E+04  0.50400001928E-02 0. -1.
       -1   -1    0    0    0  501  0.00000000000E+00  0.00000000000E+00 -0.58874544566E+03  0.58874544568E+03  0.50400001928E-02 0.  1.
    10030    2    1    2    0    0  0.00000000000E+00  0.00000000000E+00  0.50073970803E+03  0.16782305994E+04  0.16017857814E+04 0.  0.
        2    1    3    3  502    0  0.44526089338E+03 -0.63501388495E+03  0.45973012591E+03  0.90158287802E+03  0.25500000920E-02 0. -1.
       -2    1    3    3    0  502 -0.44526089338E+03  0.63501388495E+03  0.41009582119E+02  0.77664772136E+03  0.25500000920E-02 0.  1.
</event>
<event>
 5   0  0.3380454E-04  0.1612638E+04  0.7818609E-02  0.8812821E-01
        2   -1    0    0  501    0  0.00000000000E+00  0.00000000000E+00  0.10609586791E+04  0.10609586791E+04  0.25500000920E-02 0. -1.
       -2   -1    0    0    0  501  0.00000000000E+00  0.00000000000E+00 -0.61279538620E+03  0.61279538621E+03  0.25500000920E-02 0.  1.
    10030    2    1    2    0    0  0.00000000000E+00  0.00000000000E+00  0.44816329292E+03  0.16737540653E+04  0.16126383147E+04 0.  0.
        5    1    3    3  502    0 -0.20667313118E+03  0.22967454941E+03 -0.54890106847E+03  0.62990368690E+03  0.46999998093E+01 0.  1.
       -5    1    3    3    0  502  0.20667313118E+03 -0.22967454941E+03  0.99706436139E+03  0.10438503784E+04  0.46999998093E+01 0. -1.
</event>
<event>
 5   0  0.3274900E-04  0.1595955E+04  0.7818609E-02  0.8823037E-01
       -2   -1    0    0    0  501  0.00000000000E+00  0.00000000000E+00  0.13483543930E+04  0.13483543930E+04  0.25500000920E-02 0. -1.
        2   -1    0    0  501    0  0.00000000000E+00  0.00000000000E+00 -0.47225593741E+03  0.47225593742E+03  0.25500000920E-02 0.  1.
    10030    2    1    2    0    0  0.00000000000E+00  0.00000000000E+00  0.87609845558E+03  0.18206103304E+04  0.15959553475E+04 0.  0.
        3    1    3    3  502    0  0.31702230217E+03 -0.53160035266E+03  0.10125989760E+04  0.11867850569E+04  0.10100000352E+00 0. -1.
       -3    1    3    3    0  502 -0.31702230217E+03  0.53160035266E+03 -0.13650052040E+03  0.63382527347E+03  0.10100000352E+00 0.  1.
</event>
<event>
 5   0  0.1819811E-04  0.1605229E+04  0.7818609E-02  0.8817342E-01
        1   -1    0    0  501    0  0.00000000000E+00  0.00000000000E+00  0.11649418396E+04  0.11649418396E+04  0.50400001928E-02 0.  1.
       -1   -1    0    0    0  501  0.00000000000E+00  0.00000000000E+00 -0.55298060752E+03  0.55298060755E+03  0.50400001928E-02 0. -1.
    10030    2    1    2    0    0  0.00000000000E+00  0.00000000000E+00  0.61196123208E+03  0.17179224472E+04  0.16052292624E+04 0.  0.
        1    1    3    3  502    0 -0.76513411062E+03  0.19140949324E+03  0.46515861723E+03  0.91566387968E+03  0.50400001928E-02 0. -1.
       -1    1    3    3    0  502  0.76513411062E+03 -0.19140949324E+03  0.14680261486E+03  0.80225856748E+03  0.50400001928E-02 0.  1.
</event>
<event>
 5   0  0.3263294E-04  0.1595407E+04  0.7818609E-02  0.8823375E-01
       -2   -1    0    0    0  501  0.00000000000E+00  0.00000000000E+00  0.11685354714E+04  0.11685354714E+04  0.25500000920E-02 0. -1.
        2   -1    0    0  501    0  0.00000000000E+00  0.00000000000E+00 -0.54455417273E+03  0.54455417273E+03  0.25500000920E-02 0.  1.
    10030    2    1    2    0    0  0.00000000000E+00  0.00000000000E+00  0.62398129869E+03  0.17130896442E+04  0.15954069913E+04 0.  0.
        4    1    3    3  502    0  0.26574997144E+02  0.39472180068E+03 -0.43179319676E+03  0.58562659441E+03  0.12699999809E+01 0.  1.
       -4    1    3    3    0  502 -0.26574997144E+02 -0.39472180068E+03  0.10557744955E+04  0.11274630498E+04  0.12699999809E+01 0. -1.
</event>
<event>
 5   0  0.3228393E-04  0.1611461E+04  0.7818609E-02  0.8813538E-01
        2   -1    0    0  501    0  0.00000000000E+00  0.00000000000E+00  0.57655661098E+03  0.57655661099E+03  0.25500000920E-02 0.  1.
       -2   -1    0    0    0  501  0.00000000000E+00  0.00000000000E+00 -0.11259984233E+04  0.11259984233E+04  0.25500000920E-02 0. -1.
    10030    2    1    2    0    0  0.00000000000E+00  0.00000000000E+00 -0.54944181229E+03  0.17025550343E+04  0.16114612436E+04 0.  0.
        1    1    3    3  502    0  0.75649401230E+03 -0.15305112145E+03 -0.51908299257E+03  0.93013708109E+03  0.50400001928E-02 0. -1.
       -1    1    3    3    0  502 -0.75649401230E+03  0.15305112145E+03 -0.30358819717E+02  0.77241795317E+03  0.50400001928E-02 0.  1.
</event>
<event>
 5   0  0.3274900E-04  0.1417618E+04  0.7818609E-02  0.8941164E-01
       -2   -1    0    0    0  501  0.00000000000E+00  0.00000000000E+00  0.37482045072E+03  0.37482045073E+03  0.25500000920E-02 0.  1.
        2   -1    0    0  501    0  0.00000000000E+00  0.00000000000E+00 -0.13404024909E+04  0.13404024909E+04  0.25500000920E-02 0. -1.
    10030    2    1    2    0    0  0.00000000000E+00  0.00000000000E+00 -0.96558204018E+03  0.17152229416E+04  0.14176180950E+04 0.  0.
        3    1    3    3  502    0 -0.54729003602E+03  0.85062869356E+02  0.52388191363E+02  0.55633318080E+03  0.10100000352E+00 0.  1.
       -3    1    3    3    0  502  0.54729003602E+03 -0.85062869356E+02 -0.10179702315E+04  0.11588897608E+04  0.10100000352E+00 0. -1.
</event>
<event>
 5   0  0.1764099E-04  0.1592388E+04  0.7818609E-02  0.8825238E-01
       -1   -1    0    0    0  501  0.00000000000E+00  0.00000000000E+00  0.12024252311E+04  0.12024252311E+04  0.50400001928E-02 0. -1.
        1   -1    0    0  501    0  0.00000000000E+00  0.00000000000E+00 -0.52720493408E+03  0.52720493410E+03  0.50400001928E-02 0.  1.
    10030    2    1    2    0    0  0.00000000000E+00  0.00000000000E+00  0.67522029704E+03  0.17296301652E+04  0.15923875342E+04 0.  0.
        5    1    3    3  502    0 -0.49956499498E+02 -0.55588051409E+03  0.95435344994E+03  0.11055819260E+04  0.46999998093E+01 0. -1.
       -5    1    3    3    0  502  0.49956499498E+02  0.55588051409E+03 -0.27913315290E+03  0.62404823918E+03  0.46999998093E+01 0.  1.
</event>
<event>
 5   0  0.1761255E-04  0.1630541E+04  0.7818609E-02  0.8802002E-01
       -1   -1    0    0    0  501  0.00000000000E+00  0.00000000000E+00  0.61528822634E+03  0.61528822636E+03  0.50400001928E-02 0. -1.
        1   -1    0    0  501    0  0.00000000000E+00  0.00000000000E+00 -0.10802518421E+04  0.10802518421E+04  0.50400001928E-02 0.  1.
    10030    2    1    2    0    0  0.00000000000E+00  0.00000000000E+00 -0.46496361577E+03  0.16955400685E+04  0.16305413088E+04 0.  0.
        2    1    3    3  502    0  0.61810403091E+03  0.23398655107E+03 -0.72886155507E+03  0.98389098257E+03  0.25500000920E-02 0.  1.
       -2    1    3    3    0  502 -0.61810403091E+03 -0.23398655107E+03  0.26389793930E+03  0.71164908592E+03  0.25500000920E-02 0. -1.
</event>
<event>
 5   0  0.1736537E-04  0.1616769E+04  0.7818609E-02  0.8810312E-01
        1   -1    0    0  501    0  0.00000000000E+00  0.00000000000E+00  0.71992455497E+03  0.71992455499E+03  0.50400001928E-02 0.  1.
       -1   -1    0    0    0  501  0.00000000000E+00  0.00000000000E+00 -0.90771433921E+03  0.90771433923E+03  0.50400001928E-02 0. -1.
    10030    2    1    2    0    0  0.00000000000E+00  0.00000000000E+00 -0.18778978424E+03  0.16276388942E+04  0.16167694229E+04 0.  0.
        3    1    3    3  502    0  0.27686804594E+03 -0.73170228389E+03 -0.29883580758E+03  0.83746462445E+03  0.10100000352E+00 0. -1.
       -3    1    3    3    0  502 -0.27686804594E+03  0.73170228389E+03  0.11104602334E+03  0.79017426977E+03  0.10100000352E+00 0.  1.
</event>
<event>
 5   0  0.3210612E-04  0.1598087E+04  0.7818609E-02  0.8821724E-01
        2   -1    0    0  501    0  0.00000000000E+00  0.00000000000E+00  0.21283420877E+04  0.21283420877E+04  0.25500000920E-02 0.  1.
       -2   -1    0    0    0  501  0.00000000000E+00  0.00000000000E+00 -0.29998490166E+03  0.29998490167E+03  0.25500000920E-02 0. -1.
    10030    2    1    2    0    0  0.00000000000E+00  0.00000000000E+00  0.18283571860E+04  0.24283269893E+04  0.15980869712E+04 0.  0.
        2    1    3    3  502    0  0.54236027422E+01  0.39673035941E+03 -0.13972310501E+03  0.42065061467E+03  0.25500000920E-02 0. -1.
       -2    1    3    3    0  502 -0.54236027422E+01 -0.39673035941E+03  0.19680802910E+04  0.20076763747E+04  0.25500000920E-02 0.  1.
</event>
<event>
 5   0  0.3263294E-04  0.1590306E+04  0.7818609E-02  0.8826526E-01
        2   -1    0    0  501    0  0.00000000000E+00  0.00000000000E+00  0.93063618742E+03  0.93063618743E+03  0.25500000920E-02 0. -1.
       -2   -1    0    0    0  501  0.00000000000E+00  0.00000000000E+00 -0.67939342524E+03  0.67939342524E+03  0.25500000920E-02 0.  1.
    10030    2    1    2    0    0  0.00000000000E+00  0.00000000000E+00  0.25124276219E+03  0.16100296127E+04  0.15903057656E+04 0.  0.
        4    1    3    3  502    0 -0.19695069239E+03 -0.67978845486E+03  0.49255910598E+03  0.86227490070E+03  0.12699999809E+01 0. -1.
       -4    1    3    3    0  502  0.19695069239E+03  0.67978845486E+03 -0.24131634380E+03  0.74775471197E+03  0.12699999809E+01 0.  1.
</event>
<event>
 5   0  0.1761255E-04  0.1626625E+04  0.7818609E-02  0.8804356E-01
        1   -1    0    0  501    0  0.00000000000E+00  0.00000000000E+00  0.57594039059E+03  0.57594039062E+03  0.50400001928E-02 0.  1.
       -1   -1    0    0    0  501  0.00000000000E+00  0.00000000000E+00 -0.11485172406E+04  0.11485172406E+04  0.50400001928E-02 0. -1.
    10030    2    1    2    0    0  0.00000000000E+00  0.00000000000E+00 -0.57257685002E+03  0.17244576312E+04  0.16266253019E+04 0.  0.
        2    1    3    3  502    0 -0.39306806824E+03  0.11797339698E+03  0.45812410580E+03  0.61505928574E+03  0.25500000920E-02 0.  1.
       -2    1    3    3    0  502  0.39306806824E+03 -0.11797339698E+03 -0.10307009558E+04  0.11093983455E+04  0.25500000920E-02 0. -1.
</event>
<event>
 5   0  0.1764099E-04  0.1542610E+04  0.7818609E-02  0.8856602E-01
        1   -1    0    0  501    0  0.00000000000E+00  0.00000000000E+00  0.93903689468E+03  0.93903689470E+03  0.50400001928E-02 0.  1.
       -1   -1    0    0    0  501  0.00000000000E+00  0.00000000000E+00 -0.63353337230E+03  0.63353337232E+03  0.50400001928E-02 0. -1.
    10030    2    1    2    0    0  0.00000000000E+00  0.00000000000E+00  0.30550352239E+03  0.15725702670E+04  0.15426097506E+04 0.  0.
        5    1    3    3  502    0  0.42370702369E+03 -0.30314871489E+03 -0.42703173240E+03  0.67365048485E+03  0.46999998093E+01 0. -1.
       -5    1    3    3    0  502 -0.42370702369E+03  0.30314871489E+03  0.73253525479E+03  0.89891978216E+03  0.46999998093E+01 0.  1.
</event>
<event>
 5   0  0.1761255E-04  0.1598711E+04  0.7818609E-02  0.8821340E-01
        1   -1    0    0  501    0  0.00000000000E+00  0.00000000000E+00  0.87255290641E+03  0.87255290643E+03  0.50400001928E-02 0. -1.
       -1   -1    0    0    0  501  0.00000000000E+00  0.00000000000E+00 -0.73229842141E+03  0.73229842143E+03  0.50400001928E-02 0.  1.
    10030    2    1    2    0    0  0.00000000000E+00  0.00000000000E+00  0.14025448500E+03  0.16048513279E+04  0.15987108757E+04 0.  0.
        2    1    3    3  502    0 -0.25112391582E+03 -0.69897283331E+03  0.36680064575E+03  0.82835315931E+03  0.25500000920E-02 0. -1.
       -2    1    3    3    0  502  0.25112391582E+03  0.69897283331E+03 -0.22654616076E+03  0.77649816855E+03  0.25500000920E-02 0.  1.
</event>
<event>
 5   0  0.1219463E-04  0.1550538E+04  0.7818609E-02  0.8851524E-01
       -3   -1    0    0    0  501  0.00000000000E+00  0.00000000000E+00  0.39778896498E+03  0.39778897780E+03  0.10100000352E+00 0.  1.
        3   -1    0    0  501    0  0.00000000000E+00  0.00000000000E+00 -0.15109566282E+04  0.15109566316E+04  0.10100000352E+00 0. -1.
    10030    2    1    2    0    0  0.00000000000E+00  0.00000000000E+00 -0.11131676633E+04  0.19087456094E+04  0.15505378276E+04 0.  0.
        5    1    3    3  502    0 -0.50653894986E+03 -0.49767231442E+03 -0.17365821583E+03  0.73105314868E+03  0.46999998093E+01 0.  1.
       -5    1    3    3    0  502  0.50653894986E+03  0.49767231442E+03 -0.93950944743E+03  0.11776924607E+04  0.46999998093E+01 0. -1.
</event>
<event>
 5   0  0.3210612E-04  0.1603659E+04  0.7818609E-02  0.8818303E-01
        2   -1    0    0  501    0  0.00000000000E+00  0.00000000000E+00  0.84840263415E+03  0.84840263415E+03  0.25500000920E-02 0.  1.
       -2   -1    0    0    0  501  0.00000000000E+00  0.00000000000E+00 -0.75781320529E+03  0.75781320530E+03  0.25500000920E-02 0. -1.
    10030    2    1    2    0    0  0.00000000000E+00  0.00000000000E+00  0.90589428855E+02  0.16062158394E+04  0.16036592151E+04 0.  0.
        2    1    3    3  502    0 -0.29850732993E+03  0.12462459955E+03  0.78014878916E+03  0.84455316593E+03  0.25500000920E-02 0.  1.
       -2    1    3    3    0  502  0.29850732993E+03 -0.12462459955E+03 -0.68955936031E+03  0.76166267352E+03  0.25500000920E-02 0. -1.
</event>
<event>
 5   0  0.3274900E-04  0.1593991E+04  0.7818609E-02  0.8824248E-01
       -2   -1    0    0    0  501  0.00000000000E+00  0.00000000000E+00  0.99322111832E+03  0.99322111832E+03  0.25500000920E-02 0. -1.
        2   -1    0    0  501    0  0.00000000000E+00  0.00000000000E+00 -0.63953755830E+03  0.63953755831E+03  0.25500000920E-02 0.  1.
    10030    2    1    2    0    0  0.00000000000E+00  0.00000000000E+00  0.35368356002E+03  0.16327586766E+04  0.15939914791E+04 0.  0.
        3    1    3    3  502    0  0.33556182620E+02 -0.17374776152E+03 -0.61916023576E+03  0.64395163620E+03  0.10100000352E+00 0.  1.
       -3    1    3    3    0  502 -0.33556182620E+02  0.17374776152E+03  0.97284379577E+03  0.98880704043E+03  0.10100000352E+00 0. -1.
</event>
<event>
 5   0  0.3210612E-04  0.1551473E+04  0.7818609E-02  0.8850928E-01
        2   -1    0    0  501    0  0.00000000000E+00  0.00000000000E+00  0.49905616430E+03  0.49905616431E+03  0.25500000920E-02 0.  1.
       -2   -1    0    0    0  501  0.00000000000E+00  0.00000000000E+00 -0.12058098079E+04  0.12058098079E+04  0.25500000920E-02 0. -1.
    10030    2    1    2    0    0  0.00000000000E+00  0.00000000000E+00 -0.70675364360E+03  0.17048659722E+04  0.15514726135E+04 0.  0.
        2    1    3    3  502    0  0.46894080239E+03 -0.65478461968E+02 -0.10285996535E+04  0.11323471872E+04  0.25500000920E-02 0. -1.
       -2    1    3    3    0  502 -0.46894080239E+03  0.65478461968E+02  0.32184600990E+03  0.57251878504E+03  0.25500000920E-02 0.  1.
</event>
<event>
 5   0  0.1736537E-04  0.1575563E+04  0.7818609E-02  0.8835703E-01
        1   -1    0    0  501    0  0.00000000000E+00  0.00000000000E+00  0.79029365203E+03  0.79029365205E+03  0.50400001928E-02 0.  1.
       -1   -1    0    0    0  501  0.00000000000E+00  0.00000000000E+00 -0.78527765484E+03  0.78527765486E+03  0.50400001928E-02 0. -1.
    10030    2    1    2    0    0  0.00000000000E+00  0.00000000000E+00  0.50159971913E+01  0.15755713069E+04  0.15755633224E+04 0.  0.
        3    1    3    3  502    0  0.46458075582E+03 -0.63172752741E+03 -0.72891242689E+02  0.78754561203E+03  0.10100000352E+00 0. -1.
       -3    1    3    3    0  502 -0.46458075582E+03  0.63172752741E+03  0.77907239880E+02  0.78802569488E+03  0.10100000352E+00 0.  1.
</event>
<event>
 5   0  0.1764099E-04  0.1643934E+04  0.7818609E-02  0.8794003E-01
       -1   -1    0    0    0  501  0.00000000000E+00  0.00000000000E+00  0.10728985967E+04  0.10728985967E+04  0.50400001928E-02 0.  1.
        1   -1    0    0  501    0  0.00000000000E+00  0.00000000000E+00 -0.62972386447E+03  0.62972386449E+03  0.50400001928E-02 0. -1.
    10030    2    1    2    0    0  0.00000000000E+00  0.00000000000E+00  0.44317473219E+03  0.17026224612E+04  0.16439341234E+04 0.  0.
        5    1    3    3  502    0  0.12346250590E+03 -0.41268801950E+03 -0.50344206721E+03  0.66259368910E+03  0.46999998093E+01 0. -1.
       -5    1    3    3    0  502 -0.12346250590E+03  0.41268801950E+03  0.94661679940E+03  0.10400287721E+04  0.46999998093E+01 0.  1.
</event>
<event>
 5   0  0.3380454E-04  0.1607089E+04  0.7818609E-02  0.8816205E-01
       -2   -1    0    0    0  501  0.00000000000E+00  0.00000000000E+00  0.39422483496E+03  0.39422483497E+03  0.25500000920E-02 0. -1.
        2   -1    0    0  501    0  0.00000000000E+00  0.00000000000E+00 -0.16378562666E+04  0.16378562666E+04  0.25500000920E-02 0.  1.
    10030    2    1    2    0    0  0.00000000000E+00  0.00000000000E+00 -0.12436314317E+04  0.20320811016E+04  0.16070888170E+04 0.  0.
        5    1    3    3  502    0  0.30490225839E+03  0.55301811001E+03  0.64346840143E+01  0.63155198704E+03  0.46999998093E+01 0. -1.
       -5    1    3    3    0  502 -0.30490225839E+03 -0.55301811001E+03 -0.12500661157E+04  0.14005291146E+04  0.46999998093E+01 0.  1.
</event>
<event>
 5   0  0.1764099E-04  0.1760292E+04  0.7818609E-02  0.8727705E-01
       -1   -1    0    0    0  501  0.00000000000E+00  0.00000000000E+00  0.44254127050E+03  0.44254127053E+03  0.50400001928E-02 0. -1.
        1   -1    0    0  501    0  0.00000000000E+00  0.00000000000E+00 -0.17504743501E+04  0.17504743501E+04  0.50400001928E-02 0.  1.
    10030    2    1    2    0    0  0.00000000000E+00  0.00000000000E+00 -0.13079330796E+04  0.21930156206E+04  0.17602921836E+04 0.  0.
        5    1    3    3  502    0  0.41762906031E+03  0.48062701168E+03 -0.14109716426E+04  0.15479920615E+04  0.46999998093E+01 0.  1.
       -5    1    3    3    0  502 -0.41762906031E+03 -0.48062701168E+03  0.10303856297E+03  0.64502355913E+03  0.46999998093E+01 0. -1.
</event>
<event>
 5   0  0.1761255E-04  0.1605668E+04  0.7818609E-02  0.8817074E-01
       -1   -1    0    0    0  501  0.00000000000E+00  0.00000000000E+00  0.11256483141E+04  0.11256483141E+04  0.50400001928E-02 0. -1.
        1   -1    0    0  501    0  0.00000000000E+00  0.00000000000E+00 -0.57259652292E+03  0.57259652295E+03  0.50400001928E-02 0.  1.
    10030    2    1    2    0    0  0.00000000000E+00  0.00000000000E+00  0.55305179120E+03  0.16982448371E+04  0.16056678495E+04 0.  0.
        2    1    3    3  502    0 -0.66331336633E+03  0.19356881877E+02 -0.20139319795E+03  0.69348289887E+03  0.25500000920E-02 0.  1.
       -2    1    3    3    0  502  0.66331336633E+03 -0.19356881877E+02  0.75444498915E+03  0.10047619382E+04  0.25500000920E-02 0. -1.
</event>
<event>
 5   0  0.3380454E-04  0.1627782E+04  0.7818609E-02  0.8803660E-01
        2   -1    0    0  501    0  0.00000000000E+00  0.00000000000E+00  0.27252822857E+03  0.27252822858E+03  0.25500000920E-02 0.  1.
       -2   -1    0    0    0  501  0.00000000000E+00  0.00000000000E+00 -0.24306424707E+04  0.24306424707E+04  0.25500000920E-02 0. -1.
    10030    2    1    2    0    0  0.00000000000E+00  0.00000000000E+00 -0.21581142421E+04  0.27031706992E+04  0.16277821560E+04 0.  0.
        5    1    3    3  502    0  0.27606147805E+03 -0.60195126061E+03 -0.18647400798E+04  0.19788463597E+04  0.46999998093E+01 0. -1.
       -5    1    3    3    0  502 -0.27606147805E+03  0.60195126061E+03 -0.29337416226E+03  0.72432433957E+03  0.46999998093E+01 0.  1.
</event>
<event>
 5   0  0.1819811E-04  0.1598250E+04  0.7818609E-02  0.8821624E-01
       -1   -1    0    0    0  501  0.00000000000E+00  0.00000000000E+00  0.31859565595E+03  0.31859565599E+03  0.50400001928E-02 0. -1.
        1   -1    0    0  501    0  0.00000000000E+00  0.00000000000E+00 -0.20044238121E+04  0.20044238121E+04  0.50400001928E-02 0.  1.
    10030    2    1    2    0    0  0.00000000000E+00  0.00000000000E+00 -0.16858281562E+04  0.23230194681E+04  0.15982499420E+04 0.  0.
        1    1    3    3  502    0  0.45180491215E+03 -0.22235367900E+03 -0.17448101557E+04  0.18160207369E+04  0.50400001928E-02 0.  1.
       -1    1    3    3    0  502 -0.45180491215E+03  0.22235367900E+03  0.58981999527E+02  0.50699873126E+03  0.50400001928E-02 0. -1.
</event>
<event>
 5   0  0.3274900E-04  0.1601855E+04  0.7818609E-02  0.8819409E-01
       -2   -1    0    0    0  501  0.00000000000E+00  0.00000000000E+00  0.82032234684E+03  0.82032234684E+03  0.25500000920E-02 0.  1.
        2   -1    0    0  501    0  0.00000000000E+00  0.00000000000E+00 -0.78199138740E+03  0.78199138741E+03  0.25500000920E-02 0. -1.
    10030    2    1    2    0    0  0.00000000000E+00  0.00000000000E+00  0.38330959433E+02  0.16023137342E+04  0.16018551871E+04 0.  0.
        3    1    3    3  502    0  0.56758721938E+03  0.42280311550E+03 -0.35586486967E+03  0.79218529508E+03  0.10100000352E+00 0. -1.
       -3    1    3    3    0  502 -0.56758721938E+03 -0.42280311550E+03  0.39419582910E+03  0.81012843917E+03  0.10100000352E+00 0.  1.
</event>
<event>
 5   0  0.3228393E-04  0.1587128E+04  0.7818609E-02  0.8828495E-01
       -2   -1    0    0    0  501  0.00000000000E+00  0.00000000000E+00  0.71988386427E+03  0.71988386427E+03  0.25500000920E-02 0. -1.
        2   -1    0    0  501    0  0.00000000000E+00  0.00000000000E+00 -0.87478539619E+03  0.87478539619E+03  0.25500000920E-02 0.  1.
    10030    2    1    2    0    0  0.00000000000E+00  0.00000000000E+00 -0.15490153192E+03  0.15946692605E+04  0.15871280874E+04 0.  0.
        1    1    3    3  502    0  0.24997047638E+03 -0.74763616558E+03  0.14079920497E+02  0.78844360568E+03  0.50400001928E-02 0. -1.
       -1    1    3    3    0  502 -0.24997047638E+03  0.74763616558E+03 -0.16898145242E+03  0.80622565478E+03  0.50400001928E-02 0.  1.
</event>
<event>
 5   0  0.3274900E-04  0.1741050E+04  0.7818609E-02  0.8738292E-01
        2   -1    0    0  501    0  0.00000000000E+00  0.00000000000E+00  0.20109903814E+04  0.20109903814E+04  0.25500000920E-02 0.  1.
       -2   -1    0    0    0  501  0.00000000000E+00  0.00000000000E+00 -0.37683605389E+03  0.37683605390E+03  0.25500000920E-02 0. -1.
    10030    2    1    2    0    0  0.00000000000E+00  0.00000000000E+00  0.16341543275E+04  0.23878264353E+04  0.17410498899E+04 0.  0.
        3    1    3    3  502    0 -0.48745258237E+03 -0.43352364433E+03  0.16076304675E+04  0.17349433710E+04  0.10100000352E+00 0.  1.
       -3    1    3    3    0  502  0.48745258237E+03  0.43352364433E+03  0.26523859946E+02  0.65288306426E+03  0.10100000352E+00 0. -1.
</event>
<event>
 5   0  0.1761255E-04  0.1602159E+04  0.7818609E-02  0.8819223E-01
        1   -1    0    0  501    0  0.00000000000E+00  0.00000000000E+00  0.10490855295E+04  0.10490855295E+04  0.50400001928E-02 0.  1.
       -1   -1    0    0    0  501  0.00000000000E+00  0.00000000000E+00 -0.61170286515E+03  0.61170286517E+03  0.50400001928E-02 0. -1.
    10030    2    1    2    0    0  0.00000000000E+00  0.00000000000E+00  0.43738266430E+03  0.16607883946E+04  0.16021593231E+04 0.  0.
        2    1    3    3  502    0  0.25122131155E+03  0.52725454564E+03  0.78704268787E+03  0.98007433178E+03  0.25500000920E-02 0.  1.
       -2    1    3    3    0  502 -0.25122131155E+03 -0.52725454564E+03 -0.34966002358E+03  0.68071406286E+03  0.25500000920E-02 0. -1.
</event>
<event>
 5   0  0.3263294E-04  0.1600490E+04  0.7818609E-02  0.8820247E-01
       -2   -1    0    0    0  501  0.00000000000E+00  0.00000000000E+00  0.19815978521E+03  0.19815978523E+03  0.25500000920E-02 0.  1.
        2   -1    0    0  501    0  0.00000000000E+00  0.00000000000E+00 -0.32316962496E+04  0.32316962496E+04  0.25500000920E-02 0. -1.
    10030    2    1    2    0    0  0.00000000000E+00  0.00000000000E+00 -0.30335364644E+04  0.34298560348E+04  0.16004902183E+04 0.  0.
        4    1    3    3  502    0 -0.67727285749E+03 -0.35438125629E+03 -0.20243752431E+04  0.21638810818E+04  0.12699999809E+01 0. -1.
       -4    1    3    3    0  502  0.67727285749E+03  0.35438125629E+03 -0.10091612213E+04  0.12659749530E+04  0.12699999809E+01 0.  1.
</event>
<event>
 5   0  0.1764099E-04  0.1596844E+04  0.7818609E-02  0.8822489E-01
       -1   -1    0    0    0  501  0.00000000000E+00  0.00000000000E+00  0.56226460659E+03  0.56226460661E+03  0.50400001928E-02 0.  1.
        1   -1    0    0  501    0  0.00000000000E+00  0.00000000000E+00 -0.11337675877E+04  0.11337675877E+04  0.50400001928E-02 0. -1.
    10030    2    1    2    0    0  0.00000000000E+00  0.00000000000E+00 -0.57150298110E+03  0.16960321943E+04  0.15968436200E+04 0.  0.
        5    1    3    3  502    0  0.95396625477E+02 -0.29259365956E+03 -0.10682240429E+04  0.11116817267E+04  0.46999998093E+01 0. -1.
       -5    1    3    3    0  502 -0.95396625477E+02  0.29259365956E+03  0.49672106177E+03  0.58435046759E+03  0.46999998093E+01 0.  1.
</event>
<event>
 5   0  0.1219463E-04  0.1595400E+04  0.7818609E-02  0.8823379E-01
       -4   -1    0    0    0  501  0.00000000000E+00  0.00000000000E+00  0.88342368517E+03  0.88342459804E+03  0.12699999809E+01 0.  1.
        4   -1    0    0  501    0  0.00000000000E+00  0.00000000000E+00 -0.72029303419E+03  0.72029415381E+03  0.12699999809E+01 0. -1.
    10030    2    1    2    0    0  0.00000000000E+00  0.00000000000E+00  0.16313065097E+03  0.16037187518E+04  0.15954003340E+04 0.  0.
        1    1    3    3  502    0 -0.48633002826E+03 -0.38668765026E+03 -0.42132438312E+03  0.75070531575E+03  0.50400001928E-02 0. -1.
       -1    1    3    3    0  502  0.48633002826E+03  0.38668765026E+03  0.58445503410E+03  0.85301343609E+03  0.50400001928E-02 0.  1.
</event>
<event>
 5   0  0.1219463E-04  0.1615767E+04  0.7818609E-02  0.8810920E-01
        3   -1    0    0  501    0  0.00000000000E+00  0.00000000000E+00  0.96546411832E+03  0.96546412360E+03  0.10100000352E+00 0.  1.
       -3   -1    0    0    0  501  0.00000000000E+00  0.00000000000E+00 -0.67602288816E+03  0.67602289571E+03  0.10100000352E+00 0. -1.
    10030    2    1    2    0    0  0.00000000000E+00  0.00000000000E+00  0.28944123016E+03  0.16414870193E+04  0.16157671271E+04 0.  0.
        3    1    3    3  502    0  0.57293898628E+03 -0.51200325971E+03  0.39823120279E+03  0.86544469553E+03  0.10100000352E+00 0.  1.
       -3    1    3    3    0  502 -0.57293898628E+03  0.51200325971E+03 -0.10878997263E+03  0.77604232378E+03  0.10100000352E+00 0. -1.
</event>
<event>
 5   0  0.1761255E-04  0.1622670E+04  0.7818609E-02  0.8806741E-01
       -1   -1    0    0    0  501  0.00000000000E+00  0.00000000000E+00  0.10531410586E+04  0.10531410586E+04  0.50400001928E-02 0. -1.
        1   -1    0    0  501    0  0.00000000000E+00  0.00000000000E+00 -0.62504860885E+03  0.62504860887E+03  0.50400001928E-02 0.  1.
    10030    2    1    2    0    0  0.00000000000E+00  0.00000000000E+00  0.42809244972E+03  0.16781896674E+04  0.16226698415E+04 0.  0.
        2    1    3    3  502    0  0.69258488600E+03 -0.37184197828E+03  0.42172545806E+03  0.89207210645E+03  0.25500000920E-02 0.  1.
       -2    1    3    3    0  502 -0.69258488600E+03  0.37184197828E+03  0.63669916651E+01  0.78611756100E+03  0.25500000920E-02 0. -1.
</event>
<event>
 5   0  0.1736537E-04  0.1593859E+04  0.7818609E-02  0.8824330E-01
        1   -1    0    0  501    0  0.00000000000E+00  0.00000000000E+00  0.10081546689E+04  0.10081546689E+04  0.50400001928E-02 0. -1.
       -1   -1    0    0    0  501  0.00000000000E+00  0.00000000000E+00 -0.62995940728E+03  0.62995940730E+03  0.50400001928E-02 0.  1.
    10030    2    1    2    0    0  0.00000000000E+00  0.00000000000E+00  0.37819526159E+03  0.16381140762E+04  0.15938588616E+04 0.  0.
        3    1    3    3  502    0 -0.32886555627E+03  0.60570606913E+02  0.93256059395E+03  0.99070208646E+03  0.10100000352E+00 0. -1.
       -3    1    3    3    0  502  0.32886555627E+03 -0.60570606913E+02 -0.55436533236E+03  0.64741198973E+03  0.10100000352E+00 0.  1.
</event>
<event>
 5   0  0.1764099E-04  0.1611671E+04  0.7818609E-02  0.8813410E-01
        1   -1    0    0  501    0  0.00000000000E+00  0.00000000000E+00  0.12204186070E+04  0.12204186070E+04  0.50400001928E-02 0. -1.
       -1   -1    0    0    0  501  0.00000000000E+00  0.00000000000E+00 -0.53208867588E+03  0.53208867590E+03  0.50400001928E-02 0.  1.
    10030    2    1    2    0    0  0.00000000000E+00  0.00000000000E+00  0.68832993108E+03  0.17525072829E+04  0.16116710838E+04 0.  0.
        5    1    3    3  502    0  0.61794152947E+03 -0.60840128539E+01  0.90652299932E+03  0.10971302509E+04  0.46999998093E+01 0. -1.
       -5    1    3    3    0  502 -0.61794152947E+03  0.60840128539E+01 -0.21819306825E+03  0.65537703201E+03  0.46999998093E+01 0.  1.
</event>
<event>
 5   0  0.3380454E-04  0.1565992E+04  0.7818609E-02  0.8841717E-01
       -2   -1    0    0    0  501  0.00000000000E+00  0.00000000000E+00  0.75705063920E+03  0.75705063920E+03  0.25500000920E-02 0. -1.
        2   -1    0    0  501    0  0.00000000000E+00  0.00000000000E+00 -0.80983062017E+03  0.80983062017E+03  0.25500000920E-02 0.  1.
    10030    2    1    2    0    0  0.00000000000E+00  0.00000000000E+00 -0.52779980971E+02  0.15668812594E+04  0.15659920672E+04 0.  0.
        5    1    3    3  502    0 -0.11627093643E+03  0.33890997132E+03 -0.72297621902E+03  0.80690495263E+03  0.46999998093E+01 0.  1.
       -5    1    3    3    0  502  0.11627093643E+03 -0.33890997132E+03  0.67019623805E+03  0.75997630674E+03  0.46999998093E+01 0. -1.
</event>
<event>
 5   0  0.1819811E-04  0.1593228E+04  0.7818609E-02  0.8824719E-01
        1   -1    0    0  501    0  0.00000000000E+00  0.00000000000E+00  0.22286832485E+04  0.22286832485E+04  0.50400001928E-02 0. -1.
       -1   -1    0    0    0  501  0.00000000000E+00  0.00000000000E+00 -0.28473940738E+03  0.28473940743E+03  0.50400001928E-02 0.  1.
    10030    2    1    2    0    0  0.00000000000E+00  0.00000000000E+00  0.19439438411E+04  0.25134226559E+04  0.15932281035E+04 0.  0.
        1    1    3    3  502    0 -0.62762497948E+03 -0.41461258530E+03  0.55824866978E+03  0.93672743533E+03  0.50400001928E-02 0.  1.
       -1    1    3    3    0  502  0.62762497948E+03  0.41461258530E+03  0.13856951713E+04  0.15766952206E+04  0.50400001928E-02 0. -1.
</event>
<event>
 5   0  0.1764099E-04  0.1597807E+04  0.7818609E-02  0.8821897E-01
        1   -1    0    0  501    0  0.00000000000E+00  0.00000000000E+00  0.14403445944E+04  0.14403445944E+04  0.50400001928E-02 0.  1.
       -1   -1    0    0    0  501  0.00000000000E+00  0.00000000000E+00 -0.44312066965E+03  0.44312066968E+03  0.50400001928E-02 0. -1.
    10030    2    1    2    0    0  0.00000000000E+00  0.00000000000E+00  0.99722392476E+03  0.18834652641E+04  0.15978065731E+04 0.  0.
        5    1    3    3  502    0 -0.78910310908E+03  0.11704421715E+03  0.54919400487E+03  0.96851391859E+03  0.46999998093E+01 0.  1.
       -5    1    3    3    0  502  0.78910310908E+03 -0.11704421715E+03  0.44802991989E+03  0.91495134550E+03  0.46999998093E+01 0. -1.
</event>
<event>
 5   0  0.1787688E-04  0.1606729E+04  0.7818609E-02  0.8816425E-01
       -1   -1    0    0    0  501  0.00000000000E+00  0.00000000000E+00  0.25334540095E+04  0.25334540095E+04  0.50400001928E-02 0.  1.
        1   -1    0    0  501    0  0.00000000000E+00  0.00000000000E+00 -0.25474870590E+03  0.25474870595E+03  0.50400001928E-02 0. -1.
    10030    2    1    2    0    0  0.00000000000E+00  0.00000000000E+00  0.22787053036E+04  0.27882027155E+04  0.16067285153E+04 0.  0.
        4    1    3    3  502    0 -0.46287263475E+03  0.60164161414E+03  0.68296173171E+03  0.10211082449E+04  0.12699999809E+01 0. -1.
       -4    1    3    3    0  502  0.46287263475E+03 -0.60164161414E+03  0.15957435719E+04  0.17670944706E+04  0.12699999809E+01 0.  1.
</event>
<event>
 5   0  0.1761255E-04  0.1602464E+04  0.7818609E-02  0.8819035E-01
        1   -1    0    0  501    0  0.00000000000E+00  0.00000000000E+00  0.11780246208E+04  0.11780246208E+04  0.50400001928E-02 0. -1.
       -1   -1    0    0    0  501  0.00000000000E+00  0.00000000000E+00 -0.54495722772E+03  0.54495722775E+03  0.50400001928E-02 0.  1.
    10030    2    1    2    0    0  0.00000000000E+00  0.00000000000E+00  0.63306739303E+03  0.17229818485E+04  0.16024643916E+04 0.  0.
        2    1    3    3  502    0  0.75437447015E+03  0.20783535605E+03  0.13124621345E+03  0.79341158612E+03  0.25500000920E-02 0. -1.
       -2    1    3    3    0  502 -0.75437447015E+03 -0.20783535605E+03  0.50182117958E+03  0.92957026239E+03  0.25500000920E-02 0.  1.
</event>
<event>
 5   0  0.3210612E-04  0.1595757E+04  0.7818609E-02  0.8823159E-01
        2   -1    0    0  501    0  0.00000000000E+00  0.00000000000E+00  0.18919715921E+04  0.18919715921E+04  0.25500000920E-02 0. -1.
       -2   -1    0    0    0  501  0.00000000000E+00  0.00000000000E+00 -0.33647986852E+03  0.33647986853E+03  0.25500000920E-02 0.  1.
    10030    2    1    2    0    0  0.00000000000E+00  0.00000000000E+00  0.15554917236E+04  0.22284514607E+04  0.15957573156E+04 0.  0.
        2    1    3    3  502    0 -0.50197571280E+03 -0.31007838323E+03  0.15278054977E+04  0.16377783302E+04  0.25500000920E-02 0. -1.
       -2    1    3    3    0  502  0.50197571280E+03  0.31007838323E+03  0.27686225941E+02  0.59067313051E+03  0.25500000920E-02 0.  1.
</event>
<event>
 5   0  0.3274900E-04  0.1588586E+04  0.7818609E-02  0.8827591E-01
       -2   -1    0    0    0  501  0.00000000000E+00  0.00000000000E+00  0.68959903189E+03  0.68959903190E+03  0.25500000920E-02 0.  1.
        2   -1    0    0  501    0  0.00000000000E+00  0.00000000000E+00 -0.91488193634E+03  0.91488193634E+03  0.25500000920E-02 0. -1.
    10030    2    1    2    0    0  0.00000000000E+00  0.00000000000E+00 -0.22528290444E+03  0.16044809682E+04  0.15885864126E+04 0.  0.
        3    1    3    3  502    0  0.64001962932E+03 -0.43631207676E+03 -0.29020815025E+03  0.82717237316E+03  0.10100000352E+00 0. -1.
       -3    1    3    3    0  502 -0.64001962932E+03  0.43631207676E+03  0.64925245805E+02  0.77730859508E+03  0.10100000352E+00 0.  1.
</event>
<event>
 5   0  0.3263294E-04  0.1579079E+04  0.7818609E-02  0.8833505E-01
       -2   -1    0    0    0  501  0.00000000000E+00  0.00000000000E+00  0.40742281170E+03  0.40742281170E+03  0.25500000920E-02 0. -1.
        2   -1    0    0  501    0  0.00000000000E+00  0.00000000000E+00 -0.15300376433E+04  0.15300376433E+04  0.25500000920E-02 0.  1.
    10030    2    1    2    0    0  0.00000000000E+00  0.00000000000E+00 -0.11226148316E+04  0.19374604550E+04  0.15790785144E+04 0.  0.
        4    1    3    3  502    0  0.61018910411E+03  0.46306435139E+01  0.53419084883E+02  0.61254175136E+03  0.12699999809E+01 0. -1.
       -4    1    3    3    0  502 -0.61018910411E+03 -0.46306435139E+01 -0.11760339165E+04  0.13249187036E+04  0.12699999809E+01 0.  1.
</event>
<event>
 5   0  0.1764099E-04  0.1559781E+04  0.7818609E-02  0.8845644E-01
       -1   -1    0    0    0  501  0.00000000000E+00  0.00000000000E+00  0.16224467858E+04  0.16224467858E+04  0.50400001928E-02 0.  1.
        1   -1    0    0  501    0  0.00000000000E+00  0.00000000000E+00 -0.37488384487E+03  0.37488384490E+03  0.50400001928E-02 0. -1.
    10030    2    1    2    0    0  0.00000000000E+00  0.00000000000E+00  0.12475629409E+04  0.19973306307E+04  0.15597808682E+04 0.  0.
        5    1    3    3  502    0 -0.42243484171E+03 -0.52745095715E+02  0.14605146014E+04  0.15213014926E+04  0.46999998093E+01 0.  1.
       -5    1    3    3    0  502  0.42243484171E+03  0.52745095715E+02 -0.21295166045E+03  0.47602913808E+03  0.46999998093E+01 0. -1.
</event>
<event>
 5   0  0.3228393E-04  0.1627479E+04  0.7818609E-02  0.8803842E-01
       -2   -1    0    0    0  501  0.00000000000E+00  0.00000000000E+00  0.27098123664E+03  0.27098123665E+03  0.25500000920E-02 0. -1.
        2   -1    0    0  501    0  0.00000000000E+00  0.00000000000E+00 -0.24436071788E+04  0.24436071788E+04  0.25500000920E-02 0.  1.
    10030    2    1    2    0    0  0.00000000000E+00  0.00000000000E+00 -0.21726259422E+04  0.27145884155E+04  0.16274786575E+04 0.  0.
        1    1    3    3  502    0  0.41257283989E+03 -0.59545104400E+03 -0.46805229188E+03  0.86246811070E+03  0.50400001928E-02 0. -1.
       -1    1    3    3    0  502 -0.41257283989E+03  0.59545104400E+03 -0.17045736503E+04  0.18521203048E+04  0.50400001928E-02 0.  1.
</event>
<event>
 5   0  0.3380454E-04  0.1598984E+04  0.7818609E-02  0.8821172E-01
       -2   -1    0    0    0  501  0.00000000000E+00  0.00000000000E+00  0.65085370733E+03  0.65085370734E+03  0.25500000920E-02 0. -1.
        2   -1    0    0  501    0  0.00000000000E+00  0.00000000000E+00 -0.98207545761E+03  0.98207545761E+03  0.25500000920E-02 0.  1.
    10030    2    1    2    0    0  0.00000000000E+00  0.00000000000E+00 -0.33122175027E+03  0.16329291649E+04  0.15989839930E+04 0.  0.
        5    1    3    3  502    0 -0.34505632126E+03  0.10421232049E+03 -0.89437172632E+03  0.96428571877E+03  0.46999998093E+01 0.  1.
       -5    1    3    3    0  502  0.34505632126E+03 -0.10421232049E+03  0.56314997605E+03  0.66864344617E+03  0.46999998093E+01 0. -1.
</event>
<event>
 5   0  0.1787688E-04  0.1588504E+04  0.7818609E-02  0.8827642E-01
        1   -1    0    0  501    0  0.00000000000E+00  0.00000000000E+00  0.12573205217E+04  0.12573205217E+04  0.50400001928E-02 0. -1.
       -1   -1    0    0    0  501  0.00000000000E+00  0.00000000000E+00 -0.50173035657E+03  0.50173035659E+03  0.50400001928E-02 0.  1.
    10030    2    1    2    0    0  0.00000000000E+00  0.00000000000E+00  0.75559016515E+03  0.17590508783E+04  0.15885035394E+04 0.  0.
        4    1    3    3  502    0 -0.17841177608E+03 -0.68204927188E+03  0.78287267049E+03  0.10535241821E+04  0.12699999809E+01 0. -1.
       -4    1    3    3    0  502  0.17841177608E+03  0.68204927188E+03 -0.27282505344E+02  0.70552669624E+03  0.12699999809E+01 0.  1.
</event>
<event>
 5   0  0.1761255E-04  0.1617674E+04  0.7818609E-02  0.8809763E-01
       -1   -1    0    0    0  501  0.00000000000E+00  0.00000000000E+00  0.82848317323E+03  0.82848317325E+03  0.50400001928E-02 0. -1.
        1   -1    0    0  501    0  0.00000000000E+00  0.00000000000E+00 -0.78965674008E+03  0.78965674010E+03  0.50400001928E-02 0.  1.
    10030    2    1    2    0    0  0.00000000000E+00  0.00000000000E+00  0.38826433151E+02  0.16181399133E+04  0.16176740362E+04 0.  0.
        2    1    3    3  502    0  0.24026072535E+03  0.47072984127E+03 -0.59305840960E+03  0.79437401570E+03  0.25500000920E-02 0.  1.
       -2    1    3    3    0  502 -0.24026072535E+03 -0.47072984127E+03  0.63188484275E+03  0.82376589764E+03  0.25500000920E-02 0. -1.
</event>
<event>
 5   0  0.1761255E-04  0.1594422E+04  0.7818609E-02  0.8823982E-01
       -1   -1    0    0    0  501  0.00000000000E+00  0.00000000000E+00  0.65113987348E+03  0.65113987350E+03  0.50400001928E-02 0.  1.
        1   -1    0    0  501    0  0.00000000000E+00  0.00000000000E+00 -0.97605033491E+03  0.97605033493E+03  0.50400001928E-02 0. -1.
    10030    2    1    2    0    0  0.00000000000E+00  0.00000000000E+00 -0.32491046144E+03  0.16271902084E+04  0.15944218910E+04 0.  0.
        2    1    3    3  502    0 -0.24902717018E+03  0.35833834539E+03 -0.84334337097E+03  0.94955196942E+03  0.25500000920E-02 0. -1.
       -2    1    3    3    0  502  0.24902717018E+03 -0.35833834539E+03  0.51843290954E+03  0.67763823900E+03  0.25500000920E-02 0.  1.
</event>
<event>
 5   0  0.1764099E-04  0.1595195E+04  0.7818609E-02  0.8823506E-01
        1   -1    0    0  501    0  0.00000000000E+00  0.00000000000E+00  0.13488131501E+04  0.13488131501E+04  0.50400001928E-02 0.  1.
       -1   -1    0    0    0  501  0.00000000000E+00  0.00000000000E+00 -0.47164537733E+03  0.47164537735E+03  0.50400001928E-02 0. -1.
    10030    2    1    2    0    0  0.00000000000E+00  0.00000000000E+00  0.87716777278E+03  0.18204585275E+04  0.15951946429E+04 0.  0.
        5    1    3    3  502    0 -0.66492666271E+03  0.49726261455E+02 -0.60870664765E+02  0.66957262167E+03  0.46999998093E+01 0. -1.
       -5    1    3    3    0  502  0.66492666271E+03 -0.49726261455E+02  0.93803843755E+03  0.11508859058E+04  0.46999998093E+01 0.  1.
</event>
<event>
 5   0  0.1761255E-04  0.1611528E+04  0.7818609E-02  0.8813497E-01
       -1   -1    0    0    0  501  0.00000000000E+00  0.00000000000E+00  0.71537914236E+03  0.71537914238E+03  0.50400001928E-02 0.  1.
        1   -1    0    0  501    0  0.00000000000E+00  0.00000000000E+00 -0.90756828904E+03  0.90756828906E+03  0.50400001928E-02 0. -1.
    10030    2    1    2    0    0  0.00000000000E+00  0.00000000000E+00 -0.19218914668E+03  0.16229474314E+04  0.16115277525E+04 0.  0.
        2    1    3    3  502    0 -0.10722911922E+02 -0.66468592164E+03  0.36247047728E+03  0.75717052384E+03  0.25500000920E-02 0.  1.
       -2    1    3    3    0  502  0.10722911922E+02  0.66468592164E+03 -0.55465962396E+03  0.86577690760E+03  0.25500000920E-02 0. -1.
</event>
<event>
 5   0  0.3210612E-04  0.1603382E+04  0.7818609E-02  0.8818473E-01
        2   -1    0    0  501    0  0.00000000000E+00  0.00000000000E+00  0.11193194111E+04  0.11193194111E+04  0.25500000920E-02 0.  1.
       -2   -1    0    0    0  501  0.00000000000E+00  0.00000000000E+00 -0.57419581567E+03  0.57419581568E+03  0.25500000920E-02 0. -1.
    10030    2    1    2    0    0  0.00000000000E+00  0.00000000000E+00  0.54512359546E+03  0.16935152268E+04  0.16033820783E+04 0.  0.
        2    1    3    3  502    0 -0.35023790232E+02 -0.47372252568E+03  0.95467419859E+03  0.10663219601E+04  0.25500000920E-02 0.  1.
       -2    1    3    3    0  502  0.35023790232E+02  0.47372252568E+03 -0.40955060314E+03  0.62719326667E+03  0.25500000920E-02 0. -1.
</event>
<event>
 5   0  0.3210612E-04  0.1589536E+04  0.7818609E-02  0.8827002E-01
        2   -1    0    0  501    0  0.00000000000E+00  0.00000000000E+00  0.67842447423E+03  0.67842447423E+03  0.25500000920E-02 0. -1.
       -2   -1    0    0    0  501  0.00000000000E+00  0.00000000000E+00 -0.93106322202E+03  0.93106322203E+03  0.25500000920E-02 0.  1.
    10030    2    1    2    0    0  0.00000000000E+00  0.00000000000E+00 -0.25263874779E+03  0.16094876963E+04  0.15895358780E+04 0.  0.
        2    1    3    3  502    0 -0.23598618154E+03 -0.48954165146E+03  0.46088707065E+03  0.71257097772E+03  0.25500000920E-02 0. -1.
       -2    1    3    3    0  502  0.23598618154E+03  0.48954165146E+03 -0.71352581844E+03  0.89691671853E+03  0.25500000920E-02 0.  1.
</event>
<event>
 5   0  0.3274900E-04  0.1604618E+04  0.7818609E-02  0.8817716E-01
        2   -1    0    0  501    0  0.00000000000E+00  0.00000000000E+00  0.94237831152E+03  0.94237831153E+03  0.25500000920E-02 0. -1.
       -2   -1    0    0    0  501  0.00000000000E+00  0.00000000000E+00 -0.68305843457E+03  0.68305843458E+03  0.25500000920E-02 0.  1.
    10030    2    1    2    0    0  0.00000000000E+00  0.00000000000E+00  0.25931987695E+03  0.16254367461E+04  0.16046176545E+04 0.  0.
        3    1    3    3  502    0  0.47509771586E+03 -0.62113146311E+03 -0.52047779655E+02  0.78372898099E+03  0.10100000352E+00 0.  1.
       -3    1    3    3    0  502 -0.47509771586E+03  0.62113146311E+03  0.31136765661E+03  0.84170776512E+03  0.10100000352E+00 0. -1.
</event>
<event>
 5   0  0.1819811E-04  0.1604169E+04  0.7818609E-02  0.8817991E-01
        1   -1    0    0  501    0  0.00000000000E+00  0.00000000000E+00  0.17113413441E+04  0.17113413441E+04  0.50400001928E-02 0.  1.
       -1   -1    0    0    0  501  0.00000000000E+00  0.00000000000E+00 -0.37592722640E+03  0.37592722643E+03  0.50400001928E-02 0. -1.
    10030    2    1    2    0    0  0.00000000000E+00  0.00000000000E+00  0.13354141177E+04  0.20872685705E+04  0.16041693239E+04 0.  0.
        1    1    3    3  502    0  0.18942964106E+03  0.56126792896E+03 -0.35919867831E+02  0.59346062542E+03  0.50400001928E-02 0. -1.
       -1    1    3    3    0  502 -0.18942964106E+03 -0.56126792896E+03  0.13713339855E+04  0.14938079451E+04  0.50400001928E-02 0.  1.
</event>
<event>
 5   0  0.1761255E-04  0.1600368E+04  0.7818609E-02  0.8820322E-01
       -1   -1    0    0    0  501  0.00000000000E+00  0.00000000000E+00  0.65069791745E+03  0.65069791747E+03  0.50400001928E-02 0. -1.
        1   -1    0    0  501    0  0.00000000000E+00  0.00000000000E+00 -0.98401191397E+03  0.98401191398E+03  0.50400001928E-02 0.  1.
    10030    2    1    2    0    0  0.00000000000E+00  0.00000000000E+00 -0.33331399652E+03  0.16347098315E+04  0.16003680867E+04 0.  0.
        2    1    3    3  502    0 -0.47732072190E+03 -0.63045396442E+03 -0.41607635283E+02  0.79185760597E+03  0.25500000920E-02 0.  1.
       -2    1    3    3    0  502  0.47732072190E+03  0.63045396442E+03 -0.29170636123E+03  0.84285222548E+03  0.25500000920E-02 0. -1.
</event>
<event>
 5   0  0.1761255E-04  0.1601168E+04  0.7818609E-02  0.8819831E-01
       -1   -1    0    0    0  501  0.00000000000E+00  0.00000000000E+00  0.51321550462E+03  0.51321550464E+03  0.50400001928E-02 0.  1.
        1   -1    0    0  501    0  0.00000000000E+00  0.00000000000E+00 -0.12488606310E+04  0.12488606310E+04  0.50400001928E-02 0. -1.
    10030    2    1    2    0    0  0.00000000000E+00  0.00000000000E+00 -0.73564512640E+03  0.17620761357E+04  0.16011678725E+04 0.  0.
        2    1    3    3  502    0  0.85042564180E+02  0.38546339447E+03 -0.11343232684E+04  0.12010426901E+04  0.25500000920E-02 0. -1.
       -2    1    3    3    0  502 -0.85042564180E+02 -0.38546339447E+03  0.39867814197E+03  0.56103344560E+03  0.25500000920E-02 0.  1.
</event>
<event>
 5   0  0.3274900E-04  0.1606929E+04  0.7818609E-02  0.8816302E-01
       -2   -1    0    0    0  501  0.00000000000E+00  0.00000000000E+00  0.10336979738E+04  0.10336979738E+04  0.25500000920E-02 0. -1.
        2   -1    0    0  501    0  0.00000000000E+00  0.00000000000E+00 -0.62451075252E+03  0.62451075252E+03  0.25500000920E-02 0.  1.
    10030    2    1    2    0    0  0.00000000000E+00  0.00000000000E+00  0.40918722125E+03  0.16582087263E+04  0.16069293693E+04 0.  0.
        3    1    3    3  502    0  0.11223557229E+03 -0.40107816321E+03 -0.50442411990E+03  0.65414388298E+03  0.10100000352E+00 0.  1.
       -3    1    3    3    0  502 -0.11223557229E+03  0.40107816321E+03  0.91361134115E+03  0.10040648433E+04  0.10100000352E+00 0. -1.
</event>
<event>
 5   0  0.3210612E-04  0.1565230E+04  0.7818609E-02  0.8842198E-01
        2   -1    0    0  501    0  0.00000000000E+00  0.00000000000E+00  0.72936324081E+03  0.72936324081E+03  0.25500000920E-02 0. -1.
       -2   -1    0    0    0  501  0.00000000000E+00  0.00000000000E+00 -0.83975489135E+03  0.83975489136E+03  0.25500000920E-02 0.  1.
    10030    2    1    2    0    0  0.00000000000E+00  0.00000000000E+00 -0.11039165055E+03  0.15691181322E+04  0.15652301416E+04 0.  0.
        2    1    3    3  502    0  0.89098931440E+02 -0.17016557835E+03 -0.81575776538E+03  0.83806662947E+03  0.25500000920E-02 0.  1.
       -2    1    3    3    0  502 -0.89098931440E+02  0.17016557835E+03  0.70536611483E+03  0.73105150270E+03  0.25500000920E-02 0. -1.
</event>
<event>
 5   0  0.3210612E-04  0.1579945E+04  0.7818609E-02  0.8832964E-01
        2   -1    0    0  501    0  0.00000000000E+00  0.00000000000E+00  0.90572106704E+03  0.90572106704E+03  0.25500000920E-02 0.  1.
       -2   -1    0    0    0  501  0.00000000000E+00  0.00000000000E+00 -0.68901610928E+03  0.68901610928E+03  0.25500000920E-02 0. -1.
    10030    2    1    2    0    0  0.00000000000E+00  0.00000000000E+00  0.21670495776E+03  0.15947371763E+04  0.15799448164E+04 0.  0.
        2    1    3    3  502    0  0.11902700163E+03 -0.56698681786E+03  0.65042334559E+03  0.87102928036E+03  0.25500000920E-02 0.  1.
       -2    1    3    3    0  502 -0.11902700163E+03  0.56698681786E+03 -0.43371838782E+03  0.72370789597E+03  0.25500000920E-02 0. -1.
</event>
<event>
 5   0  0.1787688E-04  0.1616416E+04  0.7818609E-02  0.8810526E-01
        1   -1    0    0  501    0  0.00000000000E+00  0.00000000000E+00  0.42823850681E+03  0.42823850684E+03  0.50400001928E-02 0. -1.
       -1   -1    0    0    0  501  0.00000000000E+00  0.00000000000E+00 -0.15253189786E+04  0.15253189786E+04  0.50400001928E-02 0.  1.
    10030    2    1    2    0    0  0.00000000000E+00  0.00000000000E+00 -0.10970804718E+04  0.19535574854E+04  0.16164161863E+04 0.  0.
        4    1    3    3  502    0  0.18872342494E+03 -0.64781278206E+03 -0.10862138179E+04  0.12787259296E+04  0.12699999809E+01 0.  1.
       -4    1    3    3    0  502 -0.18872342494E+03  0.64781278206E+03 -0.10866653821E+02  0.67483155586E+03  0.12699999809E+01 0. -1.
</event>
<event>
 5   0  0.1219463E-04  0.1607598E+04  0.7818609E-02  0.8815894E-01
       -3   -1    0    0    0  501  0.00000000000E+00  0.00000000000E+00  0.49628065684E+03  0.49628066712E+03  0.10100000352E+00 0. -1.
        3   -1    0    0  501    0  0.00000000000E+00  0.00000000000E+00 -0.13018697837E+04  0.13018697877E+04  0.10100000352E+00 0.  1.
    10030    2    1    2    0    0  0.00000000000E+00  0.00000000000E+00 -0.80558912690E+03  0.17981504548E+04  0.16075979649E+04 0.  0.
        4    1    3    3  502    0 -0.70849317714E+03 -0.27570943540E+03 -0.11087492160E+03  0.76829235058E+03  0.12699999809E+01 0. -1.
       -4    1    3    3    0  502  0.70849317714E+03  0.27570943540E+03 -0.69471420529E+03  0.10298581042E+04  0.12699999809E+01 0.  1.
</event>
<event>
 5   0  0.3228393E-04  0.1627020E+04  0.7818609E-02  0.8804119E-01
        2   -1    0    0  501    0  0.00000000000E+00  0.00000000000E+00  0.19036847064E+04  0.19036847064E+04  0.25500000920E-02 0.  1.
       -2   -1    0    0    0  501  0.00000000000E+00  0.00000000000E+00 -0.34764066007E+03  0.34764066008E+03  0.25500000920E-02 0. -1.
    10030    2    1    2    0    0  0.00000000000E+00  0.00000000000E+00  0.15560440463E+04  0.22513253665E+04  0.16270196162E+04 0.  0.
        1    1    3    3  502    0 -0.39475229659E+02  0.44585929810E+03  0.17179780107E+04  0.17753301813E+04  0.50400001928E-02 0.  1.
       -1    1    3    3    0  502  0.39475229659E+02 -0.44585929810E+03 -0.16193396436E+03  0.47599518517E+03  0.50400001928E-02 0. -1.
</event>
<event>
 5   0  0.3274900E-04  0.1599993E+04  0.7818609E-02  0.8820552E-01
       -2   -1    0    0    0  501  0.00000000000E+00  0.00000000000E+00  0.36986442803E+03  0.36986442804E+03  0.25500000920E-02 0.  1.
        2   -1    0    0  501    0  0.00000000000E+00  0.00000000000E+00 -0.17303489550E+04  0.17303489550E+04  0.25500000920E-02 0. -1.
    10030    2    1    2    0    0  0.00000000000E+00  0.00000000000E+00 -0.13604845269E+04  0.21002133830E+04  0.15999931581E+04 0.  0.
        3    1    3    3  502    0  0.33205626237E+03 -0.57046992317E+03 -0.86939288071E+02  0.66577454490E+03  0.10100000352E+00 0.  1.
       -3    1    3    3    0  502 -0.33205626237E+03  0.57046992317E+03 -0.12735452389E+04  0.14344388381E+04  0.10100000352E+00 0. -1.
</event>
<event>
 5   0  0.1219463E-04  0.1601661E+04  0.7818609E-02  0.8819528E-01
       -4   -1    0    0    0  501  0.00000000000E+00  0.00000000000E+00  0.50169626806E+03  0.50169787550E+03  0.12699999809E+01 0.  1.
        4   -1    0    0  501    0  0.00000000000E+00  0.00000000000E+00 -0.12783180901E+04  0.12783187209E+04  0.12699999809E+01 0. -1.
    10030    2    1    2    0    0  0.00000000000E+00  0.00000000000E+00 -0.77662182201E+03  0.17800165964E+04  0.16016608971E+04 0.  0.
        5    1    3    3  502    0 -0.77618033743E+03 -0.14899381283E+03 -0.53172435737E+03  0.95257963168E+03  0.46999998093E+01 0. -1.
       -5    1    3    3    0  502  0.77618033743E+03  0.14899381283E+03 -0.24489746464E+03  0.82743696476E+03  0.46999998093E+01 0.  1.
</event>
<event>
 5   0  0.3274900E-04  0.1592603E+04  0.7818609E-02  0.8825105E-01
       -2   -1    0    0    0  501  0.00000000000E+00  0.00000000000E+00  0.41171302951E+03  0.41171302951E+03  0.25500000920E-02 0. -1.
        2   -1    0    0  501    0  0.00000000000E+00  0.00000000000E+00 -0.15401408890E+04  0.15401408890E+04  0.25500000920E-02 0.  1.
    10030    2    1    2    0    0  0.00000000000E+00  0.00000000000E+00 -0.11284278595E+04  0.19518539185E+04  0.15926029904E+04 0.  0.
        3    1    3    3  502    0 -0.57947710718E+03 -0.53293003093E+03 -0.41771840017E+03  0.89123330708E+03  0.10100000352E+00 0.  1.
       -3    1    3    3    0  502  0.57947710718E+03  0.53293003093E+03 -0.71070945930E+03  0.10606206114E+04  0.10100000352E+00 0. -1.
</event>
<event>
 5   0  0.3210612E-04  0.1614779E+04  0.7818609E-02  0.8811520E-01
        2   -1    0    0  501    0  0.00000000000E+00  0.00000000000E+00  0.80805707774E+03  0.80805707775E+03  0.25500000920E-02 0. -1.
       -2   -1    0    0    0  501  0.00000000000E+00  0.00000000000E+00 -0.80672275591E+03  0.80672275592E+03  0.25500000920E-02 0.  1.
    10030    2    1    2    0    0  0.00000000000E+00  0.00000000000E+00  0.13343218281E+01  0.16147798337E+04  0.16147792824E+04 0.  0.
        2    1    3    3  502    0  0.38934560824E+03  0.82375718712E+01  0.70792985186E+03  0.80797434081E+03  0.25500000920E-02 0. -1.
       -2    1    3    3    0  502 -0.38934560824E+03 -0.82375718712E+01 -0.70659553003E+03  0.80680549286E+03  0.25500000920E-02 0.  1.
</event>
<event>
 5   0  0.3274900E-04  0.1603779E+04  0.7818609E-02  0.8818230E-01
        2   -1    0    0  501    0  0.00000000000E+00  0.00000000000E+00  0.95035215397E+03  0.95035215397E+03  0.25500000920E-02 0.  1.
       -2   -1    0    0    0  501  0.00000000000E+00  0.00000000000E+00 -0.67661956909E+03  0.67661956910E+03  0.25500000920E-02 0. -1.
    10030    2    1    2    0    0  0.00000000000E+00  0.00000000000E+00  0.27373258487E+03  0.16269717231E+04  0.16037791181E+04 0.  0.
        3    1    3    3  502    0  0.32094592441E+03  0.73471814460E+03  0.15156080138E+03  0.81595816382E+03  0.10100000352E+00 0. -1.
       -3    1    3    3    0  502 -0.32094592441E+03 -0.73471814460E+03  0.12217178350E+03  0.81101355925E+03  0.10100000352E+00 0.  1.
</event>
<event>
 5   0  0.1764099E-04  0.1604472E+04  0.7818609E-02  0.8817805E-01
        1   -1    0    0  501    0  0.00000000000E+00  0.00000000000E+00  0.20186812005E+04  0.20186812005E+04  0.50400001928E-02 0. -1.
       -1   -1    0    0    0  501  0.00000000000E+00  0.00000000000E+00 -0.31881343159E+03  0.31881343163E+03  0.50400001928E-02 0.  1.
    10030    2    1    2    0    0  0.00000000000E+00  0.00000000000E+00  0.16998677689E+04  0.23374946321E+04  0.16044721012E+04 0.  0.
        5    1    3    3  502    0 -0.67765628071E+03 -0.55951105782E+01  0.22448132289E+03  0.71390706284E+03  0.46999998093E+01 0.  1.
       -5    1    3    3    0  502  0.67765628071E+03  0.55951105782E+01  0.14753864460E+04  0.16235875693E+04  0.46999998093E+01 0. -1.
</event>
<event>
 5   0  0.1764099E-04  0.1561617E+04  0.7818609E-02  0.8844482E-01
        1   -1    0    0  501    0  0.00000000000E+00  0.00000000000E+00  0.72024132430E+03  0.72024132432E+03  0.50400001928E-02 0.  1.
       -1   -1    0    0    0  501  0.00000000000E+00  0.00000000000E+00 -0.84646878164E+03  0.84646878166E+03  0.50400001928E-02 0. -1.
    10030    2    1    2    0    0  0.00000000000E+00  0.00000000000E+00 -0.12622745734E+03  0.15667101060E+04  0.15616168497E+04 0.  0.
        5    1    3    3  502    0  0.74972715330E+03  0.11631541415E+03 -0.24815939901E+03  0.79826390203E+03  0.46999998093E+01 0.  1.
       -5    1    3    3    0  502 -0.74972715330E+03 -0.11631541415E+03  0.12193194167E+03  0.76844620395E+03  0.46999998093E+01 0. -1.
</event>
<event>
 5   0  0.3228393E-04  0.1599386E+04  0.7818609E-02  0.8820925E-01
       -2   -1    0    0    0  501  0.00000000000E+00  0.00000000000E+00  0.13553016885E+04  0.13553016885E+04  0.25500000920E-02 0. -1.
        2   -1    0    0  501    0  0.00000000000E+00  0.00000000000E+00 -0.47185745298E+03  0.47185745299E+03  0.25500000920E-02 0.  1.
    10030    2    1    2    0    0  0.00000000000E+00  0.00000000000E+00  0.88344423553E+03  0.18271591415E+04  0.15993863858E+04 0.  0.
        1    1    3    3  502    0  0.21730096386E+03 -0.64149777497E+03 -0.43998207947E+02  0.67873039309E+03  0.50400001928E-02 0.  1.
       -1    1    3    3    0  502 -0.21730096386E+03  0.64149777497E+03  0.92744244348E+03  0.11484287484E+04  0.50400001928E-02 0. -1.
</event>
<event>
 5   0  0.1761255E-04  0.1596667E+04  0.7818609E-02  0.8822598E-01
       -1   -1    0    0    0  501  0.00000000000E+00  0.00000000000E+00  0.74403002175E+03  0.74403002177E+03  0.50400001928E-02 0.  1.
        1   -1    0    0  501    0  0.00000000000E+00  0.00000000000E+00 -0.85660013963E+03  0.85660013964E+03  0.50400001928E-02 0. -1.
    10030    2    1    2    0    0  0.00000000000E+00  0.00000000000E+00 -0.11257011787E+03  0.16006301614E+04  0.15966668037E+04 0.  0.
        2    1    3    3  502    0  0.39953818371E+03 -0.37665951058E+03  0.52466450791E+03  0.75945769666E+03  0.25500000920E-02 0.  1.
       -2    1    3    3    0  502 -0.39953818371E+03  0.37665951058E+03 -0.63723462579E+03  0.84117246475E+03  0.25500000920E-02 0. -1.
</event>
<event>
 5   0  0.3210612E-04  0.1597371E+04  0.7818609E-02  0.8822164E-01
        2   -1    0    0  501    0  0.00000000000E+00  0.00000000000E+00  0.75134659412E+03  0.75134659412E+03  0.25500000920E-02 0. -1.
       -2   -1    0    0    0  501  0.00000000000E+00  0.00000000000E+00 -0.84900749971E+03  0.84900749972E+03  0.25500000920E-02 0.  1.
    10030    2    1    2    0    0  0.00000000000E+00  0.00000000000E+00 -0.97660905592E+02  0.16003540938E+04  0.15973714575E+04 0.  0.
        2    1    3    3  502    0  0.38572751585E+03 -0.16916244985E+03  0.63103610973E+03  0.75868848859E+03  0.25500000920E-02 0. -1.
       -2    1    3    3    0  502 -0.38572751585E+03  0.16916244985E+03 -0.72869701532E+03  0.84166560525E+03  0.25500000920E-02 0.  1.
</event>
<event>
 5   0  0.1819811E-04  0.1595488E+04  0.7818609E-02  0.8823325E-01
        1   -1    0    0  501    0  0.00000000000E+00  0.00000000000E+00  0.82937541947E+03  0.82937541949E+03  0.50400001928E-02 0. -1.
       -1   -1    0    0    0  501  0.00000000000E+00  0.00000000000E+00 -0.76731920693E+03  0.76731920695E+03  0.50400001928E-02 0.  1.
    10030    2    1    2    0    0  0.00000000000E+00  0.00000000000E+00  0.62056212538E+02  0.15966946264E+04  0.15954882502E+04 0.  0.
        1    1    3    3  502    0 -0.18497903515E+03 -0.71071252866E+03  0.34281808294E+03  0.81046516264E+03  0.50400001928E-02 0. -1.
       -1    1    3    3    0  502  0.18497903515E+03  0.71071252866E+03 -0.28076187040E+03  0.78622946379E+03  0.50400001928E-02 0.  1.
</event>
<event>
 5   0  0.3263294E-04  0.1600326E+04  0.7818609E-02  0.8820348E-01
        2   -1    0    0  501    0  0.00000000000E+00  0.00000000000E+00  0.85402389924E+03  0.85402389925E+03  0.25500000920E-02 0. -1.
       -2   -1    0    0    0  501  0.00000000000E+00  0.00000000000E+00 -0.74969905957E+03  0.74969905957E+03  0.25500000920E-02 0.  1.
    10030    2    1    2    0    0  0.00000000000E+00  0.00000000000E+00  0.10432483967E+03  0.16037229588E+04  0.16003261094E+04 0.  0.
        4    1    3    3  502    0 -0.49242069804E+03 -0.21199525653E+03  0.64742591600E+03  0.84058435761E+03  0.12699999809E+01 0. -1.
       -4    1    3    3    0  502  0.49242069804E+03  0.21199525653E+03 -0.54310107633E+03  0.76313860121E+03  0.12699999809E+01 0.  1.
</event>
<event>
 5   0  0.1787688E-04  0.1579542E+04  0.7818609E-02  0.8833215E-01
       -1   -1    0    0    0  501  0.00000000000E+00  0.00000000000E+00  0.11872302256E+04  0.11872302256E+04  0.50400001928E-02 0. -1.
        1   -1    0    0  501    0  0.00000000000E+00  0.00000000000E+00 -0.52537287804E+03  0.52537287806E+03  0.50400001928E-02 0.  1.
    10030    2    1    2    0    0  0.00000000000E+00  0.00000000000E+00  0.66185734760E+03  0.17126031037E+04  0.15795424155E+04 0.  0.
        4    1    3    3  502    0  0.57481424263E+03 -0.47086641566E+03  0.40784843024E+02  0.74417176192E+03  0.12699999809E+01 0.  1.
       -4    1    3    3    0  502 -0.57481424263E+03  0.47086641566E+03  0.62107250457E+03  0.96843134179E+03  0.12699999809E+01 0. -1.
</event>
<event>
 5   0  0.3380454E-04  0.1597796E+04  0.7818609E-02  0.8821903E-01
        2   -1    0    0  501    0  0.00000000000E+00  0.00000000000E+00  0.20280692601E+04  0.20280692601E+04  0.25500000920E-02 0. -1.
       -2   -1    0    0    0  501  0.00000000000E+00  0.00000000000E+00 -0.31470213135E+03  0.31470213136E+03  0.25500000920E-02 0.  1.
    10030    2    1    2    0    0  0.00000000000E+00  0.00000000000E+00  0.17133671288E+04  0.23427713915E+04  0.15977956299E+04 0.  0.
        5    1    3    3  502    0  0.53517309676E+03  0.56766719450E+03  0.11087738211E+04  0.13557498897E+04  0.46999998093E+01 0. -1.
       -5    1    3    3    0  502 -0.53517309676E+03 -0.56766719450E+03  0.60459330770E+03  0.98702150176E+03  0.46999998093E+01 0.  1.
</event>
<event>
 5   0  0.1761255E-04  0.1597858E+04  0.7818609E-02  0.8821865E-01
       -1   -1    0    0    0  501  0.00000000000E+00  0.00000000000E+00  0.35078350775E+03  0.35078350778E+03  0.50400001928E-02 0.  1.
        1   -1    0    0  501    0  0.00000000000E+00  0.00000000000E+00 -0.18196061596E+04  0.18196061596E+04  0.50400001928E-02 0. -1.
    10030    2    1    2    0    0  0.00000000000E+00  0.00000000000E+00 -0.14688226518E+04  0.21703896674E+04  0.15978583560E+04 0.  0.
        2    1    3    3  502    0  0.47152078084E+03 -0.37564934014E+03 -0.14465133431E+04  0.15671136288E+04  0.25500000920E-02 0. -1.
       -2    1    3    3    0  502 -0.47152078084E+03  0.37564934014E+03 -0.22309308696E+02  0.60327603862E+03  0.25500000920E-02 0.  1.
</event>
<event>
 5   0  0.1764099E-04  0.1574679E+04  0.7818609E-02  0.8836256E-01
       -1   -1    0    0    0  501  0.00000000000E+00  0.00000000000E+00  0.37280244971E+03  0.37280244975E+03  0.50400001928E-02 0. -1.
        1   -1    0    0  501    0  0.00000000000E+00  0.00000000000E+00 -0.16628211588E+04  0.16628211588E+04  0.50400001928E-02 0.  1.
    10030    2    1    2    0    0  0.00000000000E+00  0.00000000000E+00 -0.12900187091E+04  0.20356236086E+04  0.15746793978E+04 0.  0.
        5    1    3    3  502    0 -0.25675623575E+03  0.89427255912E+02 -0.16001911343E+04  0.16231311577E+04  0.46999998093E+01 0.  1.
       -5    1    3    3    0  502  0.25675623575E+03 -0.89427255912E+02  0.31017242520E+03  0.41249245090E+03  0.46999998093E+01 0. -1.
</event>
<event>
 5   0  0.3228393E-04  0.1596755E+04  0.7818609E-02  0.8822544E-01
       -2   -1    0    0    0  501  0.00000000000E+00  0.00000000000E+00  0.64848328195E+03  0.64848328196E+03  0.25500000920E-02 0. -1.
        2   -1    0    0  501    0  0.00000000000E+00  0.00000000000E+00 -0.98291930628E+03  0.98291930628E+03  0.25500000920E-02 0.  1.
    10030    2    1    2    0    0  0.00000000000E+00  0.00000000000E+00 -0.33443602433E+03  0.16314025882E+04  0.15967551317E+04 0.  0.
        1    1    3    3  502    0 -0.52584901721E+03  0.35953673767E+02  0.44545787051E+03  0.69010330385E+03  0.50400001928E-02 0. -1.
       -1    1    3    3    0  502  0.52584901721E+03 -0.35953673767E+02 -0.77989389484E+03  0.94129928439E+03  0.50400001928E-02 0.  1.
</event>
<event>
 5   0  0.1736537E-04  0.1755325E+04  0.7818609E-02  0.8730425E-01
        1   -1    0    0  501    0  0.00000000000E+00  0.00000000000E+00  0.15183658190E+04  0.15183658190E+04  0.50400001928E-02 0. -1.
       -1   -1    0    0    0  501  0.00000000000E+00  0.00000000000E+00 -0.50731622693E+03  0.50731622695E+03  0.50400001928E-02 0.  1.
    10030    2    1    2    0    0  0.00000000000E+00  0.00000000000E+00  0.10110495921E+04  0.20256820460E+04  0.17553251761E+04 0.  0.
        3    1    3    3  502    0 -0.16554671545E+02  0.48444229443E+03 -0.33883158913E+03  0.59140954488E+03  0.10100000352E+00 0.  1.
       -3    1    3    3    0  502  0.16554671545E+02 -0.48444229443E+03  0.13498811812E+04  0.14342725011E+04  0.10100000352E+00 0. -1.
</event>
<event>
 5   0  0.3228393E-04  0.1594267E+04  0.7818609E-02  0.8824078E-01
       -2   -1    0    0    0  501  0.00000000000E+00  0.00000000000E+00  0.40934896600E+03  0.40934896601E+03  0.25500000920E-02 0. -1.
        2   -1    0    0  501    0  0.00000000000E+00  0.00000000000E+00 -0.15522744424E+04  0.15522744424E+04  0.25500000920E-02 0.  1.
    10030    2    1    2    0    0  0.00000000000E+00  0.00000000000E+00 -0.11429254764E+04  0.19616234084E+04  0.15942671520E+04 0.  0.
        1    1    3    3  502    0 -0.38501113956E+03 -0.25738031031E+03 -0.13697635356E+04  0.14459358026E+04  0.50400001928E-02 0.  1.
       -1    1    3    3    0  502  0.38501113956E+03  0.25738031031E+03  0.22683805917E+03  0.51568760585E+03  0.50400001928E-02 0. -1.
</event>
<event>
 5   0  0.1736537E-04  0.1593513E+04  0.7818609E-02  0.8824543E-01
       -1   -1    0    0    0  501  0.00000000000E+00  0.00000000000E+00  0.41004263912E+03  0.41004263915E+03  0.50400001928E-02 0. -1.
        1   -1    0    0  501    0  0.00000000000E+00  0.00000000000E+00 -0.15481833824E+04  0.15481833824E+04  0.50400001928E-02 0.  1.
    10030    2    1    2    0    0  0.00000000000E+00  0.00000000000E+00 -0.11381407433E+04  0.19582260215E+04  0.15935133510E+04 0.  0.
        3    1    3    3  502    0  0.65964268847E+03  0.19932318536E+03 -0.10605628268E+04  0.12647733901E+04  0.10100000352E+00 0.  1.
       -3    1    3    3    0  502 -0.65964268847E+03 -0.19932318536E+03 -0.77577916490E+02  0.69345263140E+03  0.10100000352E+00 0. -1.
</event>
<event>
 5   0  0.1764099E-04  0.1600052E+04  0.7818609E-02  0.8820516E-01
        1   -1    0    0  501    0  0.00000000000E+00  0.00000000000E+00  0.19117578687E+04  0.19117578687E+04  0.50400001928E-02 0.  1.
       -1   -1    0    0    0  501  0.00000000000E+00  0.00000000000E+00 -0.33479201703E+03  0.33479201707E+03  0.50400001928E-02 0. -1.
    10030    2    1    2    0    0  0.00000000000E+00  0.00000000000E+00  0.15769658517E+04  0.22465498858E+04  0.16000515904E+04 0.  0.
        5    1    3    3  502    0  0.39826291710E+03 -0.60571443600E+03  0.31335026089E+03  0.78975553503E+03  0.46999998093E+01 0. -1.
       -5    1    3    3    0  502 -0.39826291710E+03  0.60571443600E+03  0.12636155908E+04  0.14567943508E+04  0.46999998093E+01 0.  1.
</event>
<event>
 5   0  0.3263294E-04  0.1596294E+04  0.7818609E-02  0.8822828E-01
        2   -1    0    0  501    0  0.00000000000E+00  0.00000000000E+00  0.79696582661E+03  0.79696582661E+03  0.25500000920E-02 0.  1.
       -2   -1    0    0    0  501  0.00000000000E+00  0.00000000000E+00 -0.79932976136E+03  0.79932976136E+03  0.25500000920E-02 0. -1.
    10030    2    1    2    0    0  0.00000000000E+00  0.00000000000E+00 -0.23639347502E+01  0.15962955880E+04  0.15962938376E+04 0.  0.
        4    1    3    3  502    0 -0.69437754279E+03 -0.38174756427E+03 -0.96814265253E+02  0.79828941469E+03  0.12699999809E+01 0. -1.
       -4    1    3    3    0  502  0.69437754279E+03  0.38174756427E+03  0.94450330503E+02  0.79800617328E+03  0.12699999809E+01 0.  1.
</event>
<event>
 5   0  0.3210612E-04  0.1610994E+04  0.7818609E-02  0.8813822E-01
       -2   -1    0    0    0  501  0.00000000000E+00  0.00000000000E+00  0.64006430890E+03  0.64006430890E+03  0.25500000920E-02 0. -1.
        2   -1    0    0  501    0  0.00000000000E+00  0.00000000000E+00 -0.10136880752E+04  0.10136880752E+04  0.25500000920E-02 0.  1.
    10030    2    1    2    0    0  0.00000000000E+00  0.00000000000E+00 -0.37362376626E+03  0.16537523841E+04  0.16109941741E+04 0.  0.
        2    1    3    3  502    0 -0.72520795398E+03 -0.69146767078E+02 -0.53961630045E+03  0.90658347858E+03  0.25500000920E-02 0. -1.
       -2    1    3    3    0  502  0.72520795398E+03  0.69146767078E+02  0.16599253419E+03  0.74716890549E+03  0.25500000920E-02 0.  1.
</event>
<event>
 5   0  0.1787688E-04  0.1597895E+04  0.7818609E-02  0.8821842E-01
        1   -1    0    0  501    0  0.00000000000E+00  0.00000000000E+00  0.86040795609E+03  0.86040795611E+03  0.50400001928E-02 0.  1.
       -1   -1    0    0    0  501  0.00000000000E+00  0.00000000000E+00 -0.74187740625E+03  0.74187740627E+03  0.50400001928E-02 0. -1.
    10030    2    1    2    0    0  0.00000000000E+00  0.00000000000E+00  0.11853054985E+03  0.16022853624E+04  0.15978951440E+04 0.  0.
        4    1    3    3  502    0 -0.58459971625E+03  0.41189271553E+03  0.41647874567E+03  0.82756787990E+03  0.12699999809E+01 0.  1.
       -4    1    3    3    0  502  0.58459971625E+03 -0.41189271553E+03 -0.29794819582E+03  0.77471748247E+03  0.12699999809E+01 0. -1.
</event>
<event>
 5   0  0.3380454E-04  0.1583659E+04  0.7818609E-02  0.8830650E-01
        2   -1    0    0  501    0  0.00000000000E+00  0.00000000000E+00  0.47919542704E+03  0.47919542705E+03  0.25500000920E-02 0. -1.
       -2   -1    0    0    0  501  0.00000000000E+00  0.00000000000E+00 -0.13084310457E+04  0.13084310457E+04  0.25500000920E-02 0.  1.
    10030    2    1    2    0    0  0.00000000000E+00  0.00000000000E+00 -0.82923561867E+03  0.17876264728E+04  0.15836592736E+04 0.  0.
        5    1    3    3  502    0 -0.23307734680E+03 -0.74488353772E+03 -0.26403661795E+03  0.82396235349E+03  0.46999998093E+01 0. -1.
       -5    1    3    3    0  502  0.23307734680E+03  0.74488353772E+03 -0.56519900072E+03  0.96366411927E+03  0.46999998093E+01 0.  1.
</event>
<event>
 5   0  0.1819811E-04  0.1428977E+04  0.7818609E-02  0.8933107E-01
       -1   -1    0    0    0  501  0.00000000000E+00  0.00000000000E+00  0.12599286096E+04  0.12599286096E+04  0.50400001928E-02 0.  1.
        1   -1    0    0  501    0  0.00000000000E+00  0.00000000000E+00 -0.40517661999E+03  0.40517662002E+03  0.50400001928E-02 0. -1.
    10030    2    1    2    0    0  0.00000000000E+00  0.00000000000E+00  0.85475198960E+03  0.16651052296E+04  0.14289767185E+04 0.  0.
        1    1    3    3  502    0 -0.21066226249E+03 -0.66595195390E+03  0.25211235043E+03  0.74258415753E+03  0.50400001928E-02 0. -1.
       -1    1    3    3    0  502  0.21066226249E+03  0.66595195390E+03  0.60263963916E+03  0.92252107209E+03  0.50400001928E-02 0.  1.
</event>
<event>
 5   0  0.3263294E-04  0.1591902E+04  0.7818609E-02  0.8825538E-01
       -2   -1    0    0    0  501  0.00000000000E+00  0.00000000000E+00  0.40438374486E+03  0.40438374487E+03  0.25500000920E-02 0.  1.
        2   -1    0    0  501    0  0.00000000000E+00  0.00000000000E+00 -0.15666760781E+04  0.15666760781E+04  0.25500000920E-02 0. -1.
    10030    2    1    2    0    0  0.00000000000E+00  0.00000000000E+00 -0.11622923333E+04  0.19710598230E+04  0.15919024335E+04 0.  0.
        4    1    3    3  502    0 -0.17683019673E+03 -0.77407670506E+03 -0.64978487061E+03  0.10260047050E+04  0.12699999809E+01 0.  1.
       -4    1    3    3    0  502  0.17683019673E+03  0.77407670506E+03 -0.51250746266E+03  0.94505511796E+03  0.12699999809E+01 0. -1.
</event>
<event>
 5   0  0.1761255E-04  0.1599957E+04  0.7818609E-02  0.8820575E-01
        1   -1    0    0  501    0  0.00000000000E+00  0.00000000000E+00  0.82040834913E+03  0.82040834915E+03  0.50400001928E-02 0.  1.
       -1   -1    0    0    0  501  0.00000000000E+00  0.00000000000E+00 -0.78005690907E+03  0.78005690909E+03  0.50400001928E-02 0. -1.
    10030    2    1    2    0    0  0.00000000000E+00  0.00000000000E+00  0.40351440057E+02  0.16004652582E+04  0.15999565007E+04 0.  0.
        2    1    3    3  502    0  0.33675636769E+03 -0.29188814117E+03 -0.64438608879E+03  0.78347748504E+03  0.25500000920E-02 0. -1.
       -2    1    3    3    0  502 -0.33675636769E+03  0.29188814117E+03  0.68473752884E+03  0.81698777320E+03  0.25500000920E-02 0.  1.
</event>
<event>
 5   0  0.1761255E-04  0.1608180E+04  0.7818609E-02  0.8815538E-01
       -1   -1    0    0    0  501  0.00000000000E+00  0.00000000000E+00  0.61627505907E+03  0.61627505909E+03  0.50400001928E-02 0. -1.
        1   -1    0    0  501    0  0.00000000000E+00  0.00000000000E+00 -0.10491436169E+04  0.10491436169E+04  0.50400001928E-02 0.  1.
    10030    2    1    2    0    0  0.00000000000E+00  0.00000000000E+00 -0.43286855779E+03  0.16654186760E+04  0.16081803935E+04 0.  0.
        2    1    3    3  502    0 -0.34163165778E+03 -0.26094913327E+03  0.48727648008E+03  0.64980382254E+03  0.25500000920E-02 0. -1.
       -2    1    3    3    0  502  0.34163165778E+03  0.26094913327E+03 -0.92014503787E+03  0.10156148534E+04  0.25500000920E-02 0.  1.
</event>
<event>
 5   0  0.3210612E-04  0.1593737E+04  0.7818609E-02  0.8824405E-01
        2   -1    0    0  501    0  0.00000000000E+00  0.00000000000E+00  0.20330669733E+04  0.20330669733E+04  0.25500000920E-02 0. -1.
       -2   -1    0    0    0  501  0.00000000000E+00  0.00000000000E+00 -0.31233589023E+03  0.31233589024E+03  0.25500000920E-02 0.  1.
    10030    2    1    2    0    0  0.00000000000E+00  0.00000000000E+00  0.17207310831E+04  0.23454028635E+04  0.15937374728E+04 0.  0.
        2    1    3    3  502    0  0.65949365698E+03  0.10457270421E+03  0.15003710176E+04  0.16422486184E+04  0.25500000920E-02 0. -1.
       -2    1    3    3    0  502 -0.65949365698E+03 -0.10457270421E+03  0.22036006548E+03  0.70315424519E+03  0.25500000920E-02 0.  1.
</event>
<event>
 5   0  0.1764099E-04  0.1589242E+04  0.7818609E-02  0.8827184E-01
        1   -1    0    0  501    0  0.00000000000E+00  0.00000000000E+00  0.23219312312E+04  0.23219312312E+04  0.50400001928E-02 0.  1.
       -1   -1    0    0    0  501  0.00000000000E+00  0.00000000000E+00 -0.27193867828E+03  0.27193867833E+03  0.50400001928E-02 0. -1.
    10030    2    1    2    0    0  0.00000000000E+00  0.00000000000E+00  0.20499925529E+04  0.25938699095E+04  0.15892424738E+04 0.  0.
        5    1    3    3  502    0  0.51667464342E+03 -0.39872167650E+03  0.28516728146E+03  0.71223179575E+03  0.46999998093E+01 0. -1.
       -5    1    3    3    0  502 -0.51667464342E+03  0.39872167650E+03  0.17648252714E+04  0.18816381138E+04  0.46999998093E+01 0.  1.
</event>
<event>
 5   0  0.1787688E-04  0.1597862E+04  0.7818609E-02  0.8821863E-01
        1   -1    0    0  501    0  0.00000000000E+00  0.00000000000E+00  0.32948818749E+03  0.32948818752E+03  0.50400001928E-02 0. -1.
       -1   -1    0    0    0  501  0.00000000000E+00  0.00000000000E+00 -0.19372184584E+04  0.19372184584E+04  0.50400001928E-02 0.  1.
    10030    2    1    2    0    0  0.00000000000E+00  0.00000000000E+00 -0.16077302709E+04  0.22667066460E+04  0.15978618197E+04 0.  0.
        4    1    3    3  502    0  0.58676998997E+03  0.54209744725E+03 -0.78830443160E+03  0.11223164229E+04  0.12699999809E+01 0.  1.
       -4    1    3    3    0  502 -0.58676998997E+03 -0.54209744725E+03 -0.81942583935E+03  0.11443902230E+04  0.12699999809E+01 0. -1.
</event>
<event>
 5   0  0.1764099E-04  0.1587631E+04  0.7818609E-02  0.8828183E-01
        1   -1    0    0  501    0  0.00000000000E+00  0.00000000000E+00  0.61440232006E+03  0.61440232008E+03  0.50400001928E-02 0. -1.
       -1   -1    0    0    0  501  0.00000000000E+00  0.00000000000E+00 -0.10256197814E+04  0.10256197814E+04  0.50400001928E-02 0.  1.
    10030    2    1    2    0    0  0.00000000000E+00  0.00000000000E+00 -0.41121746131E+03  0.16400221015E+04  0.15876311577E+04 0.  0.
        5    1    3    3  502    0  0.64238077685E+03 -0.62923069811E+02  0.27170934779E+03  0.70032880481E+03  0.46999998093E+01 0. -1.
       -5    1    3    3    0  502 -0.64238077685E+03  0.62923069811E+02 -0.68292680910E+03  0.93969329665E+03  0.46999998093E+01 0.  1.
</event>
<event>
 5   0  0.3210612E-04  0.1604246E+04  0.7818609E-02  0.8817944E-01
       -2   -1    0    0    0  501  0.00000000000E+00  0.00000000000E+00  0.60768730071E+03  0.60768730071E+03  0.25500000920E-02 0. -1.
        2   -1    0    0  501    0  0.00000000000E+00  0.00000000000E+00 -0.10587697524E+04  0.10587697524E+04  0.25500000920E-02 0.  1.
    10030    2    1    2    0    0  0.00000000000E+00  0.00000000000E+00 -0.45108245167E+03  0.16664570531E+04  0.16042455334E+04 0.  0.
        2    1    3    3  502    0  0.55700071721E+03 -0.56064927459E+03 -0.36806055271E+03  0.87180615881E+03  0.25500000920E-02 0. -1.
       -2    1    3    3    0  502 -0.55700071721E+03  0.56064927459E+03 -0.83021898957E+02  0.79465089428E+03  0.25500000920E-02 0.  1.
</event>
<event>
 5   0  0.3210612E-04  0.1600221E+04  0.7818609E-02  0.8820412E-01
        2   -1    0    0  501    0  0.00000000000E+00  0.00000000000E+00  0.55551568890E+03  0.55551568890E+03  0.25500000920E-02 0. -1.
       -2   -1    0    0    0  501  0.00000000000E+00  0.00000000000E+00 -0.11524009491E+04  0.11524009491E+04  0.25500000920E-02 0.  1.
    10030    2    1    2    0    0  0.00000000000E+00  0.00000000000E+00 -0.59688526024E+03  0.17079166380E+04  0.16002209937E+04 0.  0.
        2    1    3    3  502    0  0.28609730329E+03  0.11295009347E+03 -0.10867778287E+04  0.11294668829E+04  0.25500000920E-02 0.  1.
       -2    1    3    3    0  502 -0.28609730329E+03 -0.11295009347E+03  0.48989256848E+03  0.57844975514E+03  0.25500000920E-02 0. -1.
</event>
<event>
 5   0  0.1819811E-04  0.1596611E+04  0.7818609E-02  0.8822632E-01
       -1   -1    0    0    0  501  0.00000000000E+00  0.00000000000E+00  0.10051063363E+04  0.10051063364E+04  0.50400001928E-02 0. -1.
        1   -1    0    0  501    0  0.00000000000E+00  0.00000000000E+00 -0.63405427054E+03  0.63405427056E+03  0.50400001928E-02 0.  1.
    10030    2    1    2    0    0  0.00000000000E+00  0.00000000000E+00  0.37105206580E+03  0.16391606069E+04  0.15966113678E+04 0.  0.
        1    1    3    3  502    0  0.27506648441E+03 -0.74729158464E+03  0.12758003130E+03  0.80646323396E+03  0.50400001928E-02 0.  1.
       -1    1    3    3    0  502 -0.27506648441E+03  0.74729158464E+03  0.24347203450E+03  0.83269737295E+03  0.50400001928E-02 0. -1.
</event>
<event>
 5   0  0.3274900E-04  0.1632390E+04  0.7818609E-02  0.8800893E-01
        2   -1    0    0  501    0  0.00000000000E+00  0.00000000000E+00  0.22996252873E+04  0.22996252873E+04  0.25500000920E-02 0.  1.
       -2   -1    0    0    0  501  0.00000000000E+00  0.00000000000E+00 -0.28968806692E+03  0.28968806693E+03  0.25500000920E-02 0. -1.
    10030    2    1    2    0    0  0.00000000000E+00  0.00000000000E+00  0.20099372204E+04  0.25893133542E+04  0.16323896644E+04 0.  0.
        3    1    3    3  502    0  0.62659397550E+03  0.30260495866E+03  0.32829748618E+03  0.76939523054E+03  0.10100000352E+00 0. -1.
       -3    1    3    3    0  502 -0.62659397550E+03 -0.30260495866E+03  0.16816397342E+04  0.18199181237E+04  0.10100000352E+00 0.  1.
</event>
<event>
 5   0  0.3274900E-04  0.1594969E+04  0.7818609E-02  0.8823645E-01
       -2   -1    0    0    0  501  0.00000000000E+00  0.00000000000E+00  0.54210087055E+03  0.54210087056E+03  0.25500000920E-02 0. -1.
        2   -1    0    0  501    0  0.00000000000E+00  0.00000000000E+00 -0.11731792946E+04  0.11731792946E+04  0.25500000920E-02 0.  1.
    10030    2    1    2    0    0  0.00000000000E+00  0.00000000000E+00 -0.63107842406E+03  0.17152801652E+04  0.15949689864E+04 0.  0.
        3    1    3    3  502    0 -0.21255117520E+03 -0.37133149365E+03  0.40821625766E+03  0.59135911550E+03  0.10100000352E+00 0. -1.
       -3    1    3    3    0  502  0.21255117520E+03  0.37133149365E+03 -0.10392946817E+04  0.11239210497E+04  0.10100000352E+00 0.  1.
</event>
<event>
 5   0  0.3263294E-04  0.1600317E+04  0.7818609E-02  0.8820353E-01
        2   -1    0    0  501    0  0.00000000000E+00  0.00000000000E+00  0.14180449362E+04  0.14180449362E+04  0.25500000920E-02 0.  1.
       -2   -1    0    0    0  501  0.00000000000E+00  0.00000000000E+00 -0.45150450935E+03  0.45150450935E+03  0.25500000920E-02 0. -1.
    10030    2    1    2    0    0  0.00000000000E+00  0.00000000000E+00  0.96654042685E+03  0.18695494456E+04  0.16003170725E+04 0.  0.
        4    1    3    3  502    0 -0.33863124348E+03 -0.47519280705E+03 -0.15635708629E+03  0.60409310066E+03  0.12699999809E+01 0. -1.
       -4    1    3    3    0  502  0.33863124348E+03  0.47519280705E+03  0.11228975131E+04  0.12654563449E+04  0.12699999809E+01 0.  1.
</event>
<event>
 5   0  0.1787688E-04  0.1619909E+04  0.7818609E-02  0.8808410E-01
       -1   -1    0    0    0  501  0.00000000000E+00  0.00000000000E+00  0.54860126189E+03  0.54860126191E+03  0.50400001928E-02 0.  1.
        1   -1    0    0  501    0  0.00000000000E+00  0.00000000000E+00 -0.11958156350E+04  0.11958156350E+04  0.50400001928E-02 0. -1.
    10030    2    1    2    0    0  0.00000000000E+00  0.00000000000E+00 -0.64721437306E+03  0.17444168969E+04  0.16199085979E+04 0.  0.
        4    1    3    3  502    0 -0.62957871246E+03  0.38208218658E+03 -0.68666790892E+03  0.10069114075E+04  0.12699999809E+01 0. -1.
       -4    1    3    3    0  502  0.62957871246E+03 -0.38208218658E+03  0.39453535853E+02  0.73750548939E+03  0.12699999809E+01 0.  1.
</event>
<event>
 5   0  0.1787688E-04  0.1601745E+04  0.7818609E-02  0.8819477E-01
        1   -1    0    0  501    0  0.00000000000E+00  0.00000000000E+00  0.16238637282E+04  0.16238637282E+04  0.50400001928E-02 0.  1.
       -1   -1    0    0    0  501  0.00000000000E+00  0.00000000000E+00 -0.39498175187E+03  0.39498175190E+03  0.50400001928E-02 0. -1.
    10030    2    1    2    0    0  0.00000000000E+00  0.00000000000E+00  0.12288819764E+04  0.20188454801E+04  0.16017447240E+04 0.  0.
        4    1    3    3  502    0 -0.58948490834E+03  0.28892153820E+03  0.11926173321E+04  0.13613617543E+04  0.12699999809E+01 0.  1.
       -4    1    3    3    0  502  0.58948490834E+03 -0.28892153820E+03  0.36264644260E+02  0.65748372582E+03  0.12699999809E+01 0. -1.
</event>
<event>
 5   0  0.3380454E-04  0.1612337E+04  0.7818609E-02  0.8813005E-01
       -2   -1    0    0    0  501  0.00000000000E+00  0.00000000000E+00  0.35207622077E+03  0.35207622078E+03  0.25500000920E-02 0.  1.
        2   -1    0    0  501    0  0.00000000000E+00  0.00000000000E+00 -0.18459279047E+04  0.18459279047E+04  0.25500000920E-02 0. -1.
    10030    2    1    2    0    0  0.00000000000E+00  0.00000000000E+00 -0.14938516839E+04  0.21980041255E+04  0.16123365908E+04 0.  0.
        5    1    3    3  502    0  0.38834293361E+03  0.71910863912E+02 -0.17049886639E+04  0.17501399488E+04  0.46999998093E+01 0. -1.
       -5    1    3    3    0  502 -0.38834293361E+03 -0.71910863912E+02  0.21113697997E+03  0.44786417667E+03  0.46999998093E+01 0.  1.
</event>
<event>
 5   0  0.1787688E-04  0.1602188E+04  0.7818609E-02  0.8819205E-01
       -1   -1    0    0    0  501  0.00000000000E+00  0.00000000000E+00  0.77601070743E+03  0.77601070745E+03  0.50400001928E-02 0.  1.
        1   -1    0    0  501    0  0.00000000000E+00  0.00000000000E+00 -0.82698756140E+03  0.82698756141E+03  0.50400001928E-02 0. -1.
    10030    2    1    2    0    0  0.00000000000E+00  0.00000000000E+00 -0.50976853964E+02  0.16029982689E+04  0.16021875079E+04 0.  0.
        4    1    3    3  502    0 -0.60294430660E+03 -0.14652688530E+03  0.48146080744E+03  0.78537767155E+03  0.12699999809E+01 0.  1.
       -4    1    3    3    0  502  0.60294430660E+03  0.14652688530E+03 -0.53243766140E+03  0.81762059731E+03  0.12699999809E+01 0. -1.
</event>
<event>
 5   0  0.3274900E-04  0.1599707E+04  0.7818609E-02  0.8820728E-01
        2   -1    0    0  501    0  0.00000000000E+00  0.00000000000E+00  0.79488852566E+03  0.79488852566E+03  0.25500000920E-02 0.  1.
       -2   -1    0    0    0  501  0.00000000000E+00  0.00000000000E+00 -0.80484955927E+03  0.80484955928E+03  0.25500000920E-02 0. -1.
    10030    2    1    2    0    0  0.00000000000E+00  0.00000000000E+00 -0.99610336141E+01  0.15997380849E+04  0.15997070726E+04 0.  0.
        3    1    3    3  502    0  0.39496321156E+03  0.46334948698E+03  0.51375584848E+03  0.79663904475E+03  0.10100000352E+00 0.  1.
       -3    1    3    3    0  502 -0.39496321156E+03 -0.46334948698E+03 -0.52371688209E+03  0.80309904019E+03  0.10100000352E+00 0. -1.
</event>
<event>
 5   0  0.3274900E-04  0.1617731E+04  0.7818609E-02  0.8809729E-01
        2   -1    0    0  501    0  0.00000000000E+00  0.00000000000E+00  0.13755420711E+04  0.13755420711E+04  0.25500000920E-02 0.  1.
       -2   -1    0    0    0  501  0.00000000000E+00  0.00000000000E+00 -0.47564018347E+03  0.47564018348E+03  0.25500000920E-02 0. -1.
    10030    2    1    2    0    0  0.00000000000E+00  0.00000000000E+00  0.89990188767E+03  0.18511822546E+04  0.16177306118E+04 0.  0.
        3    1    3    3  502    0  0.60352780025E+03 -0.45051435150E+03  0.78757824386E+03  0.10897194533E+04  0.10100000352E+00 0.  1.
       -3    1    3    3    0  502 -0.60352780025E+03  0.45051435150E+03  0.11232364381E+03  0.76146280128E+03  0.10100000352E+00 0. -1.
</event>
<event>
 5   0  0.1787688E-04  0.1605188E+04  0.7818609E-02  0.8817367E-01
       -1   -1    0    0    0  501  0.00000000000E+00  0.00000000000E+00  0.67386940987E+03  0.67386940989E+03  0.50400001928E-02 0. -1.
        1   -1    0    0  501    0  0.00000000000E+00  0.00000000000E+00 -0.95590743099E+03  0.95590743101E+03  0.50400001928E-02 0.  1.
    10030    2    1    2    0    0  0.00000000000E+00  0.00000000000E+00 -0.28203802112E+03  0.16297768409E+04  0.16051875609E+04 0.  0.
        4    1    3    3  502    0 -0.18043668756E+03 -0.62120774418E+03 -0.62337412657E+03  0.89836149417E+03  0.12699999809E+01 0.  1.
       -4    1    3    3    0  502  0.18043668756E+03  0.62120774418E+03  0.34133610545E+03  0.73141534672E+03  0.12699999809E+01 0. -1.
</event>
<event>
 5   0  0.1736537E-04  0.1583902E+04  0.7818609E-02  0.8830499E-01
        1   -1    0    0  501    0  0.00000000000E+00  0.00000000000E+00  0.77292340564E+03  0.77292340565E+03  0.50400001928E-02 0.  1.
       -1   -1    0    0    0  501  0.00000000000E+00  0.00000000000E+00 -0.81144701836E+03  0.81144701838E+03  0.50400001928E-02 0. -1.
    10030    2    1    2    0    0  0.00000000000E+00  0.00000000000E+00 -0.38523612723E+02  0.15843704240E+04  0.15839020083E+04 0.  0.
        3    1    3    3  502    0 -0.32490719658E+03 -0.19868341454E+03  0.67531131064E+03  0.77529682193E+03  0.10100000352E+00 0.  1.
       -3    1    3    3    0  502  0.32490719658E+03  0.19868341454E+03 -0.71383492336E+03  0.80907360210E+03  0.10100000352E+00 0. -1.
</event>
<event>
 5   0  0.1787688E-04  0.1606724E+04  0.7818609E-02  0.8816428E-01
        1   -1    0    0  501    0  0.00000000000E+00  0.00000000000E+00  0.59649658555E+03  0.59649658557E+03  0.50400001928E-02 0. -1.
       -1   -1    0    0    0  501  0.00000000000E+00  0.00000000000E+00 -0.10819688989E+04  0.10819688989E+04  0.50400001928E-02 0.  1.
    10030    2    1    2    0    0  0.00000000000E+00  0.00000000000E+00 -0.48547231333E+03  0.16784654845E+04  0.16067243122E+04 0.  0.
        4    1    3    3  502    0 -0.47645227296E+02  0.50991161723E+03 -0.88933116762E+03  0.10262511699E+04  0.12699999809E+01 0.  1.
       -4    1    3    3    0  502  0.47645227296E+02 -0.50991161723E+03  0.40385885429E+03  0.65221431459E+03  0.12699999809E+01 0. -1.
</event>
<event>
 5   0  0.3380454E-04  0.1589533E+04  0.7818609E-02  0.8827004E-01
       -2   -1    0    0    0  501  0.00000000000E+00  0.00000000000E+00  0.71516367328E+03  0.71516367328E+03  0.25500000920E-02 0.  1.
        2   -1    0    0  501    0  0.00000000000E+00  0.00000000000E+00 -0.88322972805E+03  0.88322972805E+03  0.25500000920E-02 0. -1.
    10030    2    1    2    0    0  0.00000000000E+00  0.00000000000E+00 -0.16806605477E+03  0.15983934013E+04  0.15895330342E+04 0.  0.
        5    1    3    3  502    0 -0.76111459702E+02 -0.20403955909E+03 -0.85262768414E+03  0.88001201908E+03  0.46999998093E+01 0. -1.
       -5    1    3    3    0  502  0.76111459702E+02  0.20403955909E+03  0.68456162936E+03  0.71838138225E+03  0.46999998093E+01 0.  1.
</event>
<event>
 5   0  0.1787688E-04  0.1616525E+04  0.7818609E-02  0.8810460E-01
        1   -1    0    0  501    0  0.00000000000E+00  0.00000000000E+00  0.14343751487E+04  0.14343751487E+04  0.50400001928E-02 0. -1.
       -1   -1    0    0    0  501  0.00000000000E+00  0.00000000000E+00 -0.45545132507E+03  0.45545132510E+03  0.50400001928E-02 0.  1.
    10030    2    1    2    0    0  0.00000000000E+00  0.00000000000E+00  0.97892382358E+03  0.18898264738E+04  0.16165247442E+04 0.  0.
        4    1    3    3  502    0 -0.89946855937E+02 -0.74350419311E+03  0.84482289760E+03  0.11289890448E+04  0.12699999809E+01 0. -1.
       -4    1    3    3    0  502  0.89946855937E+02  0.74350419311E+03  0.13410092598E+03  0.76083742896E+03  0.12699999809E+01 0.  1.
</event>
<event>
 5   0  0.1761255E-04  0.1603408E+04  0.7818609E-02  0.8818457E-01
       -1   -1    0    0    0  501  0.00000000000E+00  0.00000000000E+00  0.88604805753E+03  0.88604805755E+03  0.50400001928E-02 0.  1.
        1   -1    0    0  501    0  0.00000000000E+00  0.00000000000E+00 -0.72538888904E+03  0.72538888906E+03  0.50400001928E-02 0. -1.
    10030    2    1    2    0    0  0.00000000000E+00  0.00000000000E+00  0.16065916849E+03  0.16114369466E+04  0.16034081403E+04 0.  0.
        2    1    3    3  502    0  0.64682135763E+03 -0.12036254118E+03 -0.38007392583E+03  0.75981655622E+03  0.25500000920E-02 0. -1.
       -2    1    3    3    0  502 -0.64682135763E+03  0.12036254118E+03  0.54073309433E+03  0.85162039038E+03  0.25500000920E-02 0.  1.
</event>
<event>
 5   0  0.1764099E-04  0.1607934E+04  0.7818609E-02  0.8815689E-01
        1   -1    0    0  501    0  0.00000000000E+00  0.00000000000E+00  0.64450642675E+03  0.64450642676E+03  0.50400001928E-02 0. -1.
       -1   -1    0    0    0  501  0.00000000000E+00  0.00000000000E+00 -0.10028800420E+04  0.10028800420E+04  0.50400001928E-02 0.  1.
    10030    2    1    2    0    0  0.00000000000E+00  0.00000000000E+00 -0.35837361520E+03  0.16473864687E+04  0.16079336209E+04 0.  0.
        5    1    3    3  502    0 -0.24903100531E+03  0.54357253221E+03  0.37145073929E+03  0.70390715375E+03  0.46999998093E+01 0. -1.
       -5    1    3    3    0  502  0.24903100531E+03 -0.54357253221E+03 -0.72982435450E+03  0.94347931498E+03  0.46999998093E+01 0.  1.
</event>
<event>
 5   0  0.3210612E-04  0.1608024E+04  0.7818609E-02  0.8815634E-01
        2   -1    0    0  501    0  0.00000000000E+00  0.00000000000E+00  0.21560478106E+04  0.21560478106E+04  0.25500000920E-02 0.  1.
       -2   -1    0    0    0  501  0.00000000000E+00  0.00000000000E+00 -0.29982427207E+03  0.29982427208E+03  0.25500000920E-02 0. -1.
    10030    2    1    2    0    0  0.00000000000E+00  0.00000000000E+00  0.18562235385E+04  0.24558720827E+04  0.16080242105E+04 0.  0.
        2    1    3    3  502    0  0.73341055114E+03  0.32946080035E+03  0.92795987412E+03  0.12278212343E+04  0.25500000920E-02 0. -1.
       -2    1    3    3    0  502 -0.73341055114E+03 -0.32946080035E+03  0.92826366443E+03  0.12280508484E+04  0.25500000920E-02 0.  1.
</event>
<event>
 5   0  0.3263294E-04  0.1615049E+04  0.7818609E-02  0.8811356E-01
       -2   -1    0    0    0  501  0.00000000000E+00  0.00000000000E+00  0.98971120568E+03  0.98971120569E+03  0.25500000920E-02 0. -1.
        2   -1    0    0  501    0  0.00000000000E+00  0.00000000000E+00 -0.65887491637E+03  0.65887491638E+03  0.25500000920E-02 0.  1.
    10030    2    1    2    0    0  0.00000000000E+00  0.00000000000E+00  0.33083628931E+03  0.16485861221E+04  0.16150490864E+04 0.  0.
        4    1    3    3  502    0  0.65769321248E+03 -0.37615480389E+03 -0.11974188589E+03  0.76706748749E+03  0.12699999809E+01 0.  1.
       -4    1    3    3    0  502 -0.65769321248E+03  0.37615480389E+03  0.45057817520E+03  0.88151863457E+03  0.12699999809E+01 0. -1.
</event>
<event>
 5   0  0.3274900E-04  0.1588687E+04  0.7818609E-02  0.8827528E-01
       -2   -1    0    0    0  501  0.00000000000E+00  0.00000000000E+00  0.57946125592E+03  0.57946125593E+03  0.25500000920E-02 0. -1.
        2   -1    0    0  501    0  0.00000000000E+00  0.00000000000E+00 -0.10889103986E+04  0.10889103986E+04  0.25500000920E-02 0.  1.
    10030    2    1    2    0    0  0.00000000000E+00  0.00000000000E+00 -0.50944914264E+03  0.16683716545E+04  0.15886867371E+04 0.  0.
        3    1    3    3  502    0  0.31776971290E+03 -0.55742653661E+03  0.23703575937E+03  0.68402331508E+03  0.10100000352E+00 0. -1.
       -3    1    3    3    0  502 -0.31776971290E+03  0.55742653661E+03 -0.74648490202E+03  0.98434833941E+03  0.10100000352E+00 0.  1.
</event>
<event>
 5   0  0.1787688E-04  0.1609281E+04  0.7818609E-02  0.8814867E-01
       -1   -1    0    0    0  501  0.00000000000E+00  0.00000000000E+00  0.53067071817E+03  0.53067071820E+03  0.50400001928E-02 0. -1.
        1   -1    0    0  501    0  0.00000000000E+00  0.00000000000E+00 -0.12200524453E+04  0.12200524453E+04  0.50400001928E-02 0.  1.
    10030    2    1    2    0    0  0.00000000000E+00  0.00000000000E+00 -0.68938172709E+03  0.17507231635E+04  0.16092807180E+04 0.  0.
        4    1    3    3  502    0 -0.26398758233E+03  0.19807162877E+03 -0.11430304590E+04  0.11897235212E+04  0.12699999809E+01 0.  1.
       -4    1    3    3    0  502  0.26398758233E+03 -0.19807162877E+03  0.45364873193E+03  0.56099964227E+03  0.12699999809E+01 0. -1.
</event>
<event>
 5   0  0.1736537E-04  0.1597271E+04  0.7818609E-02  0.8822226E-01
        1   -1    0    0  501    0  0.00000000000E+00  0.00000000000E+00  0.57083013391E+03  0.57083013393E+03  0.50400001928E-02 0.  1.
       -1   -1    0    0    0  501  0.00000000000E+00  0.00000000000E+00 -0.11173527146E+04  0.11173527146E+04  0.50400001928E-02 0. -1.
    10030    2    1    2    0    0  0.00000000000E+00  0.00000000000E+00 -0.54652258073E+03  0.16881828486E+04  0.15972709222E+04 0.  0.
        3    1    3    3  502    0  0.32002053309E+03 -0.68114279947E+03 -0.55577648859E+03  0.93555126548E+03  0.10100000352E+00 0.  1.
       -3    1    3    3    0  502 -0.32002053309E+03  0.68114279947E+03  0.92539078582E+01  0.75263158310E+03  0.10100000352E+00 0. -1.
</event>
<event>
 5   0  0.1764099E-04  0.1600902E+04  0.7818609E-02  0.8819994E-01
       -1   -1    0    0    0  501  0.00000000000E+00  0.00000000000E+00  0.66392246493E+03  0.66392246495E+03  0.50400001928E-02 0.  1.
        1   -1    0    0  501    0  0.00000000000E+00  0.00000000000E+00 -0.96505499553E+03  0.96505499554E+03  0.50400001928E-02 0. -1.
    10030    2    1    2    0    0  0.00000000000E+00  0.00000000000E+00 -0.30113253060E+03  0.16289774605E+04  0.16009018601E+04 0.  0.
        5    1    3    3  502    0 -0.46627993796E+03 -0.24592502367E+03  0.46232876826E+03  0.70118904567E+03  0.46999998093E+01 0.  1.
       -5    1    3    3    0  502  0.46627993796E+03  0.24592502367E+03 -0.76346129886E+03  0.92778841482E+03  0.46999998093E+01 0. -1.
</event>
<event>
 5   0  0.1764099E-04  0.1636541E+04  0.7818609E-02  0.8798409E-01
        1   -1    0    0  501    0  0.00000000000E+00  0.00000000000E+00  0.10251554390E+04  0.10251554390E+04  0.50400001928E-02 0. -1.
       -1   -1    0    0    0  501  0.00000000000E+00  0.00000000000E+00 -0.65313686942E+03  0.65313686944E+03  0.50400001928E-02 0.  1.
    10030    2    1    2    0    0  0.00000000000E+00  0.00000000000E+00  0.37201856955E+03  0.16782923084E+04  0.16365412480E+04 0.  0.
        5    1    3    3  502    0 -0.10165799036E+03  0.48986508372E+03  0.85001732660E+03  0.98633345921E+03  0.46999998093E+01 0. -1.
       -5    1    3    3    0  502  0.10165799036E+03 -0.48986508372E+03 -0.47799875705E+03  0.69195884920E+03  0.46999998093E+01 0.  1.
</event>
<event>
 5   0  0.3210612E-04  0.1608632E+04  0.7818609E-02  0.8815262E-01
       -2   -1    0    0    0  501  0.00000000000E+00  0.00000000000E+00  0.40684006571E+03  0.40684006572E+03  0.25500000920E-02 0. -1.
        2   -1    0    0  501    0  0.00000000000E+00  0.00000000000E+00 -0.15901194901E+04  0.15901194901E+04  0.25500000920E-02 0.  1.
    10030    2    1    2    0    0  0.00000000000E+00  0.00000000000E+00 -0.11832794244E+04  0.19969595558E+04  0.16086321119E+04 0.  0.
        2    1    3    3  502    0 -0.40015334566E+03 -0.53340033867E+03 -0.33304365290E+02  0.66764346929E+03  0.25500000920E-02 0. -1.
       -2    1    3    3    0  502  0.40015334566E+03  0.53340033867E+03 -0.11499750591E+04  0.13293160865E+04  0.25500000920E-02 0.  1.
</event>
<event>
 5   0  0.3210612E-04  0.1602413E+04  0.7818609E-02  0.8819067E-01
        2   -1    0    0  501    0  0.00000000000E+00  0.00000000000E+00  0.25216356809E+03  0.25216356811E+03  0.25500000920E-02 0.  1.
       -2   -1    0    0    0  501  0.00000000000E+00  0.00000000000E+00 -0.25456954875E+04  0.25456954875E+04  0.25500000920E-02 0. -1.
    10030    2    1    2    0    0  0.00000000000E+00  0.00000000000E+00 -0.22935319194E+04  0.27978590556E+04  0.16024127526E+04 0.  0.
        2    1    3    3  502    0 -0.25063890923E+03 -0.43129661871E+03 -0.52053120038E+02  0.50154378018E+03  0.25500000920E-02 0.  1.
       -2    1    3    3    0  502  0.25063890923E+03  0.43129661871E+03 -0.22414787994E+04  0.22963152754E+04  0.25500000920E-02 0. -1.
</event>
<event>
 5   0  0.1736537E-04  0.1606366E+04  0.7818609E-02  0.8816647E-01
       -1   -1    0    0    0  501  0.00000000000E+00  0.00000000000E+00  0.76078340273E+03  0.76078340275E+03  0.50400001928E-02 0. -1.
        1   -1    0    0  501    0  0.00000000000E+00  0.00000000000E+00 -0.84794531331E+03  0.84794531333E+03  0.50400001928E-02 0.  1.
    10030    2    1    2    0    0  0.00000000000E+00  0.00000000000E+00 -0.87161910576E+02  0.16087287161E+04  0.16063657377E+04 0.  0.
        3    1    3    3  502    0 -0.21362592513E+03  0.32371782721E+02  0.73113227937E+03  0.76238991884E+03  0.10100000352E+00 0. -1.
       -3    1    3    3    0  502  0.21362592513E+03 -0.32371782721E+02 -0.81829418995E+03  0.84633879724E+03  0.10100000352E+00 0.  1.
</event>
<event>
 5   0  0.1819811E-04  0.1605621E+04  0.7818609E-02  0.8817102E-01
        1   -1    0    0  501    0  0.00000000000E+00  0.00000000000E+00  0.35723373049E+04  0.35723373049E+04  0.50400001928E-02 0.  1.
       -1   -1    0    0    0  501  0.00000000000E+00  0.00000000000E+00 -0.18041547481E+03  0.18041547488E+03  0.50400001928E-02 0. -1.
    10030    2    1    2    0    0  0.00000000000E+00  0.00000000000E+00  0.33919218301E+04  0.37527527798E+04  0.16056212893E+04 0.  0.
        1    1    3    3  502    0  0.38073519406E+03  0.38680893610E+03  0.31336902014E+03  0.62672209459E+03  0.50400001928E-02 0. -1.
       -1    1    3    3    0  502 -0.38073519406E+03 -0.38680893610E+03  0.30785528099E+04  0.31260306852E+04  0.50400001928E-02 0.  1.
</event>
<event>
 5   0  0.3228393E-04  0.1600902E+04  0.7818609E-02  0.8819994E-01
        2   -1    0    0  501    0  0.00000000000E+00  0.00000000000E+00  0.77307024809E+03  0.77307024810E+03  0.25500000920E-02 0.  1.
       -2   -1    0    0    0  501  0.00000000000E+00  0.00000000000E+00 -0.82880101763E+03  0.82880101764E+03  0.25500000920E-02 0. -1.
    10030    2    1    2    0    0  0.00000000000E+00  0.00000000000E+00 -0.55730769539E+02  0.16018712657E+04  0.16009015064E+04 0.  0.
        1    1    3    3  502    0  0.34478370414E+03 -0.20374376433E+03  0.66561582845E+03  0.77680869926E+03  0.50400001928E-02 0.  1.
       -1    1    3    3    0  502 -0.34478370414E+03  0.20374376433E+03 -0.72134659799E+03  0.82506256647E+03  0.50400001928E-02 0. -1.
</event>
<event>
 5   0  0.3380454E-04  0.1593952E+04  0.7818609E-02  0.8824272E-01
        2   -1    0    0  501    0  0.00000000000E+00  0.00000000000E+00  0.70580698679E+03  0.70580698680E+03  0.25500000920E-02 0.  1.
       -2   -1    0    0    0  501  0.00000000000E+00  0.00000000000E+00 -0.89992160244E+03  0.89992160245E+03  0.25500000920E-02 0. -1.
    10030    2    1    2    0    0  0.00000000000E+00  0.00000000000E+00 -0.19411461565E+03  0.16057285892E+04  0.15939522635E+04 0.  0.
        5    1    3    3  502    0  0.22196348883E+03 -0.94291018443E+02  0.66815346742E+03  0.71035887589E+03  0.46999998093E+01 0.  1.
       -5    1    3    3    0  502 -0.22196348883E+03  0.94291018443E+02 -0.86226808306E+03  0.89536971336E+03  0.46999998093E+01 0. -1.
</event>
<event>
 5   0  0.1761255E-04  0.1595236E+04  0.7818609E-02  0.8823480E-01
       -1   -1    0    0    0  501  0.00000000000E+00  0.00000000000E+00  0.51363846852E+03  0.51363846855E+03  0.50400001928E-02 0. -1.
        1   -1    0    0  501    0  0.00000000000E+00  0.00000000000E+00 -0.12386037246E+04  0.12386037246E+04  0.50400001928E-02 0.  1.
    10030    2    1    2    0    0  0.00000000000E+00  0.00000000000E+00 -0.72496525605E+03  0.17522421931E+04  0.15952360580E+04 0.  0.
        2    1    3    3  502    0  0.41036945841E+03  0.25950098017E+03 -0.10575768651E+04  0.11637064392E+04  0.25500000920E-02 0.  1.
       -2    1    3    3    0  502 -0.41036945841E+03 -0.25950098017E+03  0.33261160907E+03  0.58853575388E+03  0.25500000920E-02 0. -1.
</event>
<event>
 5   0  0.1761255E-04  0.1599389E+04  0.7818609E-02  0.8820924E-01
        1   -1    0    0  501    0  0.00000000000E+00  0.00000000000E+00  0.60908547919E+03  0.60908547922E+03  0.50400001928E-02 0. -1.
       -1   -1    0    0    0  501  0.00000000000E+00  0.00000000000E+00 -0.10499531000E+04  0.10499531000E+04  0.50400001928E-02 0.  1.
    10030    2    1    2    0    0  0.00000000000E+00  0.00000000000E+00 -0.44086762076E+03  0.16590385792E+04  0.15993888671E+04 0.  0.
        2    1    3    3  502    0  0.31584969091E+02  0.78997574889E+03 -0.34513333108E+03  0.86265654251E+03  0.25500000920E-02 0.  1.
       -2    1    3    3    0  502 -0.31584969091E+02 -0.78997574889E+03 -0.95734289683E+02  0.79638203667E+03  0.25500000920E-02 0. -1.
</event>
<event>
 5   0  0.1736537E-04  0.1597820E+04  0.7818609E-02  0.8821889E-01
       -1   -1    0    0    0  501  0.00000000000E+00  0.00000000000E+00  0.70316439699E+03  0.70316439701E+03  0.50400001928E-02 0. -1.
        1   -1    0    0  501    0  0.00000000000E+00  0.00000000000E+00 -0.90769223091E+03  0.90769223093E+03  0.50400001928E-02 0.  1.
    10030    2    1    2    0    0  0.00000000000E+00  0.00000000000E+00 -0.20452783392E+03  0.16108566279E+04  0.15978195896E+04 0.  0.
        3    1    3    3  502    0  0.35852272429E+03 -0.68922763142E+03 -0.29001873721E+03  0.82926723671E+03  0.10100000352E+00 0.  1.
       -3    1    3    3    0  502 -0.35852272429E+03  0.68922763142E+03  0.85490903287E+02  0.78158939123E+03  0.10100000352E+00 0. -1.
</event>
<event>
 5   0  0.3274900E-04  0.1537776E+04  0.7818609E-02  0.8859714E-01
        2   -1    0    0  501    0  0.00000000000E+00  0.00000000000E+00  0.51917021372E+03  0.51917021372E+03  0.25500000920E-02 0.  1.
       -2   -1    0    0    0  501  0.00000000000E+00  0.00000000000E+00 -0.11387186318E+04  0.11387186318E+04  0.25500000920E-02 0. -1.
    10030    2    1    2    0    0  0.00000000000E+00  0.00000000000E+00 -0.61954841812E+03  0.16578888456E+04  0.15377760506E+04 0.  0.
        3    1    3    3  502    0 -0.41093058736E+01  0.34848276785E+03  0.42912845562E+03  0.55281856653E+03  0.10100000352E+00 0.  1.
       -3    1    3    3    0  502  0.41093058736E+01 -0.34848276785E+03 -0.10486768737E+04  0.11050702790E+04  0.10100000352E+00 0. -1.
</event>
<event>
 5   0  0.1764099E-04  0.1613261E+04  0.7818609E-02  0.8812443E-01
       -1   -1    0    0    0  501  0.00000000000E+00  0.00000000000E+00  0.38356263504E+03  0.38356263508E+03  0.50400001928E-02 0. -1.
        1   -1    0    0  501    0  0.00000000000E+00  0.00000000000E+00 -0.16963394401E+04  0.16963394401E+04  0.50400001928E-02 0.  1.
    10030    2    1    2    0    0  0.00000000000E+00  0.00000000000E+00 -0.13127768050E+04  0.20799020751E+04  0.16132605811E+04 0.  0.
        5    1    3    3  502    0 -0.30462738931E+03  0.31175477227E+03  0.21863541401E+03  0.48766014662E+03  0.46999998093E+01 0. -1.
       -5    1    3    3    0  502  0.30462738931E+03 -0.31175477227E+03 -0.15314122190E+04  0.15922419285E+04  0.46999998093E+01 0.  1.
</event>
<event>
 5   0  0.1761255E-04  0.1480608E+04  0.7818609E-02  0.8897452E-01
        1   -1    0    0  501    0  0.00000000000E+00  0.00000000000E+00  0.61055892236E+03  0.61055892238E+03  0.50400001928E-02 0. -1.
       -1   -1    0    0    0  501  0.00000000000E+00  0.00000000000E+00 -0.89762039633E+03  0.89762039634E+03  0.50400001928E-02 0.  1.
    10030    2    1    2    0    0  0.00000000000E+00  0.00000000000E+00 -0.28706147397E+03  0.15081793187E+04  0.14806081749E+04 0.  0.
        2    1    3    3  502    0 -0.16925028069E+03  0.55674711439E+03 -0.60969575745E+03  0.84281784720E+03  0.25500000920E-02 0.  1.
       -2    1    3    3    0  502  0.16925028069E+03 -0.55674711439E+03  0.32263428349E+03  0.66536147152E+03  0.25500000920E-02 0. -1.
</event>
<event>
 5   0  0.3274900E-04  0.1660961E+04  0.7818609E-02  0.8783949E-01
       -2   -1    0    0    0  501  0.00000000000E+00  0.00000000000E+00  0.79746159649E+03  0.79746159649E+03  0.25500000920E-02 0.  1.
        2   -1    0    0  501    0  0.00000000000E+00  0.00000000000E+00 -0.86486620078E+03  0.86486620078E+03  0.25500000920E-02 0. -1.
    10030    2    1    2    0    0  0.00000000000E+00  0.00000000000E+00 -0.67404604295E+02  0.16623277973E+04  0.16609606633E+04 0.  0.
        3    1    3    3  502    0 -0.13300862522E+03 -0.78200931712E+03 -0.27980652252E+03  0.84114301203E+03  0.10100000352E+00 0. -1.
       -3    1    3    3    0  502  0.13300862522E+03  0.78200931712E+03  0.21240191823E+03  0.82118478524E+03  0.10100000352E+00 0.  1.
</event>
<event>
 5   0  0.3380454E-04  0.1601972E+04  0.7818609E-02  0.8819337E-01
        2   -1    0    0  501    0  0.00000000000E+00  0.00000000000E+00  0.19986135409E+04  0.19986135409E+04  0.25500000920E-02 0.  1.
       -2   -1    0    0    0  501  0.00000000000E+00  0.00000000000E+00 -0.32101196376E+03  0.32101196377E+03  0.25500000920E-02 0. -1.
    10030    2    1    2    0    0  0.00000000000E+00  0.00000000000E+00  0.16776015771E+04  0.23196255047E+04  0.16019723563E+04 0.  0.
        5    1    3    3  502    0 -0.27331586347E+03 -0.63153074530E+03  0.14323389918E+04  0.15890719685E+04  0.46999998093E+01 0.  1.
       -5    1    3    3    0  502  0.27331586347E+03  0.63153074530E+03  0.24526258528E+03  0.73055353617E+03  0.46999998093E+01 0. -1.
</event>
<event>
 5   0  0.3380454E-04  0.1602687E+04  0.7818609E-02  0.8818899E-01
        2   -1    0    0  501    0  0.00000000000E+00  0.00000000000E+00  0.74419796925E+03  0.74419796925E+03  0.25500000920E-02 0.  1.
       -2   -1    0    0    0  501  0.00000000000E+00  0.00000000000E+00 -0.86287672257E+03  0.86287672257E+03  0.25500000920E-02 0. -1.
    10030    2    1    2    0    0  0.00000000000E+00  0.00000000000E+00 -0.11867875332E+03  0.16070746918E+04  0.16026866252E+04 0.  0.
        5    1    3    3  502    0 -0.31678312700E+03 -0.55278578478E+03  0.42800090079E+03  0.76754839228E+03  0.46999998093E+01 0.  1.
       -5    1    3    3    0  502  0.31678312700E+03  0.55278578478E+03 -0.54667965411E+03  0.83952629955E+03  0.46999998093E+01 0. -1.
</event>
<event>
 5   0  0.3380454E-04  0.1604457E+04  0.7818609E-02  0.8817814E-01
       -2   -1    0    0    0  501  0.00000000000E+00  0.00000000000E+00  0.66973764149E+03  0.66973764150E+03  0.25500000920E-02 0.  1.
        2   -1    0    0  501    0  0.00000000000E+00  0.00000000000E+00 -0.96092960045E+03  0.96092960045E+03  0.25500000920E-02 0. -1.
    10030    2    1    2    0    0  0.00000000000E+00  0.00000000000E+00 -0.29119195895E+03  0.16306672419E+04  0.16044571970E+04 0.  0.
        5    1    3    3  502    0  0.62738278172E+03  0.34387506350E+03 -0.51441444270E+03  0.88119437297E+03  0.46999998093E+01 0. -1.
       -5    1    3    3    0  502 -0.62738278172E+03 -0.34387506350E+03  0.22322248374E+03  0.74947286898E+03  0.46999998093E+01 0.  1.
</event>
<event>
 5   0  0.3210612E-04  0.1615540E+04  0.7818609E-02  0.8811057E-01
       -2   -1    0    0    0  501  0.00000000000E+00  0.00000000000E+00  0.79077982299E+03  0.79077982299E+03  0.25500000920E-02 0. -1.
        2   -1    0    0  501    0  0.00000000000E+00  0.00000000000E+00 -0.82512568882E+03  0.82512568882E+03  0.25500000920E-02 0.  1.
    10030    2    1    2    0    0  0.00000000000E+00  0.00000000000E+00 -0.34345865832E+02  0.16159055118E+04  0.16155404621E+04 0.  0.
        2    1    3    3  502    0 -0.37394620430E+02 -0.70423241930E+02  0.78683390261E+03  0.79086369303E+03  0.25500000920E-02 0. -1.
       -2    1    3    3    0  502  0.37394620430E+02  0.70423241930E+02 -0.82117976844E+03  0.82504181879E+03  0.25500000920E-02 0.  1.
</event>
<event>
 5   0  0.3263294E-04  0.1601453E+04  0.7818609E-02  0.8819656E-01
        2   -1    0    0  501    0  0.00000000000E+00  0.00000000000E+00  0.11409079151E+04  0.11409079151E+04  0.25500000920E-02 0. -1.
       -2   -1    0    0    0  501  0.00000000000E+00  0.00000000000E+00 -0.56197634770E+03  0.56197634771E+03  0.25500000920E-02 0.  1.
    10030    2    1    2    0    0  0.00000000000E+00  0.00000000000E+00  0.57893156735E+03  0.17028842628E+04  0.16014534188E+04 0.  0.
        4    1    3    3  502    0 -0.67828375351E+03  0.26665436585E+03 -0.63184279074E+02  0.73155127443E+03  0.12699999809E+01 0.  1.
       -4    1    3    3    0  502  0.67828375351E+03 -0.26665436585E+03  0.64211584642E+03  0.97133298833E+03  0.12699999809E+01 0. -1.
</event>
<event>
 5   0  0.3274900E-04  0.1614147E+04  0.7818609E-02  0.8811904E-01
       -2   -1    0    0    0  501  0.00000000000E+00  0.00000000000E+00  0.34490431769E+03  0.34490431770E+03  0.25500000920E-02 0.  1.
        2   -1    0    0  501    0  0.00000000000E+00  0.00000000000E+00 -0.18885452577E+04  0.18885452577E+04  0.25500000920E-02 0. -1.
    10030    2    1    2    0    0  0.00000000000E+00  0.00000000000E+00 -0.15436409400E+04  0.22334495754E+04  0.16141467263E+04 0.  0.
        3    1    3    3  502    0  0.70951022976E+03 -0.75246280275E+02 -0.24986126558E+03  0.75597449102E+03  0.10100000352E+00 0.  1.
       -3    1    3    3    0  502 -0.70951022976E+03  0.75246280275E+02 -0.12937796744E+04  0.14774750844E+04  0.10100000352E+00 0. -1.
</event>
<event>
 5   0  0.3380454E-04  0.1609547E+04  0.7818609E-02  0.8814705E-01
       -2   -1    0    0    0  501  0.00000000000E+00  0.00000000000E+00  0.84711824537E+03  0.84711824537E+03  0.25500000920E-02 0. -1.
        2   -1    0    0  501    0  0.00000000000E+00  0.00000000000E+00 -0.76454506008E+03  0.76454506008E+03  0.25500000920E-02 0.  1.
    10030    2    1    2    0    0  0.00000000000E+00  0.00000000000E+00  0.82573185290E+02  0.16116633054E+04  0.16095466067E+04 0.  0.
        5    1    3    3  502    0 -0.58951632593E+03 -0.52085977832E+03  0.21125543480E+03  0.81453996584E+03  0.46999998093E+01 0.  1.
       -5    1    3    3    0  502  0.58951632593E+03  0.52085977832E+03 -0.12868224951E+03  0.79712333961E+03  0.46999998093E+01 0. -1.
</event>
<event>
 5   0  0.3263294E-04  0.1564312E+04  0.7818609E-02  0.8842778E-01
        2   -1    0    0  501    0  0.00000000000E+00  0.00000000000E+00  0.97702362217E+03  0.97702362217E+03  0.25500000920E-02 0. -1.
       -2   -1    0    0    0  501  0.00000000000E+00  0.00000000000E+00 -0.62615441799E+03  0.62615441799E+03  0.25500000920E-02 0.  1.
    10030    2    1    2    0    0  0.00000000000E+00  0.00000000000E+00  0.35086920418E+03  0.16031780402E+04  0.15643115515E+04 0.  0.
        4    1    3    3  502    0 -0.45564167366E+03  0.59491956261E+03  0.40511765656E+03  0.85185711790E+03  0.12699999809E+01 0. -1.
       -4    1    3    3    0  502  0.45564167366E+03 -0.59491956261E+03 -0.54248452376E+02  0.75132092227E+03  0.12699999809E+01 0.  1.
</event>
<event>
 5   0  0.1219463E-04  0.1598606E+04  0.7818609E-02  0.8821405E-01
        3   -1    0    0  501    0  0.00000000000E+00  0.00000000000E+00  0.72023857648E+03  0.72023858356E+03  0.10100000352E+00 0. -1.
       -3   -1    0    0    0  501  0.00000000000E+00  0.00000000000E+00 -0.88704681621E+03  0.88704682196E+03  0.10100000352E+00 0.  1.
    10030    2    1    2    0    0  0.00000000000E+00  0.00000000000E+00 -0.16680823972E+03  0.16072854055E+04  0.15986060759E+04 0.  0.
        3    1    3    3  502    0  0.64182670582E+03 -0.44569863061E+03  0.85724950026E+02  0.78609005011E+03  0.10100000352E+00 0. -1.
       -3    1    3    3    0  502 -0.64182670582E+03  0.44569863061E+03 -0.25253318975E+03  0.82119535541E+03  0.10100000352E+00 0.  1.
</event>
<event>
 5   0  0.3228393E-04  0.1632158E+04  0.7818609E-02  0.8801032E-01
       -2   -1    0    0    0  501  0.00000000000E+00  0.00000000000E+00  0.78238280500E+03  0.78238280501E+03  0.25500000920E-02 0.  1.
        2   -1    0    0  501    0  0.00000000000E+00  0.00000000000E+00 -0.85122624480E+03  0.85122624480E+03  0.25500000920E-02 0. -1.
    10030    2    1    2    0    0  0.00000000000E+00  0.00000000000E+00 -0.68843439798E+02  0.16336090498E+04  0.16321578075E+04 0.  0.
        1    1    3    3  502    0  0.22914651455E+03 -0.19438695923E+03 -0.79383897929E+03  0.84880783462E+03  0.50400001928E-02 0. -1.
       -1    1    3    3    0  502 -0.22914651455E+03  0.19438695923E+03  0.72499553950E+03  0.78480121519E+03  0.50400001928E-02 0.  1.
</event>
<event>
 5   0  0.1761255E-04  0.1601386E+04  0.7818609E-02  0.8819697E-01
        1   -1    0    0  501    0  0.00000000000E+00  0.00000000000E+00  0.12789929232E+04  0.12789929232E+04  0.50400001928E-02 0. -1.
       -1   -1    0    0    0  501  0.00000000000E+00  0.00000000000E+00 -0.50126089301E+03  0.50126089304E+03  0.50400001928E-02 0.  1.
    10030    2    1    2    0    0  0.00000000000E+00  0.00000000000E+00  0.77773203014E+03  0.17802538162E+04  0.16013858184E+04 0.  0.
        2    1    3    3  502    0 -0.78144207529E+03 -0.47675567907E+02  0.20223200340E+03  0.80859288893E+03  0.25500000920E-02 0.  1.
       -2    1    3    3    0  502  0.78144207529E+03  0.47675567907E+02  0.57550002673E+03  0.97166092727E+03  0.25500000920E-02 0. -1.
</event>
<event>
 5   0  0.3274900E-04  0.1596141E+04  0.7818609E-02  0.8822922E-01
       -2   -1    0    0    0  501  0.00000000000E+00  0.00000000000E+00  0.26292531647E+04  0.26292531647E+04  0.25500000920E-02 0. -1.
        2   -1    0    0  501    0  0.00000000000E+00  0.00000000000E+00 -0.24224243607E+03  0.24224243608E+03  0.25500000920E-02 0.  1.
    10030    2    1    2    0    0  0.00000000000E+00  0.00000000000E+00  0.23870107286E+04  0.28714956008E+04  0.15961412114E+04 0.  0.
        3    1    3    3  502    0 -0.15576589548E+03 -0.30996859466E+03  0.24865179544E+04  0.25106005440E+04  0.10100000352E+00 0. -1.
       -3    1    3    3    0  502  0.15576589548E+03  0.30996859466E+03 -0.99507225712E+02  0.36089505682E+03  0.10100000352E+00 0.  1.
</event>
<event>
 5   0  0.1787688E-04  0.1586340E+04  0.7818609E-02  0.8828984E-01
       -1   -1    0    0    0  501  0.00000000000E+00  0.00000000000E+00  0.70188634354E+03  0.70188634356E+03  0.50400001928E-02 0. -1.
        1   -1    0    0  501    0  0.00000000000E+00  0.00000000000E+00 -0.89632536301E+03  0.89632536303E+03  0.50400001928E-02 0.  1.
    10030    2    1    2    0    0  0.00000000000E+00  0.00000000000E+00 -0.19443901947E+03  0.15982117066E+04  0.15863398522E+04 0.  0.
        4    1    3    3  502    0 -0.13573914262E+03 -0.65448927341E+03 -0.52742287361E+03  0.85144455154E+03  0.12699999809E+01 0.  1.
       -4    1    3    3    0  502  0.13573914262E+03  0.65448927341E+03  0.33298385414E+03  0.74676715505E+03  0.12699999809E+01 0. -1.
</event>
<event>
 5   0  0.1819811E-04  0.1581370E+04  0.7818609E-02  0.8832075E-01
       -1   -1    0    0    0  501  0.00000000000E+00  0.00000000000E+00  0.14113664096E+04  0.14113664096E+04  0.50400001928E-02 0. -1.
        1   -1    0    0  501    0  0.00000000000E+00  0.00000000000E+00 -0.44296292862E+03  0.44296292865E+03  0.50400001928E-02 0.  1.
    10030    2    1    2    0    0  0.00000000000E+00  0.00000000000E+00  0.96840348098E+03  0.18543293383E+04  0.15813702896E+04 0.  0.
        1    1    3    3  502    0  0.44470921720E+02  0.73765748304E+03  0.15447793663E+03  0.75496997165E+03  0.50400001928E-02 0.  1.
       -1    1    3    3    0  502 -0.44470921720E+02 -0.73765748304E+03  0.81392554435E+03  0.10993593666E+04  0.50400001928E-02 0. -1.
</event>
<event>
 5   0  0.1764099E-04  0.1598963E+04  0.7818609E-02  0.8821185E-01
       -1   -1    0    0    0  501  0.00000000000E+00  0.00000000000E+00  0.46597620174E+03  0.46597620177E+03  0.50400001928E-02 0.  1.
        1   -1    0    0  501    0  0.00000000000E+00  0.00000000000E+00 -0.13716811738E+04  0.13716811738E+04  0.50400001928E-02 0. -1.
    10030    2    1    2    0    0  0.00000000000E+00  0.00000000000E+00 -0.90570497209E+03  0.18376573756E+04  0.15989631433E+04 0.  0.
        5    1    3    3  502    0  0.51745911368E+03  0.52191587124E+03 -0.81444434273E+03  0.10970422911E+04  0.46999998093E+01 0. -1.
       -5    1    3    3    0  502 -0.51745911368E+03 -0.52191587124E+03 -0.91260629355E+02  0.74061508454E+03  0.46999998093E+01 0.  1.
</event>
<event>
 5   0  0.3263294E-04  0.1605244E+04  0.7818609E-02  0.8817333E-01
       -2   -1    0    0    0  501  0.00000000000E+00  0.00000000000E+00  0.33272958593E+03  0.33272958594E+03  0.25500000920E-02 0.  1.
        2   -1    0    0  501    0  0.00000000000E+00  0.00000000000E+00 -0.19361139970E+04  0.19361139970E+04  0.25500000920E-02 0. -1.
    10030    2    1    2    0    0  0.00000000000E+00  0.00000000000E+00 -0.16033844111E+04  0.22688435829E+04  0.16052444157E+04 0.  0.
        4    1    3    3  502    0 -0.62442566919E+03 -0.47994627461E+03 -0.58298132908E+03  0.97985952351E+03  0.12699999809E+01 0.  1.
       -4    1    3    3    0  502  0.62442566919E+03  0.47994627461E+03 -0.10204030820E+04  0.12889840594E+04  0.12699999809E+01 0. -1.
</event>
<event>
 5   0  0.1761255E-04  0.1608655E+04  0.7818609E-02  0.8815249E-01
        1   -1    0    0  501    0  0.00000000000E+00  0.00000000000E+00  0.70121104763E+03  0.70121104765E+03  0.50400001928E-02 0. -1.
       -1   -1    0    0    0  501  0.00000000000E+00  0.00000000000E+00 -0.92260733510E+03  0.92260733511E+03  0.50400001928E-02 0.  1.
    10030    2    1    2    0    0  0.00000000000E+00  0.00000000000E+00 -0.22139628747E+03  0.16238183828E+04  0.16086546628E+04 0.  0.
        2    1    3    3  502    0 -0.14427495287E+03 -0.42598443875E+02  0.68688445443E+03  0.70316437850E+03  0.25500000920E-02 0. -1.
       -2    1    3    3    0  502  0.14427495287E+03  0.42598443875E+02 -0.90828074190E+03  0.92065400426E+03  0.25500000920E-02 0.  1.
</event>
<event>
 5   0  0.3210612E-04  0.1592261E+04  0.7818609E-02  0.8825317E-01
        2   -1    0    0  501    0  0.00000000000E+00  0.00000000000E+00  0.15051395888E+04  0.15051395888E+04  0.25500000920E-02 0. -1.
       -2   -1    0    0    0  501  0.00000000000E+00  0.00000000000E+00 -0.42110629807E+03  0.42110629808E+03  0.25500000920E-02 0.  1.
    10030    2    1    2    0    0  0.00000000000E+00  0.00000000000E+00  0.10840332907E+04  0.19262458869E+04  0.15922609840E+04 0.  0.
        2    1    3    3  502    0 -0.14635856831E+03 -0.20484998261E+03  0.14557137181E+04  0.14773241943E+04  0.25500000920E-02 0. -1.
       -2    1    3    3    0  502  0.14635856831E+03  0.20484998261E+03 -0.37168042744E+03  0.44892169255E+03  0.25500000920E-02 0.  1.
</event>
<event>
 5   0  0.3228393E-04  0.1606056E+04  0.7818609E-02  0.8816836E-01
        2   -1    0    0  501    0  0.00000000000E+00  0.00000000000E+00  0.13263534282E+04  0.13263534282E+04  0.25500000920E-02 0. -1.
       -2   -1    0    0    0  501  0.00000000000E+00  0.00000000000E+00 -0.48618549194E+03  0.48618549194E+03  0.25500000920E-02 0.  1.
    10030    2    1    2    0    0  0.00000000000E+00  0.00000000000E+00  0.84016793622E+03  0.18125389201E+04  0.16060557823E+04 0.  0.
        1    1    3    3  502    0  0.33548122022E+03  0.26554926671E+03  0.11870018275E+04  0.12617596446E+04  0.50400001928E-02 0. -1.
       -1    1    3    3    0  502 -0.33548122022E+03 -0.26554926671E+03 -0.34683389129E+03  0.55077927552E+03  0.50400001928E-02 0.  1.
</event>
<event>
 5   0  0.3380454E-04  0.1596028E+04  0.7818609E-02  0.8822992E-01
       -2   -1    0    0    0  501  0.00000000000E+00  0.00000000000E+00  0.63792116510E+03  0.63792116511E+03  0.25500000920E-02 0.  1.
        2   -1    0    0  501    0  0.00000000000E+00  0.00000000000E+00 -0.99828339969E+03  0.99828339970E+03  0.25500000920E-02 0. -1.
    10030    2    1    2    0    0  0.00000000000E+00  0.00000000000E+00 -0.36036223459E+03  0.16362045648E+04  0.15960277058E+04 0.  0.
        5    1    3    3  502    0  0.18881571039E+03 -0.67548534365E+02 -0.97201685955E+03  0.99249838399E+03  0.46999998093E+01 0. -1.
       -5    1    3    3    0  502 -0.18881571039E+03  0.67548534365E+02  0.61165462496E+03  0.64370618081E+03  0.46999998093E+01 0.  1.
</event>
<event>
 5   0  0.1761255E-04  0.1597947E+04  0.7818609E-02  0.8821810E-01
       -1   -1    0    0    0  501  0.00000000000E+00  0.00000000000E+00  0.95792315763E+03  0.95792315764E+03  0.50400001928E-02 0. -1.
        1   -1    0    0  501    0  0.00000000000E+00  0.00000000000E+00 -0.66639847898E+03  0.66639847900E+03  0.50400001928E-02 0.  1.
    10030    2    1    2    0    0  0.00000000000E+00  0.00000000000E+00  0.29152467865E+03  0.16243216366E+04  0.15979468517E+04 0.  0.
        2    1    3    3  502    0  0.55794656210E+03  0.50219674023E+03 -0.13234545021E+03  0.76224749934E+03  0.25500000920E-02 0.  1.
       -2    1    3    3    0  502 -0.55794656210E+03 -0.50219674023E+03  0.42387012886E+03  0.86207413730E+03  0.25500000920E-02 0. -1.
</event>
<event>
 5   0  0.1787688E-04  0.1589132E+04  0.7818609E-02  0.8827253E-01
        1   -1    0    0  501    0  0.00000000000E+00  0.00000000000E+00  0.82472969408E+03  0.82472969410E+03  0.50400001928E-02 0. -1.
       -1   -1    0    0    0  501  0.00000000000E+00  0.00000000000E+00 -0.76550523835E+03  0.76550523837E+03  0.50400001928E-02 0.  1.
    10030    2    1    2    0    0  0.00000000000E+00  0.00000000000E+00  0.59224455731E+02  0.15902349325E+04  0.15891317139E+04 0.  0.
        4    1    3    3  502    0  0.28074815086E+03  0.71000771708E+03  0.24977133864E+03  0.80331676009E+03  0.12699999809E+01 0. -1.
       -4    1    3    3    0  502 -0.28074815086E+03 -0.71000771708E+03 -0.19054688291E+03  0.78691817238E+03  0.12699999809E+01 0.  1.
</event>
<event>
 5   0  0.3263294E-04  0.1596540E+04  0.7818609E-02  0.8822677E-01
        2   -1    0    0  501    0  0.00000000000E+00  0.00000000000E+00  0.20536056986E+04  0.20536056986E+04  0.25500000920E-02 0. -1.
       -2   -1    0    0    0  501  0.00000000000E+00  0.00000000000E+00 -0.31030041055E+03  0.31030041056E+03  0.25500000920E-02 0.  1.
    10030    2    1    2    0    0  0.00000000000E+00  0.00000000000E+00  0.17433052880E+04  0.23639061091E+04  0.15965396223E+04 0.  0.
        4    1    3    3  502    0 -0.96256423337E+02  0.72389494373E+03  0.13490170184E+04  0.15339940409E+04  0.12699999809E+01 0.  1.
       -4    1    3    3    0  502  0.96256423337E+02 -0.72389494373E+03  0.39428826964E+03  0.82991206828E+03  0.12699999809E+01 0. -1.
</event>
<event>
 5   0  0.3274900E-04  0.1600680E+04  0.7818609E-02  0.8820130E-01
       -2   -1    0    0    0  501  0.00000000000E+00  0.00000000000E+00  0.12686740472E+04  0.12686740472E+04  0.25500000920E-02 0. -1.
        2   -1    0    0  501    0  0.00000000000E+00  0.00000000000E+00 -0.50489263649E+03  0.50489263650E+03  0.25500000920E-02 0.  1.
    10030    2    1    2    0    0  0.00000000000E+00  0.00000000000E+00  0.76378141075E+03  0.17735666837E+04  0.16006800862E+04 0.  0.
        3    1    3    3  502    0 -0.37136744502E+03  0.47247267070E+03 -0.20378358236E+03  0.63456438792E+03  0.10100000352E+00 0.  1.
       -3    1    3    3    0  502  0.37136744502E+03 -0.47247267070E+03  0.96756499311E+03  0.11390022958E+04  0.10100000352E+00 0. -1.
</event>
<event>
 5   0  0.1819811E-04  0.1584717E+04  0.7818609E-02  0.8829992E-01
        1   -1    0    0  501    0  0.00000000000E+00  0.00000000000E+00  0.38276675414E+03  0.38276675417E+03  0.50400001928E-02 0. -1.
       -1   -1    0    0    0  501  0.00000000000E+00  0.00000000000E+00 -0.16402478370E+04  0.16402478370E+04  0.50400001928E-02 0.  1.
    10030    2    1    2    0    0  0.00000000000E+00  0.00000000000E+00 -0.12574810828E+04  0.20230145912E+04  0.15847174393E+04 0.  0.
        1    1    3    3  502    0  0.35388936361E+02  0.45654595162E+03 -0.14542290378E+04  0.15246208306E+04  0.50400001928E-02 0.  1.
       -1    1    3    3    0  502 -0.35388936361E+02 -0.45654595162E+03  0.19674795494E+03  0.49839376055E+03  0.50400001928E-02 0. -1.
</event>
<event>
 5   0  0.1736537E-04  0.1632940E+04  0.7818609E-02  0.8800564E-01
        1   -1    0    0  501    0  0.00000000000E+00  0.00000000000E+00  0.14468140817E+04  0.14468140817E+04  0.50400001928E-02 0.  1.
       -1   -1    0    0    0  501  0.00000000000E+00  0.00000000000E+00 -0.46075228897E+03  0.46075228900E+03  0.50400001928E-02 0. -1.
    10030    2    1    2    0    0  0.00000000000E+00  0.00000000000E+00  0.98606179277E+03  0.19075663707E+04  0.16329395579E+04 0.  0.
        3    1    3    3  502    0 -0.62953539452E+03  0.24351682189E+03 -0.43578942972E+02  0.67639810021E+03  0.10100000352E+00 0. -1.
       -3    1    3    3    0  502  0.62953539452E+03 -0.24351682189E+03  0.10296407357E+04  0.12311682705E+04  0.10100000352E+00 0.  1.
</event>
<event>
 5   0  0.1761255E-04  0.1606546E+04  0.7818609E-02  0.8816536E-01
       -1   -1    0    0    0  501  0.00000000000E+00  0.00000000000E+00  0.87089213562E+03  0.87089213563E+03  0.50400001928E-02 0. -1.
        1   -1    0    0  501    0  0.00000000000E+00  0.00000000000E+00 -0.74090447634E+03  0.74090447636E+03  0.50400001928E-02 0.  1.
    10030    2    1    2    0    0  0.00000000000E+00  0.00000000000E+00  0.12998765928E+03  0.16117966120E+04  0.16065464596E+04 0.  0.
        2    1    3    3  502    0  0.12696047756E+03 -0.72912535603E+03 -0.24828474271E+03  0.78063311557E+03  0.25500000920E-02 0.  1.
       -2    1    3    3    0  502 -0.12696047756E+03  0.72912535603E+03  0.37827240199E+03  0.83116349642E+03  0.25500000920E-02 0. -1.
</event>
<event>
 5   0  0.1761255E-04  0.1594975E+04  0.7818609E-02  0.8823641E-01
       -1   -1    0    0    0  501  0.00000000000E+00  0.00000000000E+00  0.57820872115E+03  0.57820872117E+03  0.50400001928E-02 0. -1.
        1   -1    0    0  501    0  0.00000000000E+00  0.00000000000E+00 -0.10999255455E+04  0.10999255455E+04  0.50400001928E-02 0.  1.
    10030    2    1    2    0    0  0.00000000000E+00  0.00000000000E+00 -0.52171682433E+03  0.16781342667E+04  0.15949752889E+04 0.  0.
        2    1    3    3  502    0  0.54879849064E+03  0.55788993580E+03 -0.42237301959E+03  0.88928056961E+03  0.25500000920E-02 0.  1.
       -2    1    3    3    0  502 -0.54879849064E+03 -0.55788993580E+03 -0.99343804733E+02  0.78885369705E+03  0.25500000920E-02 0. -1.
</event>
<event>
 5   0  0.3380454E-04  0.1628226E+04  0.7818609E-02  0.8803393E-01
        2   -1    0    0  501    0  0.00000000000E+00  0.00000000000E+00  0.53483821832E+03  0.53483821833E+03  0.25500000920E-02 0. -1.
       -2   -1    0    0    0  501  0.00000000000E+00  0.00000000000E+00 -0.12392159051E+04  0.12392159051E+04  0.25500000920E-02 0.  1.
    10030    2    1    2    0    0  0.00000000000E+00  0.00000000000E+00 -0.70437768680E+03  0.17740541234E+04  0.16282260615E+04 0.  0.
        5    1    3    3  502    0 -0.26685314502E+03 -0.76737328756E+03 -0.40865271752E+03  0.90944570866E+03  0.46999998093E+01 0.  1.
       -5    1    3    3    0  502  0.26685314502E+03  0.76737328756E+03 -0.29572496928E+03  0.86460841479E+03  0.46999998093E+01 0. -1.
</event>
<event>
 5   0  0.1764099E-04  0.1596874E+04  0.7818609E-02  0.8822471E-01
       -1   -1    0    0    0  501  0.00000000000E+00  0.00000000000E+00  0.74466237807E+03  0.74466237809E+03  0.50400001928E-02 0.  1.
        1   -1    0    0  501    0  0.00000000000E+00  0.00000000000E+00 -0.85609464982E+03  0.85609464984E+03  0.50400001928E-02 0. -1.
    10030    2    1    2    0    0  0.00000000000E+00  0.00000000000E+00 -0.11143227175E+03  0.16007570279E+04  0.15968737932E+04 0.  0.
        5    1    3    3  502    0 -0.16695965381E+03 -0.65447527773E+02  0.72419928689E+03  0.74608685957E+03  0.46999998093E+01 0.  1.
       -5    1    3    3    0  502  0.16695965381E+03  0.65447527773E+02 -0.83563155864E+03  0.85467016836E+03  0.46999998093E+01 0. -1.
</event>
<event>
 5   0  0.1736537E-04  0.1606931E+04  0.7818609E-02  0.8816301E-01
        1   -1    0    0  501    0  0.00000000000E+00  0.00000000000E+00  0.79859792437E+03  0.79859792439E+03  0.50400001928E-02 0.  1.
       -1   -1    0    0    0  501  0.00000000000E+00  0.00000000000E+00 -0.80836319873E+03  0.80836319874E+03  0.50400001928E-02 0. -1.
    10030    2    1    2    0    0  0.00000000000E+00  0.00000000000E+00 -0.97652743529E+01  0.16069611231E+04  0.16069314518E+04 0.  0.
        3    1    3    3  502    0 -0.34912791843E+03 -0.47081201460E+03 -0.55444069488E+03  0.80682014777E+03  0.10100000352E+00 0. -1.
       -3    1    3    3    0  502  0.34912791843E+03  0.47081201460E+03  0.54467542053E+03  0.80014097535E+03  0.10100000352E+00 0.  1.
</event>
<event>
 5   0  0.1764099E-04  0.1589375E+04  0.7818609E-02  0.8827102E-01
        1   -1    0    0  501    0  0.00000000000E+00  0.00000000000E+00  0.12088063134E+04  0.12088063134E+04  0.50400001928E-02 0. -1.
       -1   -1    0    0    0  501  0.00000000000E+00  0.00000000000E+00 -0.52243966777E+03  0.52243966779E+03  0.50400001928E-02 0.  1.
    10030    2    1    2    0    0  0.00000000000E+00  0.00000000000E+00  0.68636664564E+03  0.17312459812E+04  0.15893751839E+04 0.  0.
        5    1    3    3  502    0 -0.72207069320E+03 -0.84267167846E+02  0.69279949657E+03  0.10042311855E+04  0.46999998093E+01 0.  1.
       -5    1    3    3    0  502  0.72207069320E+03  0.84267167846E+02 -0.64328509340E+01  0.72701479568E+03  0.46999998093E+01 0. -1.
</event>
<event>
 5   0  0.1819811E-04  0.1575762E+04  0.7818609E-02  0.8835578E-01
       -1   -1    0    0    0  501  0.00000000000E+00  0.00000000000E+00  0.75643850041E+03  0.75643850043E+03  0.50400001928E-02 0.  1.
        1   -1    0    0  501    0  0.00000000000E+00  0.00000000000E+00 -0.82063059448E+03  0.82063059449E+03  0.50400001928E-02 0. -1.
    10030    2    1    2    0    0  0.00000000000E+00  0.00000000000E+00 -0.64192094068E+02  0.15770690949E+04  0.15757621347E+04 0.  0.
        1    1    3    3  502    0  0.28132201907E+03  0.52171425628E+03 -0.55159181630E+03  0.80967979810E+03  0.50400001928E-02 0. -1.
       -1    1    3    3    0  502 -0.28132201907E+03 -0.52171425628E+03  0.48739972223E+03  0.76738929682E+03  0.50400001928E-02 0.  1.
</event>
<event>
 5   0  0.3210612E-04  0.1602203E+04  0.7818609E-02  0.8819196E-01
       -2   -1    0    0    0  501  0.00000000000E+00  0.00000000000E+00  0.53809587770E+03  0.53809587770E+03  0.25500000920E-02 0. -1.
        2   -1    0    0  501    0  0.00000000000E+00  0.00000000000E+00 -0.11926569929E+04  0.11926569929E+04  0.25500000920E-02 0.  1.
    10030    2    1    2    0    0  0.00000000000E+00  0.00000000000E+00 -0.65456111524E+03  0.17307528706E+04  0.16022032473E+04 0.  0.
        2    1    3    3  502    0 -0.65737701375E+03 -0.14898695826E+03 -0.79493807705E+03  0.10422419097E+04  0.25500000920E-02 0.  1.
       -2    1    3    3    0  502  0.65737701375E+03  0.14898695826E+03  0.14037696181E+03  0.68851096096E+03  0.25500000920E-02 0. -1.
</event>
<event>
 5   0  0.3228393E-04  0.1601611E+04  0.7818609E-02  0.8819559E-01
       -2   -1    0    0    0  501  0.00000000000E+00  0.00000000000E+00  0.10917407360E+04  0.10917407360E+04  0.25500000920E-02 0. -1.
        2   -1    0    0  501    0  0.00000000000E+00  0.00000000000E+00 -0.58740108499E+03  0.58740108500E+03  0.25500000920E-02 0.  1.
    10030    2    1    2    0    0  0.00000000000E+00  0.00000000000E+00  0.50433965100E+03  0.16791418210E+04  0.16016113047E+04 0.  0.
        1    1    3    3  502    0 -0.33859289129E+02 -0.41799193429E+03  0.96741603638E+03  0.10543991161E+04  0.50400001928E-02 0. -1.
       -1    1    3    3    0  502  0.33859289129E+02  0.41799193429E+03 -0.46307638537E+03  0.62474270488E+03  0.50400001928E-02 0.  1.
</event>
<event>
 5   0  0.1764099E-04  0.1586957E+04  0.7818609E-02  0.8828601E-01
       -1   -1    0    0    0  501  0.00000000000E+00  0.00000000000E+00  0.36221927428E+03  0.36221927432E+03  0.50400001928E-02 0. -1.
        1   -1    0    0  501    0  0.00000000000E+00  0.00000000000E+00 -0.17381951491E+04  0.17381951491E+04  0.50400001928E-02 0.  1.
    10030    2    1    2    0    0  0.00000000000E+00  0.00000000000E+00 -0.13759758748E+04  0.21004144234E+04  0.15869565659E+04 0.  0.
        5    1    3    3  502    0  0.25799476781E+03 -0.55258781347E+03 -0.16137181345E+02  0.61007957714E+03  0.46999998093E+01 0. -1.
       -5    1    3    3    0  502 -0.25799476781E+03  0.55258781347E+03 -0.13598386935E+04  0.14903348463E+04  0.46999998093E+01 0.  1.
</event>
<event>
 5   0  0.1761255E-04  0.1594869E+04  0.7818609E-02  0.8823706E-01
       -1   -1    0    0    0  501  0.00000000000E+00  0.00000000000E+00  0.83147226688E+03  0.83147226690E+03  0.50400001928E-02 0.  1.
        1   -1    0    0  501    0  0.00000000000E+00  0.00000000000E+00 -0.76479056970E+03  0.76479056972E+03  0.50400001928E-02 0. -1.
    10030    2    1    2    0    0  0.00000000000E+00  0.00000000000E+00  0.66681697179E+02  0.15962628366E+04  0.15948694601E+04 0.  0.
        2    1    3    3  502    0  0.58840706384E+03  0.79580723404E+02  0.56610861988E+03  0.82038706342E+03  0.25500000920E-02 0.  1.
       -2    1    3    3    0  502 -0.58840706384E+03 -0.79580723404E+02 -0.49942692270E+03  0.77587577320E+03  0.25500000920E-02 0. -1.
</event>
<event>
 5   0  0.1736537E-04  0.1605310E+04  0.7818609E-02  0.8817293E-01
       -1   -1    0    0    0  501  0.00000000000E+00  0.00000000000E+00  0.97437686574E+03  0.97437686576E+03  0.50400001928E-02 0. -1.
        1   -1    0    0  501    0  0.00000000000E+00  0.00000000000E+00 -0.66119661125E+03  0.66119661127E+03  0.50400001928E-02 0.  1.
    10030    2    1    2    0    0  0.00000000000E+00  0.00000000000E+00  0.31318025450E+03  0.16355734770E+04  0.16053095424E+04 0.  0.
        3    1    3    3  502    0  0.27006692703E+02  0.45060920240E+01  0.97390092512E+03  0.97428573246E+03  0.10100000352E+00 0. -1.
       -3    1    3    3    0  502 -0.27006692703E+02 -0.45060920240E+01 -0.66072067063E+03  0.66128774456E+03  0.10100000352E+00 0.  1.
</event>
<event>
 5   0  0.3210612E-04  0.1601787E+04  0.7818609E-02  0.8819451E-01
       -2   -1    0    0    0  501  0.00000000000E+00  0.00000000000E+00  0.42255548063E+03  0.42255548064E+03  0.25500000920E-02 0. -1.
        2   -1    0    0  501    0  0.00000000000E+00  0.00000000000E+00 -0.15179787187E+04  0.15179787187E+04  0.25500000920E-02 0.  1.
    10030    2    1    2    0    0  0.00000000000E+00  0.00000000000E+00 -0.10954232381E+04  0.19405341994E+04  0.16017867862E+04 0.  0.
        2    1    3    3  502    0 -0.12539737706E+03  0.78890138502E+03 -0.47769336836E+03  0.93074209728E+03  0.25500000920E-02 0.  1.
       -2    1    3    3    0  502  0.12539737706E+03 -0.78890138502E+03 -0.61772986973E+03  0.10097921021E+04  0.25500000920E-02 0. -1.
</event>
<event>
 5   0  0.3228393E-04  0.1604546E+04  0.7818609E-02  0.8817760E-01
        2   -1    0    0  501    0  0.00000000000E+00  0.00000000000E+00  0.59636173038E+03  0.59636173038E+03  0.25500000920E-02 0. -1.
       -2   -1    0    0    0  501  0.00000000000E+00  0.00000000000E+00 -0.10792811026E+04  0.10792811026E+04  0.25500000920E-02 0.  1.
    10030    2    1    2    0    0  0.00000000000E+00  0.00000000000E+00 -0.48291937219E+03  0.16756428330E+04  0.16045459743E+04 0.  0.
        1    1    3    3  502    0 -0.62119580328E+03  0.61061921767E+02 -0.76780538146E+03  0.98951396561E+03  0.50400001928E-02 0.  1.
       -1    1    3    3    0  502  0.62119580328E+03 -0.61061921767E+02  0.28488600927E+03  0.68612886735E+03  0.50400001928E-02 0. -1.
</event>
<event>
 5   0  0.1819811E-04  0.1615453E+04  0.7818609E-02  0.8811110E-01
       -1   -1    0    0    0  501  0.00000000000E+00  0.00000000000E+00  0.61689152721E+03  0.61689152723E+03  0.50400001928E-02 0. -1.
        1   -1    0    0  501    0  0.00000000000E+00  0.00000000000E+00 -0.10575962921E+04  0.10575962921E+04  0.50400001928E-02 0.  1.
    10030    2    1    2    0    0  0.00000000000E+00  0.00000000000E+00 -0.44070476489E+03  0.16744878193E+04  0.16154531152E+04 0.  0.
        1    1    3    3  502    0 -0.49705099572E+03 -0.36550697636E+03 -0.76071601723E+03  0.97946102578E+03  0.50400001928E-02 0.  1.
       -1    1    3    3    0  502  0.49705099572E+03  0.36550697636E+03  0.32001125234E+03  0.69502679356E+03  0.50400001928E-02 0. -1.
</event>
<event>
 5   0  0.3210612E-04  0.1595641E+04  0.7818609E-02  0.8823230E-01
        2   -1    0    0  501    0  0.00000000000E+00  0.00000000000E+00  0.49635593924E+03  0.49635593924E+03  0.25500000920E-02 0. -1.
       -2   -1    0    0    0  501  0.00000000000E+00  0.00000000000E+00 -0.12823813323E+04  0.12823813323E+04  0.25500000920E-02 0.  1.
    10030    2    1    2    0    0  0.00000000000E+00  0.00000000000E+00 -0.78602539302E+03  0.17787372715E+04  0.15956410507E+04 0.  0.
        2    1    3    3  502    0 -0.20432457207E+02  0.29143931965E+03 -0.12206055318E+04  0.12550825577E+04  0.25500000920E-02 0.  1.
       -2    1    3    3    0  502  0.20432457207E+02 -0.29143931965E+03  0.43458013874E+03  0.52365471385E+03  0.25500000920E-02 0. -1.
</event>
<event>
 5   0  0.1787688E-04  0.1606167E+04  0.7818609E-02  0.8816768E-01
        1   -1    0    0  501    0  0.00000000000E+00  0.00000000000E+00  0.56566439178E+03  0.56566439181E+03  0.50400001928E-02 0. -1.
       -1   -1    0    0    0  501  0.00000000000E+00  0.00000000000E+00 -0.11401512433E+04  0.11401512434E+04  0.50400001928E-02 0.  1.
    10030    2    1    2    0    0  0.00000000000E+00  0.00000000000E+00 -0.57448685157E+03  0.17058156352E+04  0.16061668153E+04 0.  0.
        4    1    3    3  502    0  0.32526584177E+03  0.10535402031E+03  0.48450633211E+03  0.59299691076E+03  0.12699999809E+01 0. -1.
       -4    1    3    3    0  502 -0.32526584177E+03 -0.10535402031E+03 -0.10589931837E+04  0.11128187244E+04  0.12699999809E+01 0.  1.
</event>
<event>
 5   0  0.1736537E-04  0.1605108E+04  0.7818609E-02  0.8817416E-01
        1   -1    0    0  501    0  0.00000000000E+00  0.00000000000E+00  0.51440974295E+03  0.51440974298E+03  0.50400001928E-02 0.  1.
       -1   -1    0    0    0  501  0.00000000000E+00  0.00000000000E+00 -0.12521014719E+04  0.12521014719E+04  0.50400001928E-02 0. -1.
    10030    2    1    2    0    0  0.00000000000E+00  0.00000000000E+00 -0.73769172897E+03  0.17665112149E+04  0.16051083407E+04 0.  0.
        3    1    3    3  502    0 -0.16588771543E+03 -0.64423149503E+03 -0.86292091695E+03  0.10895804112E+04  0.10100000352E+00 0. -1.
       -3    1    3    3    0  502  0.16588771543E+03  0.64423149503E+03  0.12522918798E+03  0.67693080373E+03  0.10100000352E+00 0.  1.
</event>
<event>
 5   0  0.3380454E-04  0.1595831E+04  0.7818609E-02  0.8823113E-01
        2   -1    0    0  501    0  0.00000000000E+00  0.00000000000E+00  0.14926123811E+04  0.14926123811E+04  0.25500000920E-02 0. -1.
       -2   -1    0    0    0  501  0.00000000000E+00  0.00000000000E+00 -0.42654702534E+03  0.42654702535E+03  0.25500000920E-02 0.  1.
    10030    2    1    2    0    0  0.00000000000E+00  0.00000000000E+00  0.10660653558E+04  0.19191594065E+04  0.15958312833E+04 0.  0.
        5    1    3    3  502    0  0.37432839619E+03 -0.58457574300E+02  0.13775240302E+04  0.14286824630E+04  0.46999998093E+01 0. -1.
       -5    1    3    3    0  502 -0.37432839619E+03  0.58457574300E+02 -0.31145867446E+03  0.49047694348E+03  0.46999998093E+01 0.  1.
</event>
<event>
 5   0  0.3210612E-04  0.1616678E+04  0.7818609E-02  0.8810367E-01
        2   -1    0    0  501    0  0.00000000000E+00  0.00000000000E+00  0.17300972007E+04  0.17300972007E+04  0.25500000920E-02 0. -1.
       -2   -1    0    0    0  501  0.00000000000E+00  0.00000000000E+00 -0.37767371547E+03  0.37767371548E+03  0.25500000920E-02 0.  1.
    10030    2    1    2    0    0  0.00000000000E+00  0.00000000000E+00  0.13524234852E+04  0.21077709162E+04  0.16166783699E+04 0.  0.
        2    1    3    3  502    0  0.35661032167E+03  0.24377251409E+03 -0.21457301180E+03  0.48232513675E+03  0.25500000920E-02 0.  1.
       -2    1    3    3    0  502 -0.35661032167E+03 -0.24377251409E+03  0.15669964970E+04  0.16254457794E+04  0.25500000920E-02 0. -1.
</event>
<event>
 5   0  0.1219463E-04  0.1601551E+04  0.7818609E-02  0.8819596E-01
        3   -1    0    0  501    0  0.00000000000E+00  0.00000000000E+00  0.14087203542E+04  0.14087203579E+04  0.10100000352E+00 0.  1.
       -3   -1    0    0    0  501  0.00000000000E+00  0.00000000000E+00 -0.45519406217E+03  0.45519407337E+03  0.10100000352E+00 0. -1.
    10030    2    1    2    0    0  0.00000000000E+00  0.00000000000E+00  0.95352629207E+03  0.18639144312E+04  0.16015506914E+04 0.  0.
        1    1    3    3  502    0 -0.50713229089E+03  0.10155200967E+03  0.11882601631E+04  0.12959391137E+04  0.50400001928E-02 0.  1.
       -1    1    3    3    0  502  0.50713229089E+03 -0.10155200967E+03 -0.23473387101E+03  0.56797531756E+03  0.50400001928E-02 0. -1.
</event>
<event>
 5   0  0.1764099E-04  0.1592497E+04  0.7818609E-02  0.8825171E-01
        1   -1    0    0  501    0  0.00000000000E+00  0.00000000000E+00  0.16059258384E+04  0.16059258384E+04  0.50400001928E-02 0.  1.
       -1   -1    0    0    0  501  0.00000000000E+00  0.00000000000E+00 -0.39479495883E+03  0.39479495886E+03  0.50400001928E-02 0. -1.
    10030    2    1    2    0    0  0.00000000000E+00  0.00000000000E+00  0.12111308795E+04  0.20007207972E+04  0.15924966879E+04 0.  0.
        5    1    3    3  502    0 -0.13305232265E+03  0.52431937786E+02  0.15896409783E+04  0.15960678428E+04  0.46999998093E+01 0.  1.
       -5    1    3    3    0  502  0.13305232265E+03 -0.52431937786E+02 -0.37851009881E+03  0.40465295447E+03  0.46999998093E+01 0. -1.
</event>
<event>
 5   0  0.1761255E-04  0.1600257E+04  0.7818609E-02  0.8820390E-01
       -1   -1    0    0    0  501  0.00000000000E+00  0.00000000000E+00  0.68217060816E+03  0.68217060818E+03  0.50400001928E-02 0. -1.
        1   -1    0    0  501    0  0.00000000000E+00  0.00000000000E+00 -0.93848255825E+03  0.93848255827E+03  0.50400001928E-02 0.  1.
    10030    2    1    2    0    0  0.00000000000E+00  0.00000000000E+00 -0.25631195009E+03  0.16206531664E+04  0.16002565014E+04 0.  0.
        2    1    3    3  502    0  0.79344557944E+03  0.16545891185E+02 -0.23131478607E+03  0.82664150894E+03  0.25500000920E-02 0. -1.
       -2    1    3    3    0  502 -0.79344557944E+03 -0.16545891185E+02 -0.24997164022E+02  0.79401165751E+03  0.25500000920E-02 0.  1.
</event>
<event>
 5   0  0.1819811E-04  0.1589015E+04  0.7818609E-02  0.8827325E-01
       -1   -1    0    0    0  501  0.00000000000E+00  0.00000000000E+00  0.16716697724E+04  0.16716697724E+04  0.50400001928E-02 0. -1.
        1   -1    0    0  501    0  0.00000000000E+00  0.00000000000E+00 -0.37761162230E+03  0.37761162233E+03  0.50400001928E-02 0.  1.
    10030    2    1    2    0    0  0.00000000000E+00  0.00000000000E+00  0.12940581501E+04  0.20492813948E+04  0.15890147070E+04 0.  0.
        1    1    3    3  502    0  0.76754418094E+02 -0.42560006379E+03  0.15065776543E+04  0.15674191793E+04  0.50400001928E-02 0. -1.
       -1    1    3    3    0  502 -0.76754418094E+02  0.42560006379E+03 -0.21251950422E+03  0.48186221547E+03  0.50400001928E-02 0.  1.
</event>
<event>
 5   0  0.3210612E-04  0.1606533E+04  0.7818609E-02  0.8816544E-01
       -2   -1    0    0    0  501  0.00000000000E+00  0.00000000000E+00  0.10866683513E+04  0.10866683513E+04  0.25500000920E-02 0. -1.
        2   -1    0    0  501    0  0.00000000000E+00  0.00000000000E+00 -0.59377569405E+03  0.59377569406E+03  0.25500000920E-02 0.  1.
    10030    2    1    2    0    0  0.00000000000E+00  0.00000000000E+00  0.49289265724E+03  0.16804440454E+04  0.16065332297E+04 0.  0.
        2    1    3    3  502    0  0.80885432272E+02  0.74192263347E+03 -0.64282030199E+02  0.74908198925E+03  0.25500000920E-02 0.  1.
       -2    1    3    3    0  502 -0.80885432272E+02 -0.74192263347E+03  0.55717468744E+03  0.93136205610E+03  0.25500000920E-02 0. -1.
</event>
<event>
 5   0  0.1819811E-04  0.1588453E+04  0.7818609E-02  0.8827673E-01
       -1   -1    0    0    0  501  0.00000000000E+00  0.00000000000E+00  0.64076097756E+03  0.64076097758E+03  0.50400001928E-02 0.  1.
        1   -1    0    0  501    0  0.00000000000E+00  0.00000000000E+00 -0.98444827313E+03  0.98444827314E+03  0.50400001928E-02 0. -1.
    10030    2    1    2    0    0  0.00000000000E+00  0.00000000000E+00 -0.34368729557E+03  0.16252092507E+04  0.15884533835E+04 0.  0.
        1    1    3    3  502    0 -0.48472986019E+03 -0.49002649646E+03  0.23188440453E+03  0.72722718711E+03  0.50400001928E-02 0.  1.
       -1    1    3    3    0  502  0.48472986019E+03  0.49002649646E+03 -0.57557170009E+03  0.89798206361E+03  0.50400001928E-02 0. -1.
</event>
<event>
 5   0  0.3380454E-04  0.1603307E+04  0.7818609E-02  0.8818519E-01
        2   -1    0    0  501    0  0.00000000000E+00  0.00000000000E+00  0.76623508225E+03  0.76623508226E+03  0.25500000920E-02 0. -1.
       -2   -1    0    0    0  501  0.00000000000E+00  0.00000000000E+00 -0.83870860866E+03  0.83870860867E+03  0.25500000920E-02 0.  1.
    10030    2    1    2    0    0  0.00000000000E+00  0.00000000000E+00 -0.72473526413E+02  0.16049436909E+04  0.16033065331E+04 0.  0.
        5    1    3    3  502    0  0.28526674714E+03  0.67972246797E+03  0.27908666595E+03  0.78823296531E+03  0.46999998093E+01 0. -1.
       -5    1    3    3    0  502 -0.28526674714E+03 -0.67972246797E+03 -0.35156019236E+03  0.81671072562E+03  0.46999998093E+01 0.  1.
</event>
<event>
 5   0  0.1736537E-04  0.1733816E+04  0.7818609E-02  0.8742310E-01
        1   -1    0    0  501    0  0.00000000000E+00  0.00000000000E+00  0.15381167705E+04  0.15381167706E+04  0.50400001928E-02 0. -1.
       -1   -1    0    0    0  501  0.00000000000E+00  0.00000000000E+00 -0.48860344594E+03  0.48860344597E+03  0.50400001928E-02 0.  1.
    10030    2    1    2    0    0  0.00000000000E+00  0.00000000000E+00  0.10495133246E+04  0.20267202165E+04  0.17338156239E+04 0.  0.
        3    1    3    3  502    0  0.67030288213E+03 -0.80815230038E+02 -0.11088263689E+03  0.68420174259E+03  0.10100000352E+00 0.  1.
       -3    1    3    3    0  502 -0.67030288213E+03  0.80815230038E+02  0.11603959615E+04  0.13425184739E+04  0.10100000352E+00 0. -1.
</event>
<event>
 5   0  0.1219463E-04  0.1603878E+04  0.7818609E-02  0.8818169E-01
        3   -1    0    0  501    0  0.00000000000E+00  0.00000000000E+00  0.41337070311E+03  0.41337071545E+03  0.10100000352E+00 0.  1.
       -3   -1    0    0    0  501  0.00000000000E+00  0.00000000000E+00 -0.15557614362E+04  0.15557614395E+04  0.10100000352E+00 0. -1.
    10030    2    1    2    0    0  0.00000000000E+00  0.00000000000E+00 -0.11423907331E+04  0.19691321549E+04  0.16038780679E+04 0.  0.
        4    1    3    3  502    0  0.44540306764E+03  0.51147290352E+03 -0.10965673052E+04  0.12893602644E+04  0.12699999809E+01 0. -1.
       -4    1    3    3    0  502 -0.44540306764E+03 -0.51147290352E+03 -0.45823427887E+02  0.67977189053E+03  0.12699999809E+01 0.  1.
</event>
<event>
 5   0  0.1764099E-04  0.1603040E+04  0.7818609E-02  0.8818683E-01
        1   -1    0    0  501    0  0.00000000000E+00  0.00000000000E+00  0.10706500574E+04  0.10706500574E+04  0.50400001928E-02 0. -1.
       -1   -1    0    0    0  501  0.00000000000E+00  0.00000000000E+00 -0.60004129639E+03  0.60004129641E+03  0.50400001928E-02 0.  1.
    10030    2    1    2    0    0  0.00000000000E+00  0.00000000000E+00  0.47060876099E+03  0.16706913538E+04  0.16030399227E+04 0.  0.
        5    1    3    3  502    0 -0.74753107379E+03 -0.26098886589E+03  0.10557529304E+03  0.79880293370E+03  0.46999998093E+01 0.  1.
       -5    1    3    3    0  502  0.74753107379E+03  0.26098886589E+03  0.36503346796E+03  0.87188842011E+03  0.46999998093E+01 0. -1.
</event>
<event>
 5   0  0.3210612E-04  0.1601548E+04  0.7818609E-02  0.8819598E-01
       -2   -1    0    0    0  501  0.00000000000E+00  0.00000000000E+00  0.58975162267E+03  0.58975162268E+03  0.25500000920E-02 0.  1.
        2   -1    0    0  501    0  0.00000000000E+00  0.00000000000E+00 -0.10873031299E+04  0.10873031299E+04  0.25500000920E-02 0. -1.
    10030    2    1    2    0    0  0.00000000000E+00  0.00000000000E+00 -0.49755150722E+03  0.16770547526E+04  0.16015477329E+04 0.  0.
        2    1    3    3  502    0  0.49588102679E+03  0.61276457282E+03 -0.10120475007E+03  0.79474575549E+03  0.25500000920E-02 0.  1.
       -2    1    3    3    0  502 -0.49588102679E+03 -0.61276457282E+03 -0.39634675715E+03  0.88230899708E+03  0.25500000920E-02 0. -1.
</event>
<event>
 5   0  0.1219463E-04  0.1608830E+04  0.7818609E-02  0.8815142E-01
       -3   -1    0    0    0  501  0.00000000000E+00  0.00000000000E+00  0.10254476572E+04  0.10254476622E+04  0.10100000352E+00 0. -1.
        3   -1    0    0  501    0  0.00000000000E+00  0.00000000000E+00 -0.63102535122E+03  0.63102535930E+03  0.10100000352E+00 0.  1.
    10030    2    1    2    0    0  0.00000000000E+00  0.00000000000E+00  0.39442230598E+03  0.16564730215E+04  0.16088299834E+04 0.  0.
        1    1    3    3  502    0  0.25660070516E+03  0.29239037203E+03 -0.52773283082E+03  0.65562031108E+03  0.50400001928E-02 0.  1.
       -1    1    3    3    0  502 -0.25660070516E+03 -0.29239037203E+03  0.92215513680E+03  0.10008527104E+04  0.50400001928E-02 0. -1.
</event>
<event>
 5   0  0.1819811E-04  0.1603237E+04  0.7818609E-02  0.8818562E-01
        1   -1    0    0  501    0  0.00000000000E+00  0.00000000000E+00  0.11173873963E+04  0.11173873963E+04  0.50400001928E-02 0. -1.
       -1   -1    0    0    0  501  0.00000000000E+00  0.00000000000E+00 -0.57508447510E+03  0.57508447512E+03  0.50400001928E-02 0.  1.
    10030    2    1    2    0    0  0.00000000000E+00  0.00000000000E+00  0.54230292121E+03  0.16924718714E+04  0.16032369062E+04 0.  0.
        1    1    3    3  502    0  0.36693446761E+03  0.36969204102E+03 -0.37208991424E+03  0.64012812234E+03  0.50400001928E-02 0.  1.
       -1    1    3    3    0  502 -0.36693446761E+03 -0.36969204102E+03  0.91439283545E+03  0.10523437491E+04  0.50400001928E-02 0. -1.
</event>
<event>
 5   0  0.3210612E-04  0.1595773E+04  0.7818609E-02  0.8823149E-01
        2   -1    0    0  501    0  0.00000000000E+00  0.00000000000E+00  0.65602288496E+03  0.65602288496E+03  0.25500000920E-02 0.  1.
       -2   -1    0    0    0  501  0.00000000000E+00  0.00000000000E+00 -0.97042829103E+03  0.97042829103E+03  0.25500000920E-02 0. -1.
    10030    2    1    2    0    0  0.00000000000E+00  0.00000000000E+00 -0.31440540608E+03  0.16264511760E+04  0.15957733763E+04 0.  0.
        2    1    3    3  502    0 -0.98337946584E+02  0.54896995261E+03 -0.73877254948E+03  0.92564747095E+03  0.25500000920E-02 0. -1.
       -2    1    3    3    0  502  0.98337946584E+02 -0.54896995261E+03  0.42436714340E+03  0.70080370505E+03  0.25500000920E-02 0.  1.
</event>
<event>
 5   0  0.1761255E-04  0.1569586E+04  0.7818609E-02  0.8839454E-01
       -1   -1    0    0    0  501  0.00000000000E+00  0.00000000000E+00  0.74535147809E+03  0.74535147810E+03  0.50400001928E-02 0. -1.
        1   -1    0    0  501    0  0.00000000000E+00  0.00000000000E+00 -0.82632143803E+03  0.82632143804E+03  0.50400001928E-02 0.  1.
    10030    2    1    2    0    0  0.00000000000E+00  0.00000000000E+00 -0.80969959940E+02  0.15716729161E+04  0.15695858119E+04 0.  0.
        2    1    3    3  502    0 -0.35691102862E+03  0.62573218967E+03 -0.35230498588E+03  0.80190090324E+03  0.25500000920E-02 0.  1.
       -2    1    3    3    0  502  0.35691102862E+03 -0.62573218967E+03  0.27133502594E+03  0.76977201290E+03  0.25500000920E-02 0. -1.
</event>
<event>
 5   0  0.1761255E-04  0.1600561E+04  0.7818609E-02  0.8820203E-01
        1   -1    0    0  501    0  0.00000000000E+00  0.00000000000E+00  0.26476106146E+03  0.26476106151E+03  0.50400001928E-02 0.  1.
       -1   -1    0    0    0  501  0.00000000000E+00  0.00000000000E+00 -0.24189695231E+04  0.24189695231E+04  0.50400001928E-02 0. -1.
    10030    2    1    2    0    0  0.00000000000E+00  0.00000000000E+00 -0.21542084616E+04  0.26837305846E+04  0.16005610749E+04 0.  0.
        2    1    3    3  502    0 -0.21510327362E+03  0.29202978583E+03  0.11903597878E+03  0.38173338652E+03  0.25500000920E-02 0.  1.
       -2    1    3    3    0  502  0.21510327362E+03 -0.29202978583E+03 -0.22732444404E+04  0.23019971981E+04  0.25500000920E-02 0. -1.
</event>
<event>
 5   0  0.1787688E-04  0.1591634E+04  0.7818609E-02  0.8825704E-01
       -1   -1    0    0    0  501  0.00000000000E+00  0.00000000000E+00  0.54273703683E+03  0.54273703685E+03  0.50400001928E-02 0.  1.
        1   -1    0    0  501    0  0.00000000000E+00  0.00000000000E+00 -0.11669090772E+04  0.11669090772E+04  0.50400001928E-02 0. -1.
    10030    2    1    2    0    0  0.00000000000E+00  0.00000000000E+00 -0.62417204037E+03  0.17096461141E+04  0.15916340972E+04 0.  0.
        4    1    3    3  502    0  0.26385710244E+03  0.28140488459E+03 -0.10597666020E+04  0.11277925976E+04  0.12699999809E+01 0. -1.
       -4    1    3    3    0  502 -0.26385710244E+03 -0.28140488459E+03  0.43559456164E+03  0.58185351645E+03  0.12699999809E+01 0.  1.
</event>
<event>
 5   0  0.1787688E-04  0.1605302E+04  0.7818609E-02  0.8817297E-01
        1   -1    0    0  501    0  0.00000000000E+00  0.00000000000E+00  0.83702761969E+03  0.83702761971E+03  0.50400001928E-02 0.  1.
       -1   -1    0    0    0  501  0.00000000000E+00  0.00000000000E+00 -0.76968643612E+03  0.76968643613E+03  0.50400001928E-02 0. -1.
    10030    2    1    2    0    0  0.00000000000E+00  0.00000000000E+00  0.67341183575E+02  0.16067140558E+04  0.16053022215E+04 0.  0.
        4    1    3    3  502    0  0.34075339081E+03  0.17554936323E+03 -0.67215650267E+03  0.77377414616E+03  0.12699999809E+01 0. -1.
       -4    1    3    3    0  502 -0.34075339081E+03 -0.17554936323E+03  0.73949768624E+03  0.83293990968E+03  0.12699999809E+01 0.  1.
</event>
<event>
 5   0  0.1764099E-04  0.1618027E+04  0.7818609E-02  0.8809550E-01
       -1   -1    0    0    0  501  0.00000000000E+00  0.00000000000E+00  0.70815377361E+03  0.70815377363E+03  0.50400001928E-02 0. -1.
        1   -1    0    0  501    0  0.00000000000E+00  0.00000000000E+00 -0.92423774335E+03  0.92423774337E+03  0.50400001928E-02 0.  1.
    10030    2    1    2    0    0  0.00000000000E+00  0.00000000000E+00 -0.21608396974E+03  0.16323915170E+04  0.16180265087E+04 0.  0.
        5    1    3    3  502    0  0.45429918694E+03  0.11249434567E+03 -0.77377742001E+03  0.90432091360E+03  0.46999998093E+01 0.  1.
       -5    1    3    3    0  502 -0.45429918694E+03 -0.11249434567E+03  0.55769345027E+03  0.72807060340E+03  0.46999998093E+01 0. -1.
</event>
<event>
 5   0  0.1736537E-04  0.1599623E+04  0.7818609E-02  0.8820779E-01
        1   -1    0    0  501    0  0.00000000000E+00  0.00000000000E+00  0.90022089646E+03  0.90022089647E+03  0.50400001928E-02 0. -1.
       -1   -1    0    0    0  501  0.00000000000E+00  0.00000000000E+00 -0.71060189086E+03  0.71060189088E+03  0.50400001928E-02 0.  1.
    10030    2    1    2    0    0  0.00000000000E+00  0.00000000000E+00  0.18961900559E+03  0.16108227874E+04  0.15996232947E+04 0.  0.
        3    1    3    3  502    0  0.52608074330E+03 -0.10582485804E+03 -0.50241853879E+03  0.73510832356E+03  0.10100000352E+00 0.  1.
       -3    1    3    3    0  502 -0.52608074330E+03  0.10582485804E+03  0.69203754438E+03  0.87571446379E+03  0.10100000352E+00 0. -1.
</event>
<event>
 5   0  0.3380454E-04  0.1610095E+04  0.7818609E-02  0.8814370E-01
       -2   -1    0    0    0  501  0.00000000000E+00  0.00000000000E+00  0.33845194950E+03  0.33845194951E+03  0.25500000920E-02 0.  1.
        2   -1    0    0  501    0  0.00000000000E+00  0.00000000000E+00 -0.19148990249E+04  0.19148990249E+04  0.25500000920E-02 0. -1.
    10030    2    1    2    0    0  0.00000000000E+00  0.00000000000E+00 -0.15764470754E+04  0.22533509744E+04  0.16100947898E+04 0.  0.
        5    1    3    3  502    0  0.59479066341E+03 -0.17985093037E+03 -0.71927843271E+02  0.62555415039E+03  0.46999998093E+01 0.  1.
       -5    1    3    3    0  502 -0.59479066341E+03  0.17985093037E+03 -0.15045192321E+04  0.16277968240E+04  0.46999998093E+01 0. -1.
</event>
<event>
 5   0  0.1764099E-04  0.1594343E+04  0.7818609E-02  0.8824031E-01
        1   -1    0    0  501    0  0.00000000000E+00  0.00000000000E+00  0.57876335723E+03  0.57876335725E+03  0.50400001928E-02 0.  1.
       -1   -1    0    0    0  501  0.00000000000E+00  0.00000000000E+00 -0.10980007477E+04  0.10980007478E+04  0.50400001928E-02 0. -1.
    10030    2    1    2    0    0  0.00000000000E+00  0.00000000000E+00 -0.51923739051E+03  0.16767641050E+04  0.15943432492E+04 0.  0.
        5    1    3    3  502    0  0.29504194056E+03  0.61530534410E+03  0.17376432784E+03  0.70417792126E+03  0.46999998093E+01 0.  1.
       -5    1    3    3    0  502 -0.29504194056E+03 -0.61530534410E+03 -0.69300171836E+03  0.97258618374E+03  0.46999998093E+01 0. -1.
</event>
<event>
 5   0  0.3228393E-04  0.1618722E+04  0.7818609E-02  0.8809128E-01
       -2   -1    0    0    0  501  0.00000000000E+00  0.00000000000E+00  0.67461525401E+03  0.67461525402E+03  0.25500000920E-02 0.  1.
        2   -1    0    0  501    0  0.00000000000E+00  0.00000000000E+00 -0.97102041468E+03  0.97102041468E+03  0.25500000920E-02 0. -1.
    10030    2    1    2    0    0  0.00000000000E+00  0.00000000000E+00 -0.29640516067E+03  0.16456356687E+04  0.16187219449E+04 0.  0.
        1    1    3    3  502    0 -0.19651762816E+03 -0.24830793952E+03 -0.90542842080E+03  0.95920625323E+03  0.50400001928E-02 0. -1.
       -1    1    3    3    0  502  0.19651762816E+03  0.24830793952E+03  0.60902326014E+03  0.68642941547E+03  0.50400001928E-02 0.  1.
</event>
<event>
 5   0  0.1736537E-04  0.1571929E+04  0.7818609E-02  0.8837981E-01
        1   -1    0    0  501    0  0.00000000000E+00  0.00000000000E+00  0.20855068359E+04  0.20855068359E+04  0.50400001928E-02 0.  1.
       -1   -1    0    0    0  501  0.00000000000E+00  0.00000000000E+00 -0.29620642262E+03  0.29620642267E+03  0.50400001928E-02 0. -1.
    10030    2    1    2    0    0  0.00000000000E+00  0.00000000000E+00  0.17893004132E+04  0.23817132585E+04  0.15719294122E+04 0.  0.
        3    1    3    3  502    0  0.21662520153E+03  0.26231957186E+03 -0.17886787223E+03  0.38435889692E+03  0.10100000352E+00 0. -1.
       -3    1    3    3    0  502 -0.21662520153E+03 -0.26231957186E+03  0.19681682855E+04  0.19973543616E+04  0.10100000352E+00 0.  1.
</event>
<event>
 5   0  0.1761255E-04  0.1613964E+04  0.7818609E-02  0.8812015E-01
        1   -1    0    0  501    0  0.00000000000E+00  0.00000000000E+00  0.96285222953E+03  0.96285222954E+03  0.50400001928E-02 0. -1.
       -1   -1    0    0    0  501  0.00000000000E+00  0.00000000000E+00 -0.67634450606E+03  0.67634450608E+03  0.50400001928E-02 0.  1.
    10030    2    1    2    0    0  0.00000000000E+00  0.00000000000E+00  0.28650772347E+03  0.16391967356E+04  0.16139638355E+04 0.  0.
        2    1    3    3  502    0 -0.29615625686E+01 -0.73872500159E+03  0.47313397561E+03  0.87725660882E+03  0.25500000920E-02 0.  1.
       -2    1    3    3    0  502  0.29615625686E+01  0.73872500159E+03 -0.18662625214E+03  0.76194012680E+03  0.25500000920E-02 0. -1.
</event>
<event>
 5   0  0.3228393E-04  0.1613715E+04  0.7818609E-02  0.8812167E-01
        2   -1    0    0  501    0  0.00000000000E+00  0.00000000000E+00  0.76062119368E+03  0.76062119368E+03  0.25500000920E-02 0.  1.
       -2   -1    0    0    0  501  0.00000000000E+00  0.00000000000E+00 -0.85590410703E+03  0.85590410704E+03  0.25500000920E-02 0. -1.
    10030    2    1    2    0    0  0.00000000000E+00  0.00000000000E+00 -0.95282913354E+02  0.16165253007E+04  0.16137147252E+04 0.  0.
        1    1    3    3  502    0  0.11435182589E+03  0.14631904860E+03  0.73892238527E+03  0.76190018739E+03  0.50400001928E-02 0.  1.
       -1    1    3    3    0  502 -0.11435182589E+03 -0.14631904860E+03 -0.83420529862E+03  0.85462511333E+03  0.50400001928E-02 0. -1.
</event>
<event>
 5   0  0.3274900E-04  0.1603956E+04  0.7818609E-02  0.8818121E-01
       -2   -1    0    0    0  501  0.00000000000E+00  0.00000000000E+00  0.74943925114E+03  0.74943925114E+03  0.25500000920E-02 0. -1.
        2   -1    0    0  501    0  0.00000000000E+00  0.00000000000E+00 -0.85820015298E+03  0.85820015298E+03  0.25500000920E-02 0.  1.
    10030    2    1    2    0    0  0.00000000000E+00  0.00000000000E+00 -0.10876090184E+03  0.16076394041E+04  0.16039562089E+04 0.  0.
        3    1    3    3  502    0 -0.33417752173E+03  0.60171886084E+03 -0.46694279074E+03  0.83173059553E+03  0.10100000352E+00 0.  1.
       -3    1    3    3    0  502  0.33417752173E+03 -0.60171886084E+03  0.35818188890E+03  0.77590880859E+03  0.10100000352E+00 0. -1.
</event>
<event>
 5   0  0.3228393E-04  0.1550534E+04  0.7818609E-02  0.8851527E-01
        2   -1    0    0  501    0  0.00000000000E+00  0.00000000000E+00  0.11839106896E+04  0.11839106896E+04  0.25500000920E-02 0. -1.
       -2   -1    0    0    0  501  0.00000000000E+00  0.00000000000E+00 -0.50767237957E+03  0.50767237958E+03  0.25500000920E-02 0.  1.
    10030    2    1    2    0    0  0.00000000000E+00  0.00000000000E+00  0.67623830999E+03  0.16915830691E+04  0.15505337881E+04 0.  0.
        1    1    3    3  502    0 -0.34663554734E+03  0.17574460226E+03  0.10699599414E+04  0.11383569933E+04  0.50400001928E-02 0. -1.
       -1    1    3    3    0  502  0.34663554734E+03 -0.17574460226E+03 -0.39372163144E+03  0.55322607584E+03  0.50400001928E-02 0.  1.
</event>
<event>
 5   0  0.3274900E-04  0.1583253E+04  0.7818609E-02  0.8830903E-01
       -2   -1    0    0    0  501  0.00000000000E+00  0.00000000000E+00  0.34963069480E+03  0.34963069481E+03  0.25500000920E-02 0.  1.
        2   -1    0    0  501    0  0.00000000000E+00  0.00000000000E+00 -0.17923831557E+04  0.17923831557E+04  0.25500000920E-02 0. -1.
    10030    2    1    2    0    0  0.00000000000E+00  0.00000000000E+00 -0.14427524609E+04  0.21420138505E+04  0.15832525611E+04 0.  0.
        3    1    3    3  502    0 -0.78188893879E+03  0.11910277543E+03 -0.76698336113E+03  0.11017255875E+04  0.10100000352E+00 0.  1.
       -3    1    3    3    0  502  0.78188893879E+03 -0.11910277543E+03 -0.67576909974E+03  0.10402882630E+04  0.10100000352E+00 0. -1.
</event>
<event>
 5   0  0.3210612E-04  0.1624005E+04  0.7818609E-02  0.8805935E-01
       -2   -1    0    0    0  501  0.00000000000E+00  0.00000000000E+00  0.37399087123E+03  0.37399087124E+03  0.25500000920E-02 0. -1.
        2   -1    0    0  501    0  0.00000000000E+00  0.00000000000E+00 -0.17630051478E+04  0.17630051478E+04  0.25500000920E-02 0.  1.
    10030    2    1    2    0    0  0.00000000000E+00  0.00000000000E+00 -0.13890142766E+04  0.21369960190E+04  0.16240047182E+04 0.  0.
        2    1    3    3  502    0 -0.23902968852E+03 -0.19617290034E+03  0.29348059011E+03  0.42632130559E+03  0.25500000920E-02 0. -1.
       -2    1    3    3    0  502  0.23902968852E+03  0.19617290034E+03 -0.16824948667E+04  0.17106747134E+04  0.25500000920E-02 0.  1.
</event>
<event>
 5   0  0.3228393E-04  0.1600087E+04  0.7818609E-02  0.8820494E-01
       -2   -1    0    0    0  501  0.00000000000E+00  0.00000000000E+00  0.56429011245E+03  0.56429011246E+03  0.25500000920E-02 0.  1.
        2   -1    0    0  501    0  0.00000000000E+00  0.00000000000E+00 -0.11342920211E+04  0.11342920211E+04  0.25500000920E-02 0. -1.
    10030    2    1    2    0    0  0.00000000000E+00  0.00000000000E+00 -0.57000190868E+03  0.16985821336E+04  0.16000872128E+04 0.  0.
        1    1    3    3  502    0  0.40772313276E+03  0.26480197457E+03 -0.95949555190E+03  0.10756346744E+04  0.50400001928E-02 0. -1.
       -1    1    3    3    0  502 -0.40772313276E+03 -0.26480197457E+03  0.38949364322E+03  0.62294745915E+03  0.50400001928E-02 0.  1.
</event>
<event>
 5   0  0.1764099E-04  0.1597578E+04  0.7818609E-02  0.8822037E-01
        1   -1    0    0  501    0  0.00000000000E+00  0.00000000000E+00  0.75121060882E+03  0.75121060884E+03  0.50400001928E-02 0.  1.
       -1   -1    0    0    0  501  0.00000000000E+00  0.00000000000E+00 -0.84938072221E+03  0.84938072222E+03  0.50400001928E-02 0. -1.
    10030    2    1    2    0    0  0.00000000000E+00  0.00000000000E+00 -0.98170113390E+02  0.16005913311E+04  0.15975779286E+04 0.  0.
        5    1    3    3  502    0  0.34299304118E+03 -0.46460199518E+03 -0.60197965629E+03  0.83420671108E+03  0.46999998093E+01 0. -1.
       -5    1    3    3    0  502 -0.34299304118E+03  0.46460199518E+03  0.50380954290E+03  0.76638461998E+03  0.46999998093E+01 0.  1.
</event>
<event>
 5   0  0.1764099E-04  0.1603627E+04  0.7818609E-02  0.8818323E-01
       -1   -1    0    0    0  501  0.00000000000E+00  0.00000000000E+00  0.11169835535E+04  0.11169835535E+04  0.50400001928E-02 0.  1.
        1   -1    0    0  501    0  0.00000000000E+00  0.00000000000E+00 -0.57557233900E+03  0.57557233902E+03  0.50400001928E-02 0. -1.
    10030    2    1    2    0    0  0.00000000000E+00  0.00000000000E+00  0.54141121451E+03  0.16925558925E+04  0.16036269348E+04 0.  0.
        5    1    3    3  502    0 -0.49100894151E+03 -0.38799236958E+03  0.79975587177E+03  0.10155094307E+04  0.46999998093E+01 0.  1.
       -5    1    3    3    0  502  0.49100894151E+03  0.38799236958E+03 -0.25834465726E+03  0.67704646179E+03  0.46999998093E+01 0. -1.
</event>
<event>
 5   0  0.3210612E-04  0.1589192E+04  0.7818609E-02  0.8827216E-01
       -2   -1    0    0    0  501  0.00000000000E+00  0.00000000000E+00  0.52559108518E+03  0.52559108518E+03  0.25500000920E-02 0.  1.
        2   -1    0    0  501    0  0.00000000000E+00  0.00000000000E+00 -0.12012807989E+04  0.12012807989E+04  0.25500000920E-02 0. -1.
    10030    2    1    2    0    0  0.00000000000E+00  0.00000000000E+00 -0.67568971371E+03  0.17268718841E+04  0.15891915916E+04 0.  0.
        2    1    3    3  502    0  0.26355547896E+02  0.57172073714E+03  0.26111038707E+03  0.62907698291E+03  0.25500000920E-02 0.  1.
       -2    1    3    3    0  502 -0.26355547896E+02 -0.57172073714E+03 -0.93680010078E+03  0.10977949012E+04  0.25500000920E-02 0. -1.
</event>
<event>
 5   0  0.1736537E-04  0.1583758E+04  0.7818609E-02  0.8830588E-01
       -1   -1    0    0    0  501  0.00000000000E+00  0.00000000000E+00  0.85755657056E+03  0.85755657058E+03  0.50400001928E-02 0.  1.
        1   -1    0    0  501    0  0.00000000000E+00  0.00000000000E+00 -0.73123185291E+03  0.73123185293E+03  0.50400001928E-02 0. -1.
    10030    2    1    2    0    0  0.00000000000E+00  0.00000000000E+00  0.12632471765E+03  0.15887884235E+04  0.15837584160E+04 0.  0.
        3    1    3    3  502    0 -0.70586641788E+03 -0.21981286155E+03  0.34780208050E+03  0.81702594291E+03  0.10100000352E+00 0.  1.
       -3    1    3    3    0  502  0.70586641788E+03  0.21981286155E+03 -0.22147736285E+03  0.77176248059E+03  0.10100000352E+00 0. -1.
</event>
<event>
 5   0  0.1764099E-04  0.1592963E+04  0.7818609E-02  0.8824883E-01
        1   -1    0    0  501    0  0.00000000000E+00  0.00000000000E+00  0.54203439082E+03  0.54203439084E+03  0.50400001928E-02 0. -1.
       -1   -1    0    0    0  501  0.00000000000E+00  0.00000000000E+00 -0.11703735829E+04  0.11703735829E+04  0.50400001928E-02 0.  1.
    10030    2    1    2    0    0  0.00000000000E+00  0.00000000000E+00 -0.62833919206E+03  0.17124079737E+04  0.15929629400E+04 0.  0.
        5    1    3    3  502    0 -0.63277665570E+03 -0.46983448252E+03 -0.19061713005E+03  0.81086849565E+03  0.46999998093E+01 0. -1.
       -5    1    3    3    0  502  0.63277665570E+03  0.46983448252E+03 -0.43772206201E+03  0.90153947808E+03  0.46999998093E+01 0.  1.
</event>
<event>
 5   0  0.3380454E-04  0.1605520E+04  0.7818609E-02  0.8817164E-01
       -2   -1    0    0    0  501  0.00000000000E+00  0.00000000000E+00  0.40204656510E+03  0.40204656511E+03  0.25500000920E-02 0.  1.
        2   -1    0    0  501    0  0.00000000000E+00  0.00000000000E+00 -0.16028586437E+04  0.16028586437E+04  0.25500000920E-02 0. -1.
    10030    2    1    2    0    0  0.00000000000E+00  0.00000000000E+00 -0.12008120786E+04  0.20049052088E+04  0.16055202422E+04 0.  0.
        5    1    3    3  502    0  0.56733162450E+03  0.45680390729E+03 -0.17902353239E+03  0.75007099465E+03  0.46999998093E+01 0. -1.
       -5    1    3    3    0  502 -0.56733162450E+03 -0.45680390729E+03 -0.10217885462E+04  0.12548342141E+04  0.46999998093E+01 0.  1.
</event>
<event>
 5   0  0.3274900E-04  0.1613585E+04  0.7818609E-02  0.8812246E-01
       -2   -1    0    0    0  501  0.00000000000E+00  0.00000000000E+00  0.85399145376E+03  0.85399145376E+03  0.25500000920E-02 0. -1.
        2   -1    0    0  501    0  0.00000000000E+00  0.00000000000E+00 -0.76220187819E+03  0.76220187819E+03  0.25500000920E-02 0.  1.
    10030    2    1    2    0    0  0.00000000000E+00  0.00000000000E+00  0.91789575571E+02  0.16161933320E+04  0.16135846926E+04 0.  0.
        3    1    3    3  502    0  0.20853517072E+03 -0.12941249356E+03  0.81569397194E+03  0.85181639863E+03  0.10100000352E+00 0. -1.
       -3    1    3    3    0  502 -0.20853517072E+03  0.12941249356E+03 -0.72390439637E+03  0.76437693332E+03  0.10100000352E+00 0.  1.
</event>
<event>
 5   0  0.1764099E-04  0.1605005E+04  0.7818609E-02  0.8817479E-01
        1   -1    0    0  501    0  0.00000000000E+00  0.00000000000E+00  0.22338112197E+04  0.22338112197E+04  0.50400001928E-02 0.  1.
       -1   -1    0    0    0  501  0.00000000000E+00  0.00000000000E+00 -0.28830106699E+03  0.28830106703E+03  0.50400001928E-02 0. -1.
    10030    2    1    2    0    0  0.00000000000E+00  0.00000000000E+00  0.19455101527E+04  0.25221122867E+04  0.16050048700E+04 0.  0.
        5    1    3    3  502    0 -0.62685480745E+03 -0.21058254571E+03  0.25833407128E+03  0.70996516856E+03  0.46999998093E+01 0. -1.
       -5    1    3    3    0  502  0.62685480745E+03  0.21058254571E+03  0.16871760814E+04  0.18121471181E+04  0.46999998093E+01 0.  1.
</event>
<event>
 5   0  0.3210612E-04  0.1592482E+04  0.7818609E-02  0.8825180E-01
       -2   -1    0    0    0  501  0.00000000000E+00  0.00000000000E+00  0.63379388556E+03  0.63379388556E+03  0.25500000920E-02 0. -1.
        2   -1    0    0  501    0  0.00000000000E+00  0.00000000000E+00 -0.10003252817E+04  0.10003252817E+04  0.25500000920E-02 0.  1.
    10030    2    1    2    0    0  0.00000000000E+00  0.00000000000E+00 -0.36653139617E+03  0.16341191673E+04  0.15924823982E+04 0.  0.
        2    1    3    3  502    0  0.61114391644E+02 -0.35048100715E+03  0.54769892393E+03  0.65310490469E+03  0.25500000920E-02 0. -1.
       -2    1    3    3    0  502 -0.61114391644E+02  0.35048100715E+03 -0.91423032011E+03  0.98101426261E+03  0.25500000920E-02 0.  1.
</event>
<event>
 5   0  0.1819811E-04  0.1601577E+04  0.7818609E-02  0.8819580E-01
        1   -1    0    0  501    0  0.00000000000E+00  0.00000000000E+00  0.11294403158E+04  0.11294403159E+04  0.50400001928E-02 0.  1.
       -1   -1    0    0    0  501  0.00000000000E+00  0.00000000000E+00 -0.56777021723E+03  0.56777021725E+03  0.50400001928E-02 0. -1.
    10030    2    1    2    0    0  0.00000000000E+00  0.00000000000E+00  0.56167009862E+03  0.16972105331E+04  0.16015774393E+04 0.  0.
        1    1    3    3  502    0  0.63981809790E+03 -0.35951378451E+03 -0.58678513301E+02  0.73624759939E+03  0.50400001928E-02 0. -1.
       -1    1    3    3    0  502 -0.63981809790E+03  0.35951378451E+03  0.62034861192E+03  0.96096293372E+03  0.50400001928E-02 0.  1.
</event>
<event>
 5   0  0.1219463E-04  0.1610512E+04  0.7818609E-02  0.8814116E-01
        3   -1    0    0  501    0  0.00000000000E+00  0.00000000000E+00  0.63356485669E+03  0.63356486474E+03  0.10100000352E+00 0.  1.
       -3   -1    0    0    0  501  0.00000000000E+00  0.00000000000E+00 -0.10234735175E+04  0.10234735224E+04  0.10100000352E+00 0. -1.
    10030    2    1    2    0    0  0.00000000000E+00  0.00000000000E+00 -0.38990866076E+03  0.16570383872E+04  0.16105115501E+04 0.  0.
        5    1    3    3  502    0  0.61859284457E+02  0.80174244817E+03 -0.23857304316E+03  0.83878287488E+03  0.46999998093E+01 0. -1.
       -5    1    3    3    0  502 -0.61859284457E+02 -0.80174244817E+03 -0.15133561760E+03  0.81825551230E+03  0.46999998093E+01 0.  1.
</event>
<event>
 5   0  0.3228393E-04  0.1606118E+04  0.7818609E-02  0.8816798E-01
        2   -1    0    0  501    0  0.00000000000E+00  0.00000000000E+00  0.61495307491E+03  0.61495307491E+03  0.25500000920E-02 0. -1.
       -2   -1    0    0    0  501  0.00000000000E+00  0.00000000000E+00 -0.10487041218E+04  0.10487041218E+04  0.25500000920E-02 0.  1.
    10030    2    1    2    0    0  0.00000000000E+00  0.00000000000E+00 -0.43375104686E+03  0.16636571967E+04  0.16061180833E+04 0.  0.
        1    1    3    3  502    0 -0.18856395739E+03 -0.21044532738E+03 -0.99551019659E+03  0.10348353267E+04  0.50400001928E-02 0.  1.
       -1    1    3    3    0  502  0.18856395739E+03  0.21044532738E+03  0.56175914973E+03  0.62882186998E+03  0.50400001928E-02 0. -1.
</event>
<event>
 5   0  0.1761255E-04  0.1623752E+04  0.7818609E-02  0.8806088E-01
        1   -1    0    0  501    0  0.00000000000E+00  0.00000000000E+00  0.55981012196E+03  0.55981012198E+03  0.50400001928E-02 0.  1.
       -1   -1    0    0    0  501  0.00000000000E+00  0.00000000000E+00 -0.11774396835E+04  0.11774396835E+04  0.50400001928E-02 0. -1.
    10030    2    1    2    0    0  0.00000000000E+00  0.00000000000E+00 -0.61762956158E+03  0.17372498055E+04  0.16237520166E+04 0.  0.
        2    1    3    3  502    0  0.18612754865E+03 -0.51681758132E+03 -0.94843045631E+03  0.10960219921E+04  0.25500000920E-02 0. -1.
       -2    1    3    3    0  502 -0.18612754865E+03  0.51681758132E+03  0.33080089473E+03  0.64122781341E+03  0.25500000920E-02 0.  1.
</event>
<event>
 5   0  0.1736537E-04  0.1719160E+04  0.7818609E-02  0.8750512E-01
       -1   -1    0    0    0  501  0.00000000000E+00  0.00000000000E+00  0.89907307945E+03  0.89907307946E+03  0.50400001928E-02 0.  1.
        1   -1    0    0  501    0  0.00000000000E+00  0.00000000000E+00 -0.82182153181E+03  0.82182153183E+03  0.50400001928E-02 0. -1.
    10030    2    1    2    0    0  0.00000000000E+00  0.00000000000E+00  0.77251547634E+02  0.17208946113E+04  0.17191598127E+04 0.  0.
        3    1    3    3  502    0  0.10348327081E+03  0.67534232599E+03  0.56076651239E+03  0.88388638197E+03  0.10100000352E+00 0. -1.
       -3    1    3    3    0  502 -0.10348327081E+03 -0.67534232599E+03 -0.48351496476E+03  0.83700822932E+03  0.10100000352E+00 0.  1.
</event>
<event>
 5   0  0.1764099E-04  0.1594434E+04  0.7818609E-02  0.8823975E-01
       -1   -1    0    0    0  501  0.00000000000E+00  0.00000000000E+00  0.72527632530E+03  0.72527632532E+03  0.50400001928E-02 0.  1.
        1   -1    0    0  501    0  0.00000000000E+00  0.00000000000E+00 -0.87629339304E+03  0.87629339305E+03  0.50400001928E-02 0. -1.
    10030    2    1    2    0    0  0.00000000000E+00  0.00000000000E+00 -0.15101706773E+03  0.16015697184E+04  0.15944338832E+04 0.  0.
        5    1    3    3  502    0 -0.78684432809E+03  0.11055150651E+03 -0.14050616741E+03  0.80691369136E+03  0.46999998093E+01 0. -1.
       -5    1    3    3    0  502  0.78684432809E+03 -0.11055150651E+03 -0.10510900329E+02  0.79465602701E+03  0.46999998093E+01 0.  1.
</event>
<event>
 5   0  0.1761255E-04  0.1590616E+04  0.7818609E-02  0.8826334E-01
        1   -1    0    0  501    0  0.00000000000E+00  0.00000000000E+00  0.13330238549E+04  0.13330238549E+04  0.50400001928E-02 0. -1.
       -1   -1    0    0    0  501  0.00000000000E+00  0.00000000000E+00 -0.47449648924E+03  0.47449648926E+03  0.50400001928E-02 0.  1.
    10030    2    1    2    0    0  0.00000000000E+00  0.00000000000E+00  0.85852736566E+03  0.18075203442E+04  0.15906164079E+04 0.  0.
        2    1    3    3  502    0 -0.34968397237E+03  0.23939794745E+03  0.11940336518E+04  0.12670069532E+04  0.25500000920E-02 0. -1.
       -2    1    3    3    0  502  0.34968397237E+03 -0.23939794745E+03 -0.33550628614E+03  0.54051339098E+03  0.25500000920E-02 0.  1.
</event>
<event>
 5   0  0.3263294E-04  0.1599363E+04  0.7818609E-02  0.8820939E-01
       -2   -1    0    0    0  501  0.00000000000E+00  0.00000000000E+00  0.55949306021E+03  0.55949306021E+03  0.25500000920E-02 0. -1.
        2   -1    0    0  501    0  0.00000000000E+00  0.00000000000E+00 -0.11429825927E+04  0.11429825927E+04  0.25500000920E-02 0.  1.
    10030    2    1    2    0    0  0.00000000000E+00  0.00000000000E+00 -0.58348953252E+03  0.17024756529E+04  0.15993634091E+04 0.  0.
        4    1    3    3  502    0  0.58813889682E+03  0.53773388110E+03 -0.36254709443E+03  0.87550391057E+03  0.12699999809E+01 0.  1.
       -4    1    3    3    0  502 -0.58813889682E+03 -0.53773388110E+03 -0.22094243809E+03  0.82697174238E+03  0.12699999809E+01 0. -1.
</event>
<event>
 5   0  0.1787688E-04  0.1602966E+04  0.7818609E-02  0.8818728E-01
        1   -1    0    0  501    0  0.00000000000E+00  0.00000000000E+00  0.13986218534E+04  0.13986218535E+04  0.50400001928E-02 0. -1.
       -1   -1    0    0    0  501  0.00000000000E+00  0.00000000000E+00 -0.45929160714E+03  0.45929160717E+03  0.50400001928E-02 0.  1.
    10030    2    1    2    0    0  0.00000000000E+00  0.00000000000E+00  0.93933024631E+03  0.18579134606E+04  0.16029663489E+04 0.  0.
        4    1    3    3  502    0 -0.51373947497E+02 -0.78368951814E+03  0.65498628589E+03  0.10226520380E+04  0.12699999809E+01 0. -1.
       -4    1    3    3    0  502  0.51373947497E+02  0.78368951814E+03  0.28434396042E+03  0.83526142258E+03  0.12699999809E+01 0.  1.
</event>
<event>
 5   0  0.1764099E-04  0.1717960E+04  0.7818609E-02  0.8751187E-01
        1   -1    0    0  501    0  0.00000000000E+00  0.00000000000E+00  0.11428176811E+04  0.11428176811E+04  0.50400001928E-02 0. -1.
       -1   -1    0    0    0  501  0.00000000000E+00  0.00000000000E+00 -0.64563838451E+03  0.64563838453E+03  0.50400001928E-02 0.  1.
    10030    2    1    2    0    0  0.00000000000E+00  0.00000000000E+00  0.49717929655E+03  0.17884560656E+04  0.17179603737E+04 0.  0.
        5    1    3    3  502    0 -0.26857938307E+03 -0.78583595972E+03  0.47702932450E+03  0.95773279522E+03  0.46999998093E+01 0. -1.
       -5    1    3    3    0  502  0.26857938307E+03  0.78583595972E+03  0.20149972051E+02  0.83072327039E+03  0.46999998093E+01 0.  1.
</event>
<event>
 5   0  0.1219463E-04  0.1602454E+04  0.7818609E-02  0.8819042E-01
       -4   -1    0    0    0  501  0.00000000000E+00  0.00000000000E+00  0.43053221674E+03  0.43053408988E+03  0.12699999809E+01 0.  1.
        4   -1    0    0  501    0  0.00000000000E+00  0.00000000000E+00 -0.14910907048E+04  0.14910912457E+04  0.12699999809E+01 0. -1.
    10030    2    1    2    0    0  0.00000000000E+00  0.00000000000E+00 -0.10605584881E+04  0.19216253356E+04  0.16024542501E+04 0.  0.
        1    1    3    3  502    0  0.16445583202E+03 -0.75096862234E+02 -0.14663127867E+04  0.14774161391E+04  0.50400001928E-02 0. -1.
       -1    1    3    3    0  502 -0.16445583202E+03  0.75096862234E+02  0.40575429861E+03  0.44420919652E+03  0.50400001928E-02 0.  1.
</event>
<event>
 5   0  0.3228393E-04  0.1598481E+04  0.7818609E-02  0.8821482E-01
        2   -1    0    0  501    0  0.00000000000E+00  0.00000000000E+00  0.17499682610E+04  0.17499682611E+04  0.25500000920E-02 0. -1.
       -2   -1    0    0    0  501  0.00000000000E+00  0.00000000000E+00 -0.36502697810E+03  0.36502697811E+03  0.25500000920E-02 0.  1.
    10030    2    1    2    0    0  0.00000000000E+00  0.00000000000E+00  0.13849412829E+04  0.21149952392E+04  0.15984813119E+04 0.  0.
        1    1    3    3  502    0 -0.53670964697E+03  0.23288127912E+03  0.14129313343E+04  0.15292697247E+04  0.50400001928E-02 0. -1.
       -1    1    3    3    0  502  0.53670964697E+03 -0.23288127912E+03 -0.27990051363E+02  0.58572551448E+03  0.50400001928E-02 0.  1.
</event>
<event>
 5   0  0.3274900E-04  0.1592419E+04  0.7818609E-02  0.8825219E-01
        2   -1    0    0  501    0  0.00000000000E+00  0.00000000000E+00  0.10615448617E+04  0.10615448617E+04  0.25500000920E-02 0.  1.
       -2   -1    0    0    0  501  0.00000000000E+00  0.00000000000E+00 -0.59719516499E+03  0.59719516499E+03  0.25500000920E-02 0. -1.
    10030    2    1    2    0    0  0.00000000000E+00  0.00000000000E+00  0.46434969671E+03  0.16587400267E+04  0.15924188630E+04 0.  0.
        3    1    3    3  502    0 -0.68604876694E+02 -0.35326030412E+03 -0.50765196037E+03  0.62226199839E+03  0.10100000352E+00 0. -1.
       -3    1    3    3    0  502  0.68604876694E+02  0.35326030412E+03  0.97200165708E+03  0.10364780283E+04  0.10100000352E+00 0.  1.
</event>
<event>
 5   0  0.3274900E-04  0.1605098E+04  0.7818609E-02  0.8817422E-01
        2   -1    0    0  501    0  0.00000000000E+00  0.00000000000E+00  0.18892361705E+04  0.18892361705E+04  0.25500000920E-02 0.  1.
       -2   -1    0    0    0  501  0.00000000000E+00  0.00000000000E+00 -0.34092337400E+03  0.34092337401E+03  0.25500000920E-02 0. -1.
    10030    2    1    2    0    0  0.00000000000E+00  0.00000000000E+00  0.15483127965E+04  0.22301595446E+04  0.16050978407E+04 0.  0.
        3    1    3    3  502    0 -0.63932991931E+03  0.41659305421E+03  0.11195397464E+04  0.13548659611E+04  0.10100000352E+00 0.  1.
       -3    1    3    3    0  502  0.63932991931E+03 -0.41659305421E+03  0.42877305016E+03  0.87529358348E+03  0.10100000352E+00 0. -1.
</event>
<event>
 5   0  0.1787688E-04  0.1595669E+04  0.7818609E-02  0.8823213E-01
       -1   -1    0    0    0  501  0.00000000000E+00  0.00000000000E+00  0.12388175776E+04  0.12388175776E+04  0.50400001928E-02 0.  1.
        1   -1    0    0  501    0  0.00000000000E+00  0.00000000000E+00 -0.51382887161E+03  0.51382887163E+03  0.50400001928E-02 0. -1.
    10030    2    1    2    0    0  0.00000000000E+00  0.00000000000E+00  0.72498870602E+03  0.17526464493E+04  0.15956694370E+04 0.  0.
        4    1    3    3  502    0  0.62342296378E+03  0.49640468240E+03  0.32045614296E+03  0.85893396308E+03  0.12699999809E+01 0.  1.
       -4    1    3    3    0  502 -0.62342296378E+03 -0.49640468240E+03  0.40453256306E+03  0.89371248618E+03  0.12699999809E+01 0. -1.
</event>
<event>
 5   0  0.3228393E-04  0.1600880E+04  0.7818609E-02  0.8820008E-01
       -2   -1    0    0    0  501  0.00000000000E+00  0.00000000000E+00  0.10778905318E+04  0.10778905318E+04  0.25500000920E-02 0. -1.
        2   -1    0    0  501    0  0.00000000000E+00  0.00000000000E+00 -0.59440569090E+03  0.59440569091E+03  0.25500000920E-02 0.  1.
    10030    2    1    2    0    0  0.00000000000E+00  0.00000000000E+00  0.48348484093E+03  0.16722962227E+04  0.16008800908E+04 0.  0.
        1    1    3    3  502    0  0.18758580531E+02 -0.62415285714E+03 -0.28138284649E+03  0.68490508813E+03  0.50400001928E-02 0. -1.
       -1    1    3    3    0  502 -0.18758580531E+02  0.62415285714E+03  0.76486768742E+03  0.98739113461E+03  0.50400001928E-02 0.  1.
</event>
<event>
 5   0  0.1761255E-04  0.1601399E+04  0.7818609E-02  0.8819689E-01
       -1   -1    0    0    0  501  0.00000000000E+00  0.00000000000E+00  0.43637236271E+03  0.43637236274E+03  0.50400001928E-02 0. -1.
        1   -1    0    0  501    0  0.00000000000E+00  0.00000000000E+00 -0.14692026531E+04  0.14692026531E+04  0.50400001928E-02 0.  1.
    10030    2    1    2    0    0  0.00000000000E+00  0.00000000000E+00 -0.10328302904E+04  0.19055750159E+04  0.16013986800E+04 0.  0.
        2    1    3    3  502    0 -0.46886603598E+03 -0.44076768899E+03 -0.10833681828E+04  0.12600786225E+04  0.25500000920E-02 0. -1.
       -2    1    3    3    0  502  0.46886603598E+03  0.44076768899E+03  0.50537892343E+02  0.64549639342E+03  0.25500000920E-02 0.  1.
</event>
<event>
 5   0  0.1819811E-04  0.1406750E+04  0.7818609E-02  0.8948947E-01
       -1   -1    0    0    0  501  0.00000000000E+00  0.00000000000E+00  0.82872120305E+03  0.82872120306E+03  0.50400001928E-02 0. -1.
        1   -1    0    0  501    0  0.00000000000E+00  0.00000000000E+00 -0.59698740191E+03  0.59698740193E+03  0.50400001928E-02 0.  1.
    10030    2    1    2    0    0  0.00000000000E+00  0.00000000000E+00  0.23173380114E+03  0.14257086050E+04  0.14067496123E+04 0.  0.
        1    1    3    3  502    0  0.30508086178E+03 -0.88590588619E+02 -0.52013624393E+03  0.60947874195E+03  0.50400001928E-02 0.  1.
       -1    1    3    3    0  502 -0.30508086178E+03  0.88590588619E+02  0.75187004507E+03  0.81622986304E+03  0.50400001928E-02 0. -1.
</event>
<event>
 5   0  0.1764099E-04  0.1610737E+04  0.7818609E-02  0.8813979E-01
        1   -1    0    0  501    0  0.00000000000E+00  0.00000000000E+00  0.14591000751E+04  0.14591000751E+04  0.50400001928E-02 0. -1.
       -1   -1    0    0    0  501  0.00000000000E+00  0.00000000000E+00 -0.44453293324E+03  0.44453293327E+03  0.50400001928E-02 0.  1.
    10030    2    1    2    0    0  0.00000000000E+00  0.00000000000E+00  0.10145671419E+04  0.19036330084E+04  0.16107365226E+04 0.  0.
        5    1    3    3  502    0 -0.49126131004E+03 -0.43950974878E+03  0.10541186370E+04  0.12432597013E+04  0.46999998093E+01 0.  1.
       -5    1    3    3    0  502  0.49126131004E+03  0.43950974878E+03 -0.39551495088E+02  0.66037330713E+03  0.46999998093E+01 0. -1.
</event>
<event>
 5   0  0.3210612E-04  0.1591071E+04  0.7818609E-02  0.8826052E-01
       -2   -1    0    0    0  501  0.00000000000E+00  0.00000000000E+00  0.62842027633E+03  0.62842027633E+03  0.25500000920E-02 0. -1.
        2   -1    0    0  501    0  0.00000000000E+00  0.00000000000E+00 -0.10070918566E+04  0.10070918566E+04  0.25500000920E-02 0.  1.
    10030    2    1    2    0    0  0.00000000000E+00  0.00000000000E+00 -0.37867158024E+03  0.16355121329E+04  0.15910712653E+04 0.  0.
        2    1    3    3  502    0  0.72474784992E+03 -0.18501012416E+03 -0.46780609188E+03  0.88223054334E+03  0.25500000920E-02 0.  1.
       -2    1    3    3    0  502 -0.72474784992E+03  0.18501012416E+03  0.89134511632E+02  0.75328158956E+03  0.25500000920E-02 0. -1.
</event>
<event>
 5   0  0.3228393E-04  0.1575648E+04  0.7818609E-02  0.8835650E-01
        2   -1    0    0  501    0  0.00000000000E+00  0.00000000000E+00  0.10097302083E+04  0.10097302083E+04  0.25500000920E-02 0. -1.
       -2   -1    0    0    0  501  0.00000000000E+00  0.00000000000E+00 -0.61468551529E+03  0.61468551530E+03  0.25500000920E-02 0.  1.
    10030    2    1    2    0    0  0.00000000000E+00  0.00000000000E+00  0.39504469300E+03  0.16244157236E+04  0.15756478457E+04 0.  0.
        1    1    3    3  502    0  0.37959329705E+03 -0.13528529362E+03  0.89543380147E+03  0.98193425171E+03  0.50400001928E-02 0. -1.
       -1    1    3    3    0  502 -0.37959329705E+03  0.13528529362E+03 -0.50038910846E+03  0.64248147190E+03  0.50400001928E-02 0.  1.
</event>
<event>
 5   0  0.3274900E-04  0.1659840E+04  0.7818609E-02  0.8784607E-01
        2   -1    0    0  501    0  0.00000000000E+00  0.00000000000E+00  0.15257457710E+04  0.15257457710E+04  0.25500000920E-02 0.  1.
       -2   -1    0    0    0  501  0.00000000000E+00  0.00000000000E+00 -0.45142966741E+03  0.45142966742E+03  0.25500000920E-02 0. -1.
    10030    2    1    2    0    0  0.00000000000E+00  0.00000000000E+00  0.10743161036E+04  0.19771754384E+04  0.16598396380E+04 0.  0.
        3    1    3    3  502    0  0.53814137285E+03  0.48204910647E+03  0.10236507654E+04  0.12529279221E+04  0.10100000352E+00 0.  1.
       -3    1    3    3    0  502 -0.53814137285E+03 -0.48204910647E+03  0.50665338184E+02  0.72424751633E+03  0.10100000352E+00 0. -1.
</event>
<event>
 5   0  0.1219463E-04  0.1598104E+04  0.7818609E-02  0.8821713E-01
        3   -1    0    0  501    0  0.00000000000E+00  0.00000000000E+00  0.93494458468E+03  0.93494459013E+03  0.10100000352E+00 0.  1.
       -3   -1    0    0    0  501  0.00000000000E+00  0.00000000000E+00 -0.68291142951E+03  0.68291143698E+03  0.10100000352E+00 0. -1.
    10030    2    1    2    0    0  0.00000000000E+00  0.00000000000E+00  0.25203315517E+03  0.16178560271E+04  0.15981043186E+04 0.  0.
        3    1    3    3  502    0 -0.23141560965E+02 -0.18981083793E+03 -0.65940778819E+03  0.68657288569E+03  0.10100000352E+00 0. -1.
       -3    1    3    3    0  502  0.23141560965E+02  0.18981083793E+03  0.91144094336E+03  0.93128314141E+03  0.10100000352E+00 0.  1.
</event>
<event>
 5   0  0.1219463E-04  0.1600213E+04  0.7818609E-02  0.8820417E-01
       -4   -1    0    0    0  501  0.00000000000E+00  0.00000000000E+00  0.99582644326E+03  0.99582725309E+03  0.12699999809E+01 0. -1.
        4   -1    0    0  501    0  0.00000000000E+00  0.00000000000E+00 -0.64285156313E+03  0.64285281762E+03  0.12699999809E+01 0.  1.
    10030    2    1    2    0    0  0.00000000000E+00  0.00000000000E+00  0.35297488013E+03  0.16386800707E+04  0.16002128321E+04 0.  0.
        4    1    3    3  502    0  0.63651909242E+02 -0.36985662427E+03 -0.54712710090E+03  0.66347205330E+03  0.12699999809E+01 0.  1.
       -4    1    3    3    0  502 -0.63651909242E+02  0.36985662427E+03  0.90010198103E+03  0.97520801741E+03  0.12699999809E+01 0. -1.
</event>
<event>
 5   0  0.3263294E-04  0.1607861E+04  0.7818609E-02  0.8815733E-01
       -2   -1    0    0    0  501  0.00000000000E+00  0.00000000000E+00  0.75462472412E+03  0.75462472412E+03  0.25500000920E-02 0.  1.
        2   -1    0    0  501    0  0.00000000000E+00  0.00000000000E+00 -0.85645802593E+03  0.85645802594E+03  0.25500000920E-02 0. -1.
    10030    2    1    2    0    0  0.00000000000E+00  0.00000000000E+00 -0.10183330181E+03  0.16110827501E+04  0.16078611900E+04 0.  0.
        4    1    3    3  502    0 -0.62428830518E+03  0.59140751938E+01  0.45658797443E+03  0.77346302792E+03  0.12699999809E+01 0.  1.
       -4    1    3    3    0  502  0.62428830518E+03 -0.59140751938E+01 -0.55842127624E+03  0.83761972214E+03  0.12699999809E+01 0. -1.
</event>
<event>
 5   0  0.3228393E-04  0.1607145E+04  0.7818609E-02  0.8816171E-01
        2   -1    0    0  501    0  0.00000000000E+00  0.00000000000E+00  0.13730624902E+04  0.13730624902E+04  0.25500000920E-02 0. -1.
       -2   -1    0    0    0  501  0.00000000000E+00  0.00000000000E+00 -0.47028339042E+03  0.47028339043E+03  0.25500000920E-02 0.  1.
    10030    2    1    2    0    0  0.00000000000E+00  0.00000000000E+00  0.90277909978E+03  0.18433458806E+04  0.16071446521E+04 0.  0.
        1    1    3    3  502    0  0.20027892782E+03 -0.73680855054E+03  0.16412006974E+03  0.78098264155E+03  0.50400001928E-02 0.  1.
       -1    1    3    3    0  502 -0.20027892782E+03  0.73680855054E+03  0.73865903004E+03  0.10623632391E+04  0.50400001928E-02 0. -1.
</event>
<event>
 5   0  0.1819811E-04  0.1570629E+04  0.7818609E-02  0.8838797E-01
       -1   -1    0    0    0  501  0.00000000000E+00  0.00000000000E+00  0.92373987094E+03  0.92373987096E+03  0.50400001928E-02 0.  1.
        1   -1    0    0  501    0  0.00000000000E+00  0.00000000000E+00 -0.66763297416E+03  0.66763297417E+03  0.50400001928E-02 0. -1.
    10030    2    1    2    0    0  0.00000000000E+00  0.00000000000E+00  0.25610689679E+03  0.15913728451E+04  0.15706294247E+04 0.  0.
        1    1    3    3  502    0  0.39573404213E+03 -0.28273344367E+03  0.75278050261E+03  0.89622659936E+03  0.50400001928E-02 0.  1.
       -1    1    3    3    0  502 -0.39573404213E+03  0.28273344367E+03 -0.49667360582E+03  0.69514624577E+03  0.50400001928E-02 0. -1.
</event>
<event>
 5   0  0.1764099E-04  0.1616118E+04  0.7818609E-02  0.8810707E-01
        1   -1    0    0  501    0  0.00000000000E+00  0.00000000000E+00  0.11453581286E+04  0.11453581286E+04  0.50400001928E-02 0. -1.
       -1   -1    0    0    0  501  0.00000000000E+00  0.00000000000E+00 -0.57009180958E+03  0.57009180960E+03  0.50400001928E-02 0.  1.
    10030    2    1    2    0    0  0.00000000000E+00  0.00000000000E+00  0.57526631902E+03  0.17154499382E+04  0.16161179266E+04 0.  0.
        5    1    3    3  502    0 -0.35616340309E+03 -0.70200624302E+03  0.48125077507E+03  0.92265352839E+03  0.46999998093E+01 0. -1.
       -5    1    3    3    0  502  0.35616340309E+03  0.70200624302E+03  0.94015543947E+02  0.79279640983E+03  0.46999998093E+01 0.  1.
</event>
<event>
 5   0  0.3380454E-04  0.1602728E+04  0.7818609E-02  0.8818874E-01
       -2   -1    0    0    0  501  0.00000000000E+00  0.00000000000E+00  0.51511880475E+03  0.51511880475E+03  0.25500000920E-02 0. -1.
        2   -1    0    0  501    0  0.00000000000E+00  0.00000000000E+00 -0.12466726038E+04  0.12466726038E+04  0.25500000920E-02 0.  1.
    10030    2    1    2    0    0  0.00000000000E+00  0.00000000000E+00 -0.73155379904E+03  0.17617914085E+04  0.16027283008E+04 0.  0.
        5    1    3    3  502    0  0.28207177955E+03 -0.65434960970E+02 -0.11871390619E+04  0.12219523171E+04  0.46999998093E+01 0.  1.
       -5    1    3    3    0  502 -0.28207177955E+03  0.65434960970E+02  0.45558526286E+03  0.53983909146E+03  0.46999998093E+01 0. -1.
</event>
<event>
 5   0  0.3380454E-04  0.1570036E+04  0.7818609E-02  0.8839170E-01
        2   -1    0    0  501    0  0.00000000000E+00  0.00000000000E+00  0.15187524444E+04  0.15187524444E+04  0.25500000920E-02 0.  1.
       -2   -1    0    0    0  501  0.00000000000E+00  0.00000000000E+00 -0.40576284288E+03  0.40576284289E+03  0.25500000920E-02 0. -1.
    10030    2    1    2    0    0  0.00000000000E+00  0.00000000000E+00  0.11129896015E+04  0.19245152873E+04  0.15700360626E+04 0.  0.
        5    1    3    3  502    0  0.25141253629E+03 -0.64194977899E+03  0.10166489592E+04  0.12283749340E+04  0.46999998093E+01 0.  1.
       -5    1    3    3    0  502 -0.25141253629E+03  0.64194977899E+03  0.96340642288E+02  0.69614035330E+03  0.46999998093E+01 0. -1.
</event>
<event>
 5   0  0.3380454E-04  0.1715868E+04  0.7818609E-02  0.8752366E-01
        2   -1    0    0  501    0  0.00000000000E+00  0.00000000000E+00  0.20211668072E+04  0.20211668072E+04  0.25500000920E-02 0. -1.
       -2   -1    0    0    0  501  0.00000000000E+00  0.00000000000E+00 -0.36417127020E+03  0.36417127021E+03  0.25500000920E-02 0.  1.
    10030    2    1    2    0    0  0.00000000000E+00  0.00000000000E+00  0.16569955370E+04  0.23853380774E+04  0.17158681575E+04 0.  0.
        5    1    3    3  502    0  0.22877175556E+03  0.71140984566E+03  0.14143299321E+04  0.15996223715E+04  0.46999998093E+01 0. -1.
       -5    1    3    3    0  502 -0.22877175556E+03 -0.71140984566E+03  0.24266560485E+03  0.78571570585E+03  0.46999998093E+01 0.  1.
</event>
<event>
 5   0  0.3263294E-04  0.1594492E+04  0.7818609E-02  0.8823939E-01
        2   -1    0    0  501    0  0.00000000000E+00  0.00000000000E+00  0.72928484064E+03  0.72928484064E+03  0.25500000920E-02 0. -1.
       -2   -1    0    0    0  501  0.00000000000E+00  0.00000000000E+00 -0.87154040387E+03  0.87154040388E+03  0.25500000920E-02 0.  1.
    10030    2    1    2    0    0  0.00000000000E+00  0.00000000000E+00 -0.14225556323E+03  0.16008252445E+04  0.15944920251E+04 0.  0.
        4    1    3    3  502    0 -0.29230624587E+03  0.51864878935E+02  0.67172100936E+03  0.73440018679E+03  0.12699999809E+01 0. -1.
       -4    1    3    3    0  502  0.29230624587E+03 -0.51864878935E+02 -0.81397657259E+03  0.86642505773E+03  0.12699999809E+01 0.  1.
</event>
<event>
 5   0  0.3263294E-04  0.1541932E+04  0.7818609E-02  0.8857038E-01
        2   -1    0    0  501    0  0.00000000000E+00  0.00000000000E+00  0.11138253524E+04  0.11138253524E+04  0.25500000920E-02 0.  1.
       -2   -1    0    0    0  501  0.00000000000E+00  0.00000000000E+00 -0.53364577304E+03  0.53364577304E+03  0.25500000920E-02 0. -1.
    10030    2    1    2    0    0  0.00000000000E+00  0.00000000000E+00  0.58017957935E+03  0.16474711254E+04  0.15419315046E+04 0.  0.
        4    1    3    3  502    0  0.95633797546E+02  0.26495230067E+02 -0.52679232193E+03  0.53605930996E+03  0.12699999809E+01 0. -1.
       -4    1    3    3    0  502 -0.95633797546E+02 -0.26495230067E+02  0.11069719013E+04  0.11114118155E+04  0.12699999809E+01 0.  1.
</event>
<event>
 5   0  0.1764099E-04  0.1606538E+04  0.7818609E-02  0.8816542E-01
        1   -1    0    0  501    0  0.00000000000E+00  0.00000000000E+00  0.45375292074E+03  0.45375292077E+03  0.50400001928E-02 0.  1.
       -1   -1    0    0    0  501  0.00000000000E+00  0.00000000000E+00 -0.14220096366E+04  0.14220096366E+04  0.50400001928E-02 0. -1.
    10030    2    1    2    0    0  0.00000000000E+00  0.00000000000E+00 -0.96825671584E+03  0.18757625574E+04  0.16065379248E+04 0.  0.
        5    1    3    3  502    0 -0.78097402625E+03 -0.25071213904E+00 -0.70349200479E+03  0.10511153996E+04  0.46999998093E+01 0.  1.
       -5    1    3    3    0  502  0.78097402625E+03  0.25071213904E+00 -0.26476471105E+03  0.82464715773E+03  0.46999998093E+01 0. -1.
</event>
<event>
 5   0  0.3274900E-04  0.1603533E+04  0.7818609E-02  0.8818380E-01
        2   -1    0    0  501    0  0.00000000000E+00  0.00000000000E+00  0.84936319130E+03  0.84936319130E+03  0.25500000920E-02 0.  1.
       -2   -1    0    0    0  501  0.00000000000E+00  0.00000000000E+00 -0.75683711252E+03  0.75683711252E+03  0.25500000920E-02 0. -1.
    10030    2    1    2    0    0  0.00000000000E+00  0.00000000000E+00  0.92526078776E+02  0.16062003038E+04  0.16035330807E+04 0.  0.
        3    1    3    3  502    0  0.34727692977E+03 -0.64565516323E+03 -0.27886540056E+03  0.78437094387E+03  0.10100000352E+00 0.  1.
       -3    1    3    3    0  502 -0.34727692977E+03  0.64565516323E+03  0.37139147934E+03  0.82182935995E+03  0.10100000352E+00 0. -1.
</event>
<event>
 5   0  0.3210612E-04  0.1572412E+04  0.7818609E-02  0.8837678E-01
        2   -1    0    0  501    0  0.00000000000E+00  0.00000000000E+00  0.20148282016E+04  0.20148282016E+04  0.25500000920E-02 0. -1.
       -2   -1    0    0    0  501  0.00000000000E+00  0.00000000000E+00 -0.30678540563E+03  0.30678540565E+03  0.25500000920E-02 0.  1.
    10030    2    1    2    0    0  0.00000000000E+00  0.00000000000E+00  0.17080427960E+04  0.23216136072E+04  0.15724120161E+04 0.  0.
        2    1    3    3  502    0  0.50810809908E+03  0.44999299896E+03  0.26815558441E+03  0.72977733379E+03  0.25500000920E-02 0.  1.
       -2    1    3    3    0  502 -0.50810809908E+03 -0.44999299896E+03  0.14398872115E+04  0.15918362734E+04  0.25500000920E-02 0. -1.
</event>
<event>
 5   0  0.1736537E-04  0.1596734E+04  0.7818609E-02  0.8822557E-01
        1   -1    0    0  501    0  0.00000000000E+00  0.00000000000E+00  0.57131934839E+03  0.57131934841E+03  0.50400001928E-02 0.  1.
       -1   -1    0    0    0  501  0.00000000000E+00  0.00000000000E+00 -0.11156450519E+04  0.11156450519E+04  0.50400001928E-02 0. -1.
    10030    2    1    2    0    0  0.00000000000E+00  0.00000000000E+00 -0.54432570352E+03  0.16869644003E+04  0.15967336711E+04 0.  0.
        3    1    3    3  502    0  0.61004936175E+03 -0.28554854155E+03  0.18064906423E+03  0.69737528488E+03  0.10100000352E+00 0.  1.
       -3    1    3    3    0  502 -0.61004936175E+03  0.28554854155E+03 -0.72497476775E+03  0.98958911546E+03  0.10100000352E+00 0. -1.
</event>
<event>
 5   0  0.3380454E-04  0.1598141E+04  0.7818609E-02  0.8821691E-01
       -2   -1    0    0    0  501  0.00000000000E+00  0.00000000000E+00  0.11234472045E+04  0.11234472045E+04  0.25500000920E-02 0. -1.
        2   -1    0    0  501    0  0.00000000000E+00  0.00000000000E+00 -0.56835191612E+03  0.56835191613E+03  0.25500000920E-02 0.  1.
    10030    2    1    2    0    0  0.00000000000E+00  0.00000000000E+00  0.55509528840E+03  0.16917991206E+04  0.15981406338E+04 0.  0.
        5    1    3    3  502    0 -0.65193105118E+03 -0.30585492590E+03  0.64415200584E+03  0.96618591783E+03  0.46999998093E+01 0. -1.
       -5    1    3    3    0  502  0.65193105118E+03  0.30585492590E+03 -0.89056717442E+02  0.72561320282E+03  0.46999998093E+01 0.  1.
</event>
<event>
 5   0  0.3210612E-04  0.1612878E+04  0.7818609E-02  0.8812675E-01
        2   -1    0    0  501    0  0.00000000000E+00  0.00000000000E+00  0.19621473476E+04  0.19621473476E+04  0.25500000920E-02 0.  1.
       -2   -1    0    0    0  501  0.00000000000E+00  0.00000000000E+00 -0.33144499630E+03  0.33144499631E+03  0.25500000920E-02 0. -1.
    10030    2    1    2    0    0  0.00000000000E+00  0.00000000000E+00  0.16307023513E+04  0.22935923439E+04  0.16128780740E+04 0.  0.
        2    1    3    3  502    0 -0.21860477707E+02 -0.77039919669E+03  0.47777953130E+03  0.90678888573E+03  0.25500000920E-02 0. -1.
       -2    1    3    3    0  502  0.21860477707E+02  0.77039919669E+03  0.11529228200E+04  0.13868034582E+04  0.25500000920E-02 0.  1.
</event>
<event>
 5   0  0.1819811E-04  0.1655319E+04  0.7818609E-02  0.8787266E-01
        1   -1    0    0  501    0  0.00000000000E+00  0.00000000000E+00  0.91022703842E+03  0.91022703843E+03  0.50400001928E-02 0.  1.
       -1   -1    0    0    0  501  0.00000000000E+00  0.00000000000E+00 -0.75258206890E+03  0.75258206892E+03  0.50400001928E-02 0. -1.
    10030    2    1    2    0    0  0.00000000000E+00  0.00000000000E+00  0.15764496951E+03  0.16628091073E+04  0.16553193623E+04 0.  0.
        1    1    3    3  502    0  0.44772413759E+03  0.36180999681E+03  0.67620407344E+03  0.88804016020E+03  0.50400001928E-02 0.  1.
       -1    1    3    3    0  502 -0.44772413759E+03 -0.36180999681E+03 -0.51855910392E+03  0.77476894715E+03  0.50400001928E-02 0. -1.
</event>
<event>
 5   0  0.3380454E-04  0.1602941E+04  0.7818609E-02  0.8818743E-01
        2   -1    0    0  501    0  0.00000000000E+00  0.00000000000E+00  0.10452344700E+04  0.10452344700E+04  0.25500000920E-02 0. -1.
       -2   -1    0    0    0  501  0.00000000000E+00  0.00000000000E+00 -0.61455605499E+03  0.61455605500E+03  0.25500000920E-02 0.  1.
    10030    2    1    2    0    0  0.00000000000E+00  0.00000000000E+00  0.43067841503E+03  0.16597905250E+04  0.16029412621E+04 0.  0.
        5    1    3    3  502    0 -0.18011760159E+03 -0.74091246614E+03 -0.40274968869E+02  0.76356911672E+03  0.46999998093E+01 0.  1.
       -5    1    3    3    0  502  0.18011760159E+03  0.74091246614E+03  0.47095338389E+03  0.89622140830E+03  0.46999998093E+01 0. -1.
</event>
<event>
 5   0  0.3380454E-04  0.1601993E+04  0.7818609E-02  0.8819324E-01
       -2   -1    0    0    0  501  0.00000000000E+00  0.00000000000E+00  0.73312956396E+03  0.73312956396E+03  0.25500000920E-02 0.  1.
        2   -1    0    0  501    0  0.00000000000E+00  0.00000000000E+00 -0.87514648395E+03  0.87514648395E+03  0.25500000920E-02 0. -1.
    10030    2    1    2    0    0  0.00000000000E+00  0.00000000000E+00 -0.14201691999E+03  0.16082760479E+04  0.16019934584E+04 0.  0.
        5    1    3    3  502    0  0.83087527979E+02  0.77837211996E+03 -0.24140025939E+03  0.81918427088E+03  0.46999998093E+01 0.  1.
       -5    1    3    3    0  502 -0.83087527979E+02 -0.77837211996E+03  0.99383339402E+02  0.78909177703E+03  0.46999998093E+01 0. -1.
</event>
<event>
 5   0  0.3274900E-04  0.1585557E+04  0.7818609E-02  0.8829470E-01
        2   -1    0    0  501    0  0.00000000000E+00  0.00000000000E+00  0.20067674547E+04  0.20067674547E+04  0.25500000920E-02 0. -1.
       -2   -1    0    0    0  501  0.00000000000E+00  0.00000000000E+00 -0.31318924897E+03  0.31318924898E+03  0.25500000920E-02 0.  1.
    10030    2    1    2    0    0  0.00000000000E+00  0.00000000000E+00  0.16935782057E+04  0.23199567037E+04  0.15855573052E+04 0.  0.
        3    1    3    3  502    0  0.78280277861E+03  0.94251133832E+02  0.96775189398E+03  0.12482817009E+04  0.10100000352E+00 0.  1.
       -3    1    3    3    0  502 -0.78280277861E+03 -0.94251133832E+02  0.72582631175E+03  0.10716750027E+04  0.10100000352E+00 0. -1.
</event>
<event>
 5   0  0.1761255E-04  0.1603087E+04  0.7818609E-02  0.8818654E-01
       -1   -1    0    0    0  501  0.00000000000E+00  0.00000000000E+00  0.13900108085E+04  0.13900108085E+04  0.50400001928E-02 0. -1.
        1   -1    0    0  501    0  0.00000000000E+00  0.00000000000E+00 -0.46220664717E+03  0.46220664720E+03  0.50400001928E-02 0.  1.
    10030    2    1    2    0    0  0.00000000000E+00  0.00000000000E+00  0.92780416136E+03  0.18522174557E+04  0.16030873156E+04 0.  0.
        2    1    3    3  502    0 -0.12447205926E+03 -0.16077776743E+03  0.13597180456E+04  0.13748366985E+04  0.25500000920E-02 0. -1.
       -2    1    3    3    0  502  0.12447205926E+03  0.16077776743E+03 -0.43191388420E+03  0.47738075727E+03  0.25500000920E-02 0.  1.
</event>
<event>
 5   0  0.1764099E-04  0.1600416E+04  0.7818609E-02  0.8820293E-01
        1   -1    0    0  501    0  0.00000000000E+00  0.00000000000E+00  0.42931988657E+03  0.42931988660E+03  0.50400001928E-02 0. -1.
       -1   -1    0    0    0  501  0.00000000000E+00  0.00000000000E+00 -0.14915044948E+04  0.14915044948E+04  0.50400001928E-02 0.  1.
    10030    2    1    2    0    0  0.00000000000E+00  0.00000000000E+00 -0.10621846082E+04  0.19208243814E+04  0.16004156217E+04 0.  0.
        5    1    3    3  502    0  0.36932004195E+03  0.51374495840E+03  0.56859525496E+02  0.63528440191E+03  0.46999998093E+01 0. -1.
       -5    1    3    3    0  502 -0.36932004195E+03 -0.51374495840E+03 -0.11190441337E+04  0.12855399795E+04  0.46999998093E+01 0.  1.
</event>
<event>
 5   0  0.3210612E-04  0.1601960E+04  0.7818609E-02  0.8819345E-01
        2   -1    0    0  501    0  0.00000000000E+00  0.00000000000E+00  0.20346320942E+04  0.20346320942E+04  0.25500000920E-02 0.  1.
       -2   -1    0    0    0  501  0.00000000000E+00  0.00000000000E+00 -0.31532441680E+03  0.31532441681E+03  0.25500000920E-02 0. -1.
    10030    2    1    2    0    0  0.00000000000E+00  0.00000000000E+00  0.17193076774E+04  0.23499565110E+04  0.16019602723E+04 0.  0.
        2    1    3    3  502    0  0.27225965841E+03  0.35113366655E+03 -0.11797145723E+03  0.45971451805E+03  0.25500000920E-02 0. -1.
       -2    1    3    3    0  502 -0.27225965841E+03 -0.35113366655E+03  0.18372791346E+04  0.18902419930E+04  0.25500000920E-02 0.  1.
</event>
<event>
 5   0  0.3228393E-04  0.1599510E+04  0.7818609E-02  0.8820849E-01
       -2   -1    0    0    0  501  0.00000000000E+00  0.00000000000E+00  0.27620730256E+03  0.27620730257E+03  0.25500000920E-02 0. -1.
        2   -1    0    0  501    0  0.00000000000E+00  0.00000000000E+00 -0.23156804174E+04  0.23156804174E+04  0.25500000920E-02 0.  1.
    10030    2    1    2    0    0  0.00000000000E+00  0.00000000000E+00 -0.20394731148E+04  0.25918877200E+04  0.15995097270E+04 0.  0.
        1    1    3    3  502    0  0.61984807030E+03  0.36390202386E+03 -0.15879762727E+04  0.17430734224E+04  0.50400001928E-02 0.  1.
       -1    1    3    3    0  502 -0.61984807030E+03 -0.36390202386E+03 -0.45149684210E+03  0.84881429753E+03  0.50400001928E-02 0. -1.
</event>
<event>
 5   0  0.1761255E-04  0.1605954E+04  0.7818609E-02  0.8816898E-01
       -1   -1    0    0    0  501  0.00000000000E+00  0.00000000000E+00  0.63129738872E+03  0.63129738874E+03  0.50400001928E-02 0.  1.
        1   -1    0    0  501    0  0.00000000000E+00  0.00000000000E+00 -0.10213446588E+04  0.10213446588E+04  0.50400001928E-02 0. -1.
    10030    2    1    2    0    0  0.00000000000E+00  0.00000000000E+00 -0.39004727006E+03  0.16526420475E+04  0.16059541912E+04 0.  0.
        2    1    3    3  502    0  0.13730202591E+03  0.97018037109E+01  0.61906657277E+03  0.63418403705E+03  0.25500000920E-02 0.  1.
       -2    1    3    3    0  502 -0.13730202591E+03 -0.97018037109E+01 -0.10091138428E+04  0.10184580105E+04  0.25500000920E-02 0. -1.
</event>
<event>
 5   0  0.1736537E-04  0.1608133E+04  0.7818609E-02  0.8815567E-01
       -1   -1    0    0    0  501  0.00000000000E+00  0.00000000000E+00  0.52929734050E+03  0.52929734053E+03  0.50400001928E-02 0.  1.
        1   -1    0    0  501    0  0.00000000000E+00  0.00000000000E+00 -0.12214744156E+04  0.12214744156E+04  0.50400001928E-02 0. -1.
    10030    2    1    2    0    0  0.00000000000E+00  0.00000000000E+00 -0.69217707507E+03  0.17507717561E+04  0.16081332777E+04 0.  0.
        3    1    3    3  502    0 -0.34729940603E+03  0.28856851810E+03 -0.10704079329E+04  0.11617494653E+04  0.10100000352E+00 0. -1.
       -3    1    3    3    0  502  0.34729940603E+03 -0.28856851810E+03  0.37823085784E+03  0.58902229082E+03  0.10100000352E+00 0.  1.
</event>
<event>
 5   0  0.3210612E-04  0.1597023E+04  0.7818609E-02  0.8822379E-01
       -2   -1    0    0    0  501  0.00000000000E+00  0.00000000000E+00  0.62089541388E+03  0.62089541389E+03  0.25500000920E-02 0.  1.
        2   -1    0    0  501    0  0.00000000000E+00  0.00000000000E+00 -0.10269368862E+04  0.10269368862E+04  0.25500000920E-02 0. -1.
    10030    2    1    2    0    0  0.00000000000E+00  0.00000000000E+00 -0.40604147230E+03  0.16478323001E+04  0.15970227337E+04 0.  0.
        2    1    3    3  502    0 -0.29682672349E+03  0.67844723505E+03 -0.51122731311E+03  0.89986116718E+03  0.25500000920E-02 0. -1.
       -2    1    3    3    0  502  0.29682672349E+03 -0.67844723505E+03  0.10518584080E+03  0.74797113289E+03  0.25500000920E-02 0.  1.
</event>
<event>
 5   0  0.1819811E-04  0.1576652E+04  0.7818609E-02  0.8835021E-01
        1   -1    0    0  501    0  0.00000000000E+00  0.00000000000E+00  0.91925406449E+03  0.91925406450E+03  0.50400001928E-02 0.  1.
       -1   -1    0    0    0  501  0.00000000000E+00  0.00000000000E+00 -0.67604599618E+03  0.67604599620E+03  0.50400001928E-02 0. -1.
    10030    2    1    2    0    0  0.00000000000E+00  0.00000000000E+00  0.24320806831E+03  0.15953000607E+04  0.15766521871E+04 0.  0.
        1    1    3    3  502    0 -0.57214243983E+03  0.20706178193E+03 -0.38555928022E+03  0.72033152894E+03  0.50400001928E-02 0. -1.
       -1    1    3    3    0  502  0.57214243983E+03 -0.20706178193E+03  0.62876734853E+03  0.87496853177E+03  0.50400001928E-02 0.  1.
</event>
<event>
 5   0  0.1819811E-04  0.1453098E+04  0.7818609E-02  0.8916255E-01
        1   -1    0    0  501    0  0.00000000000E+00  0.00000000000E+00  0.11904152285E+04  0.11904152285E+04  0.50400001928E-02 0. -1.
       -1   -1    0    0    0  501  0.00000000000E+00  0.00000000000E+00 -0.44343668304E+03  0.44343668307E+03  0.50400001928E-02 0.  1.
    10030    2    1    2    0    0  0.00000000000E+00  0.00000000000E+00  0.74697854545E+03  0.16338519116E+04  0.14530984556E+04 0.  0.
        1    1    3    3  502    0  0.21598165199E+03  0.65393966835E+03  0.11320140719E+03  0.69792529862E+03  0.50400001928E-02 0.  1.
       -1    1    3    3    0  502 -0.21598165199E+03 -0.65393966835E+03  0.63377713826E+03  0.93592661296E+03  0.50400001928E-02 0. -1.
</event>
<event>
 5   0  0.1761255E-04  0.1589915E+04  0.7818609E-02  0.8826768E-01
        1   -1    0    0  501    0  0.00000000000E+00  0.00000000000E+00  0.62083408276E+03  0.62083408278E+03  0.50400001928E-02 0. -1.
       -1   -1    0    0    0  501  0.00000000000E+00  0.00000000000E+00 -0.10179163118E+04  0.10179163118E+04  0.50400001928E-02 0.  1.
    10030    2    1    2    0    0  0.00000000000E+00  0.00000000000E+00 -0.39708222903E+03  0.16387503946E+04  0.15899146390E+04 0.  0.
        2    1    3    3  502    0  0.66438037362E+03 -0.14579343537E+03 -0.62264050765E+03  0.92213784676E+03  0.25500000920E-02 0.  1.
       -2    1    3    3    0  502 -0.66438037362E+03  0.14579343537E+03  0.22555827862E+03  0.71661254783E+03  0.25500000920E-02 0. -1.
</event>
<event>
 5   0  0.3263294E-04  0.1618555E+04  0.7818609E-02  0.8809229E-01
        2   -1    0    0  501    0  0.00000000000E+00  0.00000000000E+00  0.12368347263E+04  0.12368347263E+04  0.25500000920E-02 0. -1.
       -2   -1    0    0    0  501  0.00000000000E+00  0.00000000000E+00 -0.52952111761E+03  0.52952111762E+03  0.25500000920E-02 0.  1.
    10030    2    1    2    0    0  0.00000000000E+00  0.00000000000E+00  0.70731360869E+03  0.17663558439E+04  0.16185550427E+04 0.  0.
        4    1    3    3  502    0  0.15073311455E+03  0.69851482311E+03 -0.60878395537E+02  0.71718283713E+03  0.12699999809E+01 0.  1.
       -4    1    3    3    0  502 -0.15073311455E+03 -0.69851482311E+03  0.76819200423E+03  0.10491730068E+04  0.12699999809E+01 0. -1.
</event>
<event>
 5   0  0.3380454E-04  0.1604087E+04  0.7818609E-02  0.8818041E-01
        2   -1    0    0  501    0  0.00000000000E+00  0.00000000000E+00  0.18046968631E+04  0.18046968631E+04  0.25500000920E-02 0. -1.
       -2   -1    0    0    0  501  0.00000000000E+00  0.00000000000E+00 -0.35644436880E+03  0.35644436881E+03  0.25500000920E-02 0.  1.
    10030    2    1    2    0    0  0.00000000000E+00  0.00000000000E+00  0.14482524943E+04  0.21611412319E+04  0.16040873221E+04 0.  0.
        5    1    3    3  502    0  0.31191020710E+03 -0.73888802084E+03  0.72020764879E+03  0.10779446331E+04  0.46999998093E+01 0.  1.
       -5    1    3    3    0  502 -0.31191020710E+03  0.73888802084E+03  0.72804484550E+03  0.10831965988E+04  0.46999998093E+01 0. -1.
</event>
<event>
 5   0  0.3263294E-04  0.1560536E+04  0.7818609E-02  0.8845166E-01
        2   -1    0    0  501    0  0.00000000000E+00  0.00000000000E+00  0.56271454031E+03  0.56271454031E+03  0.25500000920E-02 0. -1.
       -2   -1    0    0    0  501  0.00000000000E+00  0.00000000000E+00 -0.10819304782E+04  0.10819304782E+04  0.25500000920E-02 0.  1.
    10030    2    1    2    0    0  0.00000000000E+00  0.00000000000E+00 -0.51921593784E+03  0.16446450185E+04  0.15605358204E+04 0.  0.
        4    1    3    3  502    0 -0.40768873069E+02 -0.74753216667E+03 -0.27870381864E+02  0.74916274087E+03  0.12699999809E+01 0.  1.
       -4    1    3    3    0  502  0.40768873069E+02  0.74753216667E+03 -0.49134555598E+03  0.89548227760E+03  0.12699999809E+01 0. -1.
</event>
<event>
 5   0  0.3228393E-04  0.1606902E+04  0.7818609E-02  0.8816319E-01
       -2   -1    0    0    0  501  0.00000000000E+00  0.00000000000E+00  0.95794289127E+03  0.95794289127E+03  0.25500000920E-02 0.  1.
        2   -1    0    0  501    0  0.00000000000E+00  0.00000000000E+00 -0.67387501101E+03  0.67387501101E+03  0.25500000920E-02 0. -1.
    10030    2    1    2    0    0  0.00000000000E+00  0.00000000000E+00  0.28406788026E+03  0.16318179023E+04  0.16069023323E+04 0.  0.
        1    1    3    3  502    0  0.66494228606E+03  0.20967018591E+03  0.54750418476E+03  0.88649346473E+03  0.50400001928E-02 0.  1.
       -1    1    3    3    0  502 -0.66494228606E+03 -0.20967018591E+03 -0.26343630450E+03  0.74532443755E+03  0.50400001928E-02 0. -1.
</event>
<event>
 5   0  0.3380454E-04  0.1601585E+04  0.7818609E-02  0.8819575E-01
        2   -1    0    0  501    0  0.00000000000E+00  0.00000000000E+00  0.14900604077E+04  0.14900604077E+04  0.25500000920E-02 0.  1.
       -2   -1    0    0    0  501  0.00000000000E+00  0.00000000000E+00 -0.43036422237E+03  0.43036422238E+03  0.25500000920E-02 0. -1.
    10030    2    1    2    0    0  0.00000000000E+00  0.00000000000E+00  0.10596961854E+04  0.19204246301E+04  0.16015850757E+04 0.  0.
        5    1    3    3  502    0 -0.60883261081E+03 -0.18293377653E+03  0.11137196519E+04  0.12823944274E+04  0.46999998093E+01 0.  1.
       -5    1    3    3    0  502  0.60883261081E+03  0.18293377653E+03 -0.54023466503E+02  0.63803020267E+03  0.46999998093E+01 0. -1.
</event>
<event>
 5   0  0.3274900E-04  0.1594781E+04  0.7818609E-02  0.8823760E-01
        2   -1    0    0  501    0  0.00000000000E+00  0.00000000000E+00  0.10916328196E+04  0.10916328196E+04  0.25500000920E-02 0. -1.
       -2   -1    0    0    0  501  0.00000000000E+00  0.00000000000E+00 -0.58245954807E+03  0.58245954808E+03  0.25500000920E-02 0.  1.
    10030    2    1    2    0    0  0.00000000000E+00  0.00000000000E+00  0.50917327150E+03  0.16740923676E+04  0.15947814380E+04 0.  0.
        3    1    3    3  502    0  0.74538196165E+03  0.15117479658E+03  0.50604907612E+03  0.91352819635E+03  0.10100000352E+00 0. -1.
       -3    1    3    3    0  502 -0.74538196165E+03 -0.15117479658E+03  0.31241953735E+01  0.76056417130E+03  0.10100000352E+00 0.  1.
</event>
<event>
 5   0  0.3263294E-04  0.1609172E+04  0.7818609E-02  0.8814933E-01
       -2   -1    0    0    0  501  0.00000000000E+00  0.00000000000E+00  0.85609920700E+03  0.85609920701E+03  0.25500000920E-02 0.  1.
        2   -1    0    0  501    0  0.00000000000E+00  0.00000000000E+00 -0.75617200720E+03  0.75617200720E+03  0.25500000920E-02 0. -1.
    10030    2    1    2    0    0  0.00000000000E+00  0.00000000000E+00  0.99927199802E+02  0.16122712142E+04  0.16091715331E+04 0.  0.
        4    1    3    3  502    0  0.37684004936E+03  0.24067232364E+03 -0.62022325902E+03  0.76459799509E+03  0.12699999809E+01 0. -1.
       -4    1    3    3    0  502 -0.37684004936E+03 -0.24067232364E+03  0.72015045882E+03  0.84767321912E+03  0.12699999809E+01 0.  1.
</event>
<event>
 5   0  0.1736537E-04  0.1587715E+04  0.7818609E-02  0.8828131E-01
        1   -1    0    0  501    0  0.00000000000E+00  0.00000000000E+00  0.20356391044E+04  0.20356391044E+04  0.50400001928E-02 0.  1.
       -1   -1    0    0    0  501  0.00000000000E+00  0.00000000000E+00 -0.30958827779E+03  0.30958827784E+03  0.50400001928E-02 0. -1.
    10030    2    1    2    0    0  0.00000000000E+00  0.00000000000E+00  0.17260508266E+04  0.23452273822E+04  0.15877153455E+04 0.  0.
        3    1    3    3  502    0 -0.45367930062E+03 -0.58959652648E+03  0.12722697608E+04  0.14738111569E+04  0.10100000352E+00 0.  1.
       -3    1    3    3    0  502  0.45367930062E+03  0.58959652648E+03  0.45378106582E+03  0.87141622532E+03  0.10100000352E+00 0. -1.
</event>
<event>
 5   0  0.1761255E-04  0.1541113E+04  0.7818609E-02  0.8857564E-01
       -1   -1    0    0    0  501  0.00000000000E+00  0.00000000000E+00  0.13071977629E+04  0.13071977629E+04  0.50400001928E-02 0. -1.
        1   -1    0    0  501    0  0.00000000000E+00  0.00000000000E+00 -0.45422166149E+03  0.45422166152E+03  0.50400001928E-02 0.  1.
    10030    2    1    2    0    0  0.00000000000E+00  0.00000000000E+00  0.85297610143E+03  0.17614194244E+04  0.15411132856E+04 0.  0.
        2    1    3    3  502    0  0.73036932452E+02 -0.39964748303E+03  0.11748427830E+04  0.12431042068E+04  0.25500000920E-02 0. -1.
       -2    1    3    3    0  502 -0.73036932452E+02  0.39964748303E+03 -0.32186668153E+03  0.51831521768E+03  0.25500000920E-02 0.  1.
</event>
<event>
 5   0  0.1764099E-04  0.1604484E+04  0.7818609E-02  0.8817798E-01
       -1   -1    0    0    0  501  0.00000000000E+00  0.00000000000E+00  0.29617320967E+03  0.29617320971E+03  0.50400001928E-02 0. -1.
        1   -1    0    0  501    0  0.00000000000E+00  0.00000000000E+00 -0.21730258038E+04  0.21730258038E+04  0.50400001928E-02 0.  1.
    10030    2    1    2    0    0  0.00000000000E+00  0.00000000000E+00 -0.18768525941E+04  0.24691990135E+04  0.16044837513E+04 0.  0.
        5    1    3    3  502    0  0.35385409104E+03  0.64183002962E+03 -0.43641335209E+03  0.85301653475E+03  0.46999998093E+01 0. -1.
       -5    1    3    3    0  502 -0.35385409104E+03 -0.64183002962E+03 -0.14404392420E+04  0.16161824787E+04  0.46999998093E+01 0.  1.
</event>
<event>
 5   0  0.3263294E-04  0.1586874E+04  0.7818609E-02  0.8828653E-01
       -2   -1    0    0    0  501  0.00000000000E+00  0.00000000000E+00  0.51535394469E+03  0.51535394470E+03  0.25500000920E-02 0.  1.
        2   -1    0    0  501    0  0.00000000000E+00  0.00000000000E+00 -0.12215719117E+04  0.12215719117E+04  0.25500000920E-02 0. -1.
    10030    2    1    2    0    0  0.00000000000E+00  0.00000000000E+00 -0.70621796698E+03  0.17369258564E+04  0.15868735342E+04 0.  0.
        4    1    3    3  502    0  0.38979202160E+03  0.65258153046E+03 -0.10413646910E+03  0.76723300965E+03  0.12699999809E+01 0. -1.
       -4    1    3    3    0  502 -0.38979202160E+03 -0.65258153046E+03 -0.60208149789E+03  0.96969284673E+03  0.12699999809E+01 0.  1.
</event>
<event>
 5   0  0.1819811E-04  0.1589845E+04  0.7818609E-02  0.8826811E-01
       -1   -1    0    0    0  501  0.00000000000E+00  0.00000000000E+00  0.13347041762E+04  0.13347041762E+04  0.50400001928E-02 0. -1.
        1   -1    0    0  501    0  0.00000000000E+00  0.00000000000E+00 -0.47343980379E+03  0.47343980381E+03  0.50400001928E-02 0.  1.
    10030    2    1    2    0    0  0.00000000000E+00  0.00000000000E+00  0.86126437239E+03  0.18081439800E+04  0.15898453803E+04 0.  0.
        1    1    3    3  502    0  0.29528415293E+03  0.56186820787E+03 -0.11363059109E+03  0.64482596508E+03  0.50400001928E-02 0.  1.
       -1    1    3    3    0  502 -0.29528415293E+03 -0.56186820787E+03  0.97489496348E+03  0.11633180149E+04  0.50400001928E-02 0. -1.
</event>
<event>
 5   0  0.1764099E-04  0.1695265E+04  0.7818609E-02  0.8764070E-01
        1   -1    0    0  501    0  0.00000000000E+00  0.00000000000E+00  0.15975929377E+04  0.15975929377E+04  0.50400001928E-02 0. -1.
       -1   -1    0    0    0  501  0.00000000000E+00  0.00000000000E+00 -0.44972694792E+03  0.44972694795E+03  0.50400001928E-02 0.  1.
    10030    2    1    2    0    0  0.00000000000E+00  0.00000000000E+00  0.11478659897E+04  0.20473198856E+04  0.16952646943E+04 0.  0.
        5    1    3    3  502    0  0.17708761481E+03 -0.21205658402E+02 -0.42679378269E+03  0.46258483136E+03  0.46999998093E+01 0.  1.
       -5    1    3    3    0  502 -0.17708761481E+03  0.21205658402E+02  0.15746597724E+04  0.15847350543E+04  0.46999998093E+01 0. -1.
</event>
<event>
 5   0  0.1819811E-04  0.1610919E+04  0.7818609E-02  0.8813868E-01
       -1   -1    0    0    0  501  0.00000000000E+00  0.00000000000E+00  0.65286653355E+03  0.65286653357E+03  0.50400001928E-02 0. -1.
        1   -1    0    0  501    0  0.00000000000E+00  0.00000000000E+00 -0.99371802600E+03  0.99371802601E+03  0.50400001928E-02 0.  1.
    10030    2    1    2    0    0  0.00000000000E+00  0.00000000000E+00 -0.34085149244E+03  0.16465845596E+04  0.16109192941E+04 0.  0.
        1    1    3    3  502    0  0.70633343360E+03 -0.26311373071E+02  0.22434524190E+03  0.74157265009E+03  0.50400001928E-02 0. -1.
       -1    1    3    3    0  502 -0.70633343360E+03  0.26311373071E+02 -0.56519673434E+03  0.90501190949E+03  0.50400001928E-02 0.  1.
</event>
<event>
 5   0  0.1761255E-04  0.1597414E+04  0.7818609E-02  0.8822138E-01
        1   -1    0    0  501    0  0.00000000000E+00  0.00000000000E+00  0.14561368220E+04  0.14561368221E+04  0.50400001928E-02 0.  1.
       -1   -1    0    0    0  501  0.00000000000E+00  0.00000000000E+00 -0.43809943304E+03  0.43809943307E+03  0.50400001928E-02 0. -1.
    10030    2    1    2    0    0  0.00000000000E+00  0.00000000000E+00  0.10180373890E+04  0.18942362551E+04  0.15974138051E+04 0.  0.
        2    1    3    3  502    0 -0.52409952902E+03  0.11070454982E+03  0.12115543217E+04  0.13246885250E+04  0.25500000920E-02 0.  1.
       -2    1    3    3    0  502  0.52409952902E+03 -0.11070454982E+03 -0.19351693272E+03  0.56954773016E+03  0.25500000920E-02 0. -1.
</event>
<event>
 5   0  0.3380454E-04  0.1597880E+04  0.7818609E-02  0.8821852E-01
       -2   -1    0    0    0  501  0.00000000000E+00  0.00000000000E+00  0.10109862500E+04  0.10109862500E+04  0.25500000920E-02 0. -1.
        2   -1    0    0  501    0  0.00000000000E+00  0.00000000000E+00 -0.63136835889E+03  0.63136835890E+03  0.25500000920E-02 0.  1.
    10030    2    1    2    0    0  0.00000000000E+00  0.00000000000E+00  0.37961789109E+03  0.16423546089E+04  0.15978795067E+04 0.  0.
        5    1    3    3  502    0  0.35886445142E+03  0.40448257885E+03  0.79430526430E+03  0.96090207305E+03  0.46999998093E+01 0. -1.
       -5    1    3    3    0  502 -0.35886445142E+03 -0.40448257885E+03 -0.41468737322E+03  0.68145253583E+03  0.46999998093E+01 0.  1.
</event>
<event>
 5   0  0.3263294E-04  0.1582697E+04  0.7818609E-02  0.8831249E-01
       -2   -1    0    0    0  501  0.00000000000E+00  0.00000000000E+00  0.41423663036E+03  0.41423663037E+03  0.25500000920E-02 0.  1.
        2   -1    0    0  501    0  0.00000000000E+00  0.00000000000E+00 -0.15117753458E+04  0.15117753458E+04  0.25500000920E-02 0. -1.
    10030    2    1    2    0    0  0.00000000000E+00  0.00000000000E+00 -0.10975387155E+04  0.19260119762E+04  0.15826973496E+04 0.  0.
        4    1    3    3  502    0  0.38813833023E+03  0.86304451223E+01  0.29037904616E+03  0.48481692558E+03  0.12699999809E+01 0.  1.
       -4    1    3    3    0  502 -0.38813833023E+03 -0.86304451223E+01 -0.13879177616E+04  0.14411950506E+04  0.12699999809E+01 0. -1.
</event>
<event>
 5   0  0.1736537E-04  0.1601903E+04  0.7818609E-02  0.8819380E-01
       -1   -1    0    0    0  501  0.00000000000E+00  0.00000000000E+00  0.13167263550E+04  0.13167263550E+04  0.50400001928E-02 0.  1.
        1   -1    0    0  501    0  0.00000000000E+00  0.00000000000E+00 -0.48721058441E+03  0.48721058444E+03  0.50400001928E-02 0. -1.
    10030    2    1    2    0    0  0.00000000000E+00  0.00000000000E+00  0.82951577062E+03  0.18039369395E+04  0.16019026400E+04 0.  0.
        3    1    3    3  502    0 -0.46867688635E+03  0.28806464854E+03  0.10703150997E+04  0.12034175038E+04  0.10100000352E+00 0.  1.
       -3    1    3    3    0  502  0.46867688635E+03 -0.28806464854E+03 -0.24079932911E+03  0.60051943569E+03  0.10100000352E+00 0. -1.
</event>
<event>
 5   0  0.1761255E-04  0.1609601E+04  0.7818609E-02  0.8814671E-01
        1   -1    0    0  501    0  0.00000000000E+00  0.00000000000E+00  0.15962667229E+04  0.15962667230E+04  0.50400001928E-02 0.  1.
       -1   -1    0    0    0  501  0.00000000000E+00  0.00000000000E+00 -0.40576168051E+03  0.40576168054E+03  0.50400001928E-02 0. -1.
    10030    2    1    2    0    0  0.00000000000E+00  0.00000000000E+00  0.11905050424E+04  0.20020284035E+04  0.16096010289E+04 0.  0.
        2    1    3    3  502    0 -0.56681612669E+03 -0.40126008790E+03  0.89383928614E+02  0.70019973316E+03  0.25500000920E-02 0. -1.
       -2    1    3    3    0  502  0.56681612669E+03  0.40126008790E+03  0.11011211138E+04  0.13018286703E+04  0.25500000920E-02 0.  1.
</event>
<event>
 5   0  0.3263294E-04  0.1614279E+04  0.7818609E-02  0.8811824E-01
        2   -1    0    0  501    0  0.00000000000E+00  0.00000000000E+00  0.13042235470E+04  0.13042235470E+04  0.25500000920E-02 0.  1.
       -2   -1    0    0    0  501  0.00000000000E+00  0.00000000000E+00 -0.49951091933E+03  0.49951091934E+03  0.25500000920E-02 0. -1.
    10030    2    1    2    0    0  0.00000000000E+00  0.00000000000E+00  0.80471262766E+03  0.18037344663E+04  0.16142786661E+04 0.  0.
        4    1    3    3  502    0 -0.16637011749E+03  0.17506106035E+03  0.12629045701E+04  0.12857896239E+04  0.12699999809E+01 0.  1.
       -4    1    3    3    0  502  0.16637011749E+03 -0.17506106035E+03 -0.45819194241E+03  0.51794484246E+03  0.12699999809E+01 0. -1.
</event>
<event>
 5   0  0.1819811E-04  0.1605730E+04  0.7818609E-02  0.8817036E-01
        1   -1    0    0  501    0  0.00000000000E+00  0.00000000000E+00  0.11618423354E+04  0.11618423354E+04  0.50400001928E-02 0.  1.
       -1   -1    0    0    0  501  0.00000000000E+00  0.00000000000E+00 -0.55480180095E+03  0.55480180097E+03  0.50400001928E-02 0. -1.
    10030    2    1    2    0    0  0.00000000000E+00  0.00000000000E+00  0.60704053447E+03  0.17166441364E+04  0.16057300148E+04 0.  0.
        1    1    3    3  502    0  0.59590023371E+01  0.71741772428E+03 -0.81744854121E+02  0.72208442860E+03  0.50400001928E-02 0.  1.
       -1    1    3    3    0  502 -0.59590023371E+01 -0.71741772428E+03  0.68878538859E+03  0.99455970780E+03  0.50400001928E-02 0. -1.
</event>
<event>
 5   0  0.3228393E-04  0.1610616E+04  0.7818609E-02  0.8814052E-01
       -2   -1    0    0    0  501  0.00000000000E+00  0.00000000000E+00  0.69055673211E+03  0.69055673211E+03  0.25500000920E-02 0. -1.
        2   -1    0    0  501    0  0.00000000000E+00  0.00000000000E+00 -0.93912825118E+03  0.93912825119E+03  0.25500000920E-02 0.  1.
    10030    2    1    2    0    0  0.00000000000E+00  0.00000000000E+00 -0.24857151908E+03  0.16296849833E+04  0.16106164487E+04 0.  0.
        1    1    3    3  502    0 -0.60137881812E+03  0.52558492703E+03 -0.22858542259E+03  0.83075104204E+03  0.50400001928E-02 0.  1.
       -1    1    3    3    0  502  0.60137881812E+03 -0.52558492703E+03 -0.19986096480E+02  0.79893394125E+03  0.50400001928E-02 0. -1.
</event>
<event>
 5   0  0.1819811E-04  0.1582430E+04  0.7818609E-02  0.8831415E-01
       -1   -1    0    0    0  501  0.00000000000E+00  0.00000000000E+00  0.12852685387E+04  0.12852685387E+04  0.50400001928E-02 0. -1.
        1   -1    0    0  501    0  0.00000000000E+00  0.00000000000E+00 -0.48707409019E+03  0.48707409022E+03  0.50400001928E-02 0.  1.
    10030    2    1    2    0    0  0.00000000000E+00  0.00000000000E+00  0.79819444852E+03  0.17723426289E+04  0.15824297825E+04 0.  0.
        1    1    3    3  502    0 -0.57804791852E+03 -0.30901472108E+03 -0.97248848754E+02  0.66263627471E+03  0.50400001928E-02 0.  1.
       -1    1    3    3    0  502  0.57804791852E+03  0.30901472108E+03  0.89544329727E+03  0.11097063542E+04  0.50400001928E-02 0. -1.
</event>
<event>
 5   0  0.1819811E-04  0.1600495E+04  0.7818609E-02  0.8820244E-01
       -1   -1    0    0    0  501  0.00000000000E+00  0.00000000000E+00  0.13898018941E+04  0.13898018941E+04  0.50400001928E-02 0. -1.
        1   -1    0    0  501    0  0.00000000000E+00  0.00000000000E+00 -0.46078202187E+03  0.46078202189E+03  0.50400001928E-02 0.  1.
    10030    2    1    2    0    0  0.00000000000E+00  0.00000000000E+00  0.92901987220E+03  0.18505839160E+04  0.16004945820E+04 0.  0.
        1    1    3    3  502    0 -0.77537147017E+03 -0.61169798107E+02  0.24679838434E+03  0.81599761243E+03  0.50400001928E-02 0. -1.
       -1    1    3    3    0  502  0.77537147017E+03  0.61169798107E+02  0.68222148785E+03  0.10345863035E+04  0.50400001928E-02 0.  1.
</event>
<event>
 5   0  0.3274900E-04  0.1589514E+04  0.7818609E-02  0.8827016E-01
        2   -1    0    0  501    0  0.00000000000E+00  0.00000000000E+00  0.66741207563E+03  0.66741207564E+03  0.25500000920E-02 0.  1.
       -2   -1    0    0    0  501  0.00000000000E+00  0.00000000000E+00 -0.94639978390E+03  0.94639978391E+03  0.25500000920E-02 0. -1.
    10030    2    1    2    0    0  0.00000000000E+00  0.00000000000E+00 -0.27898770827E+03  0.16138118595E+04  0.15895139435E+04 0.  0.
        3    1    3    3  502    0 -0.57532625307E+03 -0.50209502545E+02  0.41485375803E+03  0.71107309214E+03  0.10100000352E+00 0.  1.
       -3    1    3    3    0  502  0.57532625307E+03  0.50209502545E+02 -0.69384146630E+03  0.90273876741E+03  0.10100000352E+00 0. -1.
</event>
<event>
 5   0  0.1764099E-04  0.1595873E+04  0.7818609E-02  0.8823088E-01
        1   -1    0    0  501    0  0.00000000000E+00  0.00000000000E+00  0.13521387517E+04  0.13521387517E+04  0.50400001928E-02 0. -1.
       -1   -1    0    0    0  501  0.00000000000E+00  0.00000000000E+00 -0.47088548034E+03  0.47088548037E+03  0.50400001928E-02 0.  1.
    10030    2    1    2    0    0  0.00000000000E+00  0.00000000000E+00  0.88125327135E+03  0.18230242321E+04  0.15958728090E+04 0.  0.
        5    1    3    3  502    0  0.52848368316E+03  0.59689314430E+03  0.40267101874E+03  0.89316430090E+03  0.46999998093E+01 0.  1.
       -5    1    3    3    0  502 -0.52848368316E+03 -0.59689314430E+03  0.47858225261E+03  0.92985993117E+03  0.46999998093E+01 0. -1.
</event>
<event>
 5   0  0.3274900E-04  0.1702171E+04  0.7818609E-02  0.8760127E-01
        2   -1    0    0  501    0  0.00000000000E+00  0.00000000000E+00  0.57211527111E+03  0.57211527111E+03  0.25500000920E-02 0. -1.
       -2   -1    0    0    0  501  0.00000000000E+00  0.00000000000E+00 -0.12660847156E+04  0.12660847156E+04  0.25500000920E-02 0.  1.
    10030    2    1    2    0    0  0.00000000000E+00  0.00000000000E+00 -0.69396944452E+03  0.18381999867E+04  0.17021708496E+04 0.  0.
        3    1    3    3  502    0  0.67739745434E+03  0.16633679411E+03 -0.87361486876E+03  0.11179168973E+04  0.10100000352E+00 0.  1.
       -3    1    3    3    0  502 -0.67739745434E+03 -0.16633679411E+03  0.17964542425E+03  0.72028308940E+03  0.10100000352E+00 0. -1.
</event>
<event>
 5   0  0.3263294E-04  0.1597193E+04  0.7818609E-02  0.8822274E-01
        2   -1    0    0  501    0  0.00000000000E+00  0.00000000000E+00  0.24948341306E+04  0.24948341306E+04  0.25500000920E-02 0. -1.
       -2   -1    0    0    0  501  0.00000000000E+00  0.00000000000E+00 -0.25563080858E+03  0.25563080859E+03  0.25500000920E-02 0.  1.
    10030    2    1    2    0    0  0.00000000000E+00  0.00000000000E+00  0.22392033220E+04  0.27504649392E+04  0.15971931206E+04 0.  0.
        4    1    3    3  502    0 -0.16400699599E+03 -0.33279436731E+03  0.23374102969E+04  0.23666725364E+04  0.12699999809E+01 0. -1.
       -4    1    3    3    0  502  0.16400699599E+03  0.33279436731E+03 -0.98206974848E+02  0.38379240281E+03  0.12699999809E+01 0.  1.
</event>
<event>
 5   0  0.3274900E-04  0.1612309E+04  0.7818609E-02  0.8813022E-01
        2   -1    0    0  501    0  0.00000000000E+00  0.00000000000E+00  0.12411352309E+04  0.12411352309E+04  0.25500000920E-02 0. -1.
       -2   -1    0    0    0  501  0.00000000000E+00  0.00000000000E+00 -0.52362140842E+03  0.52362140843E+03  0.25500000920E-02 0.  1.
    10030    2    1    2    0    0  0.00000000000E+00  0.00000000000E+00  0.71751382244E+03  0.17647566393E+04  0.16123088757E+04 0.  0.
        3    1    3    3  502    0  0.47634344300E+03  0.64391743071E+03  0.45878867140E+03  0.92304917987E+03  0.10100000352E+00 0. -1.
       -3    1    3    3    0  502 -0.47634344300E+03 -0.64391743071E+03  0.25872515105E+03  0.84170745942E+03  0.10100000352E+00 0.  1.
</event>
<event>
 5   0  0.3228393E-04  0.1614545E+04  0.7818609E-02  0.8811662E-01
       -2   -1    0    0    0  501  0.00000000000E+00  0.00000000000E+00  0.42745596842E+03  0.42745596843E+03  0.25500000920E-02 0.  1.
        2   -1    0    0  501    0  0.00000000000E+00  0.00000000000E+00 -0.15245746084E+04  0.15245746084E+04  0.25500000920E-02 0. -1.
    10030    2    1    2    0    0  0.00000000000E+00  0.00000000000E+00 -0.10971186399E+04  0.19520305768E+04  0.16145445372E+04 0.  0.
        1    1    3    3  502    0 -0.61122202540E+03 -0.36895323707E+03 -0.10041075442E+04  0.12320514664E+04  0.50400001928E-02 0. -1.
       -1    1    3    3    0  502  0.61122202540E+03  0.36895323707E+03 -0.93011095743E+02  0.71997911042E+03  0.50400001928E-02 0.  1.
</event>
<event>
 5   0  0.1761255E-04  0.1588633E+04  0.7818609E-02  0.8827562E-01
       -1   -1    0    0    0  501  0.00000000000E+00  0.00000000000E+00  0.10883816516E+04  0.10883816516E+04  0.50400001928E-02 0. -1.
        1   -1    0    0  501    0  0.00000000000E+00  0.00000000000E+00 -0.57970376623E+03  0.57970376625E+03  0.50400001928E-02 0.  1.
    10030    2    1    2    0    0  0.00000000000E+00  0.00000000000E+00  0.50867788538E+03  0.16680854179E+04  0.15886333026E+04 0.  0.
        2    1    3    3  502    0  0.13328479975E+03 -0.14350989599E+03  0.10626299686E+04  0.10805287494E+04  0.25500000920E-02 0. -1.
       -2    1    3    3    0  502 -0.13328479975E+03  0.14350989599E+03 -0.55395208325E+03  0.58755666845E+03  0.25500000920E-02 0.  1.
</event>
<event>
 5   0  0.1787688E-04  0.1596176E+04  0.7818609E-02  0.8822901E-01
        1   -1    0    0  501    0  0.00000000000E+00  0.00000000000E+00  0.50449732755E+03  0.50449732758E+03  0.50400001928E-02 0. -1.
       -1   -1    0    0    0  501  0.00000000000E+00  0.00000000000E+00 -0.12625328512E+04  0.12625328512E+04  0.50400001928E-02 0.  1.
    10030    2    1    2    0    0  0.00000000000E+00  0.00000000000E+00 -0.75803552360E+03  0.17670301787E+04  0.15961759920E+04 0.  0.
        4    1    3    3  502    0  0.55693848501E+03 -0.46581769669E+03 -0.74580765141E+03  0.10408637127E+04  0.12699999809E+01 0.  1.
       -4    1    3    3    0  502 -0.55693848501E+03  0.46581769669E+03 -0.12227872194E+02  0.72616646603E+03  0.12699999809E+01 0. -1.
</event>
<event>
 5   0  0.3380454E-04  0.1610921E+04  0.7818609E-02  0.8813867E-01
       -2   -1    0    0    0  501  0.00000000000E+00  0.00000000000E+00  0.81152068933E+03  0.81152068933E+03  0.25500000920E-02 0. -1.
        2   -1    0    0  501    0  0.00000000000E+00  0.00000000000E+00 -0.79944519128E+03  0.79944519128E+03  0.25500000920E-02 0.  1.
    10030    2    1    2    0    0  0.00000000000E+00  0.00000000000E+00  0.12075498052E+02  0.16109658806E+04  0.16109206221E+04 0.  0.
        5    1    3    3  502    0 -0.57854834097E+02 -0.72764783297E+03 -0.33445040930E+03  0.80293070494E+03  0.46999998093E+01 0.  1.
       -5    1    3    3    0  502  0.57854834097E+02  0.72764783297E+03  0.34652590735E+03  0.80803517567E+03  0.46999998093E+01 0. -1.
</event>
<event>
 5   0  0.1819811E-04  0.1591234E+04  0.7818609E-02  0.8825952E-01
        1   -1    0    0  501    0  0.00000000000E+00  0.00000000000E+00  0.13905990369E+04  0.13905990369E+04  0.50400001928E-02 0.  1.
       -1   -1    0    0    0  501  0.00000000000E+00  0.00000000000E+00 -0.45520389043E+03  0.45520389046E+03  0.50400001928E-02 0. -1.
    10030    2    1    2    0    0  0.00000000000E+00  0.00000000000E+00  0.93539514646E+03  0.18458029274E+04  0.15912335990E+04 0.  0.
        1    1    3    3  502    0 -0.69693080206E+03  0.29868473555E+03  0.74725327119E+03  0.10645715408E+04  0.50400001928E-02 0.  1.
       -1    1    3    3    0  502  0.69693080206E+03 -0.29868473555E+03  0.18814187527E+03  0.78123138657E+03  0.50400001928E-02 0. -1.
</event>
<event>
 5   0  0.1787688E-04  0.1688228E+04  0.7818609E-02  0.8768107E-01
        1   -1    0    0  501    0  0.00000000000E+00  0.00000000000E+00  0.97647097604E+03  0.97647097605E+03  0.50400001928E-02 0.  1.
       -1   -1    0    0    0  501  0.00000000000E+00  0.00000000000E+00 -0.72969743972E+03  0.72969743973E+03  0.50400001928E-02 0. -1.
    10030    2    1    2    0    0  0.00000000000E+00  0.00000000000E+00  0.24677353632E+03  0.17061684158E+04  0.16882279126E+04 0.  0.
        4    1    3    3  502    0  0.20668628926E+03  0.79631380562E+03 -0.67543774391E+02  0.82546875989E+03  0.12699999809E+01 0.  1.
       -4    1    3    3    0  502 -0.20668628926E+03 -0.79631380562E+03  0.31431731071E+03  0.88069965590E+03  0.12699999809E+01 0. -1.
</event>
<event>
 5   0  0.1764099E-04  0.1600072E+04  0.7818609E-02  0.8820504E-01
       -1   -1    0    0    0  501  0.00000000000E+00  0.00000000000E+00  0.59435569702E+03  0.59435569704E+03  0.50400001928E-02 0. -1.
        1   -1    0    0  501    0  0.00000000000E+00  0.00000000000E+00 -0.10768925606E+04  0.10768925606E+04  0.50400001928E-02 0.  1.
    10030    2    1    2    0    0  0.00000000000E+00  0.00000000000E+00 -0.48253686360E+03  0.16712482577E+04  0.16000715340E+04 0.  0.
        5    1    3    3  502    0 -0.41796971826E+03 -0.34153169221E+03  0.37550109312E+03  0.65754524035E+03  0.46999998093E+01 0. -1.
       -5    1    3    3    0  502  0.41796971826E+03  0.34153169221E+03 -0.85803795672E+03  0.10137030173E+04  0.46999998093E+01 0.  1.
</event>
<event>
 5   0  0.3263294E-04  0.1590219E+04  0.7818609E-02  0.8826580E-01
       -2   -1    0    0    0  501  0.00000000000E+00  0.00000000000E+00  0.37314396998E+03  0.37314396999E+03  0.25500000920E-02 0. -1.
        2   -1    0    0  501    0  0.00000000000E+00  0.00000000000E+00 -0.16942488584E+04  0.16942488585E+04  0.25500000920E-02 0.  1.
    10030    2    1    2    0    0  0.00000000000E+00  0.00000000000E+00 -0.13211048885E+04  0.20673928284E+04  0.15902185324E+04 0.  0.
        4    1    3    3  502    0 -0.70028939544E+03  0.21917161316E+03 -0.26247732595E+03  0.77931854393E+03  0.12699999809E+01 0.  1.
       -4    1    3    3    0  502  0.70028939544E+03 -0.21917161316E+03 -0.10586275625E+04  0.12880742845E+04  0.12699999809E+01 0. -1.
</event>
<event>
 5   0  0.1819811E-04  0.1611048E+04  0.7818609E-02  0.8813790E-01
       -1   -1    0    0    0  501  0.00000000000E+00  0.00000000000E+00  0.69000296596E+03  0.69000296598E+03  0.50400001928E-02 0. -1.
        1   -1    0    0  501    0  0.00000000000E+00  0.00000000000E+00 -0.94038515102E+03  0.94038515104E+03  0.50400001928E-02 0.  1.
    10030    2    1    2    0    0  0.00000000000E+00  0.00000000000E+00 -0.25038218506E+03  0.16303881170E+04  0.16110475392E+04 0.  0.
        1    1    3    3  502    0 -0.99352020447E+01  0.76532938820E+03  0.12890230179E+03  0.77617239329E+03  0.50400001928E-02 0. -1.
       -1    1    3    3    0  502  0.99352020447E+01 -0.76532938820E+03 -0.37928448685E+03  0.85421572373E+03  0.50400001928E-02 0.  1.
</event>
<event>
 5   0  0.3210612E-04  0.1609234E+04  0.7818609E-02  0.8814895E-01
        2   -1    0    0  501    0  0.00000000000E+00  0.00000000000E+00  0.11565352185E+04  0.11565352185E+04  0.25500000920E-02 0. -1.
       -2   -1    0    0    0  501  0.00000000000E+00  0.00000000000E+00 -0.55978276791E+03  0.55978276792E+03  0.25500000920E-02 0.  1.
    10030    2    1    2    0    0  0.00000000000E+00  0.00000000000E+00  0.59675245057E+03  0.17163179864E+04  0.16092339616E+04 0.  0.
        2    1    3    3  502    0  0.46014975338E+03  0.60495451999E+03  0.16799214991E+02  0.76025652277E+03  0.25500000920E-02 0.  1.
       -2    1    3    3    0  502 -0.46014975338E+03 -0.60495451999E+03  0.57995323558E+03  0.95606146363E+03  0.25500000920E-02 0. -1.
</event>
<event>
 5   0  0.3380454E-04  0.1652377E+04  0.7818609E-02  0.8789002E-01
        2   -1    0    0  501    0  0.00000000000E+00  0.00000000000E+00  0.44402200846E+03  0.44402200847E+03  0.25500000920E-02 0.  1.
       -2   -1    0    0    0  501  0.00000000000E+00  0.00000000000E+00 -0.15372823470E+04  0.15372823470E+04  0.25500000920E-02 0. -1.
    10030    2    1    2    0    0  0.00000000000E+00  0.00000000000E+00 -0.10932603385E+04  0.19813043554E+04  0.16523767068E+04 0.  0.
        5    1    3    3  502    0 -0.34312116817E+03  0.32599345533E+03  0.26534135687E+03  0.54261588129E+03  0.46999998093E+01 0.  1.
       -5    1    3    3    0  502  0.34312116817E+03 -0.32599345533E+03 -0.13586016954E+04  0.14386884741E+04  0.46999998093E+01 0. -1.
</event>
<event>
 5   0  0.1736537E-04  0.1602762E+04  0.7818609E-02  0.8818853E-01
        1   -1    0    0  501    0  0.00000000000E+00  0.00000000000E+00  0.18972643279E+04  0.18972643279E+04  0.50400001928E-02 0.  1.
       -1   -1    0    0    0  501  0.00000000000E+00  0.00000000000E+00 -0.33849348602E+03  0.33849348605E+03  0.50400001928E-02 0. -1.
    10030    2    1    2    0    0  0.00000000000E+00  0.00000000000E+00  0.15587708418E+04  0.22357578139E+04  0.16027621362E+04 0.  0.
        3    1    3    3  502    0  0.69708219027E+03  0.28092219666E+03  0.11673964532E+04  0.13884002844E+04  0.10100000352E+00 0.  1.
       -3    1    3    3    0  502 -0.69708219027E+03 -0.28092219666E+03  0.39137438868E+03  0.84735752955E+03  0.10100000352E+00 0. -1.
</event>
<event>
 5   0  0.1764099E-04  0.1559522E+04  0.7818609E-02  0.8845808E-01
       -1   -1    0    0    0  501  0.00000000000E+00  0.00000000000E+00  0.46677513028E+03  0.46677513030E+03  0.50400001928E-02 0.  1.
        1   -1    0    0  501    0  0.00000000000E+00  0.00000000000E+00 -0.13026126842E+04  0.13026126842E+04  0.50400001928E-02 0. -1.
    10030    2    1    2    0    0  0.00000000000E+00  0.00000000000E+00 -0.83583755388E+03  0.17693878145E+04  0.15595219849E+04 0.  0.
        5    1    3    3  502    0  0.66828627880E+03 -0.18921328779E+02  0.37382796087E+02  0.66961491213E+03  0.46999998093E+01 0.  1.
       -5    1    3    3    0  502 -0.66828627880E+03  0.18921328779E+02 -0.87322034996E+03  0.10997729023E+04  0.46999998093E+01 0. -1.
</event>
<event>
 5   0  0.3210612E-04  0.1594057E+04  0.7818609E-02  0.8824207E-01
        2   -1    0    0  501    0  0.00000000000E+00  0.00000000000E+00  0.86621614983E+03  0.86621614983E+03  0.25500000920E-02 0.  1.
       -2   -1    0    0    0  501  0.00000000000E+00  0.00000000000E+00 -0.73336731041E+03  0.73336731042E+03  0.25500000920E-02 0. -1.
    10030    2    1    2    0    0  0.00000000000E+00  0.00000000000E+00  0.13284883942E+03  0.15995834603E+04  0.15940572236E+04 0.  0.
        2    1    3    3  502    0  0.55128503193E+02  0.79388729258E+03  0.11083191026E+03  0.80347986752E+03  0.25500000920E-02 0.  1.
       -2    1    3    3    0  502 -0.55128503193E+02 -0.79388729258E+03  0.22016929157E+02  0.79610359273E+03  0.25500000920E-02 0. -1.
</event>
<event>
 5   0  0.1787688E-04  0.1615172E+04  0.7818609E-02  0.8811281E-01
        1   -1    0    0  501    0  0.00000000000E+00  0.00000000000E+00  0.80267713065E+03  0.80267713067E+03  0.50400001928E-02 0.  1.
       -1   -1    0    0    0  501  0.00000000000E+00  0.00000000000E+00 -0.81252515554E+03  0.81252515556E+03  0.50400001928E-02 0. -1.
    10030    2    1    2    0    0  0.00000000000E+00  0.00000000000E+00 -0.98480248956E+01  0.16152022862E+04  0.16151722638E+04 0.  0.
        4    1    3    3  502    0  0.71506971493E+03  0.15603656210E+03 -0.34628302203E+03  0.80968243785E+03  0.12699999809E+01 0. -1.
       -4    1    3    3    0  502 -0.71506971493E+03 -0.15603656210E+03  0.33643499713E+03  0.80551984837E+03  0.12699999809E+01 0.  1.
</event>
<event>
 5   0  0.3274900E-04  0.1587127E+04  0.7818609E-02  0.8828496E-01
        2   -1    0    0  501    0  0.00000000000E+00  0.00000000000E+00  0.16607735860E+04  0.16607735860E+04  0.25500000920E-02 0. -1.
       -2   -1    0    0    0  501  0.00000000000E+00  0.00000000000E+00 -0.37918651624E+03  0.37918651625E+03  0.25500000920E-02 0.  1.
    10030    2    1    2    0    0  0.00000000000E+00  0.00000000000E+00  0.12815870698E+04  0.20399601023E+04  0.15871269015E+04 0.  0.
        3    1    3    3  502    0 -0.45022354571E+03 -0.27348216312E+03  0.14036363001E+04  0.14992293379E+04  0.10100000352E+00 0. -1.
       -3    1    3    3    0  502  0.45022354571E+03  0.27348216312E+03 -0.12204923031E+03  0.54073076432E+03  0.10100000352E+00 0.  1.
</event>
<event>
 5   0  0.3380454E-04  0.1609633E+04  0.7818609E-02  0.8814652E-01
       -2   -1    0    0    0  501  0.00000000000E+00  0.00000000000E+00  0.11089256621E+04  0.11089256621E+04  0.25500000920E-02 0.  1.
        2   -1    0    0  501    0  0.00000000000E+00  0.00000000000E+00 -0.58410541711E+03  0.58410541711E+03  0.25500000920E-02 0. -1.
    10030    2    1    2    0    0  0.00000000000E+00  0.00000000000E+00  0.52482024498E+03  0.16930310792E+04  0.16096328605E+04 0.  0.
        5    1    3    3  502    0 -0.20578454523E+03  0.44596477687E+03 -0.40817715057E+03  0.63864116491E+03  0.46999998093E+01 0. -1.
       -5    1    3    3    0  502  0.20578454523E+03 -0.44596477687E+03  0.93299739555E+03  0.10543899143E+04  0.46999998093E+01 0.  1.
</event>
<event>
 5   0  0.3263294E-04  0.1619325E+04  0.7818609E-02  0.8808763E-01
       -2   -1    0    0    0  501  0.00000000000E+00  0.00000000000E+00  0.33922255457E+03  0.33922255458E+03  0.25500000920E-02 0. -1.
        2   -1    0    0  501    0  0.00000000000E+00  0.00000000000E+00 -0.19325177071E+04  0.19325177071E+04  0.25500000920E-02 0.  1.
    10030    2    1    2    0    0  0.00000000000E+00  0.00000000000E+00 -0.15932951526E+04  0.22717402617E+04  0.16193252834E+04 0.  0.
        4    1    3    3  502    0  0.56467332614E+03  0.27995600206E+03 -0.15096715668E+04  0.16359526829E+04  0.12699999809E+01 0.  1.
       -4    1    3    3    0  502 -0.56467332614E+03 -0.27995600206E+03 -0.83623585795E+02  0.63578757879E+03  0.12699999809E+01 0. -1.
</event>
<event>
 5   0  0.1787688E-04  0.1624423E+04  0.7818609E-02  0.8805683E-01
       -1   -1    0    0    0  501  0.00000000000E+00  0.00000000000E+00  0.91454538008E+03  0.91454538010E+03  0.50400001928E-02 0.  1.
        1   -1    0    0  501    0  0.00000000000E+00  0.00000000000E+00 -0.72132877252E+03  0.72132877254E+03  0.50400001928E-02 0. -1.
    10030    2    1    2    0    0  0.00000000000E+00  0.00000000000E+00  0.19321660756E+03  0.16358741526E+04  0.16244234626E+04 0.  0.
        4    1    3    3  502    0  0.46826395160E+03  0.37483763486E+03  0.64811080678E+03  0.88307622074E+03  0.12699999809E+01 0.  1.
       -4    1    3    3    0  502 -0.46826395160E+03 -0.37483763486E+03 -0.45489419922E+03  0.75279793189E+03  0.12699999809E+01 0. -1.
</event>
<event>
 5   0  0.3228393E-04  0.1593071E+04  0.7818609E-02  0.8824816E-01
       -2   -1    0    0    0  501  0.00000000000E+00  0.00000000000E+00  0.77588481752E+03  0.77588481753E+03  0.25500000920E-02 0. -1.
        2   -1    0    0  501    0  0.00000000000E+00  0.00000000000E+00 -0.81773533807E+03  0.81773533807E+03  0.25500000920E-02 0.  1.
    10030    2    1    2    0    0  0.00000000000E+00  0.00000000000E+00 -0.41850520541E+02  0.15936201556E+04  0.15930705365E+04 0.  0.
        1    1    3    3  502    0  0.33534800134E+03  0.52909149134E+02 -0.74173667602E+03  0.81573951519E+03  0.50400001928E-02 0.  1.
       -1    1    3    3    0  502 -0.33534800134E+03 -0.52909149134E+02  0.69988615548E+03  0.77788064041E+03  0.50400001928E-02 0. -1.
</event>
<event>
 5   0  0.1787688E-04  0.1613512E+04  0.7818609E-02  0.8812290E-01
       -1   -1    0    0    0  501  0.00000000000E+00  0.00000000000E+00  0.84579470609E+03  0.84579470610E+03  0.50400001928E-02 0. -1.
        1   -1    0    0  501    0  0.00000000000E+00  0.00000000000E+00 -0.76951898288E+03  0.76951898290E+03  0.50400001928E-02 0.  1.
    10030    2    1    2    0    0  0.00000000000E+00  0.00000000000E+00  0.76275723206E+02  0.16153136890E+04  0.16135117998E+04 0.  0.
        4    1    3    3  502    0  0.77395451217E+03 -0.20526462247E+03 -0.60533441131E+02  0.80299754828E+03  0.12699999809E+01 0.  1.
       -4    1    3    3    0  502 -0.77395451217E+03  0.20526462247E+03  0.13680916434E+03  0.81231614073E+03  0.12699999809E+01 0. -1.
</event>
<event>
 5   0  0.3263294E-04  0.1606009E+04  0.7818609E-02  0.8816865E-01
       -2   -1    0    0    0  501  0.00000000000E+00  0.00000000000E+00  0.10757049563E+04  0.10757049563E+04  0.25500000920E-02 0.  1.
        2   -1    0    0  501    0  0.00000000000E+00  0.00000000000E+00 -0.59943607402E+03  0.59943607403E+03  0.25500000920E-02 0. -1.
    10030    2    1    2    0    0  0.00000000000E+00  0.00000000000E+00  0.47626888229E+03  0.16751410303E+04  0.16060091604E+04 0.  0.
        4    1    3    3  502    0 -0.34726228872E+03 -0.27644291391E+03  0.93612064507E+03  0.10360189462E+04  0.12699999809E+01 0.  1.
       -4    1    3    3    0  502  0.34726228872E+03  0.27644291391E+03 -0.45985176278E+03  0.63912208415E+03  0.12699999809E+01 0. -1.
</event>
<event>
 5   0  0.1819811E-04  0.1593031E+04  0.7818609E-02  0.8824841E-01
        1   -1    0    0  501    0  0.00000000000E+00  0.00000000000E+00  0.14778592578E+04  0.14778592578E+04  0.50400001928E-02 0. -1.
       -1   -1    0    0    0  501  0.00000000000E+00  0.00000000000E+00 -0.42929442615E+03  0.42929442618E+03  0.50400001928E-02 0.  1.
    10030    2    1    2    0    0  0.00000000000E+00  0.00000000000E+00  0.10485648316E+04  0.19071536839E+04  0.15930307493E+04 0.  0.
        1    1    3    3  502    0 -0.47940364300E+03 -0.60025125959E+03  0.77628166451E+03  0.10921275797E+04  0.50400001928E-02 0.  1.
       -1    1    3    3    0  502  0.47940364300E+03  0.60025125959E+03  0.27228316710E+03  0.81502610429E+03  0.50400001928E-02 0. -1.
</event>
<event>
 5   0  0.3380454E-04  0.1593281E+04  0.7818609E-02  0.8824686E-01
        2   -1    0    0  501    0  0.00000000000E+00  0.00000000000E+00  0.14335306101E+04  0.14335306102E+04  0.25500000920E-02 0. -1.
       -2   -1    0    0    0  501  0.00000000000E+00  0.00000000000E+00 -0.44270857660E+03  0.44270857661E+03  0.25500000920E-02 0.  1.
    10030    2    1    2    0    0  0.00000000000E+00  0.00000000000E+00  0.99082203355E+03  0.18762391868E+04  0.15932812632E+04 0.  0.
        5    1    3    3  502    0 -0.11093777465E+03  0.49763855694E+03 -0.22539115843E+03  0.55747160241E+03  0.46999998093E+01 0.  1.
       -5    1    3    3    0  502  0.11093777465E+03 -0.49763855694E+03  0.12162131920E+04  0.13187675844E+04  0.46999998093E+01 0. -1.
</event>
<event>
 5   0  0.3380454E-04  0.1598976E+04  0.7818609E-02  0.8821177E-01
        2   -1    0    0  501    0  0.00000000000E+00  0.00000000000E+00  0.11032974992E+04  0.11032974992E+04  0.25500000920E-02 0.  1.
       -2   -1    0    0    0  501  0.00000000000E+00  0.00000000000E+00 -0.57933730560E+03  0.57933730561E+03  0.25500000920E-02 0. -1.
    10030    2    1    2    0    0  0.00000000000E+00  0.00000000000E+00  0.52396019356E+03  0.16826348048E+04  0.15989764231E+04 0.  0.
        5    1    3    3  502    0  0.54894369396E+03  0.58103330531E+03  0.24635644331E+03  0.83645231076E+03  0.46999998093E+01 0. -1.
       -5    1    3    3    0  502 -0.54894369396E+03 -0.58103330531E+03  0.27760375025E+03  0.84618249401E+03  0.46999998093E+01 0.  1.
</event>
<event>
 5   0  0.3210612E-04  0.1602084E+04  0.7818609E-02  0.8819269E-01
        2   -1    0    0  501    0  0.00000000000E+00  0.00000000000E+00  0.19348368794E+04  0.19348368794E+04  0.25500000920E-02 0. -1.
       -2   -1    0    0    0  501  0.00000000000E+00  0.00000000000E+00 -0.33163929783E+03  0.33163929784E+03  0.25500000920E-02 0.  1.
    10030    2    1    2    0    0  0.00000000000E+00  0.00000000000E+00  0.16031975816E+04  0.22664761773E+04  0.16020835735E+04 0.  0.
        2    1    3    3  502    0  0.24171180074E+03  0.72293022883E+03  0.11499015245E+04  0.13796108968E+04  0.25500000920E-02 0. -1.
       -2    1    3    3    0  502 -0.24171180074E+03 -0.72293022883E+03  0.45329605705E+03  0.88686528048E+03  0.25500000920E-02 0.  1.
</event>
<event>
 5   0  0.3210612E-04  0.1589497E+04  0.7818609E-02  0.8827026E-01
       -2   -1    0    0    0  501  0.00000000000E+00  0.00000000000E+00  0.43801656535E+03  0.43801656536E+03  0.25500000920E-02 0.  1.
        2   -1    0    0  501    0  0.00000000000E+00  0.00000000000E+00 -0.14420125052E+04  0.14420125052E+04  0.25500000920E-02 0. -1.
    10030    2    1    2    0    0  0.00000000000E+00  0.00000000000E+00 -0.10039959399E+04  0.18800290706E+04  0.15894972346E+04 0.  0.
        2    1    3    3  502    0 -0.39090436045E+03  0.32067394433E+03 -0.12272541107E+04  0.13273246211E+04  0.25500000920E-02 0. -1.
       -2    1    3    3    0  502  0.39090436045E+03 -0.32067394433E+03  0.22325817084E+03  0.55270444946E+03  0.25500000920E-02 0.  1.
</event>
<event>
 5   0  0.3228393E-04  0.1456789E+04  0.7818609E-02  0.8913707E-01
       -2   -1    0    0    0  501  0.00000000000E+00  0.00000000000E+00  0.52502633649E+03  0.52502633650E+03  0.25500000920E-02 0.  1.
        2   -1    0    0  501    0  0.00000000000E+00  0.00000000000E+00 -0.10105369427E+04  0.10105369427E+04  0.25500000920E-02 0. -1.
    10030    2    1    2    0    0  0.00000000000E+00  0.00000000000E+00 -0.48551060621E+03  0.15355632792E+04  0.14567889469E+04 0.  0.
        1    1    3    3  502    0 -0.30131086926E+03  0.38070174280E+03  0.32959467237E+03  0.58681743753E+03  0.50400001928E-02 0.  1.
       -1    1    3    3    0  502  0.30131086926E+03 -0.38070174280E+03 -0.81510527858E+03  0.94874584167E+03  0.50400001928E-02 0. -1.
</event>
<event>
 5   0  0.1764099E-04  0.1607952E+04  0.7818609E-02  0.8815678E-01
       -1   -1    0    0    0  501  0.00000000000E+00  0.00000000000E+00  0.19528204830E+04  0.19528204830E+04  0.50400001928E-02 0. -1.
        1   -1    0    0  501    0  0.00000000000E+00  0.00000000000E+00 -0.33099685410E+03  0.33099685414E+03  0.50400001928E-02 0.  1.
    10030    2    1    2    0    0  0.00000000000E+00  0.00000000000E+00  0.16218236289E+04  0.22838173372E+04  0.16079520348E+04 0.  0.
        5    1    3    3  502    0  0.15994765981E+03 -0.67840810335E+03  0.24183287020E+03  0.73778454556E+03  0.46999998093E+01 0.  1.
       -5    1    3    3    0  502 -0.15994765981E+03  0.67840810335E+03  0.13799907587E+04  0.15460327916E+04  0.46999998093E+01 0. -1.
</event>
<event>
 5   0  0.1736537E-04  0.1607102E+04  0.7818609E-02  0.8816197E-01
       -1   -1    0    0    0  501  0.00000000000E+00  0.00000000000E+00  0.55305944469E+03  0.55305944472E+03  0.50400001928E-02 0.  1.
        1   -1    0    0  501    0  0.00000000000E+00  0.00000000000E+00 -0.11674956413E+04  0.11674956413E+04  0.50400001928E-02 0. -1.
    10030    2    1    2    0    0  0.00000000000E+00  0.00000000000E+00 -0.61443619663E+03  0.17205550860E+04  0.16071023503E+04 0.  0.
        3    1    3    3  502    0 -0.72988469286E+03 -0.33066139532E+03 -0.37168405351E+03  0.88329930887E+03  0.10100000352E+00 0.  1.
       -3    1    3    3    0  502  0.72988469286E+03  0.33066139532E+03 -0.24275214312E+03  0.83725577718E+03  0.10100000352E+00 0. -1.
</event>
<event>
 5   0  0.1219463E-04  0.1594830E+04  0.7818609E-02  0.8823731E-01
       -3   -1    0    0    0  501  0.00000000000E+00  0.00000000000E+00  0.30835896720E+03  0.30835898374E+03  0.10100000352E+00 0.  1.
        3   -1    0    0  501    0  0.00000000000E+00  0.00000000000E+00 -0.20621112127E+04  0.20621112152E+04  0.10100000352E+00 0. -1.
    10030    2    1    2    0    0  0.00000000000E+00  0.00000000000E+00 -0.17537522455E+04  0.23704701989E+04  0.15948297794E+04 0.  0.
        5    1    3    3  502    0 -0.76574106831E+02  0.66419519842E+03 -0.15227610579E+04  0.16630821342E+04  0.46999998093E+01 0. -1.
       -5    1    3    3    0  502  0.76574106831E+02 -0.66419519842E+03 -0.23099118761E+03  0.70738806478E+03  0.46999998093E+01 0.  1.
</event>
<event>
 5   0  0.3274900E-04  0.1642390E+04  0.7818609E-02  0.8794921E-01
        2   -1    0    0  501    0  0.00000000000E+00  0.00000000000E+00  0.54710765648E+03  0.54710765649E+03  0.25500000920E-02 0. -1.
       -2   -1    0    0    0  501  0.00000000000E+00  0.00000000000E+00 -0.12325937081E+04  0.12325937081E+04  0.25500000920E-02 0.  1.
    10030    2    1    2    0    0  0.00000000000E+00  0.00000000000E+00 -0.68548605157E+03  0.17797013645E+04  0.16423902764E+04 0.  0.
        3    1    3    3  502    0 -0.16572478556E+03  0.76361510003E+03 -0.69063247384E+02  0.78443767623E+03  0.10100000352E+00 0. -1.
       -3    1    3    3    0  502  0.16572478556E+03 -0.76361510003E+03 -0.61642280419E+03  0.99526368831E+03  0.10100000352E+00 0.  1.
</event>
<event>
 5   0  0.1819811E-04  0.1609128E+04  0.7818609E-02  0.8814960E-01
        1   -1    0    0  501    0  0.00000000000E+00  0.00000000000E+00  0.15967257650E+04  0.15967257650E+04  0.50400001928E-02 0.  1.
       -1   -1    0    0    0  501  0.00000000000E+00  0.00000000000E+00 -0.40540667258E+03  0.40540667262E+03  0.50400001928E-02 0. -1.
    10030    2    1    2    0    0  0.00000000000E+00  0.00000000000E+00  0.11913190924E+04  0.20021324376E+04  0.16091280613E+04 0.  0.
        1    1    3    3  502    0  0.42093904169E+03  0.28037613574E+03 -0.18288010522E+03  0.53781556989E+03  0.50400001928E-02 0. -1.
       -1    1    3    3    0  502 -0.42093904169E+03 -0.28037613574E+03  0.13741991976E+04  0.14643168677E+04  0.50400001928E-02 0.  1.
</event>
<event>
 5   0  0.3210612E-04  0.1585995E+04  0.7818609E-02  0.8829198E-01
       -2   -1    0    0    0  501  0.00000000000E+00  0.00000000000E+00  0.51351708315E+03  0.51351708316E+03  0.25500000920E-02 0.  1.
        2   -1    0    0  501    0  0.00000000000E+00  0.00000000000E+00 -0.12245850040E+04  0.12245850040E+04  0.25500000920E-02 0. -1.
    10030    2    1    2    0    0  0.00000000000E+00  0.00000000000E+00 -0.71106792089E+03  0.17381020872E+04  0.15859953586E+04 0.  0.
        2    1    3    3  502    0 -0.50227078204E+03 -0.58118874621E+03 -0.13969602175E+03  0.78075045675E+03  0.25500000920E-02 0.  1.
       -2    1    3    3    0  502  0.50227078204E+03  0.58118874621E+03 -0.57137189914E+03  0.95735163046E+03  0.25500000920E-02 0. -1.
</event>
<event>
 5   0  0.1787688E-04  0.1582271E+04  0.7818609E-02  0.8831514E-01
       -1   -1    0    0    0  501  0.00000000000E+00  0.00000000000E+00  0.82080543724E+03  0.82080543726E+03  0.50400001928E-02 0.  1.
        1   -1    0    0  501    0  0.00000000000E+00  0.00000000000E+00 -0.76253783624E+03  0.76253783625E+03  0.50400001928E-02 0. -1.
    10030    2    1    2    0    0  0.00000000000E+00  0.00000000000E+00  0.58267601007E+02  0.15833432735E+04  0.15822707760E+04 0.  0.
        4    1    3    3  502    0 -0.42978435823E+03 -0.47083503040E+03  0.49795255481E+03  0.80892433526E+03  0.12699999809E+01 0.  1.
       -4    1    3    3    0  502  0.42978435823E+03  0.47083503040E+03 -0.43968495381E+03  0.77441893826E+03  0.12699999809E+01 0. -1.
</event>
<event>
 5   0  0.1819811E-04  0.1612093E+04  0.7818609E-02  0.8813153E-01
       -1   -1    0    0    0  501  0.00000000000E+00  0.00000000000E+00  0.49243862478E+03  0.49243862480E+03  0.50400001928E-02 0.  1.
        1   -1    0    0  501    0  0.00000000000E+00  0.00000000000E+00 -0.13193739745E+04  0.13193739746E+04  0.50400001928E-02 0. -1.
    10030    2    1    2    0    0  0.00000000000E+00  0.00000000000E+00 -0.82693534976E+03  0.18118125994E+04  0.16120926842E+04 0.  0.
        1    1    3    3  502    0  0.52857916932E+02  0.75244856107E+03 -0.73281406958E+03  0.10516602384E+04  0.50400001928E-02 0. -1.
       -1    1    3    3    0  502 -0.52857916932E+02 -0.75244856107E+03 -0.94121280187E+02  0.76015236095E+03  0.50400001928E-02 0.  1.
</event>
<event>
 5   0  0.1761255E-04  0.1595115E+04  0.7818609E-02  0.8823555E-01
        1   -1    0    0  501    0  0.00000000000E+00  0.00000000000E+00  0.14143268956E+04  0.14143268956E+04  0.50400001928E-02 0.  1.
       -1   -1    0    0    0  501  0.00000000000E+00  0.00000000000E+00 -0.44975295870E+03  0.44975295873E+03  0.50400001928E-02 0. -1.
    10030    2    1    2    0    0  0.00000000000E+00  0.00000000000E+00  0.96457393692E+03  0.18640798544E+04  0.15951146741E+04 0.  0.
        2    1    3    3  502    0 -0.56196786344E+03  0.54442743236E+03  0.30166609965E+03  0.83857709504E+03  0.25500000920E-02 0. -1.
       -2    1    3    3    0  502  0.56196786344E+03 -0.54442743236E+03  0.66290783727E+03  0.10255027593E+04  0.25500000920E-02 0.  1.
</event>
<event>
 5   0  0.1736537E-04  0.1596169E+04  0.7818609E-02  0.8822905E-01
       -1   -1    0    0    0  501  0.00000000000E+00  0.00000000000E+00  0.55730703799E+03  0.55730703802E+03  0.50400001928E-02 0. -1.
        1   -1    0    0  501    0  0.00000000000E+00  0.00000000000E+00 -0.11428862826E+04  0.11428862826E+04  0.50400001928E-02 0.  1.
    10030    2    1    2    0    0  0.00000000000E+00  0.00000000000E+00 -0.58557924458E+03  0.17001933206E+04  0.15961686238E+04 0.  0.
        3    1    3    3  502    0  0.62427961261E+03  0.45691846532E+03 -0.83953412345E+02  0.77816945733E+03  0.10100000352E+00 0. -1.
       -3    1    3    3    0  502 -0.62427961261E+03 -0.45691846532E+03 -0.50162583223E+03  0.92202386327E+03  0.10100000352E+00 0.  1.
</event>
<event>
 5   0  0.3263294E-04  0.1597718E+04  0.7818609E-02  0.8821951E-01
        2   -1    0    0  501    0  0.00000000000E+00  0.00000000000E+00  0.15627994576E+04  0.15627994576E+04  0.25500000920E-02 0.  1.
       -2   -1    0    0    0  501  0.00000000000E+00  0.00000000000E+00 -0.40835442458E+03  0.40835442459E+03  0.25500000920E-02 0. -1.
    10030    2    1    2    0    0  0.00000000000E+00  0.00000000000E+00  0.11544450330E+04  0.19711538821E+04  0.15977184648E+04 0.  0.
        4    1    3    3  502    0 -0.75280827347E+03  0.24171742884E+03  0.43641042356E+03  0.90310756983E+03  0.12699999809E+01 0.  1.
       -4    1    3    3    0  502  0.75280827347E+03 -0.24171742884E+03  0.71803460942E+03  0.10680463123E+04  0.12699999809E+01 0. -1.
</event>
<event>
 5   0  0.3263294E-04  0.1597220E+04  0.7818609E-02  0.8822258E-01
       -2   -1    0    0    0  501  0.00000000000E+00  0.00000000000E+00  0.95741718421E+03  0.95741718421E+03  0.25500000920E-02 0.  1.
        2   -1    0    0  501    0  0.00000000000E+00  0.00000000000E+00 -0.66614401332E+03  0.66614401333E+03  0.25500000920E-02 0. -1.
    10030    2    1    2    0    0  0.00000000000E+00  0.00000000000E+00  0.29127317089E+03  0.16235611975E+04  0.15972197413E+04 0.  0.
        4    1    3    3  502    0 -0.47918598068E+03 -0.51773400572E+03  0.52612031759E+03  0.88004085487E+03  0.12699999809E+01 0. -1.
       -4    1    3    3    0  502  0.47918598068E+03  0.51773400572E+03 -0.23484714670E+03  0.74352034267E+03  0.12699999809E+01 0.  1.
</event>
<event>
 5   0  0.1761255E-04  0.1589706E+04  0.7818609E-02  0.8826897E-01
       -1   -1    0    0    0  501  0.00000000000E+00  0.00000000000E+00  0.51226539108E+03  0.51226539110E+03  0.50400001928E-02 0.  1.
        1   -1    0    0  501    0  0.00000000000E+00  0.00000000000E+00 -0.12333279833E+04  0.12333279833E+04  0.50400001928E-02 0. -1.
    10030    2    1    2    0    0  0.00000000000E+00  0.00000000000E+00 -0.72106259218E+03  0.17455933744E+04  0.15897059372E+04 0.  0.
        2    1    3    3  502    0 -0.58829546874E+03  0.53364024014E+03 -0.32708499075E+03  0.85898082378E+03  0.25500000920E-02 0. -1.
       -2    1    3    3    0  502  0.58829546874E+03 -0.53364024014E+03 -0.39397760143E+03  0.88661255060E+03  0.25500000920E-02 0.  1.
</event>
<event>
 5   0  0.3263294E-04  0.1591591E+04  0.7818609E-02  0.8825731E-01
        2   -1    0    0  501    0  0.00000000000E+00  0.00000000000E+00  0.10399619287E+04  0.10399619287E+04  0.25500000920E-02 0.  1.
       -2   -1    0    0    0  501  0.00000000000E+00  0.00000000000E+00 -0.60895544074E+03  0.60895544074E+03  0.25500000920E-02 0. -1.
    10030    2    1    2    0    0  0.00000000000E+00  0.00000000000E+00  0.43100648795E+03  0.16489173694E+04  0.15915909960E+04 0.  0.
        4    1    3    3  502    0 -0.63180457230E+02  0.48505929955E+03 -0.43481143739E+03  0.65447451688E+03  0.12699999809E+01 0. -1.
       -4    1    3    3    0  502  0.63180457230E+02 -0.48505929955E+03  0.86581792534E+03  0.99444285256E+03  0.12699999809E+01 0.  1.
</event>
<event>
 5   0  0.3228393E-04  0.1607140E+04  0.7818609E-02  0.8816174E-01
        2   -1    0    0  501    0  0.00000000000E+00  0.00000000000E+00  0.64215087347E+03  0.64215087348E+03  0.25500000920E-02 0. -1.
       -2   -1    0    0    0  501  0.00000000000E+00  0.00000000000E+00 -0.10055653121E+04  0.10055653121E+04  0.25500000920E-02 0.  1.
    10030    2    1    2    0    0  0.00000000000E+00  0.00000000000E+00 -0.36341443863E+03  0.16477161856E+04  0.16071398738E+04 0.  0.
        1    1    3    3  502    0 -0.41388132486E+03  0.37956625877E+03  0.40757055275E+03  0.69388907713E+03  0.50400001928E-02 0. -1.
       -1    1    3    3    0  502  0.41388132486E+03 -0.37956625877E+03 -0.77098499138E+03  0.95382710846E+03  0.50400001928E-02 0.  1.
</event>
<event>
 5   0  0.3263294E-04  0.1598467E+04  0.7818609E-02  0.8821490E-01
       -2   -1    0    0    0  501  0.00000000000E+00  0.00000000000E+00  0.60584265439E+03  0.60584265440E+03  0.25500000920E-02 0. -1.
        2   -1    0    0  501    0  0.00000000000E+00  0.00000000000E+00 -0.10543571073E+04  0.10543571073E+04  0.25500000920E-02 0.  1.
    10030    2    1    2    0    0  0.00000000000E+00  0.00000000000E+00 -0.44851445292E+03  0.16601997617E+04  0.15984674017E+04 0.  0.
        4    1    3    3  502    0 -0.51708831718E+03 -0.47111329772E+03  0.17725336768E+03  0.72162901571E+03  0.12699999809E+01 0. -1.
       -4    1    3    3    0  502  0.51708831718E+03  0.47111329772E+03 -0.62576782060E+03  0.93857074600E+03  0.12699999809E+01 0.  1.
</event>
<event>
 5   0  0.1764099E-04  0.1587812E+04  0.7818609E-02  0.8828071E-01
        1   -1    0    0  501    0  0.00000000000E+00  0.00000000000E+00  0.59899550968E+03  0.59899550970E+03  0.50400001928E-02 0. -1.
       -1   -1    0    0    0  501  0.00000000000E+00  0.00000000000E+00 -0.10522397108E+04  0.10522397108E+04  0.50400001928E-02 0.  1.
    10030    2    1    2    0    0  0.00000000000E+00  0.00000000000E+00 -0.45324420112E+03  0.16512352205E+04  0.15878121575E+04 0.  0.
        5    1    3    3  502    0 -0.27121815620E+03 -0.21521304771E+03  0.51632929045E+03  0.62168639227E+03  0.46999998093E+01 0. -1.
       -5    1    3    3    0  502  0.27121815620E+03  0.21521304771E+03 -0.96957349157E+03  0.10295488282E+04  0.46999998093E+01 0.  1.
</event>
<event>
 5   0  0.3380454E-04  0.1602253E+04  0.7818609E-02  0.8819165E-01
       -2   -1    0    0    0  501  0.00000000000E+00  0.00000000000E+00  0.83962102444E+03  0.83962102445E+03  0.25500000920E-02 0. -1.
        2   -1    0    0  501    0  0.00000000000E+00  0.00000000000E+00 -0.76439651130E+03  0.76439651130E+03  0.25500000920E-02 0.  1.
    10030    2    1    2    0    0  0.00000000000E+00  0.00000000000E+00  0.75224513147E+02  0.16040175357E+04  0.16022526416E+04 0.  0.
        5    1    3    3  502    0  0.16922943329E+03 -0.77991405142E+03 -0.32298491586E+02  0.79873012417E+03  0.46999998093E+01 0.  1.
       -5    1    3    3    0  502 -0.16922943329E+03  0.77991405142E+03  0.10752300473E+03  0.80528741158E+03  0.46999998093E+01 0. -1.
</event>
<event>
 5   0  0.1764099E-04  0.1597400E+04  0.7818609E-02  0.8822147E-01
       -1   -1    0    0    0  501  0.00000000000E+00  0.00000000000E+00  0.96675640658E+03  0.96675640660E+03  0.50400001928E-02 0. -1.
        1   -1    0    0  501    0  0.00000000000E+00  0.00000000000E+00 -0.65985739112E+03  0.65985739114E+03  0.50400001928E-02 0.  1.
    10030    2    1    2    0    0  0.00000000000E+00  0.00000000000E+00  0.30689901547E+03  0.16266137977E+04  0.15973995872E+04 0.  0.
        5    1    3    3  502    0 -0.61378786840E+03 -0.38579341809E+03 -0.18783240817E+03  0.74891602493E+03  0.46999998093E+01 0.  1.
       -5    1    3    3    0  502  0.61378786840E+03  0.38579341809E+03  0.49473142364E+03  0.87769777280E+03  0.46999998093E+01 0. -1.
</event>
<event>
 5   0  0.1736537E-04  0.1604327E+04  0.7818609E-02  0.8817894E-01
       -1   -1    0    0    0  501  0.00000000000E+00  0.00000000000E+00  0.10152615314E+04  0.10152615314E+04  0.50400001928E-02 0. -1.
        1   -1    0    0  501    0  0.00000000000E+00  0.00000000000E+00 -0.63379390272E+03  0.63379390274E+03  0.50400001928E-02 0.  1.
    10030    2    1    2    0    0  0.00000000000E+00  0.00000000000E+00  0.38146762869E+03  0.16490554342E+04  0.16043273585E+04 0.  0.
        3    1    3    3  502    0  0.98154778978E+02 -0.32988098998E+03  0.93551098366E+03  0.99681324175E+03  0.10100000352E+00 0. -1.
       -3    1    3    3    0  502 -0.98154778978E+02  0.32988098998E+03 -0.55404335497E+03  0.65224219242E+03  0.10100000352E+00 0.  1.
</event>
<event>
 5   0  0.3274900E-04  0.1599366E+04  0.7818609E-02  0.8820938E-01
        2   -1    0    0  501    0  0.00000000000E+00  0.00000000000E+00  0.67892048566E+03  0.67892048566E+03  0.25500000920E-02 0.  1.
       -2   -1    0    0    0  501  0.00000000000E+00  0.00000000000E+00 -0.94192602750E+03  0.94192602750E+03  0.25500000920E-02 0. -1.
    10030    2    1    2    0    0  0.00000000000E+00  0.00000000000E+00 -0.26300554184E+03  0.16208465132E+04  0.15993659694E+04 0.  0.
        3    1    3    3  502    0 -0.55387354640E+03 -0.17311888777E+03  0.42611143407E+03  0.71994237210E+03  0.10100000352E+00 0.  1.
       -3    1    3    3    0  502  0.55387354640E+03  0.17311888777E+03 -0.68911697591E+03  0.90090414106E+03  0.10100000352E+00 0. -1.
</event>
<event>
 5   0  0.1819811E-04  0.1622078E+04  0.7818609E-02  0.8807098E-01
        1   -1    0    0  501    0  0.00000000000E+00  0.00000000000E+00  0.39702008225E+03  0.39702008228E+03  0.50400001928E-02 0.  1.
       -1   -1    0    0    0  501  0.00000000000E+00  0.00000000000E+00 -0.16568042312E+04  0.16568042312E+04  0.50400001928E-02 0. -1.
    10030    2    1    2    0    0  0.00000000000E+00  0.00000000000E+00 -0.12597841489E+04  0.20538243135E+04  0.16220783608E+04 0.  0.
        1    1    3    3  502    0  0.17405762547E+02  0.56350730193E+02 -0.16540854760E+04  0.16551365887E+04  0.50400001928E-02 0. -1.
       -1    1    3    3    0  502 -0.17405762547E+02 -0.56350730193E+02  0.39430132704E+03  0.39868772478E+03  0.50400001928E-02 0.  1.
</event>
<event>
 5   0  0.1787688E-04  0.1603353E+04  0.7818609E-02  0.8818491E-01
       -1   -1    0    0    0  501  0.00000000000E+00  0.00000000000E+00  0.44906378690E+03  0.44906378693E+03  0.50400001928E-02 0. -1.
        1   -1    0    0  501    0  0.00000000000E+00  0.00000000000E+00 -0.14311666079E+04  0.14311666079E+04  0.50400001928E-02 0.  1.
    10030    2    1    2    0    0  0.00000000000E+00  0.00000000000E+00 -0.98210282097E+03  0.18802303948E+04  0.16033528578E+04 0.  0.
        4    1    3    3  502    0 -0.73810409817E+03 -0.88960626379E+02 -0.13930049362E+03  0.75638475209E+03  0.12699999809E+01 0. -1.
       -4    1    3    3    0  502  0.73810409817E+03  0.88960626379E+02 -0.84280232736E+03  0.11238456427E+04  0.12699999809E+01 0.  1.
</event>
<event>
 5   0  0.1764099E-04  0.1727657E+04  0.7818609E-02  0.8745746E-01
        1   -1    0    0  501    0  0.00000000000E+00  0.00000000000E+00  0.91192940105E+03  0.91192940106E+03  0.50400001928E-02 0.  1.
       -1   -1    0    0    0  501  0.00000000000E+00  0.00000000000E+00 -0.81826443193E+03  0.81826443195E+03  0.50400001928E-02 0. -1.
    10030    2    1    2    0    0  0.00000000000E+00  0.00000000000E+00  0.93664969117E+02  0.17301938330E+04  0.17276566711E+04 0.  0.
        5    1    3    3  502    0  0.58069602884E+03 -0.24857905930E+03  0.63691580603E+03  0.89704139291E+03  0.46999998093E+01 0.  1.
       -5    1    3    3    0  502 -0.58069602884E+03  0.24857905930E+03 -0.54325083691E+03  0.83315244009E+03  0.46999998093E+01 0. -1.
</event>
<event>
 5   0  0.1787688E-04  0.1547180E+04  0.7818609E-02  0.8853671E-01
       -1   -1    0    0    0  501  0.00000000000E+00  0.00000000000E+00  0.40497418794E+03  0.40497418797E+03  0.50400001928E-02 0. -1.
        1   -1    0    0  501    0  0.00000000000E+00  0.00000000000E+00 -0.14777266269E+04  0.14777266269E+04  0.50400001928E-02 0.  1.
    10030    2    1    2    0    0  0.00000000000E+00  0.00000000000E+00 -0.10727524389E+04  0.18827008149E+04  0.15471795510E+04 0.  0.
        4    1    3    3  502    0  0.42200109806E+03 -0.24241114933E+03 -0.12681041990E+04  0.13582849349E+04  0.12699999809E+01 0.  1.
       -4    1    3    3    0  502 -0.42200109806E+03  0.24241114933E+03  0.19535176004E+03  0.52441587994E+03  0.12699999809E+01 0. -1.
</event>
<event>
 5   0  0.1819811E-04  0.1601909E+04  0.7818609E-02  0.8819376E-01
        1   -1    0    0  501    0  0.00000000000E+00  0.00000000000E+00  0.95699026062E+03  0.95699026064E+03  0.50400001928E-02 0. -1.
       -1   -1    0    0    0  501  0.00000000000E+00  0.00000000000E+00 -0.67035978045E+03  0.67035978047E+03  0.50400001928E-02 0.  1.
    10030    2    1    2    0    0  0.00000000000E+00  0.00000000000E+00  0.28663048017E+03  0.16273500411E+04  0.16019085879E+04 0.  0.
        1    1    3    3  502    0 -0.68339264958E+03  0.18064946127E+02  0.56728737367E+03  0.88835061779E+03  0.50400001928E-02 0. -1.
       -1    1    3    3    0  502  0.68339264958E+03 -0.18064946127E+02 -0.28065689350E+03  0.73899942332E+03  0.50400001928E-02 0.  1.
</event>
<event>
 5   0  0.3263294E-04  0.1600013E+04  0.7818609E-02  0.8820540E-01
       -2   -1    0    0    0  501  0.00000000000E+00  0.00000000000E+00  0.43160419611E+03  0.43160419611E+03  0.25500000920E-02 0.  1.
        2   -1    0    0  501    0  0.00000000000E+00  0.00000000000E+00 -0.14828646802E+04  0.14828646802E+04  0.25500000920E-02 0. -1.
    10030    2    1    2    0    0  0.00000000000E+00  0.00000000000E+00 -0.10512604841E+04  0.19144688763E+04  0.16000132728E+04 0.  0.
        4    1    3    3  502    0  0.65041731972E+03 -0.46378354959E+03 -0.47387227015E+03  0.92881344304E+03  0.12699999809E+01 0.  1.
       -4    1    3    3    0  502 -0.65041731972E+03  0.46378354959E+03 -0.57738821397E+03  0.98565543330E+03  0.12699999809E+01 0. -1.
</event>
<event>
 5   0  0.1787688E-04  0.1593567E+04  0.7818609E-02  0.8824510E-01
       -1   -1    0    0    0  501  0.00000000000E+00  0.00000000000E+00  0.53337302083E+03  0.53337302085E+03  0.50400001928E-02 0.  1.
        1   -1    0    0  501    0  0.00000000000E+00  0.00000000000E+00 -0.11902820172E+04  0.11902820172E+04  0.50400001928E-02 0. -1.
    10030    2    1    2    0    0  0.00000000000E+00  0.00000000000E+00 -0.65690899634E+03  0.17236550380E+04  0.15935674635E+04 0.  0.
        4    1    3    3  502    0  0.15468647052E+03  0.77787738116E+03 -0.41112393677E+03  0.89333399609E+03  0.12699999809E+01 0.  1.
       -4    1    3    3    0  502 -0.15468647052E+03 -0.77787738116E+03 -0.24578505957E+03  0.83032104194E+03  0.12699999809E+01 0. -1.
</event>
<event>
 5   0  0.1819811E-04  0.1587211E+04  0.7818609E-02  0.8828443E-01
       -1   -1    0    0    0  501  0.00000000000E+00  0.00000000000E+00  0.11986049731E+04  0.11986049731E+04  0.50400001928E-02 0. -1.
        1   -1    0    0  501    0  0.00000000000E+00  0.00000000000E+00 -0.52545230762E+03  0.52545230765E+03  0.50400001928E-02 0.  1.
    10030    2    1    2    0    0  0.00000000000E+00  0.00000000000E+00  0.67315266544E+03  0.17240572807E+04  0.15872110749E+04 0.  0.
        1    1    3    3  502    0 -0.38507924038E+03  0.59256581468E+03 -0.55651390781E+02  0.70888457694E+03  0.50400001928E-02 0.  1.
       -1    1    3    3    0  502  0.38507924038E+03 -0.59256581468E+03  0.72880405622E+03  0.10151727038E+04  0.50400001928E-02 0. -1.
</event>
<event>
 5   0  0.1736537E-04  0.1594809E+04  0.7818609E-02  0.8823744E-01
        1   -1    0    0  501    0  0.00000000000E+00  0.00000000000E+00  0.76731723314E+03  0.76731723316E+03  0.50400001928E-02 0.  1.
       -1   -1    0    0    0  501  0.00000000000E+00  0.00000000000E+00 -0.82867125937E+03  0.82867125939E+03  0.50400001928E-02 0. -1.
    10030    2    1    2    0    0  0.00000000000E+00  0.00000000000E+00 -0.61354026230E+02  0.15959884925E+04  0.15948087509E+04 0.  0.
        3    1    3    3  502    0 -0.66855293153E+03 -0.22930441922E+03  0.33879819748E+03  0.78379064025E+03  0.10100000352E+00 0.  1.
       -3    1    3    3    0  502  0.66855293153E+03  0.22930441922E+03 -0.40015222371E+03  0.81219785229E+03  0.10100000352E+00 0. -1.
</event>
<event>
 5   0  0.1736537E-04  0.1586583E+04  0.7818609E-02  0.8828833E-01
       -1   -1    0    0    0  501  0.00000000000E+00  0.00000000000E+00  0.11951531944E+04  0.11951531945E+04  0.50400001928E-02 0. -1.
        1   -1    0    0  501    0  0.00000000000E+00  0.00000000000E+00 -0.52655282562E+03  0.52655282564E+03  0.50400001928E-02 0.  1.
    10030    2    1    2    0    0  0.00000000000E+00  0.00000000000E+00  0.66860036883E+03  0.17217060201E+04  0.15865828584E+04 0.  0.
        3    1    3    3  502    0  0.16834885997E+03  0.34853736174E+03  0.10857271303E+04  0.11526591182E+04  0.10100000352E+00 0. -1.
       -3    1    3    3    0  502 -0.16834885997E+03 -0.34853736174E+03 -0.41712676147E+03  0.56904690186E+03  0.10100000352E+00 0.  1.
</event>
<event>
 5   0  0.3263294E-04  0.1570751E+04  0.7818609E-02  0.8838721E-01
        2   -1    0    0  501    0  0.00000000000E+00  0.00000000000E+00  0.12953492162E+04  0.12953492162E+04  0.25500000920E-02 0. -1.
       -2   -1    0    0    0  501  0.00000000000E+00  0.00000000000E+00 -0.47617662052E+03  0.47617662053E+03  0.25500000920E-02 0.  1.
    10030    2    1    2    0    0  0.00000000000E+00  0.00000000000E+00  0.81917259563E+03  0.17715258367E+04  0.15707514280E+04 0.  0.
        4    1    3    3  502    0 -0.66203636672E+03 -0.35071442694E+03  0.67533261577E+03  0.10086468733E+04  0.12699999809E+01 0.  1.
       -4    1    3    3    0  502  0.66203636672E+03  0.35071442694E+03  0.14383997986E+03  0.76287896342E+03  0.12699999809E+01 0. -1.
</event>
<event>
 5   0  0.1761255E-04  0.1600916E+04  0.7818609E-02  0.8819985E-01
        1   -1    0    0  501    0  0.00000000000E+00  0.00000000000E+00  0.76322025467E+03  0.76322025468E+03  0.50400001928E-02 0. -1.
       -1   -1    0    0    0  501  0.00000000000E+00  0.00000000000E+00 -0.83951276979E+03  0.83951276980E+03  0.50400001928E-02 0.  1.
    10030    2    1    2    0    0  0.00000000000E+00  0.00000000000E+00 -0.76292515120E+02  0.16027330245E+04  0.16009161752E+04 0.  0.
        2    1    3    3  502    0  0.70351006919E+03  0.84842068212E+02 -0.41087047589E+03  0.81910874855E+03  0.25500000920E-02 0.  1.
       -2    1    3    3    0  502 -0.70351006919E+03 -0.84842068212E+02  0.33457796077E+03  0.78362427593E+03  0.25500000920E-02 0. -1.
</event>
<event>
 5   0  0.1787688E-04  0.1598063E+04  0.7818609E-02  0.8821739E-01
        1   -1    0    0  501    0  0.00000000000E+00  0.00000000000E+00  0.72032822772E+03  0.72032822774E+03  0.50400001928E-02 0.  1.
       -1   -1    0    0    0  501  0.00000000000E+00  0.00000000000E+00 -0.88633384337E+03  0.88633384339E+03  0.50400001928E-02 0. -1.
    10030    2    1    2    0    0  0.00000000000E+00  0.00000000000E+00 -0.16600561565E+03  0.16066620711E+04  0.15980629357E+04 0.  0.
        4    1    3    3  502    0 -0.35025958160E+03  0.14226700678E+03 -0.79072817312E+03  0.87645555072E+03  0.12699999809E+01 0. -1.
       -4    1    3    3    0  502  0.35025958160E+03 -0.14226700678E+03  0.62472255747E+03  0.73020652040E+03  0.12699999809E+01 0.  1.
</event>
<event>
 5   0  0.3263294E-04  0.1604005E+04  0.7818609E-02  0.8818091E-01
        2   -1    0    0  501    0  0.00000000000E+00  0.00000000000E+00  0.55605647384E+03  0.55605647385E+03  0.25500000920E-02 0.  1.
       -2   -1    0    0    0  501  0.00000000000E+00  0.00000000000E+00 -0.11567317351E+04  0.11567317351E+04  0.25500000920E-02 0. -1.
    10030    2    1    2    0    0  0.00000000000E+00  0.00000000000E+00 -0.60067526125E+03  0.17127882089E+04  0.16040051992E+04 0.  0.
        4    1    3    3  502    0  0.66091277734E+03 -0.39315589818E+03 -0.54343796353E+03  0.94164945316E+03  0.12699999809E+01 0.  1.
       -4    1    3    3    0  502 -0.66091277734E+03  0.39315589818E+03 -0.57237297719E+02  0.77113875579E+03  0.12699999809E+01 0. -1.
</event>
<event>
 5   0  0.3380454E-04  0.1594533E+04  0.7818609E-02  0.8823914E-01
        2   -1    0    0  501    0  0.00000000000E+00  0.00000000000E+00  0.12942656431E+04  0.12942656431E+04  0.25500000920E-02 0. -1.
       -2   -1    0    0    0  501  0.00000000000E+00  0.00000000000E+00 -0.49111528042E+03  0.49111528043E+03  0.25500000920E-02 0.  1.
    10030    2    1    2    0    0  0.00000000000E+00  0.00000000000E+00  0.80315036270E+03  0.17853809235E+04  0.15945327018E+04 0.  0.
        5    1    3    3  502    0  0.28053094246E+03  0.98055927762E+02 -0.42676699533E+03  0.52006223949E+03  0.46999998093E+01 0.  1.
       -5    1    3    3    0  502 -0.28053094246E+03 -0.98055927762E+02  0.12299173580E+04  0.12653186841E+04  0.46999998093E+01 0. -1.
</event>
<event>
 5   0  0.1787688E-04  0.1591133E+04  0.7818609E-02  0.8826014E-01
        1   -1    0    0  501    0  0.00000000000E+00  0.00000000000E+00  0.40659466790E+03  0.40659466793E+03  0.50400001928E-02 0. -1.
       -1   -1    0    0    0  501  0.00000000000E+00  0.00000000000E+00 -0.15566518625E+04  0.15566518625E+04  0.50400001928E-02 0.  1.
    10030    2    1    2    0    0  0.00000000000E+00  0.00000000000E+00 -0.11500571946E+04  0.19632465304E+04  0.15911333660E+04 0.  0.
        4    1    3    3  502    0 -0.45433670448E+03  0.23112273432E+03  0.17862582462E+03  0.54013735057E+03  0.12699999809E+01 0. -1.
       -4    1    3    3    0  502  0.45433670448E+03 -0.23112273432E+03 -0.13286830192E+04  0.14231091798E+04  0.12699999809E+01 0.  1.
</event>
<event>
 5   0  0.3263294E-04  0.1597000E+04  0.7818609E-02  0.8822393E-01
        2   -1    0    0  501    0  0.00000000000E+00  0.00000000000E+00  0.15144636724E+04  0.15144636724E+04  0.25500000920E-02 0.  1.
       -2   -1    0    0    0  501  0.00000000000E+00  0.00000000000E+00 -0.42100886928E+03  0.42100886929E+03  0.25500000920E-02 0. -1.
    10030    2    1    2    0    0  0.00000000000E+00  0.00000000000E+00  0.10934548031E+04  0.19354725417E+04  0.15970004863E+04 0.  0.
        4    1    3    3  502    0  0.12350991173E+03 -0.51442665375E+03  0.12715779045E+04  0.13772441543E+04  0.12699999809E+01 0.  1.
       -4    1    3    3    0  502 -0.12350991173E+03  0.51442665375E+03 -0.17812310138E+03  0.55822838742E+03  0.12699999809E+01 0. -1.
</event>
<event>
 5   0  0.3274900E-04  0.1605116E+04  0.7818609E-02  0.8817411E-01
        2   -1    0    0  501    0  0.00000000000E+00  0.00000000000E+00  0.13752150871E+04  0.13752150871E+04  0.25500000920E-02 0.  1.
       -2   -1    0    0    0  501  0.00000000000E+00  0.00000000000E+00 -0.46836239558E+03  0.46836239559E+03  0.25500000920E-02 0. -1.
    10030    2    1    2    0    0  0.00000000000E+00  0.00000000000E+00  0.90685269155E+03  0.18435774827E+04  0.16051156129E+04 0.  0.
        3    1    3    3  502    0  0.10553824687E+03 -0.42535477564E+03 -0.31879292341E+03  0.54193536970E+03  0.10100000352E+00 0. -1.
       -3    1    3    3    0  502 -0.10553824687E+03  0.42535477564E+03  0.12256456150E+04  0.13016421130E+04  0.10100000352E+00 0.  1.
</event>
<event>
 5   0  0.1764099E-04  0.1621439E+04  0.7818609E-02  0.8807484E-01
        1   -1    0    0  501    0  0.00000000000E+00  0.00000000000E+00  0.71564982474E+03  0.71564982475E+03  0.50400001928E-02 0.  1.
       -1   -1    0    0    0  501  0.00000000000E+00  0.00000000000E+00 -0.91841888744E+03  0.91841888745E+03  0.50400001928E-02 0. -1.
    10030    2    1    2    0    0  0.00000000000E+00  0.00000000000E+00 -0.20276906270E+03  0.16340687122E+04  0.16214392568E+04 0.  0.
        5    1    3    3  502    0  0.40881401561E+03 -0.28998265202E+03 -0.74354893188E+03  0.89671954475E+03  0.46999998093E+01 0. -1.
       -5    1    3    3    0  502 -0.40881401561E+03  0.28998265202E+03  0.54077986918E+03  0.73734916745E+03  0.46999998093E+01 0.  1.
</event>
<event>
 5   0  0.3210612E-04  0.1582683E+04  0.7818609E-02  0.8831258E-01
       -2   -1    0    0    0  501  0.00000000000E+00  0.00000000000E+00  0.36652921142E+03  0.36652921143E+03  0.25500000920E-02 0.  1.
        2   -1    0    0  501    0  0.00000000000E+00  0.00000000000E+00 -0.17085168135E+04  0.17085168135E+04  0.25500000920E-02 0. -1.
    10030    2    1    2    0    0  0.00000000000E+00  0.00000000000E+00 -0.13419876021E+04  0.20750460249E+04  0.15826829378E+04 0.  0.
        2    1    3    3  502    0  0.27648997602E+03 -0.28095604633E+02  0.30044210490E+03  0.40926950564E+03  0.25500000920E-02 0.  1.
       -2    1    3    3    0  502 -0.27648997602E+03  0.28095604633E+02 -0.16424297070E+04  0.16657765193E+04  0.25500000920E-02 0. -1.
</event>
<event>
 5   0  0.1219463E-04  0.1630757E+04  0.7818609E-02  0.8801873E-01
        3   -1    0    0  501    0  0.00000000000E+00  0.00000000000E+00  0.12725642038E+04  0.12725642078E+04  0.10100000352E+00 0.  1.
       -3   -1    0    0    0  501  0.00000000000E+00  0.00000000000E+00 -0.52244261857E+03  0.52244262833E+03  0.10100000352E+00 0. -1.
    10030    2    1    2    0    0  0.00000000000E+00  0.00000000000E+00  0.75012158526E+03  0.17950068362E+04  0.16307566186E+04 0.  0.
        2    1    3    3  502    0 -0.18415578149E+03  0.70834695699E+03  0.77066679320E+03  0.10628245714E+04  0.25500000920E-02 0.  1.
       -2    1    3    3    0  502  0.18415578149E+03 -0.70834695699E+03 -0.20545207941E+02  0.73218226481E+03  0.25500000920E-02 0. -1.
</event>
<event>
 5   0  0.3210612E-04  0.1459754E+04  0.7818609E-02  0.8911666E-01
       -2   -1    0    0    0  501  0.00000000000E+00  0.00000000000E+00  0.44493300169E+03  0.44493300170E+03  0.25500000920E-02 0. -1.
        2   -1    0    0  501    0  0.00000000000E+00  0.00000000000E+00 -0.11973053916E+04  0.11973053916E+04  0.25500000920E-02 0.  1.
    10030    2    1    2    0    0  0.00000000000E+00  0.00000000000E+00 -0.75237238994E+03  0.16422383933E+04  0.14597543380E+04 0.  0.
        2    1    3    3  502    0 -0.61525738379E+03 -0.32014738476E+03 -0.12042340200E+03  0.70394445238E+03  0.25500000920E-02 0.  1.
       -2    1    3    3    0  502  0.61525738379E+03  0.32014738476E+03 -0.63194898794E+03  0.93829394096E+03  0.25500000920E-02 0. -1.
</event>
<event>
 5   0  0.1736537E-04  0.1600135E+04  0.7818609E-02  0.8820465E-01
       -1   -1    0    0    0  501  0.00000000000E+00  0.00000000000E+00  0.80611867293E+03  0.80611867295E+03  0.50400001928E-02 0. -1.
        1   -1    0    0  501    0  0.00000000000E+00  0.00000000000E+00 -0.79406183538E+03  0.79406183540E+03  0.50400001928E-02 0.  1.
    10030    2    1    2    0    0  0.00000000000E+00  0.00000000000E+00  0.12056837552E+02  0.16001805083E+04  0.16001350855E+04 0.  0.
        3    1    3    3  502    0  0.30897179764E+03 -0.23509473030E+03  0.70560167646E+03  0.80536131020E+03  0.10100000352E+00 0. -1.
       -3    1    3    3    0  502 -0.30897179764E+03  0.23509473030E+03 -0.69354483891E+03  0.79481919814E+03  0.10100000352E+00 0.  1.
</event>
<event>
 5   0  0.3274900E-04  0.1600853E+04  0.7818609E-02  0.8820024E-01
       -2   -1    0    0    0  501  0.00000000000E+00  0.00000000000E+00  0.49001984939E+03  0.49001984940E+03  0.25500000920E-02 0.  1.
        2   -1    0    0  501    0  0.00000000000E+00  0.00000000000E+00 -0.13074626800E+04  0.13074626800E+04  0.25500000920E-02 0. -1.
    10030    2    1    2    0    0  0.00000000000E+00  0.00000000000E+00 -0.81744283063E+03  0.17974825294E+04  0.16008531045E+04 0.  0.
        3    1    3    3  502    0 -0.49405377604E+03 -0.11723082361E+03  0.28602734356E+03  0.58278971429E+03  0.10100000352E+00 0.  1.
       -3    1    3    3    0  502  0.49405377604E+03  0.11723082361E+03 -0.11034701742E+04  0.12146928151E+04  0.10100000352E+00 0. -1.
</event>
<event>
 5   0  0.1761255E-04  0.1610000E+04  0.7818609E-02  0.8814428E-01
       -1   -1    0    0    0  501  0.00000000000E+00  0.00000000000E+00  0.72706303391E+03  0.72706303393E+03  0.50400001928E-02 0.  1.
        1   -1    0    0  501    0  0.00000000000E+00  0.00000000000E+00 -0.89129125087E+03  0.89129125088E+03  0.50400001928E-02 0. -1.
    10030    2    1    2    0    0  0.00000000000E+00  0.00000000000E+00 -0.16422821696E+03  0.16183542848E+04  0.16099999018E+04 0.  0.
        2    1    3    3  502    0  0.80338375213E+03  0.50337689493E+02 -0.73973640556E+02  0.80835105967E+03  0.25500000920E-02 0. -1.
       -2    1    3    3    0  502 -0.80338375213E+03 -0.50337689493E+02 -0.90254576399E+02  0.81000322514E+03  0.25500000920E-02 0.  1.
</event>
<event>
 5   0  0.1819811E-04  0.1586166E+04  0.7818609E-02  0.8829092E-01
        1   -1    0    0  501    0  0.00000000000E+00  0.00000000000E+00  0.16313833980E+04  0.16313833980E+04  0.50400001928E-02 0. -1.
       -1   -1    0    0    0  501  0.00000000000E+00  0.00000000000E+00 -0.38555071227E+03  0.38555071230E+03  0.50400001928E-02 0.  1.
    10030    2    1    2    0    0  0.00000000000E+00  0.00000000000E+00  0.12458326857E+04  0.20169341103E+04  0.15861664870E+04 0.  0.
        1    1    3    3  502    0 -0.78605334353E+03  0.89190430505E+02  0.69424085654E+03  0.10525232343E+04  0.50400001928E-02 0. -1.
       -1    1    3    3    0  502  0.78605334353E+03 -0.89190430505E+02  0.55159182919E+03  0.96441087603E+03  0.50400001928E-02 0.  1.
</event>
<event>
 5   0  0.3210612E-04  0.1590299E+04  0.7818609E-02  0.8826530E-01
       -2   -1    0    0    0  501  0.00000000000E+00  0.00000000000E+00  0.43065303305E+03  0.43065303305E+03  0.25500000920E-02 0.  1.
        2   -1    0    0  501    0  0.00000000000E+00  0.00000000000E+00 -0.14681489493E+04  0.14681489493E+04  0.25500000920E-02 0. -1.
    10030    2    1    2    0    0  0.00000000000E+00  0.00000000000E+00 -0.10374959163E+04  0.18988019824E+04  0.15902990888E+04 0.  0.
        2    1    3    3  502    0 -0.52756538691E+01  0.77175382299E+03 -0.29022740504E+03  0.82453850272E+03  0.25500000920E-02 0.  1.
       -2    1    3    3    0  502  0.52756538691E+01 -0.77175382299E+03 -0.74726851123E+03  0.10742634796E+04  0.25500000920E-02 0. -1.
</event>
<event>
 5   0  0.1736537E-04  0.1624265E+04  0.7818609E-02  0.8805778E-01
       -1   -1    0    0    0  501  0.00000000000E+00  0.00000000000E+00  0.86240712982E+03  0.86240712983E+03  0.50400001928E-02 0. -1.
        1   -1    0    0  501    0  0.00000000000E+00  0.00000000000E+00 -0.76478842110E+03  0.76478842112E+03  0.50400001928E-02 0.  1.
    10030    2    1    2    0    0  0.00000000000E+00  0.00000000000E+00  0.97618708720E+02  0.16271955509E+04  0.16242647410E+04 0.  0.
        3    1    3    3  502    0 -0.14891817400E+03 -0.94274309690E+02  0.84301641593E+03  0.86124384221E+03  0.10100000352E+00 0. -1.
       -3    1    3    3    0  502  0.14891817400E+03  0.94274309690E+02 -0.74539770721E+03  0.76595170874E+03  0.10100000352E+00 0.  1.
</event>
<event>
 5   0  0.3263294E-04  0.1597124E+04  0.7818609E-02  0.8822317E-01
        2   -1    0    0  501    0  0.00000000000E+00  0.00000000000E+00  0.77454793505E+03  0.77454793506E+03  0.25500000920E-02 0. -1.
       -2   -1    0    0    0  501  0.00000000000E+00  0.00000000000E+00 -0.82332095986E+03  0.82332095986E+03  0.25500000920E-02 0.  1.
    10030    2    1    2    0    0  0.00000000000E+00  0.00000000000E+00 -0.48773024806E+02  0.15978688949E+04  0.15971243525E+04 0.  0.
        4    1    3    3  502    0 -0.24499929491E+03 -0.70862312246E+03 -0.29933921379E+03  0.80732704773E+03  0.12699999809E+01 0.  1.
       -4    1    3    3    0  502  0.24499929491E+03  0.70862312246E+03  0.25056618898E+03  0.79054184719E+03  0.12699999809E+01 0. -1.
</event>
<event>
 5   0  0.3274900E-04  0.1605001E+04  0.7818609E-02  0.8817481E-01
        2   -1    0    0  501    0  0.00000000000E+00  0.00000000000E+00  0.11425152947E+04  0.11425152947E+04  0.25500000920E-02 0.  1.
       -2   -1    0    0    0  501  0.00000000000E+00  0.00000000000E+00 -0.56367494887E+03  0.56367494887E+03  0.25500000920E-02 0. -1.
    10030    2    1    2    0    0  0.00000000000E+00  0.00000000000E+00  0.57884034585E+03  0.17061902436E+04  0.16050012465E+04 0.  0.
        3    1    3    3  502    0  0.66588955013E+03 -0.26517013046E+03 -0.94283718624E+02  0.72292013450E+03  0.10100000352E+00 0. -1.
       -3    1    3    3    0  502 -0.66588955013E+03  0.26517013046E+03  0.67312406447E+03  0.98327010909E+03  0.10100000352E+00 0.  1.
</event>
<event>
 5   0  0.3380454E-04  0.1613681E+04  0.7818609E-02  0.8812187E-01
        2   -1    0    0  501    0  0.00000000000E+00  0.00000000000E+00  0.66509904275E+03  0.66509904275E+03  0.25500000920E-02 0.  1.
       -2   -1    0    0    0  501  0.00000000000E+00  0.00000000000E+00 -0.97878944110E+03  0.97878944110E+03  0.25500000920E-02 0. -1.
    10030    2    1    2    0    0  0.00000000000E+00  0.00000000000E+00 -0.31369039835E+03  0.16438884839E+04  0.16136814064E+04 0.  0.
        5    1    3    3  502    0  0.10289361122E+03 -0.32425814603E+02  0.65770441476E+03  0.66651010185E+03  0.46999998093E+01 0.  1.
       -5    1    3    3    0  502 -0.10289361122E+03  0.32425814603E+02 -0.97139481311E+03  0.97737838200E+03  0.46999998093E+01 0. -1.
</event>
<event>
 5   0  0.1787688E-04  0.1588881E+04  0.7818609E-02  0.8827408E-01
       -1   -1    0    0    0  501  0.00000000000E+00  0.00000000000E+00  0.63797402035E+03  0.63797402037E+03  0.50400001928E-02 0.  1.
        1   -1    0    0  501    0  0.00000000000E+00  0.00000000000E+00 -0.98928099709E+03  0.98928099710E+03  0.50400001928E-02 0. -1.
    10030    2    1    2    0    0  0.00000000000E+00  0.00000000000E+00 -0.35130697674E+03  0.16272550175E+04  0.15888808325E+04 0.  0.
        4    1    3    3  502    0 -0.38079534808E+03  0.59233068755E+03 -0.55233144848E+03  0.89494825683E+03  0.12699999809E+01 0.  1.
       -4    1    3    3    0  502  0.38079534808E+03 -0.59233068755E+03  0.20102447174E+03  0.73230676063E+03  0.12699999809E+01 0. -1.
</event>
<event>
 5   0  0.1736537E-04  0.1593898E+04  0.7818609E-02  0.8824306E-01
       -1   -1    0    0    0  501  0.00000000000E+00  0.00000000000E+00  0.40135153447E+03  0.40135153451E+03  0.50400001928E-02 0.  1.
        1   -1    0    0  501    0  0.00000000000E+00  0.00000000000E+00 -0.15824715458E+04  0.15824715458E+04  0.50400001928E-02 0. -1.
    10030    2    1    2    0    0  0.00000000000E+00  0.00000000000E+00 -0.11811200113E+04  0.19838230803E+04  0.15938975917E+04 0.  0.
        3    1    3    3  502    0 -0.66965464607E+03  0.20759661818E+02 -0.11277169972E+04  0.13117217481E+04  0.10100000352E+00 0. -1.
       -3    1    3    3    0  502  0.66965464607E+03 -0.20759661818E+02 -0.53403014107E+02  0.67210133215E+03  0.10100000352E+00 0.  1.
</event>
<event>
 5   0  0.1764099E-04  0.1633790E+04  0.7818609E-02  0.8800055E-01
       -1   -1    0    0    0  501  0.00000000000E+00  0.00000000000E+00  0.13318466782E+04  0.13318466782E+04  0.50400001928E-02 0.  1.
        1   -1    0    0  501    0  0.00000000000E+00  0.00000000000E+00 -0.50104647172E+03  0.50104647174E+03  0.50400001928E-02 0. -1.
    10030    2    1    2    0    0  0.00000000000E+00  0.00000000000E+00  0.83080020647E+03  0.18328931499E+04  0.16337895568E+04 0.  0.
        5    1    3    3  502    0  0.30929767865E+03  0.13333805530E+03 -0.41950567071E+03  0.53800668097E+03  0.46999998093E+01 0. -1.
       -5    1    3    3    0  502 -0.30929767865E+03 -0.13333805530E+03  0.12503058772E+04  0.12948864690E+04  0.46999998093E+01 0.  1.
</event>
<event>
 5   0  0.3263294E-04  0.1606037E+04  0.7818609E-02  0.8816848E-01
        2   -1    0    0  501    0  0.00000000000E+00  0.00000000000E+00  0.21486586917E+04  0.21486586917E+04  0.25500000920E-02 0. -1.
       -2   -1    0    0    0  501  0.00000000000E+00  0.00000000000E+00 -0.30011211686E+03  0.30011211687E+03  0.25500000920E-02 0.  1.
    10030    2    1    2    0    0  0.00000000000E+00  0.00000000000E+00  0.18485465749E+04  0.24487708086E+04  0.16060367473E+04 0.  0.
        4    1    3    3  502    0  0.74261382897E+03  0.27046705157E+03  0.11410271802E+04  0.13880102175E+04  0.12699999809E+01 0. -1.
       -4    1    3    3    0  502 -0.74261382897E+03 -0.27046705157E+03  0.70751939466E+03  0.10607605911E+04  0.12699999809E+01 0.  1.
</event>
<event>
 5   0  0.3228393E-04  0.1588419E+04  0.7818609E-02  0.8827694E-01
       -2   -1    0    0    0  501  0.00000000000E+00  0.00000000000E+00  0.42809757555E+03  0.42809757556E+03  0.25500000920E-02 0. -1.
        2   -1    0    0  501    0  0.00000000000E+00  0.00000000000E+00 -0.14734228622E+04  0.14734228622E+04  0.25500000920E-02 0.  1.
    10030    2    1    2    0    0  0.00000000000E+00  0.00000000000E+00 -0.10453252866E+04  0.19015204378E+04  0.15884190317E+04 0.  0.
        1    1    3    3  502    0 -0.66044802858E+03  0.17464205491E+03 -0.37753717504E+02  0.68419060868E+03  0.50400001928E-02 0. -1.
       -1    1    3    3    0  502  0.66044802858E+03 -0.17464205491E+03 -0.10075715691E+04  0.12173298291E+04  0.50400001928E-02 0.  1.
</event>
<event>
 5   0  0.3380454E-04  0.1615982E+04  0.7818609E-02  0.8810789E-01
       -2   -1    0    0    0  501  0.00000000000E+00  0.00000000000E+00  0.15631347673E+04  0.15631347673E+04  0.25500000920E-02 0. -1.
        2   -1    0    0  501    0  0.00000000000E+00  0.00000000000E+00 -0.41765398115E+03  0.41765398116E+03  0.25500000920E-02 0.  1.
    10030    2    1    2    0    0  0.00000000000E+00  0.00000000000E+00  0.11454807861E+04  0.19807887484E+04  0.16159820032E+04 0.  0.
        5    1    3    3  502    0 -0.43683023594E+03 -0.17895009509E+03  0.13765025871E+04  0.14552062582E+04  0.46999998093E+01 0. -1.
       -5    1    3    3    0  502  0.43683023594E+03  0.17895009509E+03 -0.23102180096E+03  0.52558249027E+03  0.46999998093E+01 0.  1.
</event>
<event>
 5   0  0.3263294E-04  0.1599776E+04  0.7818609E-02  0.8820686E-01
        2   -1    0    0  501    0  0.00000000000E+00  0.00000000000E+00  0.10047096195E+04  0.10047096195E+04  0.25500000920E-02 0. -1.
       -2   -1    0    0    0  501  0.00000000000E+00  0.00000000000E+00 -0.63682160618E+03  0.63682160618E+03  0.25500000920E-02 0.  1.
    10030    2    1    2    0    0  0.00000000000E+00  0.00000000000E+00  0.36788801336E+03  0.16415312257E+04  0.15997759764E+04 0.  0.
        4    1    3    3  502    0  0.24402593219E+03  0.46426016430E+03  0.80363833590E+03  0.95964698904E+03  0.12699999809E+01 0. -1.
       -4    1    3    3    0  502 -0.24402593219E+03 -0.46426016430E+03 -0.43575032255E+03  0.68188423668E+03  0.12699999809E+01 0.  1.
</event>
<event>
 5   0  0.3210612E-04  0.1579678E+04  0.7818609E-02  0.8833131E-01
        2   -1    0    0  501    0  0.00000000000E+00  0.00000000000E+00  0.26436880211E+04  0.26436880211E+04  0.25500000920E-02 0. -1.
       -2   -1    0    0    0  501  0.00000000000E+00  0.00000000000E+00 -0.23597561294E+03  0.23597561295E+03  0.25500000920E-02 0.  1.
    10030    2    1    2    0    0  0.00000000000E+00  0.00000000000E+00  0.24077124081E+04  0.28796636340E+04  0.15796783232E+04 0.  0.
        2    1    3    3  502    0  0.54288556955E+03 -0.35680375171E+03  0.38492606037E+03  0.75511703120E+03  0.25500000920E-02 0.  1.
       -2    1    3    3    0  502 -0.54288556955E+03  0.35680375171E+03  0.20227863478E+04  0.21245466028E+04  0.25500000920E-02 0. -1.
</event>
<event>
 5   0  0.3380454E-04  0.1617988E+04  0.7818609E-02  0.8809573E-01
       -2   -1    0    0    0  501  0.00000000000E+00  0.00000000000E+00  0.38646058762E+03  0.38646058763E+03  0.25500000920E-02 0. -1.
        2   -1    0    0  501    0  0.00000000000E+00  0.00000000000E+00 -0.16935006111E+04  0.16935006111E+04  0.25500000920E-02 0.  1.
    10030    2    1    2    0    0  0.00000000000E+00  0.00000000000E+00 -0.13070400234E+04  0.20799611987E+04  0.16179879373E+04 0.  0.
        5    1    3    3  502    0 -0.68197373456E+02 -0.66974946316E+03 -0.12301942547E+04  0.14023605882E+04  0.46999998093E+01 0.  1.
       -5    1    3    3    0  502  0.68197373456E+02  0.66974946316E+03 -0.76845768776E+02  0.67760061048E+03  0.46999998093E+01 0. -1.
</event>
<event>
 5   0  0.3380454E-04  0.1605465E+04  0.7818609E-02  0.8817198E-01
        2   -1    0    0  501    0  0.00000000000E+00  0.00000000000E+00  0.64776668389E+03  0.64776668389E+03  0.25500000920E-02 0.  1.
       -2   -1    0    0    0  501  0.00000000000E+00  0.00000000000E+00 -0.99477048160E+03  0.99477048160E+03  0.25500000920E-02 0. -1.
    10030    2    1    2    0    0  0.00000000000E+00  0.00000000000E+00 -0.34700379771E+03  0.16425371655E+04  0.16054646382E+04 0.  0.
        5    1    3    3  502    0  0.53177654351E+03 -0.25524665051E+03  0.38351474117E+03  0.70359277392E+03  0.46999998093E+01 0.  1.
       -5    1    3    3    0  502 -0.53177654351E+03  0.25524665051E+03 -0.73051853888E+03  0.93894439157E+03  0.46999998093E+01 0. -1.
</event>
<event>
 5   0  0.1761255E-04  0.1599286E+04  0.7818609E-02  0.8820987E-01
       -1   -1    0    0    0  501  0.00000000000E+00  0.00000000000E+00  0.80538373569E+03  0.80538373571E+03  0.50400001928E-02 0. -1.
        1   -1    0    0  501    0  0.00000000000E+00  0.00000000000E+00 -0.79394300701E+03  0.79394300703E+03  0.50400001928E-02 0.  1.
    10030    2    1    2    0    0  0.00000000000E+00  0.00000000000E+00  0.11440728682E+02  0.15993267427E+04  0.15992858218E+04 0.  0.
        2    1    3    3  502    0  0.52795532503E+03 -0.54041159698E+03  0.26773330019E+03  0.80153767187E+03  0.25500000920E-02 0. -1.
       -2    1    3    3    0  502 -0.52795532503E+03  0.54041159698E+03 -0.25629257150E+03  0.79778907087E+03  0.25500000920E-02 0.  1.
</event>
<event>
 5   0  0.1761255E-04  0.1596638E+04  0.7818609E-02  0.8822616E-01
        1   -1    0    0  501    0  0.00000000000E+00  0.00000000000E+00  0.12856347130E+04  0.12856347130E+04  0.50400001928E-02 0.  1.
       -1   -1    0    0    0  501  0.00000000000E+00  0.00000000000E+00 -0.49571901551E+03  0.49571901553E+03  0.50400001928E-02 0. -1.
    10030    2    1    2    0    0  0.00000000000E+00  0.00000000000E+00  0.78991569752E+03  0.17813537286E+04  0.15966384366E+04 0.  0.
        2    1    3    3  502    0  0.26470630047E+03  0.22763750855E+03 -0.40603097978E+03  0.53548988539E+03  0.25500000920E-02 0. -1.
       -2    1    3    3    0  502 -0.26470630047E+03 -0.22763750855E+03  0.11959466773E+04  0.12458638432E+04  0.25500000920E-02 0.  1.
</event>
<event>
 5   0  0.1219463E-04  0.1603075E+04  0.7818609E-02  0.8818661E-01
       -4   -1    0    0    0  501  0.00000000000E+00  0.00000000000E+00  0.51133907359E+03  0.51134065072E+03  0.12699999809E+01 0.  1.
        4   -1    0    0  501    0  0.00000000000E+00  0.00000000000E+00 -0.12564276817E+04  0.12564283236E+04  0.12699999809E+01 0. -1.
    10030    2    1    2    0    0  0.00000000000E+00  0.00000000000E+00 -0.74508860811E+03  0.17677689743E+04  0.16030752049E+04 0.  0.
        1    1    3    3  502    0 -0.37881593704E+03 -0.22545758092E+03 -0.11107435006E+04  0.11950245851E+04  0.50400001928E-02 0. -1.
       -1    1    3    3    0  502  0.37881593704E+03  0.22545758092E+03  0.36565489244E+03  0.57274438918E+03  0.50400001928E-02 0.  1.
</event>
<event>
 5   0  0.1764099E-04  0.1598659E+04  0.7818609E-02  0.8821372E-01
       -1   -1    0    0    0  501  0.00000000000E+00  0.00000000000E+00  0.41550519678E+03  0.41550519681E+03  0.50400001928E-02 0.  1.
        1   -1    0    0  501    0  0.00000000000E+00  0.00000000000E+00 -0.15377128430E+04  0.15377128430E+04  0.50400001928E-02 0. -1.
    10030    2    1    2    0    0  0.00000000000E+00  0.00000000000E+00 -0.11222076463E+04  0.19532180399E+04  0.15986590349E+04 0.  0.
        5    1    3    3  502    0  0.71469868604E+03 -0.16973652315E+03 -0.94611332441E+03  0.11978135129E+04  0.46999998093E+01 0. -1.
       -5    1    3    3    0  502 -0.71469868604E+03  0.16973652315E+03 -0.17609432184E+03  0.75540452693E+03  0.46999998093E+01 0.  1.
</event>
<event>
 5   0  0.3274900E-04  0.1607386E+04  0.7818609E-02  0.8816024E-01
        2   -1    0    0  501    0  0.00000000000E+00  0.00000000000E+00  0.84641438119E+03  0.84641438120E+03  0.25500000920E-02 0. -1.
       -2   -1    0    0    0  501  0.00000000000E+00  0.00000000000E+00 -0.76312744163E+03  0.76312744164E+03  0.25500000920E-02 0.  1.
    10030    2    1    2    0    0  0.00000000000E+00  0.00000000000E+00  0.83286939560E+02  0.16095418228E+04  0.16073855061E+04 0.  0.
        3    1    3    3  502    0  0.87361989100E+02 -0.79865396766E+03  0.20597332250E+02  0.80368186337E+03  0.10100000352E+00 0.  1.
       -3    1    3    3    0  502 -0.87361989100E+02  0.79865396766E+03  0.62689607310E+02  0.80585995947E+03  0.10100000352E+00 0. -1.
</event>
<event>
 5   0  0.1819811E-04  0.1598736E+04  0.7818609E-02  0.8821325E-01
       -1   -1    0    0    0  501  0.00000000000E+00  0.00000000000E+00  0.87744211303E+03  0.87744211304E+03  0.50400001928E-02 0.  1.
        1   -1    0    0  501    0  0.00000000000E+00  0.00000000000E+00 -0.72824102753E+03  0.72824102754E+03  0.50400001928E-02 0. -1.
    10030    2    1    2    0    0  0.00000000000E+00  0.00000000000E+00  0.14920108550E+03  0.16056831406E+04  0.15987361834E+04 0.  0.
        1    1    3    3  502    0 -0.53715130394E+03 -0.97916959566E+01  0.66908637317E+03  0.85808156688E+03  0.50400001928E-02 0.  1.
       -1    1    3    3    0  502  0.53715130394E+03  0.97916959566E+01 -0.51988528767E+03  0.74760157370E+03  0.50400001928E-02 0. -1.
</event>
<event>
 5   0  0.1761255E-04  0.1596568E+04  0.7818609E-02  0.8822659E-01
        1   -1    0    0  501    0  0.00000000000E+00  0.00000000000E+00  0.14972646388E+04  0.14972646388E+04  0.50400001928E-02 0. -1.
       -1   -1    0    0    0  501  0.00000000000E+00  0.00000000000E+00 -0.42561410766E+03  0.42561410769E+03  0.50400001928E-02 0.  1.
    10030    2    1    2    0    0  0.00000000000E+00  0.00000000000E+00  0.10716505311E+04  0.19228787464E+04  0.15965675096E+04 0.  0.
        2    1    3    3  502    0  0.31303373333E+03  0.48375771300E+03 -0.12958441091E+03  0.59059610789E+03  0.25500000920E-02 0.  1.
       -2    1    3    3    0  502 -0.31303373333E+03 -0.48375771300E+03  0.12012349420E+04  0.13322826386E+04  0.25500000920E-02 0. -1.
</event>
<event>
 5   0  0.1764099E-04  0.1597523E+04  0.7818609E-02  0.8822071E-01
        1   -1    0    0  501    0  0.00000000000E+00  0.00000000000E+00  0.12522147272E+04  0.12522147272E+04  0.50400001928E-02 0. -1.
       -1   -1    0    0    0  501  0.00000000000E+00  0.00000000000E+00 -0.50951302651E+03  0.50951302654E+03  0.50400001928E-02 0.  1.
    10030    2    1    2    0    0  0.00000000000E+00  0.00000000000E+00  0.74270170064E+03  0.17617277537E+04  0.15975227266E+04 0.  0.
        5    1    3    3  502    0  0.28774795595E+03 -0.46345360035E+03  0.10147679320E+04  0.11521129162E+04  0.46999998093E+01 0. -1.
       -5    1    3    3    0  502 -0.28774795595E+03  0.46345360035E+03 -0.27206623138E+03  0.60961483749E+03  0.46999998093E+01 0.  1.
</event>
<event>
 5   0  0.3210612E-04  0.1602339E+04  0.7818609E-02  0.8819113E-01
        2   -1    0    0  501    0  0.00000000000E+00  0.00000000000E+00  0.11137239400E+04  0.11137239400E+04  0.25500000920E-02 0. -1.
       -2   -1    0    0    0  501  0.00000000000E+00  0.00000000000E+00 -0.57632987991E+03  0.57632987991E+03  0.25500000920E-02 0.  1.
    10030    2    1    2    0    0  0.00000000000E+00  0.00000000000E+00  0.53739406014E+03  0.16900538200E+04  0.16023387714E+04 0.  0.
        2    1    3    3  502    0  0.41387613365E+03 -0.59164689581E+03  0.63488069147E+03  0.96146398567E+03  0.25500000920E-02 0. -1.
       -2    1    3    3    0  502 -0.41387613365E+03  0.59164689581E+03 -0.97486631338E+02  0.72858983428E+03  0.25500000920E-02 0.  1.
</event>
<event>
 5   0  0.3263294E-04  0.1580090E+04  0.7818609E-02  0.8832874E-01
       -2   -1    0    0    0  501  0.00000000000E+00  0.00000000000E+00  0.82471358354E+03  0.82471358355E+03  0.25500000920E-02 0.  1.
        2   -1    0    0  501    0  0.00000000000E+00  0.00000000000E+00 -0.75683331949E+03  0.75683331949E+03  0.25500000920E-02 0. -1.
    10030    2    1    2    0    0  0.00000000000E+00  0.00000000000E+00  0.67880264056E+02  0.15815469030E+04  0.15800895153E+04 0.  0.
        4    1    3    3  502    0 -0.60414227431E+02 -0.68226949776E+03 -0.36015842089E+03  0.77385867410E+03  0.12699999809E+01 0. -1.
       -4    1    3    3    0  502  0.60414227431E+02  0.68226949776E+03  0.42803868495E+03  0.80768822893E+03  0.12699999809E+01 0.  1.
</event>
<event>
 5   0  0.1736537E-04  0.1585739E+04  0.7818609E-02  0.8829357E-01
       -1   -1    0    0    0  501  0.00000000000E+00  0.00000000000E+00  0.11375778552E+04  0.11375778552E+04  0.50400001928E-02 0.  1.
        1   -1    0    0  501    0  0.00000000000E+00  0.00000000000E+00 -0.55261477225E+03  0.55261477228E+03  0.50400001928E-02 0. -1.
    10030    2    1    2    0    0  0.00000000000E+00  0.00000000000E+00  0.58496308298E+03  0.16901926275E+04  0.15857393574E+04 0.  0.
        3    1    3    3  502    0  0.52168179832E+03  0.48183549192E+03  0.66830474650E+03  0.97516592658E+03  0.10100000352E+00 0.  1.
       -3    1    3    3    0  502 -0.52168179832E+03 -0.48183549192E+03 -0.83341663518E+02  0.71502670094E+03  0.10100000352E+00 0. -1.
</event>
<event>
 5   0  0.3210612E-04  0.1611020E+04  0.7818609E-02  0.8813806E-01
        2   -1    0    0  501    0  0.00000000000E+00  0.00000000000E+00  0.12659918715E+04  0.12659918715E+04  0.25500000920E-02 0. -1.
       -2   -1    0    0    0  501  0.00000000000E+00  0.00000000000E+00 -0.51252017501E+03  0.51252017502E+03  0.25500000920E-02 0.  1.
    10030    2    1    2    0    0  0.00000000000E+00  0.00000000000E+00  0.75347169653E+03  0.17785120466E+04  0.16110200192E+04 0.  0.
        2    1    3    3  502    0 -0.28071704455E+03  0.94253212709E+02  0.12037243632E+04  0.12396120642E+04  0.25500000920E-02 0. -1.
       -2    1    3    3    0  502  0.28071704455E+03 -0.94253212709E+02 -0.45025266662E+03  0.53889998238E+03  0.25500000920E-02 0.  1.
</event>
<event>
 5   0  0.1764099E-04  0.1596726E+04  0.7818609E-02  0.8822562E-01
        1   -1    0    0  501    0  0.00000000000E+00  0.00000000000E+00  0.15758232291E+04  0.15758232291E+04  0.50400001928E-02 0.  1.
       -1   -1    0    0    0  501  0.00000000000E+00  0.00000000000E+00 -0.40447655563E+03  0.40447655566E+03  0.50400001928E-02 0. -1.
    10030    2    1    2    0    0  0.00000000000E+00  0.00000000000E+00  0.11713466735E+04  0.19802997848E+04  0.15967260905E+04 0.  0.
        5    1    3    3  502    0 -0.40360164968E+03  0.25457160249E+03  0.13794759930E+04  0.14596839033E+04  0.46999998093E+01 0.  1.
       -5    1    3    3    0  502  0.40360164968E+03 -0.25457160249E+03 -0.20812931948E+03  0.52061588147E+03  0.46999998093E+01 0. -1.
</event>
<event>
 5   0  0.1787688E-04  0.1611728E+04  0.7818609E-02  0.8813376E-01
        1   -1    0    0  501    0  0.00000000000E+00  0.00000000000E+00  0.20888040219E+04  0.20888040219E+04  0.50400001928E-02 0.  1.
       -1   -1    0    0    0  501  0.00000000000E+00  0.00000000000E+00 -0.31090350278E+03  0.31090350282E+03  0.50400001928E-02 0. -1.
    10030    2    1    2    0    0  0.00000000000E+00  0.00000000000E+00  0.17779005191E+04  0.23997075247E+04  0.16117276284E+04 0.  0.
        4    1    3    3  502    0  0.38146449493E+02  0.75977520733E+03  0.49305478536E+03  0.90654186420E+03  0.12699999809E+01 0. -1.
       -4    1    3    3    0  502 -0.38146449493E+02 -0.75977520733E+03  0.12848457337E+04  0.14931656605E+04  0.12699999809E+01 0.  1.
</event>
<event>
 5   0  0.1761255E-04  0.1555151E+04  0.7818609E-02  0.8848584E-01
       -1   -1    0    0    0  501  0.00000000000E+00  0.00000000000E+00  0.40020947652E+03  0.40020947655E+03  0.50400001928E-02 0. -1.
        1   -1    0    0  501    0  0.00000000000E+00  0.00000000000E+00 -0.15107678011E+04  0.15107678011E+04  0.50400001928E-02 0.  1.
    10030    2    1    2    0    0  0.00000000000E+00  0.00000000000E+00 -0.11105583246E+04  0.19109772777E+04  0.15551509134E+04 0.  0.
        2    1    3    3  502    0 -0.38400651921E+03 -0.62526721830E+03 -0.87145117572E+03  0.11392309918E+04  0.25500000920E-02 0.  1.
       -2    1    3    3    0  502  0.38400651921E+03  0.62526721830E+03 -0.23910714888E+03  0.77174628585E+03  0.25500000920E-02 0. -1.
</event>
<event>
 5   0  0.1764099E-04  0.1614228E+04  0.7818609E-02  0.8811855E-01
        1   -1    0    0  501    0  0.00000000000E+00  0.00000000000E+00  0.90024934900E+03  0.90024934901E+03  0.50400001928E-02 0. -1.
       -1   -1    0    0    0  501  0.00000000000E+00  0.00000000000E+00 -0.72361355794E+03  0.72361355796E+03  0.50400001928E-02 0.  1.
    10030    2    1    2    0    0  0.00000000000E+00  0.00000000000E+00  0.17663579106E+03  0.16238629070E+04  0.16142275360E+04 0.  0.
        5    1    3    3  502    0  0.21706843856E+03 -0.75348150428E+03  0.28065922696E+03  0.83285339405E+03  0.46999998093E+01 0. -1.
       -5    1    3    3    0  502 -0.21706843856E+03  0.75348150428E+03 -0.10402343590E+03  0.79100951292E+03  0.46999998093E+01 0.  1.
</event>
<event>
 5   0  0.1819811E-04  0.1596607E+04  0.7818609E-02  0.8822635E-01
        1   -1    0    0  501    0  0.00000000000E+00  0.00000000000E+00  0.61513062917E+03  0.61513062920E+03  0.50400001928E-02 0. -1.
       -1   -1    0    0    0  501  0.00000000000E+00  0.00000000000E+00 -0.10360217166E+04  0.10360217166E+04  0.50400001928E-02 0.  1.
    10030    2    1    2    0    0  0.00000000000E+00  0.00000000000E+00 -0.42089108742E+03  0.16511523458E+04  0.15966072659E+04 0.  0.
        1    1    3    3  502    0  0.28866049499E+02  0.46078045842E+03  0.46306132270E+03  0.65389423325E+03  0.50400001928E-02 0. -1.
       -1    1    3    3    0  502 -0.28866049499E+02 -0.46078045842E+03 -0.88395241012E+03  0.99725811255E+03  0.50400001928E-02 0.  1.
</event>
<event>
 5   0  0.3274900E-04  0.1606229E+04  0.7818609E-02  0.8816730E-01
       -2   -1    0    0    0  501  0.00000000000E+00  0.00000000000E+00  0.28733253291E+03  0.28733253292E+03  0.25500000920E-02 0.  1.
        2   -1    0    0  501    0  0.00000000000E+00  0.00000000000E+00 -0.22447616752E+04  0.22447616752E+04  0.25500000920E-02 0. -1.
    10030    2    1    2    0    0  0.00000000000E+00  0.00000000000E+00 -0.19574291423E+04  0.25320942081E+04  0.16062291965E+04 0.  0.
        3    1    3    3  502    0  0.50407221336E+03  0.36833519370E+03 -0.17751326829E+04  0.18817161485E+04  0.10100000352E+00 0. -1.
       -3    1    3    3    0  502 -0.50407221336E+03 -0.36833519370E+03 -0.18229645938E+03  0.65037805967E+03  0.10100000352E+00 0.  1.
</event>
<event>
 5   0  0.3274900E-04  0.1617733E+04  0.7818609E-02  0.8809728E-01
        2   -1    0    0  501    0  0.00000000000E+00  0.00000000000E+00  0.29277434674E+04  0.29277434674E+04  0.25500000920E-02 0. -1.
       -2   -1    0    0    0  501  0.00000000000E+00  0.00000000000E+00 -0.22347069040E+03  0.22347069042E+03  0.25500000920E-02 0.  1.
    10030    2    1    2    0    0  0.00000000000E+00  0.00000000000E+00  0.27042727770E+04  0.31512141578E+04  0.16177328012E+04 0.  0.
        3    1    3    3  502    0 -0.25328146168E+03 -0.60048526700E+03  0.22853726442E+04  0.23764810514E+04  0.10100000352E+00 0. -1.
       -3    1    3    3    0  502  0.25328146168E+03  0.60048526700E+03  0.41890013284E+03  0.77473310644E+03  0.10100000352E+00 0.  1.
</event>
<event>
 5   0  0.1764099E-04  0.1605649E+04  0.7818609E-02  0.8817085E-01
       -1   -1    0    0    0  501  0.00000000000E+00  0.00000000000E+00  0.57413503955E+03  0.57413503957E+03  0.50400001928E-02 0.  1.
        1   -1    0    0  501    0  0.00000000000E+00  0.00000000000E+00 -0.11226054763E+04  0.11226054764E+04  0.50400001928E-02 0. -1.
    10030    2    1    2    0    0  0.00000000000E+00  0.00000000000E+00 -0.54847043680E+03  0.16967405159E+04  0.16056489524E+04 0.  0.
        5    1    3    3  502    0  0.65512047548E+03  0.44716335016E+03 -0.40523226428E+03  0.89071498086E+03  0.46999998093E+01 0. -1.
       -5    1    3    3    0  502 -0.65512047548E+03 -0.44716335016E+03 -0.14323817252E+03  0.80602553507E+03  0.46999998093E+01 0.  1.
</event>
<event>
 5   0  0.1736537E-04  0.1603198E+04  0.7818609E-02  0.8818586E-01
        1   -1    0    0  501    0  0.00000000000E+00  0.00000000000E+00  0.10660743716E+04  0.10660743716E+04  0.50400001928E-02 0.  1.
       -1   -1    0    0    0  501  0.00000000000E+00  0.00000000000E+00 -0.60273576649E+03  0.60273576651E+03  0.50400001928E-02 0. -1.
    10030    2    1    2    0    0  0.00000000000E+00  0.00000000000E+00  0.46333860510E+03  0.16688101381E+04  0.16031982454E+04 0.  0.
        3    1    3    3  502    0 -0.65044974163E+02  0.43500380337E+03  0.92924635926E+03  0.10280846094E+04  0.10100000352E+00 0.  1.
       -3    1    3    3    0  502  0.65044974163E+02 -0.43500380337E+03 -0.46590775416E+03  0.64072552875E+03  0.10100000352E+00 0. -1.
</event>
<event>
 5   0  0.1736537E-04  0.1598411E+04  0.7818609E-02  0.8821525E-01
       -1   -1    0    0    0  501  0.00000000000E+00  0.00000000000E+00  0.98214893249E+03  0.98214893250E+03  0.50400001928E-02 0. -1.
        1   -1    0    0  501    0  0.00000000000E+00  0.00000000000E+00 -0.65033863993E+03  0.65033863995E+03  0.50400001928E-02 0.  1.
    10030    2    1    2    0    0  0.00000000000E+00  0.00000000000E+00  0.33181029256E+03  0.16324875725E+04  0.15984109622E+04 0.  0.
        3    1    3    3  502    0 -0.23935914764E+03 -0.32890186691E+03  0.86851041721E+03  0.95905140353E+03  0.10100000352E+00 0. -1.
       -3    1    3    3    0  502  0.23935914764E+03  0.32890186691E+03 -0.53670012465E+03  0.67343616892E+03  0.10100000352E+00 0.  1.
</event>
<event>
 5   0  0.3210612E-04  0.1609501E+04  0.7818609E-02  0.8814732E-01
       -2   -1    0    0    0  501  0.00000000000E+00  0.00000000000E+00  0.49285687029E+03  0.49285687030E+03  0.25500000920E-02 0.  1.
        2   -1    0    0  501    0  0.00000000000E+00  0.00000000000E+00 -0.13140189491E+04  0.13140189491E+04  0.25500000920E-02 0. -1.
    10030    2    1    2    0    0  0.00000000000E+00  0.00000000000E+00 -0.82116207884E+03  0.18068758194E+04  0.16095008752E+04 0.  0.
        2    1    3    3  502    0 -0.64016786493E+03 -0.20868599047E+03  0.84216050288E+02  0.67856987927E+03  0.25500000920E-02 0.  1.
       -2    1    3    3    0  502  0.64016786493E+03  0.20868599047E+03 -0.90537812913E+03  0.11283059402E+04  0.25500000920E-02 0. -1.
</event>
<event>
 5   0  0.3210612E-04  0.1601790E+04  0.7818609E-02  0.8819449E-01
       -2   -1    0    0    0  501  0.00000000000E+00  0.00000000000E+00  0.14466387679E+04  0.14466387679E+04  0.25500000920E-02 0.  1.
        2   -1    0    0  501    0  0.00000000000E+00  0.00000000000E+00 -0.44339513959E+03  0.44339513960E+03  0.25500000920E-02 0. -1.
    10030    2    1    2    0    0  0.00000000000E+00  0.00000000000E+00  0.10032436283E+04  0.18900339075E+04  0.16017897471E+04 0.  0.
        2    1    3    3  502    0 -0.79635095482E+03 -0.35814564196E+01  0.40118772757E+03  0.89170581631E+03  0.25500000920E-02 0. -1.
       -2    1    3    3    0  502  0.79635095482E+03  0.35814564196E+01  0.60205590076E+03  0.99832809122E+03  0.25500000920E-02 0.  1.
</event>
<event>
 5   0  0.1787688E-04  0.1557635E+04  0.7818609E-02  0.8847006E-01
       -1   -1    0    0    0  501  0.00000000000E+00  0.00000000000E+00  0.14925189963E+04  0.14925189963E+04  0.50400001928E-02 0. -1.
        1   -1    0    0  501    0  0.00000000000E+00  0.00000000000E+00 -0.40639793558E+03  0.40639793562E+03  0.50400001928E-02 0.  1.
    10030    2    1    2    0    0  0.00000000000E+00  0.00000000000E+00  0.10861210607E+04  0.18989169319E+04  0.15576349238E+04 0.  0.
        4    1    3    3  502    0  0.43066421784E+03  0.56773038389E+03  0.15993325117E+03  0.73032165177E+03  0.12699999809E+01 0.  1.
       -4    1    3    3    0  502 -0.43066421784E+03 -0.56773038389E+03  0.92618780952E+03  0.11685952801E+04  0.12699999809E+01 0. -1.
</event>
<event>
 5   0  0.3228393E-04  0.1608604E+04  0.7818609E-02  0.8815280E-01
       -2   -1    0    0    0  501  0.00000000000E+00  0.00000000000E+00  0.54822578173E+03  0.54822578174E+03  0.25500000920E-02 0.  1.
        2   -1    0    0  501    0  0.00000000000E+00  0.00000000000E+00 -0.11799907029E+04  0.11799907029E+04  0.25500000920E-02 0. -1.
    10030    2    1    2    0    0  0.00000000000E+00  0.00000000000E+00 -0.63176492112E+03  0.17282164846E+04  0.16086035254E+04 0.  0.
        1    1    3    3  502    0  0.48899151645E+03  0.62405914547E+03 -0.46137296407E+03  0.91729359106E+03  0.50400001928E-02 0.  1.
       -1    1    3    3    0  502 -0.48899151645E+03 -0.62405914547E+03 -0.17039195705E+03  0.81092289353E+03  0.50400001928E-02 0. -1.
</event>
<event>
 5   0  0.1219463E-04  0.1612649E+04  0.7818609E-02  0.8812815E-01
        3   -1    0    0  501    0  0.00000000000E+00  0.00000000000E+00  0.34346716784E+03  0.34346718269E+03  0.10100000352E+00 0. -1.
       -3   -1    0    0    0  501  0.00000000000E+00  0.00000000000E+00 -0.18929299351E+04  0.18929299378E+04  0.10100000352E+00 0.  1.
    10030    2    1    2    0    0  0.00000000000E+00  0.00000000000E+00 -0.15494627672E+04  0.22363971205E+04  0.16126491290E+04 0.  0.
        5    1    3    3  502    0 -0.75664863105E+03  0.25869001318E+03 -0.63128434655E+03  0.10188128827E+04  0.46999998093E+01 0. -1.
       -5    1    3    3    0  502  0.75664863105E+03 -0.25869001318E+03 -0.91817842068E+03  0.12175842377E+04  0.46999998093E+01 0.  1.
</event>
<event>
 5   0  0.3380454E-04  0.1590249E+04  0.7818609E-02  0.8826561E-01
        2   -1    0    0  501    0  0.00000000000E+00  0.00000000000E+00  0.24857009637E+04  0.24857009637E+04  0.25500000920E-02 0. -1.
       -2   -1    0    0    0  501  0.00000000000E+00  0.00000000000E+00 -0.25434390804E+03  0.25434390805E+03  0.25500000920E-02 0.  1.
    10030    2    1    2    0    0  0.00000000000E+00  0.00000000000E+00  0.22313570557E+04  0.27400448718E+04  0.15902489080E+04 0.  0.
        5    1    3    3  502    0  0.29421696103E+03  0.73634584082E+03  0.10147380003E+04  0.12878214615E+04  0.46999998093E+01 0.  1.
       -5    1    3    3    0  502 -0.29421696103E+03 -0.73634584082E+03  0.12166190554E+04  0.14522234103E+04  0.46999998093E+01 0. -1.
</event>
<event>
 5   0  0.3380454E-04  0.1583952E+04  0.7818609E-02  0.8830468E-01
       -2   -1    0    0    0  501  0.00000000000E+00  0.00000000000E+00  0.34618198905E+03  0.34618198906E+03  0.25500000920E-02 0.  1.
        2   -1    0    0  501    0  0.00000000000E+00  0.00000000000E+00 -0.18118377762E+04  0.18118377762E+04  0.25500000920E-02 0. -1.
    10030    2    1    2    0    0  0.00000000000E+00  0.00000000000E+00 -0.14656557872E+04  0.21580197653E+04  0.15839515210E+04 0.  0.
        5    1    3    3  502    0  0.19708314017E+03  0.17346151633E+03 -0.17508021329E+04  0.17703843821E+04  0.46999998093E+01 0. -1.
       -5    1    3    3    0  502 -0.19708314017E+03 -0.17346151633E+03  0.28514634575E+03  0.38763538317E+03  0.46999998093E+01 0.  1.
</event>
<event>
 5   0  0.3210612E-04  0.1463672E+04  0.7818609E-02  0.8908976E-01
        2   -1    0    0  501    0  0.00000000000E+00  0.00000000000E+00  0.99936531295E+03  0.99936531296E+03  0.25500000920E-02 0. -1.
       -2   -1    0    0    0  501  0.00000000000E+00  0.00000000000E+00 -0.53592416260E+03  0.53592416261E+03  0.25500000920E-02 0.  1.
    10030    2    1    2    0    0  0.00000000000E+00  0.00000000000E+00  0.46344115035E+03  0.15352894756E+04  0.14636721197E+04 0.  0.
        2    1    3    3  502    0  0.48008230127E+03 -0.18919053478E+03 -0.31262447716E+03  0.60332921210E+03  0.25500000920E-02 0.  1.
       -2    1    3    3    0  502 -0.48008230127E+03  0.18919053478E+03  0.77606562752E+03  0.93196026346E+03  0.25500000920E-02 0. -1.
</event>
<event>
 5   0  0.1764099E-04  0.1601679E+04  0.7818609E-02  0.8819517E-01
        1   -1    0    0  501    0  0.00000000000E+00  0.00000000000E+00  0.35856817925E+03  0.35856817928E+03  0.50400001928E-02 0.  1.
       -1   -1    0    0    0  501  0.00000000000E+00  0.00000000000E+00 -0.17886236390E+04  0.17886236390E+04  0.50400001928E-02 0. -1.
    10030    2    1    2    0    0  0.00000000000E+00  0.00000000000E+00 -0.14300554597E+04  0.21471918183E+04  0.16016785216E+04 0.  0.
        5    1    3    3  502    0 -0.36256199985E+03 -0.64959014864E+03 -0.11124910089E+04  0.13383112119E+04  0.46999998093E+01 0. -1.
       -5    1    3    3    0  502  0.36256199985E+03  0.64959014864E+03 -0.31756445079E+03  0.80888060636E+03  0.46999998093E+01 0.  1.
</event>
<event>
 5   0  0.3274900E-04  0.1590542E+04  0.7818609E-02  0.8826380E-01
        2   -1    0    0  501    0  0.00000000000E+00  0.00000000000E+00  0.10063375090E+04  0.10063375090E+04  0.25500000920E-02 0. -1.
       -2   -1    0    0    0  501  0.00000000000E+00  0.00000000000E+00 -0.62847263728E+03  0.62847263728E+03  0.25500000920E-02 0.  1.
    10030    2    1    2    0    0  0.00000000000E+00  0.00000000000E+00  0.37786487176E+03  0.16348101463E+04  0.15905415283E+04 0.  0.
        3    1    3    3  502    0 -0.26453166502E+03  0.62777737638E+03  0.61068721207E+03  0.91488814468E+03  0.10100000352E+00 0. -1.
       -3    1    3    3    0  502  0.26453166502E+03 -0.62777737638E+03 -0.23282234031E+03  0.71992200164E+03  0.10100000352E+00 0.  1.
</event>
<event>
 5   0  0.1736537E-04  0.1559542E+04  0.7818609E-02  0.8845796E-01
        1   -1    0    0  501    0  0.00000000000E+00  0.00000000000E+00  0.18342445035E+04  0.18342445035E+04  0.50400001928E-02 0.  1.
       -1   -1    0    0    0  501  0.00000000000E+00  0.00000000000E+00 -0.33149485259E+03  0.33149485263E+03  0.50400001928E-02 0. -1.
    10030    2    1    2    0    0  0.00000000000E+00  0.00000000000E+00  0.15027496509E+04  0.21657393562E+04  0.15595417421E+04 0.  0.
        3    1    3    3  502    0 -0.53962478998E+03  0.56019960091E+03  0.82774202287E+03  0.11358588704E+04  0.10100000352E+00 0. -1.
       -3    1    3    3    0  502  0.53962478998E+03 -0.56019960091E+03  0.67500762807E+03  0.10298804858E+04  0.10100000352E+00 0.  1.
</event>
<event>
 5   0  0.3263294E-04  0.1596761E+04  0.7818609E-02  0.8822541E-01
        2   -1    0    0  501    0  0.00000000000E+00  0.00000000000E+00  0.15991522381E+04  0.15991522381E+04  0.25500000920E-02 0. -1.
       -2   -1    0    0    0  501  0.00000000000E+00  0.00000000000E+00 -0.39859316884E+03  0.39859316885E+03  0.25500000920E-02 0.  1.
    10030    2    1    2    0    0  0.00000000000E+00  0.00000000000E+00  0.12005590692E+04  0.19977454069E+04  0.15967606684E+04 0.  0.
        4    1    3    3  502    0 -0.88618873500E+02  0.79107042243E+03  0.67703603224E+03  0.10450000573E+04  0.12699999809E+01 0. -1.
       -4    1    3    3    0  502  0.88618873500E+02 -0.79107042243E+03  0.52352303698E+03  0.95274534957E+03  0.12699999809E+01 0.  1.
</event>
<event>
 5   0  0.1761255E-04  0.1603636E+04  0.7818609E-02  0.8818317E-01
       -1   -1    0    0    0  501  0.00000000000E+00  0.00000000000E+00  0.88255386137E+03  0.88255386139E+03  0.50400001928E-02 0. -1.
        1   -1    0    0  501    0  0.00000000000E+00  0.00000000000E+00 -0.72846781887E+03  0.72846781889E+03  0.50400001928E-02 0.  1.
    10030    2    1    2    0    0  0.00000000000E+00  0.00000000000E+00  0.15408604250E+03  0.16110216803E+04  0.16036359767E+04 0.  0.
        2    1    3    3  502    0 -0.15512282374E+03 -0.39683723475E+03 -0.60532693279E+03  0.74024561930E+03  0.25500000920E-02 0.  1.
       -2    1    3    3    0  502  0.15512282374E+03  0.39683723475E+03  0.75941297529E+03  0.87077606098E+03  0.25500000920E-02 0. -1.
</event>
<event>
 5   0  0.1819811E-04  0.1622293E+04  0.7818609E-02  0.8806968E-01
       -1   -1    0    0    0  501  0.00000000000E+00  0.00000000000E+00  0.10296312534E+04  0.10296312534E+04  0.50400001928E-02 0.  1.
        1   -1    0    0  501    0  0.00000000000E+00  0.00000000000E+00 -0.63902396720E+03  0.63902396722E+03  0.50400001928E-02 0. -1.
    10030    2    1    2    0    0  0.00000000000E+00  0.00000000000E+00  0.39060728622E+03  0.16686552207E+04  0.16222934979E+04 0.  0.
        1    1    3    3  502    0  0.41451443139E+03 -0.47716765137E+03 -0.32760239903E+03  0.71192310906E+03  0.50400001928E-02 0. -1.
       -1    1    3    3    0  502 -0.41451443139E+03  0.47716765137E+03  0.71820968525E+03  0.95673211160E+03  0.50400001928E-02 0.  1.
</event>
<event>
 5   0  0.3380454E-04  0.1588966E+04  0.7818609E-02  0.8827356E-01
        2   -1    0    0  501    0  0.00000000000E+00  0.00000000000E+00  0.12184663263E+04  0.12184663263E+04  0.25500000920E-02 0.  1.
       -2   -1    0    0    0  501  0.00000000000E+00  0.00000000000E+00 -0.51803062377E+03  0.51803062377E+03  0.25500000920E-02 0. -1.
    10030    2    1    2    0    0  0.00000000000E+00  0.00000000000E+00  0.70043570251E+03  0.17364969501E+04  0.15889655390E+04 0.  0.
        5    1    3    3  502    0 -0.71226039434E+03  0.30310023975E+03  0.54570060655E+03  0.94709865731E+03  0.46999998093E+01 0.  1.
       -5    1    3    3    0  502  0.71226039434E+03 -0.30310023975E+03  0.15473509596E+03  0.78939829275E+03  0.46999998093E+01 0. -1.
</event>
<event>
 5   0  0.1764099E-04  0.1588082E+04  0.7818609E-02  0.8827903E-01
       -1   -1    0    0    0  501  0.00000000000E+00  0.00000000000E+00  0.37461355814E+03  0.37461355817E+03  0.50400001928E-02 0. -1.
        1   -1    0    0  501    0  0.00000000000E+00  0.00000000000E+00 -0.16830705628E+04  0.16830705628E+04  0.50400001928E-02 0.  1.
    10030    2    1    2    0    0  0.00000000000E+00  0.00000000000E+00 -0.13084570047E+04  0.20576841210E+04  0.15880819276E+04 0.  0.
        5    1    3    3  502    0  0.52949682295E+03  0.59049033429E+03 -0.60517550730E+03  0.99764984090E+03  0.46999998093E+01 0. -1.
       -5    1    3    3    0  502 -0.52949682295E+03 -0.59049033429E+03 -0.70328149735E+03  0.10600342801E+04  0.46999998093E+01 0.  1.
</event>
<event>
 5   0  0.3274900E-04  0.1400588E+04  0.7818609E-02  0.8953393E-01
       -2   -1    0    0    0  501  0.00000000000E+00  0.00000000000E+00  0.30372519523E+03  0.30372519524E+03  0.25500000920E-02 0. -1.
        2   -1    0    0  501    0  0.00000000000E+00  0.00000000000E+00 -0.16146558337E+04  0.16146558337E+04  0.25500000920E-02 0.  1.
    10030    2    1    2    0    0  0.00000000000E+00  0.00000000000E+00 -0.13109306385E+04  0.19183810290E+04  0.14005879599E+04 0.  0.
        3    1    3    3  502    0  0.30296146194E+03  0.34359344051E+03  0.70046929372E+02  0.46340984268E+03  0.10100000352E+00 0. -1.
       -3    1    3    3    0  502 -0.30296146194E+03 -0.34359344051E+03 -0.13809775679E+04  0.14549711863E+04  0.10100000352E+00 0.  1.
</event>
<event>
 5   0  0.3228393E-04  0.1540938E+04  0.7818609E-02  0.8857677E-01
        2   -1    0    0  501    0  0.00000000000E+00  0.00000000000E+00  0.58918024920E+03  0.58918024921E+03  0.25500000920E-02 0. -1.
       -2   -1    0    0    0  501  0.00000000000E+00  0.00000000000E+00 -0.10075391008E+04  0.10075391008E+04  0.25500000920E-02 0.  1.
    10030    2    1    2    0    0  0.00000000000E+00  0.00000000000E+00 -0.41835885161E+03  0.15967193500E+04  0.15409375568E+04 0.  0.
        1    1    3    3  502    0  0.28076732409E+03  0.30397556304E+03 -0.88262224214E+03  0.97480944577E+03  0.50400001928E-02 0.  1.
       -1    1    3    3    0  502 -0.28076732409E+03 -0.30397556304E+03  0.46426339053E+03  0.62190990426E+03  0.50400001928E-02 0. -1.
</event>
<event>
 5   0  0.1761255E-04  0.1586894E+04  0.7818609E-02  0.8828640E-01
        1   -1    0    0  501    0  0.00000000000E+00  0.00000000000E+00  0.14480592817E+04  0.14480592817E+04  0.50400001928E-02 0. -1.
       -1   -1    0    0    0  501  0.00000000000E+00  0.00000000000E+00 -0.43475979593E+03  0.43475979596E+03  0.50400001928E-02 0.  1.
    10030    2    1    2    0    0  0.00000000000E+00  0.00000000000E+00  0.10132994858E+04  0.18828190777E+04  0.15868937681E+04 0.  0.
        2    1    3    3  502    0 -0.68140960440E+03 -0.34516106953E+02  0.26091970041E+02  0.68278195752E+03  0.25500000920E-02 0.  1.
       -2    1    3    3    0  502  0.68140960440E+03  0.34516106953E+02  0.98720751574E+03  0.12000371202E+04  0.25500000920E-02 0. -1.
</event>
<event>
 5   0  0.1761255E-04  0.1604821E+04  0.7818609E-02  0.8817592E-01
        1   -1    0    0  501    0  0.00000000000E+00  0.00000000000E+00  0.23242083303E+04  0.23242083304E+04  0.50400001928E-02 0. -1.
       -1   -1    0    0    0  501  0.00000000000E+00  0.00000000000E+00 -0.27702449761E+03  0.27702449766E+03  0.50400001928E-02 0.  1.
    10030    2    1    2    0    0  0.00000000000E+00  0.00000000000E+00  0.20471838327E+04  0.26012328280E+04  0.16048210431E+04 0.  0.
        2    1    3    3  502    0  0.13600462347E+03 -0.83667063139E+02 -0.25101168051E+03  0.29749672069E+03  0.25500000920E-02 0.  1.
       -2    1    3    3    0  502 -0.13600462347E+03  0.83667063139E+02  0.22981955132E+04  0.23037361073E+04  0.25500000920E-02 0. -1.
</event>
<event>
 5   0  0.3274900E-04  0.1602528E+04  0.7818609E-02  0.8818996E-01
        2   -1    0    0  501    0  0.00000000000E+00  0.00000000000E+00  0.15853319069E+04  0.15853319069E+04  0.25500000920E-02 0.  1.
       -2   -1    0    0    0  501  0.00000000000E+00  0.00000000000E+00 -0.40497769738E+03  0.40497769738E+03  0.25500000920E-02 0. -1.
    10030    2    1    2    0    0  0.00000000000E+00  0.00000000000E+00  0.11803542095E+04  0.19903096043E+04  0.16025280843E+04 0.  0.
        3    1    3    3  502    0 -0.54858654061E+03 -0.56873581128E+03  0.42533275817E+03  0.89739377140E+03  0.10100000352E+00 0. -1.
       -3    1    3    3    0  502  0.54858654061E+03  0.56873581128E+03  0.75502145137E+03  0.10929158329E+04  0.10100000352E+00 0.  1.
</event>
<event>
 5   0  0.3274900E-04  0.1599958E+04  0.7818609E-02  0.8820574E-01
        2   -1    0    0  501    0  0.00000000000E+00  0.00000000000E+00  0.40439795029E+03  0.40439795030E+03  0.25500000920E-02 0. -1.
       -2   -1    0    0    0  501  0.00000000000E+00  0.00000000000E+00 -0.15825168242E+04  0.15825168242E+04  0.25500000920E-02 0.  1.
    10030    2    1    2    0    0  0.00000000000E+00  0.00000000000E+00 -0.11781188739E+04  0.19869147745E+04  0.15999581995E+04 0.  0.
        3    1    3    3  502    0  0.65045285592E+03  0.45591553452E+03 -0.47112475291E+03  0.92352933651E+03  0.10100000352E+00 0. -1.
       -3    1    3    3    0  502 -0.65045285592E+03 -0.45591553452E+03 -0.70699412095E+03  0.10633854380E+04  0.10100000352E+00 0.  1.
</event>
<event>
 5   0  0.1787688E-04  0.1604971E+04  0.7818609E-02  0.8817500E-01
       -1   -1    0    0    0  501  0.00000000000E+00  0.00000000000E+00  0.97061439276E+03  0.97061439277E+03  0.50400001928E-02 0. -1.
        1   -1    0    0  501    0  0.00000000000E+00  0.00000000000E+00 -0.66347946580E+03  0.66347946582E+03  0.50400001928E-02 0.  1.
    10030    2    1    2    0    0  0.00000000000E+00  0.00000000000E+00  0.30713492696E+03  0.16340938586E+04  0.16049706774E+04 0.  0.
        4    1    3    3  502    0  0.29300702815E+03  0.25266741977E+03 -0.56224550291E+03  0.68250682195E+03  0.12699999809E+01 0.  1.
       -4    1    3    3    0  502 -0.29300702815E+03 -0.25266741977E+03  0.86938042987E+03  0.95158703664E+03  0.12699999809E+01 0. -1.
</event>
<event>
 5   0  0.1787688E-04  0.1604374E+04  0.7818609E-02  0.8817865E-01
       -1   -1    0    0    0  501  0.00000000000E+00  0.00000000000E+00  0.40114523986E+03  0.40114523989E+03  0.50400001928E-02 0.  1.
        1   -1    0    0  501    0  0.00000000000E+00  0.00000000000E+00 -0.16041678946E+04  0.16041678946E+04  0.50400001928E-02 0. -1.
    10030    2    1    2    0    0  0.00000000000E+00  0.00000000000E+00 -0.12030226547E+04  0.20053131345E+04  0.16043744138E+04 0.  0.
        4    1    3    3  502    0  0.35854947233E+03  0.71110937932E+03 -0.48117977386E+03  0.93046754975E+03  0.12699999809E+01 0. -1.
       -4    1    3    3    0  502 -0.35854947233E+03 -0.71110937932E+03 -0.72184288085E+03  0.10748455847E+04  0.12699999809E+01 0.  1.
</event>
<event>
 5   0  0.1819811E-04  0.1589136E+04  0.7818609E-02  0.8827250E-01
       -1   -1    0    0    0  501  0.00000000000E+00  0.00000000000E+00  0.75146664972E+03  0.75146664973E+03  0.50400001928E-02 0. -1.
        1   -1    0    0  501    0  0.00000000000E+00  0.00000000000E+00 -0.84014150980E+03  0.84014150982E+03  0.50400001928E-02 0.  1.
    10030    2    1    2    0    0  0.00000000000E+00  0.00000000000E+00 -0.88674860086E+02  0.15916081596E+04  0.15891360240E+04 0.  0.
        1    1    3    3  502    0 -0.33478128789E+03 -0.68174937337E+03 -0.27810490981E+03  0.80882820160E+03  0.50400001928E-02 0.  1.
       -1    1    3    3    0  502  0.33478128789E+03  0.68174937337E+03  0.18943004973E+03  0.78277995796E+03  0.50400001928E-02 0. -1.
</event>
<event>
 5   0  0.1819811E-04  0.1536739E+04  0.7818609E-02  0.8860383E-01
       -1   -1    0    0    0  501  0.00000000000E+00  0.00000000000E+00  0.95528770778E+03  0.95528770780E+03  0.50400001928E-02 0.  1.
        1   -1    0    0  501    0  0.00000000000E+00  0.00000000000E+00 -0.61802487970E+03  0.61802487972E+03  0.50400001928E-02 0. -1.
    10030    2    1    2    0    0  0.00000000000E+00  0.00000000000E+00  0.33726282808E+03  0.15733125875E+04  0.15367388467E+04 0.  0.
        1    1    3    3  502    0 -0.70546657490E+03  0.45623347161E+02 -0.13957646136E+03  0.72058737617E+03  0.50400001928E-02 0. -1.
       -1    1    3    3    0  502  0.70546657490E+03 -0.45623347161E+02  0.47683928944E+03  0.85272521135E+03  0.50400001928E-02 0.  1.
</event>
<event>
 5   0  0.1761255E-04  0.1601891E+04  0.7818609E-02  0.8819387E-01
       -1   -1    0    0    0  501  0.00000000000E+00  0.00000000000E+00  0.14636602595E+04  0.14636602595E+04  0.50400001928E-02 0. -1.
        1   -1    0    0  501    0  0.00000000000E+00  0.00000000000E+00 -0.43829392989E+03  0.43829392992E+03  0.50400001928E-02 0.  1.
    10030    2    1    2    0    0  0.00000000000E+00  0.00000000000E+00  0.10253663297E+04  0.19019541895E+04  0.16018906420E+04 0.  0.
        2    1    3    3  502    0  0.15108980138E+03  0.45905274161E+03  0.12710402972E+04  0.13598165261E+04  0.25500000920E-02 0. -1.
       -2    1    3    3    0  502 -0.15108980138E+03 -0.45905274161E+03 -0.24567396754E+03  0.54213766332E+03  0.25500000920E-02 0.  1.
</event>
<event>
 5   0  0.1764099E-04  0.1610825E+04  0.7818609E-02  0.8813925E-01
        1   -1    0    0  501    0  0.00000000000E+00  0.00000000000E+00  0.96037783074E+03  0.96037783075E+03  0.50400001928E-02 0.  1.
       -1   -1    0    0    0  501  0.00000000000E+00  0.00000000000E+00 -0.67545229172E+03  0.67545229173E+03  0.50400001928E-02 0. -1.
    10030    2    1    2    0    0  0.00000000000E+00  0.00000000000E+00  0.28492553902E+03  0.16358301225E+04  0.16108251385E+04 0.  0.
        5    1    3    3  502    0  0.39439075047E+03 -0.13761090405E+03 -0.55683862054E+03  0.69611217795E+03  0.46999998093E+01 0. -1.
       -5    1    3    3    0  502 -0.39439075047E+03  0.13761090405E+03  0.84176415956E+03  0.93971794454E+03  0.46999998093E+01 0.  1.
</event>
<event>
 5   0  0.1761255E-04  0.1599288E+04  0.7818609E-02  0.8820986E-01
        1   -1    0    0  501    0  0.00000000000E+00  0.00000000000E+00  0.12494906040E+04  0.12494906040E+04  0.50400001928E-02 0. -1.
       -1   -1    0    0    0  501  0.00000000000E+00  0.00000000000E+00 -0.51175284115E+03  0.51175284118E+03  0.50400001928E-02 0.  1.
    10030    2    1    2    0    0  0.00000000000E+00  0.00000000000E+00  0.73773776281E+03  0.17612434452E+04  0.15992877997E+04 0.  0.
        2    1    3    3  502    0  0.61048990761E+03  0.51284996180E+03  0.30172447452E+03  0.85249672676E+03  0.25500000920E-02 0.  1.
       -2    1    3    3    0  502 -0.61048990761E+03 -0.51284996180E+03  0.43601328829E+03  0.90874671839E+03  0.25500000920E-02 0. -1.
</event>
<event>
 5   0  0.3228393E-04  0.1547206E+04  0.7818609E-02  0.8853654E-01
        2   -1    0    0  501    0  0.00000000000E+00  0.00000000000E+00  0.18075339325E+04  0.18075339325E+04  0.25500000920E-02 0. -1.
       -2   -1    0    0    0  501  0.00000000000E+00  0.00000000000E+00 -0.33109292030E+03  0.33109292031E+03  0.25500000920E-02 0.  1.
    10030    2    1    2    0    0  0.00000000000E+00  0.00000000000E+00  0.14764410122E+04  0.21386268529E+04  0.15472061120E+04 0.  0.
        1    1    3    3  502    0  0.14522481183E+03  0.22961585888E+02 -0.31160256169E+03  0.34454845359E+03  0.50400001928E-02 0.  1.
       -1    1    3    3    0  502 -0.14522481183E+03 -0.22961585888E+02  0.17880435739E+04  0.17940783993E+04  0.50400001928E-02 0. -1.
</event>
<event>
 5   0  0.3228393E-04  0.1623659E+04  0.7818609E-02  0.8806144E-01
        2   -1    0    0  501    0  0.00000000000E+00  0.00000000000E+00  0.59087480877E+03  0.59087480878E+03  0.25500000920E-02 0. -1.
       -2   -1    0    0    0  501  0.00000000000E+00  0.00000000000E+00 -0.11154084703E+04  0.11154084703E+04  0.25500000920E-02 0.  1.
    10030    2    1    2    0    0  0.00000000000E+00  0.00000000000E+00 -0.52453366148E+03  0.17062832790E+04  0.16236585436E+04 0.  0.
        1    1    3    3  502    0  0.19161616742E+03  0.54811140577E+03 -0.85852321403E+03  0.10364386030E+04  0.50400001928E-02 0.  1.
       -1    1    3    3    0  502 -0.19161616742E+03 -0.54811140577E+03  0.33398955255E+03  0.66984467602E+03  0.50400001928E-02 0. -1.
</event>
<event>
 5   0  0.3210612E-04  0.1599430E+04  0.7818609E-02  0.8820899E-01
       -2   -1    0    0    0  501  0.00000000000E+00  0.00000000000E+00  0.42672026461E+03  0.42672026462E+03  0.25500000920E-02 0.  1.
        2   -1    0    0  501    0  0.00000000000E+00  0.00000000000E+00 -0.14987422590E+04  0.14987422590E+04  0.25500000920E-02 0. -1.
    10030    2    1    2    0    0  0.00000000000E+00  0.00000000000E+00 -0.10720219943E+04  0.19254625236E+04  0.15994295150E+04 0.  0.
        2    1    3    3  502    0 -0.54244633761E+03 -0.56078815379E+03 -0.32469513483E+03  0.84507887987E+03  0.25500000920E-02 0.  1.
       -2    1    3    3    0  502  0.54244633761E+03  0.56078815379E+03 -0.74732685952E+03  0.10803836437E+04  0.25500000920E-02 0. -1.
</event>
<event>
 5   0  0.1787688E-04  0.1592973E+04  0.7818609E-02  0.8824877E-01
        1   -1    0    0  501    0  0.00000000000E+00  0.00000000000E+00  0.99370802807E+03  0.99370802809E+03  0.50400001928E-02 0.  1.
       -1   -1    0    0    0  501  0.00000000000E+00  0.00000000000E+00 -0.63840756896E+03  0.63840756898E+03  0.50400001928E-02 0. -1.
    10030    2    1    2    0    0  0.00000000000E+00  0.00000000000E+00  0.35530045911E+03  0.16321155971E+04  0.15929729772E+04 0.  0.
        4    1    3    3  502    0  0.24974485575E+03 -0.28835193622E+02 -0.59668846374E+03  0.64748953430E+03  0.12699999809E+01 0. -1.
       -4    1    3    3    0  502 -0.24974485575E+03  0.28835193622E+02  0.95198892285E+03  0.98462606277E+03  0.12699999809E+01 0.  1.
</event>
<event>
 5   0  0.1787688E-04  0.1600247E+04  0.7818609E-02  0.8820396E-01
       -1   -1    0    0    0  501  0.00000000000E+00  0.00000000000E+00  0.30595579062E+03  0.30595579066E+03  0.50400001928E-02 0. -1.
        1   -1    0    0  501    0  0.00000000000E+00  0.00000000000E+00 -0.20924512203E+04  0.20924512203E+04  0.50400001928E-02 0.  1.
    10030    2    1    2    0    0  0.00000000000E+00  0.00000000000E+00 -0.17864954297E+04  0.23984070110E+04  0.16002469403E+04 0.  0.
        4    1    3    3  502    0  0.62321673591E+03 -0.28038778352E+03 -0.26953560349E+03  0.73462062557E+03  0.12699999809E+01 0. -1.
       -4    1    3    3    0  502 -0.62321673591E+03  0.28038778352E+03 -0.15169598262E+04  0.16637863854E+04  0.12699999809E+01 0.  1.
</event>
<event>
 5   0  0.1819811E-04  0.1595863E+04  0.7818609E-02  0.8823094E-01
        1   -1    0    0  501    0  0.00000000000E+00  0.00000000000E+00  0.11494744113E+04  0.11494744113E+04  0.50400001928E-02 0. -1.
       -1   -1    0    0    0  501  0.00000000000E+00  0.00000000000E+00 -0.55390054540E+03  0.55390054542E+03  0.50400001928E-02 0.  1.
    10030    2    1    2    0    0  0.00000000000E+00  0.00000000000E+00  0.59557386590E+03  0.17033749567E+04  0.15958627803E+04 0.  0.
        1    1    3    3  502    0 -0.42992616617E+03 -0.55242361935E+03 -0.11101152773E+03  0.70875378157E+03  0.50400001928E-02 0.  1.
       -1    1    3    3    0  502  0.42992616617E+03  0.55242361935E+03  0.70658539363E+03  0.99462117517E+03  0.50400001928E-02 0. -1.
</event>
<event>
 5   0  0.1761255E-04  0.1608089E+04  0.7818609E-02  0.8815594E-01
        1   -1    0    0  501    0  0.00000000000E+00  0.00000000000E+00  0.93978517512E+03  0.93978517514E+03  0.50400001928E-02 0. -1.
       -1   -1    0    0    0  501  0.00000000000E+00  0.00000000000E+00 -0.68790954790E+03  0.68790954792E+03  0.50400001928E-02 0.  1.
    10030    2    1    2    0    0  0.00000000000E+00  0.00000000000E+00  0.25187562722E+03  0.16276947231E+04  0.16080885485E+04 0.  0.
        2    1    3    3  502    0 -0.78965600019E+03 -0.15141215289E+03  0.12819122882E+03  0.81419606350E+03  0.25500000920E-02 0. -1.
       -2    1    3    3    0  502  0.78965600019E+03  0.15141215289E+03  0.12368439840E+03  0.81349865955E+03  0.25500000920E-02 0.  1.
</event>
<event>
 5   0  0.1761255E-04  0.1596063E+04  0.7818609E-02  0.8822970E-01
        1   -1    0    0  501    0  0.00000000000E+00  0.00000000000E+00  0.52103845184E+03  0.52103845187E+03  0.50400001928E-02 0. -1.
       -1   -1    0    0    0  501  0.00000000000E+00  0.00000000000E+00 -0.12222792368E+04  0.12222792368E+04  0.50400001928E-02 0.  1.
    10030    2    1    2    0    0  0.00000000000E+00  0.00000000000E+00 -0.70124078495E+03  0.17433176887E+04  0.15960632585E+04 0.  0.
        2    1    3    3  502    0  0.22645083565E+03  0.52303784796E+03 -0.96072997578E+03  0.11170723601E+04  0.25500000920E-02 0.  1.
       -2    1    3    3    0  502 -0.22645083565E+03 -0.52303784796E+03  0.25948919084E+03  0.62624532855E+03  0.25500000920E-02 0. -1.
</event>
<event>
 5   0  0.3274900E-04  0.1560051E+04  0.7818609E-02  0.8845473E-01
        2   -1    0    0  501    0  0.00000000000E+00  0.00000000000E+00  0.69110058696E+03  0.69110058696E+03  0.25500000920E-02 0. -1.
       -2   -1    0    0    0  501  0.00000000000E+00  0.00000000000E+00 -0.88039231897E+03  0.88039231897E+03  0.25500000920E-02 0.  1.
    10030    2    1    2    0    0  0.00000000000E+00  0.00000000000E+00 -0.18929173201E+03  0.15714929059E+04  0.15600508304E+04 0.  0.
        3    1    3    3  502    0  0.40946587461E+03  0.33246178952E+03 -0.67353151585E+03  0.85547522290E+03  0.10100000352E+00 0.  1.
       -3    1    3    3    0  502 -0.40946587461E+03 -0.33246178952E+03  0.48423978384E+03  0.71601768303E+03  0.10100000352E+00 0. -1.
</event>
<event>
 5   0  0.3228393E-04  0.1456715E+04  0.7818609E-02  0.8913758E-01
       -2   -1    0    0    0  501  0.00000000000E+00  0.00000000000E+00  0.59995320422E+03  0.59995320423E+03  0.25500000920E-02 0.  1.
        2   -1    0    0  501    0  0.00000000000E+00  0.00000000000E+00 -0.88424388736E+03  0.88424388737E+03  0.25500000920E-02 0. -1.
    10030    2    1    2    0    0  0.00000000000E+00  0.00000000000E+00 -0.28429068314E+03  0.14841970916E+04  0.14567154198E+04 0.  0.
        1    1    3    3  502    0 -0.14599863575E+03 -0.26255826261E+03 -0.81817815989E+03  0.87158932087E+03  0.50400001928E-02 0. -1.
       -1    1    3    3    0  502  0.14599863575E+03  0.26255826261E+03  0.53388747675E+03  0.61260777073E+03  0.50400001928E-02 0.  1.
</event>
<event>
 5   0  0.3274900E-04  0.1566019E+04  0.7818609E-02  0.8841700E-01
       -2   -1    0    0    0  501  0.00000000000E+00  0.00000000000E+00  0.10228374339E+04  0.10228374339E+04  0.25500000920E-02 0.  1.
        2   -1    0    0  501    0  0.00000000000E+00  0.00000000000E+00 -0.59941494569E+03  0.59941494569E+03  0.25500000920E-02 0. -1.
    10030    2    1    2    0    0  0.00000000000E+00  0.00000000000E+00  0.42342248824E+03  0.16222523796E+04  0.15660192143E+04 0.  0.
        3    1    3    3  502    0 -0.71584007207E+03 -0.31204240109E+03  0.15214366899E+03  0.79557851597E+03  0.10100000352E+00 0.  1.
       -3    1    3    3    0  502  0.71584007207E+03  0.31204240109E+03  0.27127881925E+03  0.82667386365E+03  0.10100000352E+00 0. -1.
</event>
<event>
 5   0  0.1819811E-04  0.1520818E+04  0.7818609E-02  0.8870726E-01
        1   -1    0    0  501    0  0.00000000000E+00  0.00000000000E+00  0.13157406400E+04  0.13157406400E+04  0.50400001928E-02 0. -1.
       -1   -1    0    0    0  501  0.00000000000E+00  0.00000000000E+00 -0.43946508577E+03  0.43946508580E+03  0.50400001928E-02 0.  1.
    10030    2    1    2    0    0  0.00000000000E+00  0.00000000000E+00  0.87627555425E+03  0.17552057258E+04  0.15208182972E+04 0.  0.
        1    1    3    3  502    0 -0.11545460027E+03  0.32838721125E+03 -0.34211356685E+03  0.48806722681E+03  0.50400001928E-02 0.  1.
       -1    1    3    3    0  502  0.11545460027E+03 -0.32838721125E+03  0.12183891211E+04  0.12671384990E+04  0.50400001928E-02 0. -1.
</event>
<event>
 5   0  0.3210612E-04  0.1614521E+04  0.7818609E-02  0.8811676E-01
        2   -1    0    0  501    0  0.00000000000E+00  0.00000000000E+00  0.48533182572E+03  0.48533182572E+03  0.25500000920E-02 0. -1.
       -2   -1    0    0    0  501  0.00000000000E+00  0.00000000000E+00 -0.13427300933E+04  0.13427300933E+04  0.25500000920E-02 0.  1.
    10030    2    1    2    0    0  0.00000000000E+00  0.00000000000E+00 -0.85739826763E+03  0.18280619191E+04  0.16145211645E+04 0.  0.
        2    1    3    3  502    0  0.19083317016E+03 -0.21808997279E+03 -0.12818040446E+04  0.13141545358E+04  0.25500000920E-02 0.  1.
       -2    1    3    3    0  502 -0.19083317016E+03  0.21808997279E+03  0.42440577699E+03  0.51390738331E+03  0.25500000920E-02 0. -1.
</event>
<event>
 5   0  0.3210612E-04  0.1580245E+04  0.7818609E-02  0.8832777E-01
        2   -1    0    0  501    0  0.00000000000E+00  0.00000000000E+00  0.13170716078E+04  0.13170716078E+04  0.25500000920E-02 0. -1.
       -2   -1    0    0    0  501  0.00000000000E+00  0.00000000000E+00 -0.47400144044E+03  0.47400144044E+03  0.25500000920E-02 0.  1.
    10030    2    1    2    0    0  0.00000000000E+00  0.00000000000E+00  0.84307016732E+03  0.17910730482E+04  0.15802453471E+04 0.  0.
        2    1    3    3  502    0  0.18168045198E+02  0.35924605122E+03  0.12188872047E+04  0.12708555468E+04  0.25500000920E-02 0. -1.
       -2    1    3    3    0  502 -0.18168045198E+02 -0.35924605122E+03 -0.37581703734E+03  0.52021750138E+03  0.25500000920E-02 0.  1.
</event>
<event>
 5   0  0.1819811E-04  0.1606985E+04  0.7818609E-02  0.8816268E-01
        1   -1    0    0  501    0  0.00000000000E+00  0.00000000000E+00  0.56907027826E+03  0.56907027828E+03  0.50400001928E-02 0. -1.
       -1   -1    0    0    0  501  0.00000000000E+00  0.00000000000E+00 -0.11344830532E+04  0.11344830532E+04  0.50400001928E-02 0.  1.
    10030    2    1    2    0    0  0.00000000000E+00  0.00000000000E+00 -0.56541277493E+03  0.17035533315E+04  0.16069854844E+04 0.  0.
        1    1    3    3  502    0 -0.26315382526E+03 -0.48045341420E+03 -0.90583449128E+03  0.10585941359E+04  0.50400001928E-02 0.  1.
       -1    1    3    3    0  502  0.26315382526E+03  0.48045341420E+03  0.34042171635E+03  0.64495919557E+03  0.50400001928E-02 0. -1.
</event>
<event>
 5   0  0.1761255E-04  0.1615876E+04  0.7818609E-02  0.8810854E-01
       -1   -1    0    0    0  501  0.00000000000E+00  0.00000000000E+00  0.56107210052E+03  0.56107210054E+03  0.50400001928E-02 0. -1.
        1   -1    0    0  501    0  0.00000000000E+00  0.00000000000E+00 -0.11634219877E+04  0.11634219877E+04  0.50400001928E-02 0.  1.
    10030    2    1    2    0    0  0.00000000000E+00  0.00000000000E+00 -0.60234988717E+03  0.17244940882E+04  0.16158757606E+04 0.  0.
        2    1    3    3  502    0 -0.78300892358E+03 -0.19321707730E+03 -0.35266543635E+03  0.88023219855E+03  0.25500000920E-02 0. -1.
       -2    1    3    3    0  502  0.78300892358E+03  0.19321707730E+03 -0.24968445082E+03  0.84426188968E+03  0.25500000920E-02 0.  1.
</event>
<event>
 5   0  0.1764099E-04  0.1602667E+04  0.7818609E-02  0.8818911E-01
        1   -1    0    0  501    0  0.00000000000E+00  0.00000000000E+00  0.86871191762E+03  0.86871191763E+03  0.50400001928E-02 0.  1.
       -1   -1    0    0    0  501  0.00000000000E+00  0.00000000000E+00 -0.73918114954E+03  0.73918114956E+03  0.50400001928E-02 0. -1.
    10030    2    1    2    0    0  0.00000000000E+00  0.00000000000E+00  0.12953076807E+03  0.16078930672E+04  0.16026671194E+04 0.  0.
        5    1    3    3  502    0 -0.30833926865E+03 -0.45629840323E+03  0.64875627778E+03  0.85099244141E+03  0.46999998093E+01 0.  1.
       -5    1    3    3    0  502  0.30833926865E+03  0.45629840323E+03 -0.51922550971E+03  0.75690062578E+03  0.46999998093E+01 0. -1.
</event>
<event>
 5   0  0.3263294E-04  0.1605581E+04  0.7818609E-02  0.8817127E-01
       -2   -1    0    0    0  501  0.00000000000E+00  0.00000000000E+00  0.97565246590E+03  0.97565246590E+03  0.25500000920E-02 0.  1.
        2   -1    0    0  501    0  0.00000000000E+00  0.00000000000E+00 -0.66055525029E+03  0.66055525029E+03  0.25500000920E-02 0. -1.
    10030    2    1    2    0    0  0.00000000000E+00  0.00000000000E+00  0.31509721561E+03  0.16362077162E+04  0.16055807159E+04 0.  0.
        4    1    3    3  502    0  0.76844390164E+03 -0.22011446771E+03  0.81873517661E+02  0.80353051881E+03  0.12699999809E+01 0.  1.
       -4    1    3    3    0  502 -0.76844390164E+03  0.22011446771E+03  0.23322369795E+03  0.83267719739E+03  0.12699999809E+01 0. -1.
</event>
<event>
 5   0  0.1764099E-04  0.1554086E+04  0.7818609E-02  0.8849262E-01
        1   -1    0    0  501    0  0.00000000000E+00  0.00000000000E+00  0.17666018684E+04  0.17666018684E+04  0.50400001928E-02 0.  1.
       -1   -1    0    0    0  501  0.00000000000E+00  0.00000000000E+00 -0.34178364489E+03  0.34178364493E+03  0.50400001928E-02 0. -1.
    10030    2    1    2    0    0  0.00000000000E+00  0.00000000000E+00  0.14248182235E+04  0.21083855133E+04  0.15540857450E+04 0.  0.
        5    1    3    3  502    0  0.25087039795E+03 -0.73030229993E+03  0.59494813793E+03  0.97481422983E+03  0.46999998093E+01 0.  1.
       -5    1    3    3    0  502 -0.25087039795E+03  0.73030229993E+03  0.82987008559E+03  0.11335712835E+04  0.46999998093E+01 0. -1.
</event>
<event>
 5   0  0.3228393E-04  0.1599537E+04  0.7818609E-02  0.8820833E-01
       -2   -1    0    0    0  501  0.00000000000E+00  0.00000000000E+00  0.36441745275E+03  0.36441745276E+03  0.25500000920E-02 0. -1.
        2   -1    0    0  501    0  0.00000000000E+00  0.00000000000E+00 -0.17552106631E+04  0.17552106631E+04  0.25500000920E-02 0.  1.
    10030    2    1    2    0    0  0.00000000000E+00  0.00000000000E+00 -0.13907932104E+04  0.21196281159E+04  0.15995366816E+04 0.  0.
        1    1    3    3  502    0  0.51316246655E+03 -0.58959423874E+03 -0.91978317034E+03  0.12070452203E+04  0.50400001928E-02 0.  1.
       -1    1    3    3    0  502 -0.51316246655E+03  0.58959423874E+03 -0.47101004002E+03  0.91258289556E+03  0.50400001928E-02 0. -1.
</event>
<event>
 5   0  0.1764099E-04  0.1576858E+04  0.7818609E-02  0.8834892E-01
       -1   -1    0    0    0  501  0.00000000000E+00  0.00000000000E+00  0.27366733224E+03  0.27366733229E+03  0.50400001928E-02 0.  1.
        1   -1    0    0  501    0  0.00000000000E+00  0.00000000000E+00 -0.22714461455E+04  0.22714461455E+04  0.50400001928E-02 0. -1.
    10030    2    1    2    0    0  0.00000000000E+00  0.00000000000E+00 -0.19977788133E+04  0.25451134778E+04  0.15768584046E+04 0.  0.
        5    1    3    3  502    0  0.46939219942E+03  0.21238287257E+03 -0.19621390376E+04  0.20286565047E+04  0.46999998093E+01 0. -1.
       -5    1    3    3    0  502 -0.46939219942E+03 -0.21238287257E+03 -0.35639775717E+02  0.51645697309E+03  0.46999998093E+01 0.  1.
</event>
<event>
 5   0  0.1736537E-04  0.1598787E+04  0.7818609E-02  0.8821293E-01
        1   -1    0    0  501    0  0.00000000000E+00  0.00000000000E+00  0.73698999448E+03  0.73698999450E+03  0.50400001928E-02 0.  1.
       -1   -1    0    0    0  501  0.00000000000E+00  0.00000000000E+00 -0.86708129628E+03  0.86708129629E+03  0.50400001928E-02 0. -1.
    10030    2    1    2    0    0  0.00000000000E+00  0.00000000000E+00 -0.13009130180E+03  0.16040712908E+04  0.15987873402E+04 0.  0.
        3    1    3    3  502    0 -0.18922421233E+03  0.23247824183E+03  0.67846919945E+03  0.74173607184E+03  0.10100000352E+00 0.  1.
       -3    1    3    3    0  502  0.18922421233E+03 -0.23247824183E+03 -0.80856050125E+03  0.86233521895E+03  0.10100000352E+00 0. -1.
</event>
<event>
 5   0  0.1736537E-04  0.1589134E+04  0.7818609E-02  0.8827251E-01
        1   -1    0    0  501    0  0.00000000000E+00  0.00000000000E+00  0.18729730691E+04  0.18729730691E+04  0.50400001928E-02 0.  1.
       -1   -1    0    0    0  501  0.00000000000E+00  0.00000000000E+00 -0.33707727467E+03  0.33707727470E+03  0.50400001928E-02 0. -1.
    10030    2    1    2    0    0  0.00000000000E+00  0.00000000000E+00  0.15358957944E+04  0.22100503438E+04  0.15891339248E+04 0.  0.
        3    1    3    3  502    0  0.68841305379E+03  0.55194644170E+02  0.22151869193E+03  0.72527892734E+03  0.10100000352E+00 0. -1.
       -3    1    3    3    0  502 -0.68841305379E+03 -0.55194644170E+02  0.13143771025E+04  0.14847714165E+04  0.10100000352E+00 0.  1.
</event>
<event>
 5   0  0.1764099E-04  0.1605431E+04  0.7818609E-02  0.8817218E-01
        1   -1    0    0  501    0  0.00000000000E+00  0.00000000000E+00  0.46704142526E+03  0.46704142529E+03  0.50400001928E-02 0. -1.
       -1   -1    0    0    0  501  0.00000000000E+00  0.00000000000E+00 -0.13796466778E+04  0.13796466778E+04  0.50400001928E-02 0.  1.
    10030    2    1    2    0    0  0.00000000000E+00  0.00000000000E+00 -0.91260525250E+03  0.18466881031E+04  0.16054309711E+04 0.  0.
        5    1    3    3  502    0 -0.45867200673E+03 -0.43538305337E+03 -0.10249526928E+04  0.12043622899E+04  0.46999998093E+01 0.  1.
       -5    1    3    3    0  502  0.45867200673E+03  0.43538305337E+03  0.11234744026E+03  0.64232581316E+03  0.46999998093E+01 0. -1.
</event>
<event>
 5   0  0.3263294E-04  0.1604592E+04  0.7818609E-02  0.8817732E-01
       -2   -1    0    0    0  501  0.00000000000E+00  0.00000000000E+00  0.84074258279E+03  0.84074258280E+03  0.25500000920E-02 0.  1.
        2   -1    0    0  501    0  0.00000000000E+00  0.00000000000E+00 -0.76560791651E+03  0.76560791651E+03  0.25500000920E-02 0. -1.
    10030    2    1    2    0    0  0.00000000000E+00  0.00000000000E+00  0.75134666283E+02  0.16063504993E+04  0.16045923808E+04 0.  0.
        4    1    3    3  502    0  0.51011325839E+03  0.56473171956E+03  0.29189314933E+03  0.81507096316E+03  0.12699999809E+01 0.  1.
       -4    1    3    3    0  502 -0.51011325839E+03 -0.56473171956E+03 -0.21675848304E+03  0.79127953615E+03  0.12699999809E+01 0. -1.
</event>
<event>
 5   0  0.3274900E-04  0.1580506E+04  0.7818609E-02  0.8832614E-01
       -2   -1    0    0    0  501  0.00000000000E+00  0.00000000000E+00  0.19891699313E+04  0.19891699313E+04  0.25500000920E-02 0.  1.
        2   -1    0    0  501    0  0.00000000000E+00  0.00000000000E+00 -0.31394993181E+03  0.31394993182E+03  0.25500000920E-02 0. -1.
    10030    2    1    2    0    0  0.00000000000E+00  0.00000000000E+00  0.16752199995E+04  0.23031198632E+04  0.15805059498E+04 0.  0.
        3    1    3    3  502    0 -0.65425515573E+03  0.17304379328E+03  0.14322239269E+04  0.15840641875E+04  0.10100000352E+00 0. -1.
       -3    1    3    3    0  502  0.65425515573E+03 -0.17304379328E+03  0.24299607266E+03  0.71905567567E+03  0.10100000352E+00 0.  1.
</event>
<event>
 5   0  0.3210612E-04  0.1600797E+04  0.7818609E-02  0.8820058E-01
       -2   -1    0    0    0  501  0.00000000000E+00  0.00000000000E+00  0.26414038221E+03  0.26414038223E+03  0.25500000920E-02 0. -1.
        2   -1    0    0  501    0  0.00000000000E+00  0.00000000000E+00 -0.24253696489E+04  0.24253696489E+04  0.25500000920E-02 0.  1.
    10030    2    1    2    0    0  0.00000000000E+00  0.00000000000E+00 -0.21612292666E+04  0.26895100311E+04  0.16007973839E+04 0.  0.
        2    1    3    3  502    0  0.65333952672E+03  0.18363396742E+03 -0.17935503355E+04  0.19176539774E+04  0.25500000920E-02 0.  1.
       -2    1    3    3    0  502 -0.65333952672E+03 -0.18363396742E+03 -0.36767893116E+03  0.77185605367E+03  0.25500000920E-02 0. -1.
</event>
<event>
 5   0  0.3228393E-04  0.1593130E+04  0.7818609E-02  0.8824779E-01
        2   -1    0    0  501    0  0.00000000000E+00  0.00000000000E+00  0.23187813874E+04  0.23187813874E+04  0.25500000920E-02 0.  1.
       -2   -1    0    0    0  501  0.00000000000E+00  0.00000000000E+00 -0.27364202333E+03  0.27364202334E+03  0.25500000920E-02 0. -1.
    10030    2    1    2    0    0  0.00000000000E+00  0.00000000000E+00  0.20451393641E+04  0.25924234107E+04  0.15931302904E+04 0.  0.
        1    1    3    3  502    0  0.20938860043E+03  0.67885574038E+03  0.16088937199E+04  0.17587574319E+04  0.50400001928E-02 0.  1.
       -1    1    3    3    0  502 -0.20938860043E+03 -0.67885574038E+03  0.43624564419E+03  0.83366597888E+03  0.50400001928E-02 0. -1.
</event>
<event>
 5   0  0.3380454E-04  0.1599397E+04  0.7818609E-02  0.8820918E-01
        2   -1    0    0  501    0  0.00000000000E+00  0.00000000000E+00  0.10540883684E+04  0.10540883684E+04  0.25500000920E-02 0.  1.
       -2   -1    0    0    0  501  0.00000000000E+00  0.00000000000E+00 -0.60670224121E+03  0.60670224121E+03  0.25500000920E-02 0. -1.
    10030    2    1    2    0    0  0.00000000000E+00  0.00000000000E+00  0.44738612719E+03  0.16607906096E+04  0.15993971058E+04 0.  0.
        5    1    3    3  502    0  0.40954157837E+03 -0.58665789668E+03 -0.14723572194E+03  0.73047398308E+03  0.46999998093E+01 0.  1.
       -5    1    3    3    0  502 -0.40954157837E+03  0.58665789668E+03  0.59462184913E+03  0.93031662653E+03  0.46999998093E+01 0. -1.
</event>
<event>
 5   0  0.3274900E-04  0.1611531E+04  0.7818609E-02  0.8813495E-01
       -2   -1    0    0    0  501  0.00000000000E+00  0.00000000000E+00  0.38434649572E+03  0.38434649572E+03  0.25500000920E-02 0.  1.
        2   -1    0    0  501    0  0.00000000000E+00  0.00000000000E+00 -0.16892522786E+04  0.16892522786E+04  0.25500000920E-02 0. -1.
    10030    2    1    2    0    0  0.00000000000E+00  0.00000000000E+00 -0.13049057829E+04  0.20735987743E+04  0.16115311895E+04 0.  0.
        3    1    3    3  502    0 -0.59903828177E+03  0.53270714213E+03 -0.54764655720E+03  0.97084526270E+03  0.10100000352E+00 0. -1.
       -3    1    3    3    0  502  0.59903828177E+03 -0.53270714213E+03 -0.75725922568E+03  0.11027535116E+04  0.10100000352E+00 0.  1.
</event>
<event>
 5   0  0.1819811E-04  0.1585961E+04  0.7818609E-02  0.8829220E-01
       -1   -1    0    0    0  501  0.00000000000E+00  0.00000000000E+00  0.35060903356E+03  0.35060903359E+03  0.50400001928E-02 0.  1.
        1   -1    0    0  501    0  0.00000000000E+00  0.00000000000E+00 -0.17935017118E+04  0.17935017118E+04  0.50400001928E-02 0. -1.
    10030    2    1    2    0    0  0.00000000000E+00  0.00000000000E+00 -0.14428926782E+04  0.21441107454E+04  0.15859607837E+04 0.  0.
        1    1    3    3  502    0  0.54559934976E+03  0.31900798755E+03 -0.73966778262E+02  0.63632997014E+03  0.50400001928E-02 0.  1.
       -1    1    3    3    0  502 -0.54559934976E+03 -0.31900798755E+03 -0.13689258999E+04  0.15077807752E+04  0.50400001928E-02 0. -1.
</event>
<event>
 5   0  0.1736537E-04  0.1601566E+04  0.7818609E-02  0.8819587E-01
        1   -1    0    0  501    0  0.00000000000E+00  0.00000000000E+00  0.11490144342E+04  0.11490144343E+04  0.50400001928E-02 0.  1.
       -1   -1    0    0    0  501  0.00000000000E+00  0.00000000000E+00 -0.55808995864E+03  0.55808995867E+03  0.50400001928E-02 0. -1.
    10030    2    1    2    0    0  0.00000000000E+00  0.00000000000E+00  0.59092447560E+03  0.17071043929E+04  0.16015660063E+04 0.  0.
        3    1    3    3  502    0 -0.52169165913E+03 -0.38331233908E+03  0.79786379601E+03  0.10274615242E+04  0.10100000352E+00 0. -1.
       -3    1    3    3    0  502  0.52169165913E+03  0.38331233908E+03 -0.20693932041E+03  0.67964286874E+03  0.10100000352E+00 0.  1.
</event>
<event>
 5   0  0.1764099E-04  0.1603464E+04  0.7818609E-02  0.8818423E-01
       -1   -1    0    0    0  501  0.00000000000E+00  0.00000000000E+00  0.64302242096E+03  0.64302242098E+03  0.50400001928E-02 0.  1.
        1   -1    0    0  501    0  0.00000000000E+00  0.00000000000E+00 -0.99961444878E+03  0.99961444879E+03  0.50400001928E-02 0. -1.
    10030    2    1    2    0    0  0.00000000000E+00  0.00000000000E+00 -0.35659202782E+03  0.16426368698E+04  0.16034643780E+04 0.  0.
        5    1    3    3  502    0 -0.38943302392E+03 -0.47985387958E+03 -0.70149252563E+03  0.93489661428E+03  0.46999998093E+01 0. -1.
       -5    1    3    3    0  502  0.38943302392E+03  0.47985387958E+03  0.34490049782E+03  0.70774025550E+03  0.46999998093E+01 0.  1.
</event>
<event>
 5   0  0.1736537E-04  0.1603549E+04  0.7818609E-02  0.8818371E-01
       -1   -1    0    0    0  501  0.00000000000E+00  0.00000000000E+00  0.75067355602E+03  0.75067355603E+03  0.50400001928E-02 0. -1.
        1   -1    0    0  501    0  0.00000000000E+00  0.00000000000E+00 -0.85635438399E+03  0.85635438400E+03  0.50400001928E-02 0.  1.
    10030    2    1    2    0    0  0.00000000000E+00  0.00000000000E+00 -0.10568082797E+03  0.16070279400E+04  0.16035493016E+04 0.  0.
        3    1    3    3  502    0  0.52916868356E+03 -0.38292548008E+03 -0.51881268974E+03  0.83415708125E+03  0.10100000352E+00 0.  1.
       -3    1    3    3    0  502 -0.52916868356E+03  0.38292548008E+03  0.41313186177E+03  0.77287085879E+03  0.10100000352E+00 0. -1.
</event>
<event>
 5   0  0.3210612E-04  0.1590578E+04  0.7818609E-02  0.8826357E-01
        2   -1    0    0  501    0  0.00000000000E+00  0.00000000000E+00  0.16162861020E+04  0.16162861020E+04  0.25500000920E-02 0.  1.
       -2   -1    0    0    0  501  0.00000000000E+00  0.00000000000E+00 -0.39131978431E+03  0.39131978432E+03  0.25500000920E-02 0. -1.
    10030    2    1    2    0    0  0.00000000000E+00  0.00000000000E+00  0.12249663177E+04  0.20076058864E+04  0.15905781702E+04 0.  0.
        2    1    3    3  502    0 -0.12400240916E+03  0.55606887294E+03 -0.87882981392E+02  0.57646561680E+03  0.25500000920E-02 0. -1.
       -2    1    3    3    0  502  0.12400240916E+03 -0.55606887294E+03  0.13128492991E+04  0.14311402696E+04  0.25500000920E-02 0.  1.
</event>
<event>
 5   0  0.3274900E-04  0.1603462E+04  0.7818609E-02  0.8818424E-01
        2   -1    0    0  501    0  0.00000000000E+00  0.00000000000E+00  0.67776269185E+03  0.67776269186E+03  0.25500000920E-02 0. -1.
       -2   -1    0    0    0  501  0.00000000000E+00  0.00000000000E+00 -0.94837464042E+03  0.94837464043E+03  0.25500000920E-02 0.  1.
    10030    2    1    2    0    0  0.00000000000E+00  0.00000000000E+00 -0.27061194857E+03  0.16261373323E+04  0.16034624401E+04 0.  0.
        3    1    3    3  502    0 -0.50858602561E+03 -0.36769822695E+03 -0.64127118287E+03  0.89726833876E+03  0.10100000352E+00 0.  1.
       -3    1    3    3    0  502  0.50858602561E+03  0.36769822695E+03  0.37065923430E+03  0.72886899353E+03  0.10100000352E+00 0. -1.
</event>
<event>
 5   0  0.1736537E-04  0.1629806E+04  0.7818609E-02  0.8802444E-01
        1   -1    0    0  501    0  0.00000000000E+00  0.00000000000E+00  0.11210361116E+04  0.11210361116E+04  0.50400001928E-02 0.  1.
       -1   -1    0    0    0  501  0.00000000000E+00  0.00000000000E+00 -0.59236858676E+03  0.59236858678E+03  0.50400001928E-02 0. -1.
    10030    2    1    2    0    0  0.00000000000E+00  0.00000000000E+00  0.52866752486E+03  0.17134046984E+04  0.16298056046E+04 0.  0.
        3    1    3    3  502    0 -0.51436144362E+02 -0.37634964309E+03  0.10222735332E+04  0.10905631195E+04  0.10100000352E+00 0.  1.
       -3    1    3    3    0  502  0.51436144362E+02  0.37634964309E+03 -0.49360600830E+03  0.62284157892E+03  0.10100000352E+00 0. -1.
</event>
<event>
 5   0  0.1761255E-04  0.1597001E+04  0.7818609E-02  0.8822392E-01
       -1   -1    0    0    0  501  0.00000000000E+00  0.00000000000E+00  0.63418306555E+03  0.63418306557E+03  0.50400001928E-02 0. -1.
        1   -1    0    0  501    0  0.00000000000E+00  0.00000000000E+00 -0.10053931405E+04  0.10053931405E+04  0.50400001928E-02 0.  1.
    10030    2    1    2    0    0  0.00000000000E+00  0.00000000000E+00 -0.37121007497E+03  0.16395762061E+04  0.15970013199E+04 0.  0.
        2    1    3    3  502    0 -0.15951567573E+03 -0.96324004661E+02 -0.98275802216E+03  0.10002684114E+04  0.25500000920E-02 0.  1.
       -2    1    3    3    0  502  0.15951567573E+03  0.96324004661E+02  0.61154794719E+03  0.63930779473E+03  0.25500000920E-02 0. -1.
</event>
<event>
 5   0  0.3210612E-04  0.1594860E+04  0.7818609E-02  0.8823712E-01
       -2   -1    0    0    0  501  0.00000000000E+00  0.00000000000E+00  0.47163975824E+03  0.47163975824E+03  0.25500000920E-02 0.  1.
        2   -1    0    0  501    0  0.00000000000E+00  0.00000000000E+00 -0.13482627997E+04  0.13482627997E+04  0.25500000920E-02 0. -1.
    10030    2    1    2    0    0  0.00000000000E+00  0.00000000000E+00 -0.87662304144E+03  0.18199025579E+04  0.15948596689E+04 0.  0.
        2    1    3    3  502    0  0.19249351034E+03 -0.23129949665E+03  0.40436285402E+03  0.50404615502E+03  0.25500000920E-02 0.  1.
       -2    1    3    3    0  502 -0.19249351034E+03  0.23129949665E+03 -0.12809858955E+04  0.13158564029E+04  0.25500000920E-02 0. -1.
</event>
<event>
 5   0  0.1787688E-04  0.1575487E+04  0.7818609E-02  0.8835750E-01
        1   -1    0    0  501    0  0.00000000000E+00  0.00000000000E+00  0.50413658115E+03  0.50413658118E+03  0.50400001928E-02 0. -1.
       -1   -1    0    0    0  501  0.00000000000E+00  0.00000000000E+00 -0.12308959889E+04  0.12308959889E+04  0.50400001928E-02 0.  1.
    10030    2    1    2    0    0  0.00000000000E+00  0.00000000000E+00 -0.72675940775E+03  0.17350325701E+04  0.15754868398E+04 0.  0.
        4    1    3    3  502    0 -0.80524877172E+02  0.11272051767E+03  0.49061613693E+03  0.50979993886E+03  0.12699999809E+01 0. -1.
       -4    1    3    3    0  502  0.80524877172E+02 -0.11272051767E+03 -0.12173755447E+04  0.12252326312E+04  0.12699999809E+01 0.  1.
</event>
<event>
 5   0  0.3228393E-04  0.1599784E+04  0.7818609E-02  0.8820681E-01
       -2   -1    0    0    0  501  0.00000000000E+00  0.00000000000E+00  0.33744674792E+03  0.33744674793E+03  0.25500000920E-02 0.  1.
        2   -1    0    0  501    0  0.00000000000E+00  0.00000000000E+00 -0.18960843163E+04  0.18960843163E+04  0.25500000920E-02 0. -1.
    10030    2    1    2    0    0  0.00000000000E+00  0.00000000000E+00 -0.15586375684E+04  0.22335310642E+04  0.15997843434E+04 0.  0.
        1    1    3    3  502    0 -0.68827432545E+03 -0.10527595343E+03 -0.22961528515E+03  0.73316284184E+03  0.50400001928E-02 0.  1.
       -1    1    3    3    0  502  0.68827432545E+03  0.10527595343E+03 -0.13290222832E+04  0.15003682224E+04  0.50400001928E-02 0. -1.
</event>
<event>
 5   0  0.1787688E-04  0.1596476E+04  0.7818609E-02  0.8822716E-01
       -1   -1    0    0    0  501  0.00000000000E+00  0.00000000000E+00  0.26608737066E+03  0.26608737070E+03  0.50400001928E-02 0.  1.
        1   -1    0    0  501    0  0.00000000000E+00  0.00000000000E+00 -0.23946404501E+04  0.23946404501E+04  0.50400001928E-02 0. -1.
    10030    2    1    2    0    0  0.00000000000E+00  0.00000000000E+00 -0.21285530794E+04  0.26607278208E+04  0.15964755947E+04 0.  0.
        4    1    3    3  502    0 -0.23596943290E+03 -0.56630977217E+03 -0.19153884386E+04  0.20112440963E+04  0.12699999809E+01 0. -1.
       -4    1    3    3    0  502  0.23596943290E+03  0.56630977217E+03 -0.21316464077E+03  0.64948372443E+03  0.12699999809E+01 0.  1.
</event>
<event>
 5   0  0.1736537E-04  0.1593081E+04  0.7818609E-02  0.8824810E-01
       -1   -1    0    0    0  501  0.00000000000E+00  0.00000000000E+00  0.61191254189E+03  0.61191254191E+03  0.50400001928E-02 0.  1.
        1   -1    0    0  501    0  0.00000000000E+00  0.00000000000E+00 -0.10368743661E+04  0.10368743661E+04  0.50400001928E-02 0. -1.
    10030    2    1    2    0    0  0.00000000000E+00  0.00000000000E+00 -0.42496182421E+03  0.16487869080E+04  0.15930805742E+04 0.  0.
        3    1    3    3  502    0 -0.56813851415E+03 -0.54874162673E+03 -0.10603673955E+03  0.79695830788E+03  0.10100000352E+00 0. -1.
       -3    1    3    3    0  502  0.56813851415E+03  0.54874162673E+03 -0.31892508466E+03  0.85182860013E+03  0.10100000352E+00 0.  1.
</event>
<event>
 5   0  0.1761255E-04  0.1610783E+04  0.7818609E-02  0.8813951E-01
       -1   -1    0    0    0  501  0.00000000000E+00  0.00000000000E+00  0.10807529312E+04  0.10807529312E+04  0.50400001928E-02 0.  1.
        1   -1    0    0  501    0  0.00000000000E+00  0.00000000000E+00 -0.60018815638E+03  0.60018815641E+03  0.50400001928E-02 0. -1.
    10030    2    1    2    0    0  0.00000000000E+00  0.00000000000E+00  0.48056477480E+03  0.16809410876E+04  0.16107825543E+04 0.  0.
        2    1    3    3  502    0  0.54287260221E+03  0.48323505260E+03 -0.12186045783E+03  0.73693741218E+03  0.25500000920E-02 0. -1.
       -2    1    3    3    0  502 -0.54287260221E+03 -0.48323505260E+03  0.60242523263E+03  0.94400367542E+03  0.25500000920E-02 0.  1.
</event>
<event>
 5   0  0.3228393E-04  0.1577277E+04  0.7818609E-02  0.8834630E-01
       -2   -1    0    0    0  501  0.00000000000E+00  0.00000000000E+00  0.39555060657E+03  0.39555060658E+03  0.25500000920E-02 0.  1.
        2   -1    0    0  501    0  0.00000000000E+00  0.00000000000E+00 -0.15723669911E+04  0.15723669911E+04  0.25500000920E-02 0. -1.
    10030    2    1    2    0    0  0.00000000000E+00  0.00000000000E+00 -0.11768163845E+04  0.19679175977E+04  0.15772770424E+04 0.  0.
        1    1    3    3  502    0  0.27016945910E+03 -0.30778440637E+03  0.25247534373E+03  0.48110973452E+03  0.50400001928E-02 0.  1.
       -1    1    3    3    0  502 -0.27016945910E+03  0.30778440637E+03 -0.14292917283E+04  0.14868078632E+04  0.50400001928E-02 0. -1.
</event>
<event>
 5   0  0.3380454E-04  0.1611101E+04  0.7818609E-02  0.8813757E-01
        2   -1    0    0  501    0  0.00000000000E+00  0.00000000000E+00  0.11834670537E+04  0.11834670537E+04  0.25500000920E-02 0. -1.
       -2   -1    0    0    0  501  0.00000000000E+00  0.00000000000E+00 -0.54831393630E+03  0.54831393630E+03  0.25500000920E-02 0.  1.
    10030    2    1    2    0    0  0.00000000000E+00  0.00000000000E+00  0.63515311736E+03  0.17317809900E+04  0.16111008394E+04 0.  0.
        5    1    3    3  502    0 -0.94005220488E+02  0.57778975433E+03 -0.27723709171E+03  0.64773488149E+03  0.46999998093E+01 0.  1.
       -5    1    3    3    0  502  0.94005220488E+02 -0.57778975433E+03  0.91239020908E+03  0.10840461085E+04  0.46999998093E+01 0. -1.
</event>
<event>
 5   0  0.1764099E-04  0.1586732E+04  0.7818609E-02  0.8828741E-01
        1   -1    0    0  501    0  0.00000000000E+00  0.00000000000E+00  0.38544880389E+03  0.38544880392E+03  0.50400001928E-02 0. -1.
       -1   -1    0    0    0  501  0.00000000000E+00  0.00000000000E+00 -0.16329789194E+04  0.16329789194E+04  0.50400001928E-02 0.  1.
    10030    2    1    2    0    0  0.00000000000E+00  0.00000000000E+00 -0.12475301155E+04  0.20184277233E+04  0.15867322034E+04 0.  0.
        5    1    3    3  502    0  0.30522136172E+03  0.71263544579E+03 -0.83813106276E+03  0.11417071107E+04  0.46999998093E+01 0.  1.
       -5    1    3    3    0  502 -0.30522136172E+03 -0.71263544579E+03 -0.40939905277E+03  0.87672061265E+03  0.46999998093E+01 0. -1.
</event>
<event>
 5   0  0.3263294E-04  0.1549691E+04  0.7818609E-02  0.8852065E-01
       -2   -1    0    0    0  501  0.00000000000E+00  0.00000000000E+00  0.63889907153E+03  0.63889907153E+03  0.25500000920E-02 0.  1.
        2   -1    0    0  501    0  0.00000000000E+00  0.00000000000E+00 -0.93971921960E+03  0.93971921960E+03  0.25500000920E-02 0. -1.
    10030    2    1    2    0    0  0.00000000000E+00  0.00000000000E+00 -0.30082014807E+03  0.15786182911E+04  0.15496912427E+04 0.  0.
        4    1    3    3  502    0 -0.69281883067E+02 -0.50376842642E+03  0.44514090761E+03  0.67582146112E+03  0.12699999809E+01 0.  1.
       -4    1    3    3    0  502  0.69281883067E+02  0.50376842642E+03 -0.74596105568E+03  0.90279683001E+03  0.12699999809E+01 0. -1.
</event>
<event>
 5   0  0.1819811E-04  0.1611418E+04  0.7818609E-02  0.8813564E-01
        1   -1    0    0  501    0  0.00000000000E+00  0.00000000000E+00  0.16835944021E+04  0.16835944021E+04  0.50400001928E-02 0. -1.
       -1   -1    0    0    0  501  0.00000000000E+00  0.00000000000E+00 -0.38558409921E+03  0.38558409925E+03  0.50400001928E-02 0.  1.
    10030    2    1    2    0    0  0.00000000000E+00  0.00000000000E+00  0.12980103029E+04  0.20691785013E+04  0.16114182958E+04 0.  0.
        1    1    3    3  502    0  0.27744419356E+03  0.12099792847E+03 -0.30980393852E+03  0.43312152981E+03  0.50400001928E-02 0.  1.
       -1    1    3    3    0  502 -0.27744419356E+03 -0.12099792847E+03  0.16078142414E+04  0.16360569715E+04  0.50400001928E-02 0. -1.
</event>
<event>
 5   0  0.1764099E-04  0.1594078E+04  0.7818609E-02  0.8824194E-01
        1   -1    0    0  501    0  0.00000000000E+00  0.00000000000E+00  0.12208486288E+04  0.12208486288E+04  0.50400001928E-02 0.  1.
       -1   -1    0    0    0  501  0.00000000000E+00  0.00000000000E+00 -0.52035235375E+03  0.52035235378E+03  0.50400001928E-02 0. -1.
    10030    2    1    2    0    0  0.00000000000E+00  0.00000000000E+00  0.70049627502E+03  0.17412009826E+04  0.15940783639E+04 0.  0.
        5    1    3    3  502    0  0.32623687595E+03  0.16805036858E+03  0.11230623325E+04  0.11815085773E+04  0.46999998093E+01 0.  1.
       -5    1    3    3    0  502 -0.32623687595E+03 -0.16805036858E+03 -0.42256605745E+03  0.55969240527E+03  0.46999998093E+01 0. -1.
</event>
<event>
 5   0  0.1761255E-04  0.1600400E+04  0.7818609E-02  0.8820302E-01
       -1   -1    0    0    0  501  0.00000000000E+00  0.00000000000E+00  0.20253498718E+04  0.20253498718E+04  0.50400001928E-02 0. -1.
        1   -1    0    0  501    0  0.00000000000E+00  0.00000000000E+00 -0.31615281893E+03  0.31615281897E+03  0.50400001928E-02 0.  1.
    10030    2    1    2    0    0  0.00000000000E+00  0.00000000000E+00  0.17091970528E+04  0.23415026907E+04  0.16004000391E+04 0.  0.
        2    1    3    3  502    0 -0.74934690555E+03  0.86493747420E+02  0.12453188890E+04  0.14559605381E+04  0.25500000920E-02 0. -1.
       -2    1    3    3    0  502  0.74934690555E+03 -0.86493747420E+02  0.46387816384E+03  0.88554215263E+03  0.25500000920E-02 0.  1.
</event>
<event>
 5   0  0.1761255E-04  0.1606700E+04  0.7818609E-02  0.8816442E-01
        1   -1    0    0  501    0  0.00000000000E+00  0.00000000000E+00  0.11762669580E+04  0.11762669580E+04  0.50400001928E-02 0.  1.
       -1   -1    0    0    0  501  0.00000000000E+00  0.00000000000E+00 -0.54866083502E+03  0.54866083505E+03  0.50400001928E-02 0. -1.
    10030    2    1    2    0    0  0.00000000000E+00  0.00000000000E+00  0.62760612296E+03  0.17249277930E+04  0.16067004841E+04 0.  0.
        2    1    3    3  502    0  0.11384084327E+03 -0.24084219947E+02 -0.53956570527E+03  0.55197005132E+03  0.25500000920E-02 0. -1.
       -2    1    3    3    0  502 -0.11384084327E+03  0.24084219947E+02  0.11671718282E+04  0.11729577417E+04  0.25500000920E-02 0.  1.
</event>
<event>
 5   0  0.1764099E-04  0.1612243E+04  0.7818609E-02  0.8813062E-01
        1   -1    0    0  501    0  0.00000000000E+00  0.00000000000E+00  0.96216393180E+03  0.96216393181E+03  0.50400001928E-02 0.  1.
       -1   -1    0    0    0  501  0.00000000000E+00  0.00000000000E+00 -0.67538596818E+03  0.67538596820E+03  0.50400001928E-02 0. -1.
    10030    2    1    2    0    0  0.00000000000E+00  0.00000000000E+00  0.28677796362E+03  0.16375499000E+04  0.16122431810E+04 0.  0.
        5    1    3    3  502    0 -0.41965320317E+03 -0.66751140495E+03  0.31374053456E+03  0.84860797762E+03  0.46999998093E+01 0. -1.
       -5    1    3    3    0  502  0.41965320317E+03  0.66751140495E+03 -0.26962570938E+02  0.78894192238E+03  0.46999998093E+01 0.  1.
</event>
<event>
 5   0  0.1764099E-04  0.1604530E+04  0.7818609E-02  0.8817770E-01
       -1   -1    0    0    0  501  0.00000000000E+00  0.00000000000E+00  0.28619410323E+04  0.28619410323E+04  0.50400001928E-02 0. -1.
        1   -1    0    0  501    0  0.00000000000E+00  0.00000000000E+00 -0.22489238042E+03  0.22489238048E+03  0.50400001928E-02 0.  1.
    10030    2    1    2    0    0  0.00000000000E+00  0.00000000000E+00  0.26370486519E+04  0.30868334128E+04  0.16045295030E+04 0.  0.
        5    1    3    3  502    0  0.58689378656E+03 -0.23779869672E+03  0.22661209574E+04  0.23529383376E+04  0.46999998093E+01 0. -1.
       -5    1    3    3    0  502 -0.58689378656E+03  0.23779869672E+03  0.37092769444E+03  0.73389507518E+03  0.46999998093E+01 0.  1.
</event>
<event>
 5   0  0.1761255E-04  0.1604029E+04  0.7818609E-02  0.8818077E-01
       -1   -1    0    0    0  501  0.00000000000E+00  0.00000000000E+00  0.97759384662E+03  0.97759384664E+03  0.50400001928E-02 0.  1.
        1   -1    0    0  501    0  0.00000000000E+00  0.00000000000E+00 -0.65796986255E+03  0.65796986257E+03  0.50400001928E-02 0. -1.
    10030    2    1    2    0    0  0.00000000000E+00  0.00000000000E+00  0.31962398407E+03  0.16355637092E+04  0.16040290383E+04 0.  0.
        2    1    3    3  502    0 -0.33149106064E+03  0.50895542543E+03 -0.37422626645E+03  0.71341940460E+03  0.25500000920E-02 0. -1.
       -2    1    3    3    0  502  0.33149106064E+03 -0.50895542543E+03  0.69385025052E+03  0.92214430460E+03  0.25500000920E-02 0.  1.
</event>
<event>
 5   0  0.1761255E-04  0.1604439E+04  0.7818609E-02  0.8817826E-01
        1   -1    0    0  501    0  0.00000000000E+00  0.00000000000E+00  0.10004690517E+04  0.10004690517E+04  0.50400001928E-02 0.  1.
       -1   -1    0    0    0  501  0.00000000000E+00  0.00000000000E+00 -0.64325423789E+03  0.64325423791E+03  0.50400001928E-02 0. -1.
    10030    2    1    2    0    0  0.00000000000E+00  0.00000000000E+00  0.35721481377E+03  0.16437232896E+04  0.16044387896E+04 0.  0.
        2    1    3    3  502    0 -0.57808711128E+03  0.15012121258E+03  0.72729043820E+03  0.94110173106E+03  0.25500000920E-02 0.  1.
       -2    1    3    3    0  502  0.57808711128E+03 -0.15012121258E+03 -0.37007562442E+03  0.70262155852E+03  0.25500000920E-02 0. -1.
</event>
<event>
 5   0  0.1219463E-04  0.1595450E+04  0.7818609E-02  0.8823348E-01
       -4   -1    0    0    0  501  0.00000000000E+00  0.00000000000E+00  0.12240147802E+04  0.12240154391E+04  0.12699999809E+01 0.  1.
        4   -1    0    0  501    0  0.00000000000E+00  0.00000000000E+00 -0.51989811777E+03  0.51989966894E+03  0.12699999809E+01 0. -1.
    10030    2    1    2    0    0  0.00000000000E+00  0.00000000000E+00  0.70411666246E+03  0.17439151080E+04  0.15954496638E+04 0.  0.
        1    1    3    3  502    0 -0.64868330055E+03  0.92020295315E+02 -0.14538060689E+03  0.67111346288E+03  0.50400001928E-02 0. -1.
       -1    1    3    3    0  502  0.64868330055E+03 -0.92020295315E+02  0.84949726936E+03  0.10728016452E+04  0.50400001928E-02 0.  1.
</event>
<event>
 5   0  0.3228393E-04  0.1611190E+04  0.7818609E-02  0.8813703E-01
       -2   -1    0    0    0  501  0.00000000000E+00  0.00000000000E+00  0.16875655419E+04  0.16875655419E+04  0.25500000920E-02 0.  1.
        2   -1    0    0  501    0  0.00000000000E+00  0.00000000000E+00 -0.38456788517E+03  0.38456788518E+03  0.25500000920E-02 0. -1.
    10030    2    1    2    0    0  0.00000000000E+00  0.00000000000E+00  0.13029976568E+04  0.20721334271E+04  0.16111902576E+04 0.  0.
        1    1    3    3  502    0 -0.59005278369E+03 -0.24585889849E+03  0.12820425421E+04  0.14325648207E+04  0.50400001928E-02 0.  1.
       -1    1    3    3    0  502  0.59005278369E+03  0.24585889849E+03  0.20955114627E+02  0.63956860645E+03  0.50400001928E-02 0. -1.
</event>
<event>
 5   0  0.1764099E-04  0.1586334E+04  0.7818609E-02  0.8828988E-01
        1   -1    0    0  501    0  0.00000000000E+00  0.00000000000E+00  0.12469410073E+04  0.12469410073E+04  0.50400001928E-02 0.  1.
       -1   -1    0    0    0  501  0.00000000000E+00  0.00000000000E+00 -0.50452550884E+03  0.50452550887E+03  0.50400001928E-02 0. -1.
    10030    2    1    2    0    0  0.00000000000E+00  0.00000000000E+00  0.74241549846E+03  0.17514665162E+04  0.15863335667E+04 0.  0.
        5    1    3    3  502    0  0.47967206518E+03  0.49677061589E+03  0.80198274764E+03  0.10583311166E+04  0.46999998093E+01 0.  1.
       -5    1    3    3    0  502 -0.47967206518E+03 -0.49677061589E+03 -0.59567249180E+02  0.69313539955E+03  0.46999998093E+01 0. -1.
</event>
<event>
 5   0  0.1761255E-04  0.1593398E+04  0.7818609E-02  0.8824614E-01
       -1   -1    0    0    0  501  0.00000000000E+00  0.00000000000E+00  0.24452429671E+03  0.24452429676E+03  0.50400001928E-02 0. -1.
        1   -1    0    0  501    0  0.00000000000E+00  0.00000000000E+00 -0.25957714673E+04  0.25957714673E+04  0.50400001928E-02 0.  1.
    10030    2    1    2    0    0  0.00000000000E+00  0.00000000000E+00 -0.23512471706E+04  0.28402957641E+04  0.15933978694E+04 0.  0.
        2    1    3    3  502    0  0.74797516582E+03  0.21539309858E+03 -0.14784884284E+04  0.16708647666E+04  0.25500000920E-02 0.  1.
       -2    1    3    3    0  502 -0.74797516582E+03 -0.21539309858E+03 -0.87275874225E+03  0.11694309974E+04  0.25500000920E-02 0. -1.
</event>
<event>
 5   0  0.1819811E-04  0.1613044E+04  0.7818609E-02  0.8812574E-01
        1   -1    0    0  501    0  0.00000000000E+00  0.00000000000E+00  0.62527890480E+03  0.62527890482E+03  0.50400001928E-02 0. -1.
       -1   -1    0    0    0  501  0.00000000000E+00  0.00000000000E+00 -0.10403007344E+04  0.10403007344E+04  0.50400001928E-02 0.  1.
    10030    2    1    2    0    0  0.00000000000E+00  0.00000000000E+00 -0.41502182956E+03  0.16655796392E+04  0.16130444555E+04 0.  0.
        1    1    3    3  502    0  0.61671776581E+03  0.46964534489E+03  0.22384834072E+02  0.77550540517E+03  0.50400001928E-02 0.  1.
       -1    1    3    3    0  502 -0.61671776581E+03 -0.46964534489E+03 -0.43740666363E+03  0.89007423401E+03  0.50400001928E-02 0. -1.
</event>
<event>
 5   0  0.3380454E-04  0.1627102E+04  0.7818609E-02  0.8804069E-01
       -2   -1    0    0    0  501  0.00000000000E+00  0.00000000000E+00  0.42703239409E+03  0.42703239410E+03  0.25500000920E-02 0.  1.
        2   -1    0    0  501    0  0.00000000000E+00  0.00000000000E+00 -0.15499185564E+04  0.15499185564E+04  0.25500000920E-02 0. -1.
    10030    2    1    2    0    0  0.00000000000E+00  0.00000000000E+00 -0.11228861623E+04  0.19769509505E+04  0.16271022485E+04 0.  0.
        5    1    3    3  502    0 -0.25112740735E+03 -0.11527248921E+03 -0.14911392045E+04  0.15165325380E+04  0.46999998093E+01 0. -1.
       -5    1    3    3    0  502  0.25112740735E+03  0.11527248921E+03  0.36825304221E+03  0.46041841252E+03  0.46999998093E+01 0.  1.
</event>
<event>
 5   0  0.3380454E-04  0.1593727E+04  0.7818609E-02  0.8824411E-01
       -2   -1    0    0    0  501  0.00000000000E+00  0.00000000000E+00  0.47827828466E+03  0.47827828467E+03  0.25500000920E-02 0.  1.
        2   -1    0    0  501    0  0.00000000000E+00  0.00000000000E+00 -0.13276611927E+04  0.13276611927E+04  0.25500000920E-02 0. -1.
    10030    2    1    2    0    0  0.00000000000E+00  0.00000000000E+00 -0.84938290803E+03  0.18059394774E+04  0.15937271007E+04 0.  0.
        5    1    3    3  502    0 -0.19518690037E+03  0.51199592069E+03 -0.10802894871E+04  0.12113154894E+04  0.46999998093E+01 0. -1.
       -5    1    3    3    0  502  0.19518690037E+03 -0.51199592069E+03  0.23090657904E+03  0.59462398801E+03  0.46999998093E+01 0.  1.
</event>
<event>
 5   0  0.3263294E-04  0.1595706E+04  0.7818609E-02  0.8823190E-01
       -2   -1    0    0    0  501  0.00000000000E+00  0.00000000000E+00  0.89494677843E+03  0.89494677843E+03  0.25500000920E-02 0.  1.
        2   -1    0    0  501    0  0.00000000000E+00  0.00000000000E+00 -0.71129325804E+03  0.71129325804E+03  0.25500000920E-02 0. -1.
    10030    2    1    2    0    0  0.00000000000E+00  0.00000000000E+00  0.18365352039E+03  0.16062400365E+04  0.15957062509E+04 0.  0.
        4    1    3    3  502    0  0.31907801980E+03  0.71585453949E+03 -0.58522863601E+02  0.78592941343E+03  0.12699999809E+01 0.  1.
       -4    1    3    3    0  502 -0.31907801980E+03 -0.71585453949E+03  0.24217638399E+03  0.82031062305E+03  0.12699999809E+01 0. -1.
</event>
<event>
 5   0  0.1764099E-04  0.1611894E+04  0.7818609E-02  0.8813274E-01
       -1   -1    0    0    0  501  0.00000000000E+00  0.00000000000E+00  0.65592950585E+03  0.65592950587E+03  0.50400001928E-02 0. -1.
        1   -1    0    0  501    0  0.00000000000E+00  0.00000000000E+00 -0.99027461918E+03  0.99027461919E+03  0.50400001928E-02 0.  1.
    10030    2    1    2    0    0  0.00000000000E+00  0.00000000000E+00 -0.33434511333E+03  0.16462041251E+04  0.16118937206E+04 0.  0.
        5    1    3    3  502    0  0.36742303706E+03 -0.70032570521E+03 -0.87169501345E+01  0.79091962724E+03  0.46999998093E+01 0. -1.
       -5    1    3    3    0  502 -0.36742303706E+03  0.70032570521E+03 -0.32562816319E+03  0.85528449781E+03  0.46999998093E+01 0.  1.
</event>
<event>
 5   0  0.3210612E-04  0.1603075E+04  0.7818609E-02  0.8818661E-01
       -2   -1    0    0    0  501  0.00000000000E+00  0.00000000000E+00  0.44806594237E+03  0.44806594238E+03  0.25500000920E-02 0.  1.
        2   -1    0    0  501    0  0.00000000000E+00  0.00000000000E+00 -0.14338564064E+04  0.14338564064E+04  0.25500000920E-02 0. -1.
    10030    2    1    2    0    0  0.00000000000E+00  0.00000000000E+00 -0.98579046401E+03  0.18819223488E+04  0.16030748229E+04 0.  0.
        2    1    3    3  502    0  0.13326575680E+03  0.43759859361E+03 -0.12655706723E+04  0.13457048033E+04  0.25500000920E-02 0. -1.
       -2    1    3    3    0  502 -0.13326575680E+03 -0.43759859361E+03  0.27978020831E+03  0.53621754544E+03  0.25500000920E-02 0.  1.
</event>
<event>
 5   0  0.1761255E-04  0.1599290E+04  0.7818609E-02  0.8820985E-01
        1   -1    0    0  501    0  0.00000000000E+00  0.00000000000E+00  0.11306520886E+04  0.11306520886E+04  0.50400001928E-02 0. -1.
       -1   -1    0    0    0  501  0.00000000000E+00  0.00000000000E+00 -0.56554254123E+03  0.56554254126E+03  0.50400001928E-02 0.  1.
    10030    2    1    2    0    0  0.00000000000E+00  0.00000000000E+00  0.56510954734E+03  0.16961946298E+04  0.15992896616E+04 0.  0.
        2    1    3    3  502    0  0.24629041954E+03  0.38586196292E+02  0.10883845495E+04  0.11165701021E+04  0.25500000920E-02 0. -1.
       -2    1    3    3    0  502 -0.24629041954E+03 -0.38586196292E+02 -0.52327500215E+03  0.57962452776E+03  0.25500000920E-02 0.  1.
</event>
<event>
 5   0  0.3210612E-04  0.1613484E+04  0.7818609E-02  0.8812307E-01
        2   -1    0    0  501    0  0.00000000000E+00  0.00000000000E+00  0.11322683305E+04  0.11322683305E+04  0.25500000920E-02 0.  1.
       -2   -1    0    0    0  501  0.00000000000E+00  0.00000000000E+00 -0.57480399949E+03  0.57480399949E+03  0.25500000920E-02 0. -1.
    10030    2    1    2    0    0  0.00000000000E+00  0.00000000000E+00  0.55746433099E+03  0.17070723300E+04  0.16134836409E+04 0.  0.
        2    1    3    3  502    0 -0.67443043047E+02 -0.75464521973E+03 -0.14459832333E+02  0.75779090683E+03  0.25500000920E-02 0. -1.
       -2    1    3    3    0  502  0.67443043047E+02  0.75464521973E+03  0.57192416333E+03  0.94928142314E+03  0.25500000920E-02 0.  1.
</event>
<event>
 5   0  0.1764099E-04  0.1604684E+04  0.7818609E-02  0.8817675E-01
       -1   -1    0    0    0  501  0.00000000000E+00  0.00000000000E+00  0.39844289315E+03  0.39844289318E+03  0.50400001928E-02 0.  1.
        1   -1    0    0  501    0  0.00000000000E+00  0.00000000000E+00 -0.16156719063E+04  0.16156719063E+04  0.50400001928E-02 0. -1.
    10030    2    1    2    0    0  0.00000000000E+00  0.00000000000E+00 -0.12172290131E+04  0.20141147995E+04  0.16046843786E+04 0.  0.
        5    1    3    3  502    0 -0.59983521583E+03 -0.24137188179E+03 -0.12362567431E+02  0.64671291508E+03  0.46999998093E+01 0.  1.
       -5    1    3    3    0  502  0.59983521583E+03  0.24137188179E+03 -0.12048664457E+04  0.13674018844E+04  0.46999998093E+01 0. -1.
</event>
<event>
 5   0  0.3263294E-04  0.1573985E+04  0.7818609E-02  0.8836691E-01
       -2   -1    0    0    0  501  0.00000000000E+00  0.00000000000E+00  0.11134392729E+04  0.11134392729E+04  0.25500000920E-02 0.  1.
        2   -1    0    0  501    0  0.00000000000E+00  0.00000000000E+00 -0.55625592941E+03  0.55625592942E+03  0.25500000920E-02 0. -1.
    10030    2    1    2    0    0  0.00000000000E+00  0.00000000000E+00  0.55718334351E+03  0.16696952023E+04  0.15739850032E+04 0.  0.
        4    1    3    3  502    0 -0.56675602891E+02  0.45419738997E+03 -0.40053083053E+03  0.60822195959E+03  0.12699999809E+01 0. -1.
       -4    1    3    3    0  502  0.56675602891E+02 -0.45419738997E+03  0.95771417404E+03  0.10614732428E+04  0.12699999809E+01 0.  1.
</event>
<event>
 5   0  0.1819811E-04  0.1556623E+04  0.7818609E-02  0.8847649E-01
       -1   -1    0    0    0  501  0.00000000000E+00  0.00000000000E+00  0.50299575983E+03  0.50299575986E+03  0.50400001928E-02 0.  1.
        1   -1    0    0  501    0  0.00000000000E+00  0.00000000000E+00 -0.12043212307E+04  0.12043212307E+04  0.50400001928E-02 0. -1.
    10030    2    1    2    0    0  0.00000000000E+00  0.00000000000E+00 -0.70132547085E+03  0.17073169905E+04  0.15566225908E+04 0.  0.
        1    1    3    3  502    0 -0.69943936660E+03  0.26751508340E+03 -0.11802365287E+03  0.75809585810E+03  0.50400001928E-02 0. -1.
       -1    1    3    3    0  502  0.69943936660E+03 -0.26751508340E+03 -0.58330181798E+03  0.94922113245E+03  0.50400001928E-02 0.  1.
</event>
<event>
 5   0  0.1764099E-04  0.1594005E+04  0.7818609E-02  0.8824240E-01
       -1   -1    0    0    0  501  0.00000000000E+00  0.00000000000E+00  0.55820467248E+03  0.55820467250E+03  0.50400001928E-02 0. -1.
        1   -1    0    0  501    0  0.00000000000E+00  0.00000000000E+00 -0.11379564600E+04  0.11379564600E+04  0.50400001928E-02 0.  1.
    10030    2    1    2    0    0  0.00000000000E+00  0.00000000000E+00 -0.57975178750E+03  0.16961611325E+04  0.15940045333E+04 0.  0.
        5    1    3    3  502    0 -0.36693692486E+03  0.38790388962E+03  0.33971756269E+03  0.63288407059E+03  0.46999998093E+01 0. -1.
       -5    1    3    3    0  502  0.36693692486E+03 -0.38790388962E+03 -0.91946935019E+03  0.10632770619E+04  0.46999998093E+01 0.  1.
</event>
<event>
 5   0  0.1819811E-04  0.1587194E+04  0.7818609E-02  0.8828454E-01
       -1   -1    0    0    0  501  0.00000000000E+00  0.00000000000E+00  0.71551343188E+03  0.71551343190E+03  0.50400001928E-02 0. -1.
        1   -1    0    0  501    0  0.00000000000E+00  0.00000000000E+00 -0.88020179907E+03  0.88020179909E+03  0.50400001928E-02 0.  1.
    10030    2    1    2    0    0  0.00000000000E+00  0.00000000000E+00 -0.16468836719E+03  0.15957152310E+04  0.15871940146E+04 0.  0.
        1    1    3    3  502    0 -0.38986950748E+03  0.58345108829E+03  0.29029761082E+03  0.75939851735E+03  0.50400001928E-02 0. -1.
       -1    1    3    3    0  502  0.38986950748E+03 -0.58345108829E+03 -0.45498597802E+03  0.83631671363E+03  0.50400001928E-02 0.  1.
</event>
<event>
 5   0  0.3210612E-04  0.1599815E+04  0.7818609E-02  0.8820662E-01
        2   -1    0    0  501    0  0.00000000000E+00  0.00000000000E+00  0.15562205829E+04  0.15562205829E+04  0.25500000920E-02 0. -1.
       -2   -1    0    0    0  501  0.00000000000E+00  0.00000000000E+00 -0.41115749761E+03  0.41115749762E+03  0.25500000920E-02 0.  1.
    10030    2    1    2    0    0  0.00000000000E+00  0.00000000000E+00  0.11450630853E+04  0.19673780806E+04  0.15998146901E+04 0.  0.
        2    1    3    3  502    0 -0.40106770752E+03 -0.35135866218E+03  0.13058026065E+04  0.14104710783E+04  0.25500000920E-02 0. -1.
       -2    1    3    3    0  502  0.40106770752E+03  0.35135866218E+03 -0.16073952119E+03  0.55690700227E+03  0.25500000920E-02 0.  1.
</event>
<event>
 5   0  0.3274900E-04  0.1603187E+04  0.7818609E-02  0.8818592E-01
        2   -1    0    0  501    0  0.00000000000E+00  0.00000000000E+00  0.65816921935E+03  0.65816921936E+03  0.25500000920E-02 0.  1.
       -2   -1    0    0    0  501  0.00000000000E+00  0.00000000000E+00 -0.97627204475E+03  0.97627204475E+03  0.25500000920E-02 0. -1.
    10030    2    1    2    0    0  0.00000000000E+00  0.00000000000E+00 -0.31810282539E+03  0.16344412641E+04  0.16031870877E+04 0.  0.
        3    1    3    3  502    0  0.45928413113E+03  0.17931824026E+03 -0.80339747868E+03  0.94262636466E+03  0.10100000352E+00 0. -1.
       -3    1    3    3    0  502 -0.45928413113E+03 -0.17931824026E+03  0.48529465329E+03  0.69181489945E+03  0.10100000352E+00 0.  1.
</event>
<event>
 5   0  0.1764099E-04  0.1600319E+04  0.7818609E-02  0.8820352E-01
        1   -1    0    0  501    0  0.00000000000E+00  0.00000000000E+00  0.10038258044E+04  0.10038258044E+04  0.50400001928E-02 0. -1.
       -1   -1    0    0    0  501  0.00000000000E+00  0.00000000000E+00 -0.63781526293E+03  0.63781526295E+03  0.50400001928E-02 0.  1.
    10030    2    1    2    0    0  0.00000000000E+00  0.00000000000E+00  0.36601054150E+03  0.16416410674E+04  0.16003192424E+04 0.  0.
        5    1    3    3  502    0  0.27486395652E+03 -0.59524402810E+03  0.65350685623E+03  0.92572077254E+03  0.46999998093E+01 0. -1.
       -5    1    3    3    0  502 -0.27486395652E+03  0.59524402810E+03 -0.28749631473E+03  0.71592029484E+03  0.46999998093E+01 0.  1.
</event>
<event>
 5   0  0.3380454E-04  0.1610592E+04  0.7818609E-02  0.8814067E-01
        2   -1    0    0  501    0  0.00000000000E+00  0.00000000000E+00  0.20808197451E+04  0.20808197451E+04  0.25500000920E-02 0. -1.
       -2   -1    0    0    0  501  0.00000000000E+00  0.00000000000E+00 -0.31165682813E+03  0.31165682814E+03  0.25500000920E-02 0.  1.
    10030    2    1    2    0    0  0.00000000000E+00  0.00000000000E+00  0.17691629169E+04  0.23924765732E+04  0.16105920423E+04 0.  0.
        5    1    3    3  502    0 -0.37314185792E+02 -0.60178743222E+02  0.20761660173E+04  0.20773784564E+04  0.46999998093E+01 0. -1.
       -5    1    3    3    0  502  0.37314185792E+02  0.60178743222E+02 -0.30700310037E+03  0.31509811683E+03  0.46999998093E+01 0.  1.
</event>
<event>
 5   0  0.3380454E-04  0.1606381E+04  0.7818609E-02  0.8816637E-01
       -2   -1    0    0    0  501  0.00000000000E+00  0.00000000000E+00  0.57359267281E+03  0.57359267282E+03  0.25500000920E-02 0.  1.
        2   -1    0    0  501    0  0.00000000000E+00  0.00000000000E+00 -0.11246922663E+04  0.11246922663E+04  0.25500000920E-02 0. -1.
    10030    2    1    2    0    0  0.00000000000E+00  0.00000000000E+00 -0.55109959345E+03  0.16982849391E+04  0.16063813285E+04 0.  0.
        5    1    3    3  502    0 -0.54084593564E+03 -0.86170532469E+02 -0.89665909417E+03  0.10506946787E+04  0.46999998093E+01 0. -1.
       -5    1    3    3    0  502  0.54084593564E+03  0.86170532469E+02  0.34555950072E+03  0.64759026035E+03  0.46999998093E+01 0.  1.
</event>
<event>
 5   0  0.3380454E-04  0.1576754E+04  0.7818609E-02  0.8834958E-01
        2   -1    0    0  501    0  0.00000000000E+00  0.00000000000E+00  0.15945408632E+04  0.15945408632E+04  0.25500000920E-02 0.  1.
       -2   -1    0    0    0  501  0.00000000000E+00  0.00000000000E+00 -0.38979138751E+03  0.38979138752E+03  0.25500000920E-02 0. -1.
    10030    2    1    2    0    0  0.00000000000E+00  0.00000000000E+00  0.12047494757E+04  0.19843322507E+04  0.15767540018E+04 0.  0.
        5    1    3    3  502    0  0.48561031218E+03  0.57931033375E+03  0.88405877452E+03  0.11631852152E+04  0.46999998093E+01 0.  1.
       -5    1    3    3    0  502 -0.48561031218E+03 -0.57931033375E+03  0.32069070113E+03  0.82114703548E+03  0.46999998093E+01 0. -1.
</event>
<event>
 5   0  0.1819811E-04  0.1602693E+04  0.7818609E-02  0.8818895E-01
       -1   -1    0    0    0  501  0.00000000000E+00  0.00000000000E+00  0.10267626858E+04  0.10267626858E+04  0.50400001928E-02 0.  1.
        1   -1    0    0  501    0  0.00000000000E+00  0.00000000000E+00 -0.62541831227E+03  0.62541831229E+03  0.50400001928E-02 0. -1.
    10030    2    1    2    0    0  0.00000000000E+00  0.00000000000E+00  0.40134437356E+03  0.16521809981E+04  0.16026929664E+04 0.  0.
        1    1    3    3  502    0  0.29018285237E+03 -0.49111267554E+03 -0.37951934870E+03  0.68515157736E+03  0.50400001928E-02 0. -1.
       -1    1    3    3    0  502 -0.29018285237E+03  0.49111267554E+03  0.78086372226E+03  0.96702942078E+03  0.50400001928E-02 0.  1.
</event>
<event>
 5   0  0.3263294E-04  0.1600382E+04  0.7818609E-02  0.8820314E-01
       -2   -1    0    0    0  501  0.00000000000E+00  0.00000000000E+00  0.76619622348E+03  0.76619622349E+03  0.25500000920E-02 0.  1.
        2   -1    0    0  501    0  0.00000000000E+00  0.00000000000E+00 -0.83569354565E+03  0.83569354566E+03  0.25500000920E-02 0. -1.
    10030    2    1    2    0    0  0.00000000000E+00  0.00000000000E+00 -0.69497322170E+02  0.16018897691E+04  0.16003815029E+04 0.  0.
        4    1    3    3  502    0 -0.57662692616E+03  0.10295742686E+03 -0.58042735995E+03  0.82461892823E+03  0.12699999809E+01 0. -1.
       -4    1    3    3    0  502  0.57662692616E+03 -0.10295742686E+03  0.51093003778E+03  0.77727084091E+03  0.12699999809E+01 0.  1.
</event>
<event>
 5   0  0.1819811E-04  0.1598187E+04  0.7818609E-02  0.8821662E-01
       -1   -1    0    0    0  501  0.00000000000E+00  0.00000000000E+00  0.48145906745E+03  0.48145906748E+03  0.50400001928E-02 0.  1.
        1   -1    0    0  501    0  0.00000000000E+00  0.00000000000E+00 -0.13262825961E+04  0.13262825961E+04  0.50400001928E-02 0. -1.
    10030    2    1    2    0    0  0.00000000000E+00  0.00000000000E+00 -0.84482352867E+03  0.18077416636E+04  0.15981874508E+04 0.  0.
        1    1    3    3  502    0 -0.13719124816E+03 -0.21429453558E+03  0.43441228191E+03  0.50344574410E+03  0.50400001928E-02 0.  1.
       -1    1    3    3    0  502  0.13719124816E+03  0.21429453558E+03 -0.12792358106E+04  0.13042959195E+04  0.50400001928E-02 0. -1.
</event>
<event>
 5   0  0.1736537E-04  0.1596793E+04  0.7818609E-02  0.8822520E-01
       -1   -1    0    0    0  501  0.00000000000E+00  0.00000000000E+00  0.38673851023E+03  0.38673851027E+03  0.50400001928E-02 0.  1.
        1   -1    0    0  501    0  0.00000000000E+00  0.00000000000E+00 -0.16482382579E+04  0.16482382579E+04  0.50400001928E-02 0. -1.
    10030    2    1    2    0    0  0.00000000000E+00  0.00000000000E+00 -0.12614997477E+04  0.20349767682E+04  0.15967932971E+04 0.  0.
        3    1    3    3  502    0  0.44338875935E+03 -0.23800396250E+03 -0.14206790346E+04  0.15071723218E+04  0.10100000352E+00 0. -1.
       -3    1    3    3    0  502 -0.44338875935E+03  0.23800396250E+03  0.15917928687E+03  0.52780444642E+03  0.10100000352E+00 0.  1.
</event>
<event>
 5   0  0.1761255E-04  0.1600692E+04  0.7818609E-02  0.8820123E-01
       -1   -1    0    0    0  501  0.00000000000E+00  0.00000000000E+00  0.11754620436E+04  0.11754620436E+04  0.50400001928E-02 0.  1.
        1   -1    0    0  501    0  0.00000000000E+00  0.00000000000E+00 -0.54493808860E+03  0.54493808862E+03  0.50400001928E-02 0. -1.
    10030    2    1    2    0    0  0.00000000000E+00  0.00000000000E+00  0.63052395500E+03  0.17204001322E+04  0.16006923993E+04 0.  0.
        2    1    3    3  502    0  0.71889562944E+02  0.29571340400E+03 -0.48032541823E+03  0.56861853115E+03  0.25500000920E-02 0. -1.
       -2    1    3    3    0  502 -0.71889562944E+02 -0.29571340400E+03  0.11108493732E+04  0.11517816011E+04  0.25500000920E-02 0.  1.
</event>
<event>
 5   0  0.3263294E-04  0.1605472E+04  0.7818609E-02  0.8817193E-01
       -2   -1    0    0    0  501  0.00000000000E+00  0.00000000000E+00  0.90604101440E+03  0.90604101440E+03  0.25500000920E-02 0. -1.
        2   -1    0    0  501    0  0.00000000000E+00  0.00000000000E+00 -0.71120982332E+03  0.71120982333E+03  0.25500000920E-02 0.  1.
    10030    2    1    2    0    0  0.00000000000E+00  0.00000000000E+00  0.19483119107E+03  0.16172508377E+04  0.16054722293E+04 0.  0.
        4    1    3    3  502    0 -0.12669486301E+02 -0.73630832411E+03 -0.22441730316E+03  0.76985401401E+03  0.12699999809E+01 0. -1.
       -4    1    3    3    0  502  0.12669486301E+02  0.73630832411E+03  0.41924849423E+03  0.84739682372E+03  0.12699999809E+01 0.  1.
</event>
<event>
 5   0  0.1787688E-04  0.1600265E+04  0.7818609E-02  0.8820385E-01
       -1   -1    0    0    0  501  0.00000000000E+00  0.00000000000E+00  0.10418269351E+04  0.10418269351E+04  0.50400001928E-02 0. -1.
        1   -1    0    0  501    0  0.00000000000E+00  0.00000000000E+00 -0.61450934633E+03  0.61450934635E+03  0.50400001928E-02 0.  1.
    10030    2    1    2    0    0  0.00000000000E+00  0.00000000000E+00  0.42731758873E+03  0.16563362814E+04  0.16002654641E+04 0.  0.
        4    1    3    3  502    0 -0.45060685798E+03 -0.63718043723E+03  0.39638141653E+03  0.87530868288E+03  0.12699999809E+01 0. -1.
       -4    1    3    3    0  502  0.45060685798E+03  0.63718043723E+03  0.30936172198E+02  0.78102759855E+03  0.12699999809E+01 0.  1.
</event>
<event>
 5   0  0.1736537E-04  0.1604085E+04  0.7818609E-02  0.8818043E-01
       -1   -1    0    0    0  501  0.00000000000E+00  0.00000000000E+00  0.79924408726E+03  0.79924408727E+03  0.50400001928E-02 0.  1.
        1   -1    0    0  501    0  0.00000000000E+00  0.00000000000E+00 -0.80485038036E+03  0.80485038038E+03  0.50400001928E-02 0. -1.
    10030    2    1    2    0    0  0.00000000000E+00  0.00000000000E+00 -0.56062931087E+01  0.16040944677E+04  0.16040846707E+04 0.  0.
        3    1    3    3  502    0  0.34721876699E+03  0.65082816223E+03 -0.31766016091E+03  0.80314765574E+03  0.10100000352E+00 0. -1.
       -3    1    3    3    0  502 -0.34721876699E+03 -0.65082816223E+03  0.31205386780E+03  0.80094681191E+03  0.10100000352E+00 0.  1.
</event>
<event>
 5   0  0.3228393E-04  0.1595516E+04  0.7818609E-02  0.8823308E-01
       -2   -1    0    0    0  501  0.00000000000E+00  0.00000000000E+00  0.50213229868E+03  0.50213229869E+03  0.25500000920E-02 0. -1.
        2   -1    0    0  501    0  0.00000000000E+00  0.00000000000E+00 -0.12674297836E+04  0.12674297836E+04  0.25500000920E-02 0.  1.
    10030    2    1    2    0    0  0.00000000000E+00  0.00000000000E+00 -0.76529748493E+03  0.17695620823E+04  0.15955155037E+04 0.  0.
        1    1    3    3  502    0  0.49263842427E+03  0.10460504018E+03 -0.10688331871E+04  0.11815410333E+04  0.50400001928E-02 0.  1.
       -1    1    3    3    0  502 -0.49263842427E+03 -0.10460504018E+03  0.30353570221E+03  0.58802104897E+03  0.50400001928E-02 0. -1.
</event>
<event>
 5   0  0.3380454E-04  0.1603546E+04  0.7818609E-02  0.8818372E-01
       -2   -1    0    0    0  501  0.00000000000E+00  0.00000000000E+00  0.11379225283E+04  0.11379225283E+04  0.25500000920E-02 0.  1.
        2   -1    0    0  501    0  0.00000000000E+00  0.00000000000E+00 -0.56492426466E+03  0.56492426466E+03  0.25500000920E-02 0. -1.
    10030    2    1    2    0    0  0.00000000000E+00  0.00000000000E+00  0.57299826362E+03  0.17028467929E+04  0.16035461297E+04 0.  0.
        5    1    3    3  502    0 -0.11061100567E+03  0.43565768420E+03  0.99152944457E+03  0.10886620880E+04  0.46999998093E+01 0.  1.
       -5    1    3    3    0  502  0.11061100567E+03 -0.43565768420E+03 -0.41853118095E+03  0.61418470495E+03  0.46999998093E+01 0. -1.
</event>
<event>
 5   0  0.1787688E-04  0.1613948E+04  0.7818609E-02  0.8812025E-01
        1   -1    0    0  501    0  0.00000000000E+00  0.00000000000E+00  0.16984431749E+04  0.16984431749E+04  0.50400001928E-02 0.  1.
       -1   -1    0    0    0  501  0.00000000000E+00  0.00000000000E+00 -0.38341386573E+03  0.38341386576E+03  0.50400001928E-02 0. -1.
    10030    2    1    2    0    0  0.00000000000E+00  0.00000000000E+00  0.13150293092E+04  0.20818570407E+04  0.16139475375E+04 0.  0.
        4    1    3    3  502    0 -0.31762064450E+03  0.62135916736E+03  0.13476434701E+03  0.71072718451E+03  0.12699999809E+01 0. -1.
       -4    1    3    3    0  502  0.31762064450E+03 -0.62135916736E+03  0.11802649622E+04  0.13711298562E+04  0.12699999809E+01 0.  1.
</event>
<event>
 5   0  0.3263294E-04  0.1584886E+04  0.7818609E-02  0.8829887E-01
       -2   -1    0    0    0  501  0.00000000000E+00  0.00000000000E+00  0.10499506425E+04  0.10499506425E+04  0.25500000920E-02 0.  1.
        2   -1    0    0  501    0  0.00000000000E+00  0.00000000000E+00 -0.59809120016E+03  0.59809120016E+03  0.25500000920E-02 0. -1.
    10030    2    1    2    0    0  0.00000000000E+00  0.00000000000E+00  0.45185944229E+03  0.16480418426E+04  0.15848864185E+04 0.  0.
        4    1    3    3  502    0 -0.72656863671E+03  0.85025941172E+02  0.54275645958E+03  0.91088834763E+03  0.12699999809E+01 0. -1.
       -4    1    3    3    0  502  0.72656863671E+03 -0.85025941172E+02 -0.90897017290E+02  0.73715349499E+03  0.12699999809E+01 0.  1.
</event>
<event>
 5   0  0.3210612E-04  0.1596394E+04  0.7818609E-02  0.8822766E-01
       -2   -1    0    0    0  501  0.00000000000E+00  0.00000000000E+00  0.40856157135E+03  0.40856157136E+03  0.25500000920E-02 0.  1.
        2   -1    0    0  501    0  0.00000000000E+00  0.00000000000E+00 -0.15594188345E+04  0.15594188345E+04  0.25500000920E-02 0. -1.
    10030    2    1    2    0    0  0.00000000000E+00  0.00000000000E+00 -0.11508572631E+04  0.19679804058E+04  0.15963941987E+04 0.  0.
        2    1    3    3  502    0  0.73127934057E+02 -0.66657372743E+03 -0.11091613083E+04  0.12961122778E+04  0.25500000920E-02 0. -1.
       -2    1    3    3    0  502 -0.73127934057E+02  0.66657372743E+03 -0.41695954851E+02  0.67186812806E+03  0.25500000920E-02 0.  1.
</event>
<event>
 5   0  0.1819811E-04  0.1610879E+04  0.7818609E-02  0.8813892E-01
        1   -1    0    0  501    0  0.00000000000E+00  0.00000000000E+00  0.18312099562E+04  0.18312099562E+04  0.50400001928E-02 0. -1.
       -1   -1    0    0    0  501  0.00000000000E+00  0.00000000000E+00 -0.35426464560E+03  0.35426464563E+03  0.50400001928E-02 0.  1.
    10030    2    1    2    0    0  0.00000000000E+00  0.00000000000E+00  0.14769453106E+04  0.21854746019E+04  0.16108791962E+04 0.  0.
        1    1    3    3  502    0  0.79994805478E+03 -0.93809237927E+02  0.74387951591E+03  0.10963912612E+04  0.50400001928E-02 0. -1.
       -1    1    3    3    0  502 -0.79994805478E+03  0.93809237927E+02  0.73306579472E+03  0.10890833407E+04  0.50400001928E-02 0.  1.
</event>
<event>
 5   0  0.3210612E-04  0.1603534E+04  0.7818609E-02  0.8818380E-01
       -2   -1    0    0    0  501  0.00000000000E+00  0.00000000000E+00  0.44752216391E+03  0.44752216391E+03  0.25500000920E-02 0.  1.
        2   -1    0    0  501    0  0.00000000000E+00  0.00000000000E+00 -0.14364213714E+04  0.14364213714E+04  0.25500000920E-02 0. -1.
    10030    2    1    2    0    0  0.00000000000E+00  0.00000000000E+00 -0.98889920744E+03  0.18839435353E+04  0.16035340974E+04 0.  0.
        2    1    3    3  502    0 -0.25280763359E+03  0.76082171134E+03 -0.48468868202E+03  0.93684817048E+03  0.25500000920E-02 0.  1.
       -2    1    3    3    0  502  0.25280763359E+03 -0.76082171134E+03 -0.50421052543E+03  0.94709536479E+03  0.25500000920E-02 0. -1.
</event>
<event>
 5   0  0.1761255E-04  0.1593066E+04  0.7818609E-02  0.8824819E-01
       -1   -1    0    0    0  501  0.00000000000E+00  0.00000000000E+00  0.45228109871E+03  0.45228109874E+03  0.50400001928E-02 0.  1.
        1   -1    0    0  501    0  0.00000000000E+00  0.00000000000E+00 -0.14028116604E+04  0.14028116604E+04  0.50400001928E-02 0. -1.
    10030    2    1    2    0    0  0.00000000000E+00  0.00000000000E+00 -0.95053056166E+03  0.18550927591E+04  0.15930664758E+04 0.  0.
        2    1    3    3  502    0  0.54982396151E+03 -0.57485202466E+03 -0.42719668341E+03  0.90291652174E+03  0.25500000920E-02 0. -1.
       -2    1    3    3    0  502 -0.54982396151E+03  0.57485202466E+03 -0.52333387826E+03  0.95217623738E+03  0.25500000920E-02 0.  1.
</event>
<event>
 5   0  0.1787688E-04  0.1599756E+04  0.7818609E-02  0.8820698E-01
       -1   -1    0    0    0  501  0.00000000000E+00  0.00000000000E+00  0.87155201157E+03  0.87155201159E+03  0.50400001928E-02 0. -1.
        1   -1    0    0  501    0  0.00000000000E+00  0.00000000000E+00 -0.73409821607E+03  0.73409821609E+03  0.50400001928E-02 0.  1.
    10030    2    1    2    0    0  0.00000000000E+00  0.00000000000E+00  0.13745379550E+03  0.16056502277E+04  0.15997559526E+04 0.  0.
        4    1    3    3  502    0  0.68202677185E+02 -0.69362876566E+03 -0.32518658588E+03  0.76910363298E+03  0.12699999809E+01 0.  1.
       -4    1    3    3    0  502 -0.68202677185E+02  0.69362876566E+03  0.46264038138E+03  0.83654659470E+03  0.12699999809E+01 0. -1.
</event>
<event>
 5   0  0.3228393E-04  0.1594052E+04  0.7818609E-02  0.8824211E-01
        2   -1    0    0  501    0  0.00000000000E+00  0.00000000000E+00  0.66579910431E+03  0.66579910431E+03  0.25500000920E-02 0.  1.
       -2   -1    0    0    0  501  0.00000000000E+00  0.00000000000E+00 -0.95411687830E+03  0.95411687830E+03  0.25500000920E-02 0. -1.
    10030    2    1    2    0    0  0.00000000000E+00  0.00000000000E+00 -0.28831777399E+03  0.16199159826E+04  0.15940516466E+04 0.  0.
        1    1    3    3  502    0 -0.50402717990E+03  0.38423561891E+03  0.34697330754E+03  0.72254472878E+03  0.50400001928E-02 0.  1.
       -1    1    3    3    0  502  0.50402717990E+03 -0.38423561891E+03 -0.63529108153E+03  0.89737125384E+03  0.50400001928E-02 0. -1.
</event>
<event>
 5   0  0.3210612E-04  0.1581689E+04  0.7818609E-02  0.8831877E-01
        2   -1    0    0  501    0  0.00000000000E+00  0.00000000000E+00  0.89532777711E+03  0.89532777712E+03  0.25500000920E-02 0.  1.
       -2   -1    0    0    0  501  0.00000000000E+00  0.00000000000E+00 -0.69855412868E+03  0.69855412868E+03  0.25500000920E-02 0. -1.
    10030    2    1    2    0    0  0.00000000000E+00  0.00000000000E+00  0.19677364843E+03  0.15938819058E+04  0.15816888635E+04 0.  0.
        2    1    3    3  502    0 -0.59549465340E+03  0.43091291730E+03  0.39241529496E+03  0.83324041444E+03  0.25500000920E-02 0.  1.
       -2    1    3    3    0  502  0.59549465340E+03 -0.43091291730E+03 -0.19564164653E+03  0.76064149136E+03  0.25500000920E-02 0. -1.
</event>
<event>
 5   0  0.1819811E-04  0.1601683E+04  0.7818609E-02  0.8819515E-01
       -1   -1    0    0    0  501  0.00000000000E+00  0.00000000000E+00  0.62412290333E+03  0.62412290335E+03  0.50400001928E-02 0.  1.
        1   -1    0    0  501    0  0.00000000000E+00  0.00000000000E+00 -0.10275969812E+04  0.10275969812E+04  0.50400001928E-02 0. -1.
    10030    2    1    2    0    0  0.00000000000E+00  0.00000000000E+00 -0.40347407786E+03  0.16517198845E+04  0.16016826295E+04 0.  0.
        1    1    3    3  502    0  0.14205175042E+03  0.38989913758E+02 -0.10135059635E+04  0.10241548961E+04  0.50400001928E-02 0. -1.
       -1    1    3    3    0  502 -0.14205175042E+03 -0.38989913758E+02  0.61003188564E+03  0.62756498842E+03  0.50400001928E-02 0.  1.
</event>
<event>
 5   0  0.1761255E-04  0.1598498E+04  0.7818609E-02  0.8821471E-01
        1   -1    0    0  501    0  0.00000000000E+00  0.00000000000E+00  0.10081089736E+04  0.10081089736E+04  0.50400001928E-02 0. -1.
       -1   -1    0    0    0  501  0.00000000000E+00  0.00000000000E+00 -0.63366050309E+03  0.63366050311E+03  0.50400001928E-02 0.  1.
    10030    2    1    2    0    0  0.00000000000E+00  0.00000000000E+00  0.37444847047E+03  0.16417694767E+04  0.15984978441E+04 0.  0.
        2    1    3    3  502    0  0.39575656272E+03  0.24480927377E+03 -0.48016910216E+03  0.66866823174E+03  0.25500000920E-02 0.  1.
       -2    1    3    3    0  502 -0.39575656272E+03 -0.24480927377E+03  0.85461757263E+03  0.97310124494E+03  0.25500000920E-02 0. -1.
</event>
<event>
 5   0  0.3228393E-04  0.1627938E+04  0.7818609E-02  0.8803566E-01
        2   -1    0    0  501    0  0.00000000000E+00  0.00000000000E+00  0.15030878759E+04  0.15030878759E+04  0.25500000920E-02 0. -1.
       -2   -1    0    0    0  501  0.00000000000E+00  0.00000000000E+00 -0.44078953012E+03  0.44078953013E+03  0.25500000920E-02 0.  1.
    10030    2    1    2    0    0  0.00000000000E+00  0.00000000000E+00  0.10622983458E+04  0.19438774060E+04  0.16279378349E+04 0.  0.
        1    1    3    3  502    0  0.53070428454E+03 -0.34221052786E+03 -0.82133195215E+02  0.63678956084E+03  0.50400001928E-02 0. -1.
       -1    1    3    3    0  502 -0.53070428454E+03  0.34221052786E+03  0.11444315410E+04  0.13070878452E+04  0.50400001928E-02 0.  1.
</event>
<event>
 5   0  0.1761255E-04  0.1608729E+04  0.7818609E-02  0.8815203E-01
       -1   -1    0    0    0  501  0.00000000000E+00  0.00000000000E+00  0.71896786917E+03  0.71896786918E+03  0.50400001928E-02 0. -1.
        1   -1    0    0  501    0  0.00000000000E+00  0.00000000000E+00 -0.89990420372E+03  0.89990420373E+03  0.50400001928E-02 0.  1.
    10030    2    1    2    0    0  0.00000000000E+00  0.00000000000E+00 -0.18093633455E+03  0.16188720729E+04  0.16087289490E+04 0.  0.
        2    1    3    3  502    0 -0.58211632663E+03 -0.51368190881E+03 -0.30220796684E+03  0.83310154027E+03  0.25500000920E-02 0. -1.
       -2    1    3    3    0  502  0.58211632663E+03  0.51368190881E+03  0.12127163229E+03  0.78577053265E+03  0.25500000920E-02 0.  1.
</event>
<event>
 5   0  0.1736537E-04  0.1560247E+04  0.7818609E-02  0.8845349E-01
        1   -1    0    0  501    0  0.00000000000E+00  0.00000000000E+00  0.14192129748E+04  0.14192129748E+04  0.50400001928E-02 0. -1.
       -1   -1    0    0    0  501  0.00000000000E+00  0.00000000000E+00 -0.42882411214E+03  0.42882411217E+03  0.50400001928E-02 0.  1.
    10030    2    1    2    0    0  0.00000000000E+00  0.00000000000E+00  0.99038886265E+03  0.18480370870E+04  0.15602470880E+04 0.  0.
        3    1    3    3  502    0  0.75607054227E+03  0.13027838697E+03  0.32778147157E+03  0.83429960225E+03  0.10100000352E+00 0.  1.
       -3    1    3    3    0  502 -0.75607054227E+03 -0.13027838697E+03  0.66260739108E+03  0.10137374847E+04  0.10100000352E+00 0. -1.
</event>
<event>
 5   0  0.3263294E-04  0.1601475E+04  0.7818609E-02  0.8819642E-01
        2   -1    0    0  501    0  0.00000000000E+00  0.00000000000E+00  0.78538614446E+03  0.78538614446E+03  0.25500000920E-02 0.  1.
       -2   -1    0    0    0  501  0.00000000000E+00  0.00000000000E+00 -0.81638908068E+03  0.81638908069E+03  0.25500000920E-02 0. -1.
    10030    2    1    2    0    0  0.00000000000E+00  0.00000000000E+00 -0.31002936224E+02  0.16017752252E+04  0.16014751605E+04 0.  0.
        4    1    3    3  502    0 -0.36183970328E+03  0.11032711958E+02  0.69886576891E+03  0.78706077749E+03  0.12699999809E+01 0.  1.
       -4    1    3    3    0  502  0.36183970328E+03 -0.11032711958E+02 -0.72986870513E+03  0.81471444767E+03  0.12699999809E+01 0. -1.
</event>
<event>
 5   0  0.3263294E-04  0.1593252E+04  0.7818609E-02  0.8824704E-01
       -2   -1    0    0    0  501  0.00000000000E+00  0.00000000000E+00  0.44416783247E+03  0.44416783248E+03  0.25500000920E-02 0. -1.
        2   -1    0    0  501    0  0.00000000000E+00  0.00000000000E+00 -0.14287684364E+04  0.14287684365E+04  0.25500000920E-02 0.  1.
    10030    2    1    2    0    0  0.00000000000E+00  0.00000000000E+00 -0.98460060398E+03  0.18729362689E+04  0.15932519945E+04 0.  0.
        4    1    3    3  502    0 -0.62243911039E+03 -0.49437107168E+03 -0.55426116617E+03  0.96904089484E+03  0.12699999809E+01 0.  1.
       -4    1    3    3    0  502  0.62243911039E+03  0.49437107168E+03 -0.43033943781E+03  0.90389537409E+03  0.12699999809E+01 0. -1.
</event>
<event>
 5   0  0.3263294E-04  0.1606226E+04  0.7818609E-02  0.8816732E-01
        2   -1    0    0  501    0  0.00000000000E+00  0.00000000000E+00  0.67462688845E+03  0.67462688846E+03  0.25500000920E-02 0.  1.
       -2   -1    0    0    0  501  0.00000000000E+00  0.00000000000E+00 -0.95606980872E+03  0.95606980873E+03  0.25500000920E-02 0. -1.
    10030    2    1    2    0    0  0.00000000000E+00  0.00000000000E+00 -0.28144292027E+03  0.16306966972E+04  0.16062258872E+04 0.  0.
        4    1    3    3  502    0  0.38773218300E+03  0.69928160266E+03 -0.21708563546E+03  0.82852808738E+03  0.12699999809E+01 0.  1.
       -4    1    3    3    0  502 -0.38773218300E+03 -0.69928160266E+03 -0.64357284813E+02  0.80216860981E+03  0.12699999809E+01 0. -1.
</event>
<event>
 5   0  0.3274900E-04  0.1605187E+04  0.7818609E-02  0.8817368E-01
       -2   -1    0    0    0  501  0.00000000000E+00  0.00000000000E+00  0.60010941982E+03  0.60010941983E+03  0.25500000920E-02 0. -1.
        2   -1    0    0  501    0  0.00000000000E+00  0.00000000000E+00 -0.10733975191E+04  0.10733975191E+04  0.25500000920E-02 0.  1.
    10030    2    1    2    0    0  0.00000000000E+00  0.00000000000E+00 -0.47328809925E+03  0.16735069389E+04  0.16051865467E+04 0.  0.
        3    1    3    3  502    0  0.13212376139E+03  0.34017537651E+03 -0.98189741778E+03  0.10475201785E+04  0.10100000352E+00 0.  1.
       -3    1    3    3    0  502 -0.13212376139E+03 -0.34017537651E+03  0.50860931853E+03  0.62598676041E+03  0.10100000352E+00 0. -1.
</event>
<event>
 5   0  0.1819811E-04  0.1595913E+04  0.7818609E-02  0.8823063E-01
        1   -1    0    0  501    0  0.00000000000E+00  0.00000000000E+00  0.20092036964E+04  0.20092036964E+04  0.50400001928E-02 0. -1.
       -1   -1    0    0    0  501  0.00000000000E+00  0.00000000000E+00 -0.31690893664E+03  0.31690893668E+03  0.50400001928E-02 0.  1.
    10030    2    1    2    0    0  0.00000000000E+00  0.00000000000E+00  0.16922947597E+04  0.23261126330E+04  0.15959130389E+04 0.  0.
        1    1    3    3  502    0 -0.26114603656E+03 -0.44893895193E+03 -0.36829486942E+02  0.52067249409E+03  0.50400001928E-02 0.  1.
       -1    1    3    3    0  502  0.26114603656E+03  0.44893895193E+03  0.17291242467E+04  0.18054401390E+04  0.50400001928E-02 0. -1.
</event>
<event>
 5   0  0.3210612E-04  0.1619014E+04  0.7818609E-02  0.8808951E-01
       -2   -1    0    0    0  501  0.00000000000E+00  0.00000000000E+00  0.53005276971E+03  0.53005276971E+03  0.25500000920E-02 0.  1.
        2   -1    0    0  501    0  0.00000000000E+00  0.00000000000E+00 -0.12362951620E+04  0.12362951620E+04  0.25500000920E-02 0. -1.
    10030    2    1    2    0    0  0.00000000000E+00  0.00000000000E+00 -0.70624239229E+03  0.17663479317E+04  0.16190141133E+04 0.  0.
        2    1    3    3  502    0 -0.42235597783E+03 -0.65980504808E+03 -0.57557437771E+03  0.97211786207E+03  0.25500000920E-02 0.  1.
       -2    1    3    3    0  502  0.42235597783E+03  0.65980504808E+03 -0.13066801457E+03  0.79423006964E+03  0.25500000920E-02 0. -1.
</event>
<event>
 5   0  0.3228393E-04  0.1610931E+04  0.7818609E-02  0.8813861E-01
        2   -1    0    0  501    0  0.00000000000E+00  0.00000000000E+00  0.16028535981E+04  0.16028535981E+04  0.25500000920E-02 0.  1.
       -2   -1    0    0    0  501  0.00000000000E+00  0.00000000000E+00 -0.40476213891E+03  0.40476213891E+03  0.25500000920E-02 0. -1.
    10030    2    1    2    0    0  0.00000000000E+00  0.00000000000E+00  0.11980914592E+04  0.20076157371E+04  0.16109307257E+04 0.  0.
        1    1    3    3  502    0  0.57282558240E+03 -0.53718845734E+03  0.37585334662E+03  0.87061261462E+03  0.50400001928E-02 0.  1.
       -1    1    3    3    0  502 -0.57282558240E+03  0.53718845734E+03  0.82223811262E+03  0.11370031224E+04  0.50400001928E-02 0. -1.
</event>
<event>
 5   0  0.1761255E-04  0.1606061E+04  0.7818609E-02  0.8816833E-01
        1   -1    0    0  501    0  0.00000000000E+00  0.00000000000E+00  0.21615885622E+04  0.21615885622E+04  0.50400001928E-02 0. -1.
       -1   -1    0    0    0  501  0.00000000000E+00  0.00000000000E+00 -0.29832591000E+03  0.29832591004E+03  0.50400001928E-02 0.  1.
    10030    2    1    2    0    0  0.00000000000E+00  0.00000000000E+00  0.18632626522E+04  0.24599144723E+04  0.16060608643E+04 0.  0.
        2    1    3    3  502    0 -0.49458144442E+03  0.46295253245E+03  0.15920562055E+04  0.17301961778E+04  0.25500000920E-02 0. -1.
       -2    1    3    3    0  502  0.49458144442E+03 -0.46295253245E+03  0.27120644677E+03  0.72971829444E+03  0.25500000920E-02 0.  1.
</event>
<event>
 5   0  0.1761255E-04  0.1601832E+04  0.7818609E-02  0.8819423E-01
        1   -1    0    0  501    0  0.00000000000E+00  0.00000000000E+00  0.10761097570E+04  0.10761097570E+04  0.50400001928E-02 0.  1.
       -1   -1    0    0    0  501  0.00000000000E+00  0.00000000000E+00 -0.59609753069E+03  0.59609753071E+03  0.50400001928E-02 0. -1.
    10030    2    1    2    0    0  0.00000000000E+00  0.00000000000E+00  0.48001222632E+03  0.16722072877E+04  0.16018319124E+04 0.  0.
        2    1    3    3  502    0  0.67001311999E+03  0.41789766611E+03  0.10029693193E+03  0.79599969526E+03  0.25500000920E-02 0. -1.
       -2    1    3    3    0  502 -0.67001311999E+03 -0.41789766611E+03  0.37971529439E+03  0.87620759247E+03  0.25500000920E-02 0.  1.
</event>
<event>
 5   0  0.3263294E-04  0.1593967E+04  0.7818609E-02  0.8824263E-01
        2   -1    0    0  501    0  0.00000000000E+00  0.00000000000E+00  0.15808045647E+04  0.15808045647E+04  0.25500000920E-02 0.  1.
       -2   -1    0    0    0  501  0.00000000000E+00  0.00000000000E+00 -0.40180972624E+03  0.40180972624E+03  0.25500000920E-02 0. -1.
    10030    2    1    2    0    0  0.00000000000E+00  0.00000000000E+00  0.11789948385E+04  0.19826142909E+04  0.15939669374E+04 0.  0.
        4    1    3    3  502    0 -0.17480873734E+03 -0.28346549440E+03  0.14901069378E+04  0.15268696997E+04  0.12699999809E+01 0.  1.
       -4    1    3    3    0  502  0.17480873734E+03  0.28346549440E+03 -0.31111209930E+03  0.45574459119E+03  0.12699999809E+01 0. -1.
</event>
<event>
 5   0  0.3263294E-04  0.1602229E+04  0.7818609E-02  0.8819180E-01
        2   -1    0    0  501    0  0.00000000000E+00  0.00000000000E+00  0.10256059520E+04  0.10256059520E+04  0.25500000920E-02 0.  1.
       -2   -1    0    0    0  501  0.00000000000E+00  0.00000000000E+00 -0.62576091039E+03  0.62576091040E+03  0.25500000920E-02 0. -1.
    10030    2    1    2    0    0  0.00000000000E+00  0.00000000000E+00  0.39984504159E+03  0.16513668624E+04  0.16022285907E+04 0.  0.
        4    1    3    3  502    0  0.24883797636E+03  0.59057953659E+03  0.69537084487E+03  0.94564620885E+03  0.12699999809E+01 0.  1.
       -4    1    3    3    0  502 -0.24883797636E+03 -0.59057953659E+03 -0.29552580328E+03  0.70572065353E+03  0.12699999809E+01 0. -1.
</event>
<event>
 5   0  0.3263294E-04  0.1601897E+04  0.7818609E-02  0.8819384E-01
        2   -1    0    0  501    0  0.00000000000E+00  0.00000000000E+00  0.28241294166E+04  0.28241294166E+04  0.25500000920E-02 0.  1.
       -2   -1    0    0    0  501  0.00000000000E+00  0.00000000000E+00 -0.22715616110E+03  0.22715616111E+03  0.25500000920E-02 0. -1.
    10030    2    1    2    0    0  0.00000000000E+00  0.00000000000E+00  0.25969732555E+04  0.30512855777E+04  0.16018968715E+04 0.  0.
        4    1    3    3  502    0 -0.53048120327E+03  0.56647613552E+03  0.92130222278E+03  0.12046181626E+04  0.12699999809E+01 0. -1.
       -4    1    3    3    0  502  0.53048120327E+03 -0.56647613552E+03  0.16756710327E+04  0.18466674151E+04  0.12699999809E+01 0.  1.
</event>
<event>
 5   0  0.1736537E-04  0.1580722E+04  0.7818609E-02  0.8832480E-01
        1   -1    0    0  501    0  0.00000000000E+00  0.00000000000E+00  0.18660817803E+04  0.18660817803E+04  0.50400001928E-02 0. -1.
       -1   -1    0    0    0  501  0.00000000000E+00  0.00000000000E+00 -0.33474960117E+03  0.33474960121E+03  0.50400001928E-02 0.  1.
    10030    2    1    2    0    0  0.00000000000E+00  0.00000000000E+00  0.15313321792E+04  0.22008313816E+04  0.15807215210E+04 0.  0.
        3    1    3    3  502    0  0.34041083250E+03 -0.67832676489E+03  0.45852878468E+03  0.88671043268E+03  0.10100000352E+00 0.  1.
       -3    1    3    3    0  502 -0.34041083250E+03  0.67832676489E+03  0.10728033945E+04  0.13141209489E+04  0.10100000352E+00 0. -1.
</event>
<event>
 5   0  0.1764099E-04  0.1597517E+04  0.7818609E-02  0.8822075E-01
       -1   -1    0    0    0  501  0.00000000000E+00  0.00000000000E+00  0.34419188373E+03  0.34419188377E+03  0.50400001928E-02 0.  1.
        1   -1    0    0  501    0  0.00000000000E+00  0.00000000000E+00 -0.18536615161E+04  0.18536615161E+04  0.50400001928E-02 0. -1.
    10030    2    1    2    0    0  0.00000000000E+00  0.00000000000E+00 -0.15094696324E+04  0.21978533999E+04  0.15975171349E+04 0.  0.
        5    1    3    3  502    0 -0.20219571566E+03 -0.14573906338E+03  0.28930122184E+03  0.38189038870E+03  0.46999998093E+01 0.  1.
       -5    1    3    3    0  502  0.20219571566E+03  0.14573906338E+03 -0.17987708542E+04  0.18159630112E+04  0.46999998093E+01 0. -1.
</event>
<event>
 5   0  0.3210612E-04  0.1611677E+04  0.7818609E-02  0.8813406E-01
       -2   -1    0    0    0  501  0.00000000000E+00  0.00000000000E+00  0.74552217070E+03  0.74552217071E+03  0.25500000920E-02 0.  1.
        2   -1    0    0  501    0  0.00000000000E+00  0.00000000000E+00 -0.87103479218E+03  0.87103479218E+03  0.25500000920E-02 0. -1.
    10030    2    1    2    0    0  0.00000000000E+00  0.00000000000E+00 -0.12551262147E+03  0.16165569629E+04  0.16116770756E+04 0.  0.
        2    1    3    3  502    0 -0.32596724313E+03 -0.60938076626E+03 -0.47847013152E+03  0.84055530968E+03  0.25500000920E-02 0. -1.
       -2    1    3    3    0  502  0.32596724313E+03  0.60938076626E+03  0.35295751004E+03  0.77600165321E+03  0.25500000920E-02 0.  1.
</event>
<event>
 5   0  0.1761255E-04  0.1441210E+04  0.7818609E-02  0.8924517E-01
       -1   -1    0    0    0  501  0.00000000000E+00  0.00000000000E+00  0.25774674537E+03  0.25774674541E+03  0.50400001928E-02 0.  1.
        1   -1    0    0  501    0  0.00000000000E+00  0.00000000000E+00 -0.20146576238E+04  0.20146576238E+04  0.50400001928E-02 0. -1.
    10030    2    1    2    0    0  0.00000000000E+00  0.00000000000E+00 -0.17569108785E+04  0.22724043692E+04  0.14412098329E+04 0.  0.
        2    1    3    3  502    0  0.60430115959E+03 -0.39238470394E+03 -0.86077082040E+03  0.11225293104E+04  0.25500000920E-02 0. -1.
       -2    1    3    3    0  502 -0.60430115959E+03  0.39238470394E+03 -0.89614005805E+03  0.11498750589E+04  0.25500000920E-02 0.  1.
</event>
<event>
 5   0  0.1761255E-04  0.1600570E+04  0.7818609E-02  0.8820198E-01
       -1   -1    0    0    0  501  0.00000000000E+00  0.00000000000E+00  0.49403789203E+03  0.49403789205E+03  0.50400001928E-02 0.  1.
        1   -1    0    0  501    0  0.00000000000E+00  0.00000000000E+00 -0.12963699597E+04  0.12963699597E+04  0.50400001928E-02 0. -1.
    10030    2    1    2    0    0  0.00000000000E+00  0.00000000000E+00 -0.80233206771E+03  0.17904078518E+04  0.16005697513E+04 0.  0.
        2    1    3    3  502    0  0.27053993798E+03  0.32045108936E+03  0.36127338955E+03  0.55353339621E+03  0.25500000920E-02 0.  1.
       -2    1    3    3    0  502 -0.27053993798E+03 -0.32045108936E+03 -0.11636054573E+04  0.12368744556E+04  0.25500000920E-02 0. -1.
</event>
<event>
 5   0  0.1819811E-04  0.1599151E+04  0.7818609E-02  0.8821070E-01
        1   -1    0    0  501    0  0.00000000000E+00  0.00000000000E+00  0.69777138740E+03  0.69777138741E+03  0.50400001928E-02 0. -1.
       -1   -1    0    0    0  501  0.00000000000E+00  0.00000000000E+00 -0.91623291368E+03  0.91623291369E+03  0.50400001928E-02 0.  1.
    10030    2    1    2    0    0  0.00000000000E+00  0.00000000000E+00 -0.21846152628E+03  0.16140043011E+04  0.15991511641E+04 0.  0.
        1    1    3    3  502    0 -0.20688857368E+03 -0.50839611204E+03 -0.69605316101E+03  0.88643075964E+03  0.50400001928E-02 0.  1.
       -1    1    3    3    0  502  0.20688857368E+03  0.50839611204E+03  0.47759163472E+03  0.72757354147E+03  0.50400001928E-02 0. -1.
</event>
<event>
 5   0  0.3210612E-04  0.1627587E+04  0.7818609E-02  0.8803778E-01
        2   -1    0    0  501    0  0.00000000000E+00  0.00000000000E+00  0.10328738391E+04  0.10328738391E+04  0.25500000920E-02 0. -1.
       -2   -1    0    0    0  501  0.00000000000E+00  0.00000000000E+00 -0.64118136911E+03  0.64118136911E+03  0.25500000920E-02 0.  1.
    10030    2    1    2    0    0  0.00000000000E+00  0.00000000000E+00  0.39169247000E+03  0.16740552082E+04  0.16275865105E+04 0.  0.
        2    1    3    3  502    0 -0.26349022851E+03  0.76728898542E+03  0.26170540880E+03  0.85243721685E+03  0.25500000920E-02 0. -1.
       -2    1    3    3    0  502  0.26349022851E+03 -0.76728898542E+03  0.12998706120E+03  0.82161799137E+03  0.25500000920E-02 0.  1.
</event>
<event>
 5   0  0.3263294E-04  0.1613654E+04  0.7818609E-02  0.8812203E-01
        2   -1    0    0  501    0  0.00000000000E+00  0.00000000000E+00  0.59279808495E+03  0.59279808496E+03  0.25500000920E-02 0.  1.
       -2   -1    0    0    0  501  0.00000000000E+00  0.00000000000E+00 -0.10981312518E+04  0.10981312518E+04  0.25500000920E-02 0. -1.
    10030    2    1    2    0    0  0.00000000000E+00  0.00000000000E+00 -0.50533316689E+03  0.16909293368E+04  0.16136543659E+04 0.  0.
        4    1    3    3  502    0 -0.30378161461E+03  0.50119708841E+03 -0.83373612208E+03  0.10191169339E+04  0.12699999809E+01 0. -1.
       -4    1    3    3    0  502  0.30378161461E+03 -0.50119708841E+03  0.32840295520E+03  0.67181240289E+03  0.12699999809E+01 0.  1.
</event>
<event>
 5   0  0.1819811E-04  0.1599226E+04  0.7818609E-02  0.8821024E-01
       -1   -1    0    0    0  501  0.00000000000E+00  0.00000000000E+00  0.82538147809E+03  0.82538147811E+03  0.50400001928E-02 0. -1.
        1   -1    0    0  501    0  0.00000000000E+00  0.00000000000E+00 -0.77464898495E+03  0.77464898497E+03  0.50400001928E-02 0.  1.
    10030    2    1    2    0    0  0.00000000000E+00  0.00000000000E+00  0.50732493140E+02  0.16000304631E+04  0.15992259681E+04 0.  0.
        1    1    3    3  502    0  0.18081595582E+03 -0.46020220366E+03 -0.60336092599E+03  0.78008005049E+03  0.50400001928E-02 0.  1.
       -1    1    3    3    0  502 -0.18081595582E+03  0.46020220366E+03  0.65409341913E+03  0.81995041259E+03  0.50400001928E-02 0. -1.
</event>
<event>
 5   0  0.3228393E-04  0.1595968E+04  0.7818609E-02  0.8823029E-01
       -2   -1    0    0    0  501  0.00000000000E+00  0.00000000000E+00  0.28264826625E+03  0.28264826626E+03  0.25500000920E-02 0. -1.
        2   -1    0    0  501    0  0.00000000000E+00  0.00000000000E+00 -0.22529016720E+04  0.22529016720E+04  0.25500000920E-02 0.  1.
    10030    2    1    2    0    0  0.00000000000E+00  0.00000000000E+00 -0.19702534058E+04  0.25355499383E+04  0.15959683601E+04 0.  0.
        1    1    3    3  502    0  0.46830460991E+03 -0.64027757436E+03 -0.84740941886E+03  0.11607615186E+04  0.50400001928E-02 0. -1.
       -1    1    3    3    0  502 -0.46830460991E+03  0.64027757436E+03 -0.11228439869E+04  0.13747884197E+04  0.50400001928E-02 0.  1.
</event>
<event>
 5   0  0.1761255E-04  0.1607356E+04  0.7818609E-02  0.8816041E-01
       -1   -1    0    0    0  501  0.00000000000E+00  0.00000000000E+00  0.11737301065E+04  0.11737301065E+04  0.50400001928E-02 0.  1.
        1   -1    0    0  501    0  0.00000000000E+00  0.00000000000E+00 -0.55029572589E+03  0.55029572591E+03  0.50400001928E-02 0. -1.
    10030    2    1    2    0    0  0.00000000000E+00  0.00000000000E+00  0.62343438062E+03  0.17240258324E+04  0.16073564147E+04 0.  0.
        2    1    3    3  502    0 -0.23020818209E+03  0.17665624416E+03  0.11155801626E+04  0.11527021883E+04  0.25500000920E-02 0.  1.
       -2    1    3    3    0  502  0.23020818209E+03 -0.17665624416E+03 -0.49214578194E+03  0.57132364417E+03  0.25500000920E-02 0. -1.
</event>
<event>
 5   0  0.1819811E-04  0.1597651E+04  0.7818609E-02  0.8821992E-01
        1   -1    0    0  501    0  0.00000000000E+00  0.00000000000E+00  0.64068781185E+03  0.64068781187E+03  0.50400001928E-02 0. -1.
       -1   -1    0    0    0  501  0.00000000000E+00  0.00000000000E+00 -0.99599584377E+03  0.99599584378E+03  0.50400001928E-02 0.  1.
    10030    2    1    2    0    0  0.00000000000E+00  0.00000000000E+00 -0.35530803192E+03  0.16366836557E+04  0.15976512733E+04 0.  0.
        1    1    3    3  502    0  0.76259917965E+03  0.65643603658E+02  0.56526108241E+02  0.76750361071E+03  0.50400001928E-02 0. -1.
       -1    1    3    3    0  502 -0.76259917965E+03 -0.65643603658E+02 -0.41183414016E+03  0.86918004495E+03  0.50400001928E-02 0.  1.
</event>
<event>
 5   0  0.1736537E-04  0.1594190E+04  0.7818609E-02  0.8824125E-01
       -1   -1    0    0    0  501  0.00000000000E+00  0.00000000000E+00  0.75364703035E+03  0.75364703036E+03  0.50400001928E-02 0.  1.
        1   -1    0    0  501    0  0.00000000000E+00  0.00000000000E+00 -0.84304752986E+03  0.84304752988E+03  0.50400001928E-02 0. -1.
    10030    2    1    2    0    0  0.00000000000E+00  0.00000000000E+00 -0.89400499516E+02  0.15966945602E+04  0.15941897846E+04 0.  0.
        3    1    3    3  502    0 -0.57783746340E+03  0.22651406362E+03  0.45624106756E+03  0.77029908286E+03  0.10100000352E+00 0.  1.
       -3    1    3    3    0  502  0.57783746340E+03 -0.22651406362E+03 -0.54564156707E+03  0.82639547739E+03  0.10100000352E+00 0. -1.
</event>
<event>
 5   0  0.1819811E-04  0.1600825E+04  0.7818609E-02  0.8820041E-01
       -1   -1    0    0    0  501  0.00000000000E+00  0.00000000000E+00  0.61121480811E+03  0.61121480813E+03  0.50400001928E-02 0. -1.
        1   -1    0    0  501    0  0.00000000000E+00  0.00000000000E+00 -0.10481751241E+04  0.10481751241E+04  0.50400001928E-02 0.  1.
    10030    2    1    2    0    0  0.00000000000E+00  0.00000000000E+00 -0.43696031596E+03  0.16593899322E+04  0.16008249840E+04 0.  0.
        1    1    3    3  502    0 -0.11506515250E+03 -0.46296270284E+03  0.44775060105E+03  0.65425916448E+03  0.50400001928E-02 0. -1.
       -1    1    3    3    0  502  0.11506515250E+03  0.46296270284E+03 -0.88471091701E+03  0.10051307677E+04  0.50400001928E-02 0.  1.
</event>
<event>
 5   0  0.1819811E-04  0.1629468E+04  0.7818609E-02  0.8802647E-01
       -1   -1    0    0    0  501  0.00000000000E+00  0.00000000000E+00  0.11296818521E+04  0.11296818521E+04  0.50400001928E-02 0.  1.
        1   -1    0    0  501    0  0.00000000000E+00  0.00000000000E+00 -0.58759138821E+03  0.58759138824E+03  0.50400001928E-02 0. -1.
    10030    2    1    2    0    0  0.00000000000E+00  0.00000000000E+00  0.54209046388E+03  0.17172732403E+04  0.16294677999E+04 0.  0.
        1    1    3    3  502    0 -0.67499206991E+03  0.45405887740E+03  0.22382491768E+03  0.84373061601E+03  0.50400001928E-02 0.  1.
       -1    1    3    3    0  502  0.67499206991E+03 -0.45405887740E+03  0.31826554620E+03  0.87354262433E+03  0.50400001928E-02 0. -1.
</event>
<event>
 5   0  0.1761255E-04  0.1566840E+04  0.7818609E-02  0.8841182E-01
        1   -1    0    0  501    0  0.00000000000E+00  0.00000000000E+00  0.17169134478E+04  0.17169134478E+04  0.50400001928E-02 0.  1.
       -1   -1    0    0    0  501  0.00000000000E+00  0.00000000000E+00 -0.35747110347E+03  0.35747110351E+03  0.50400001928E-02 0. -1.
    10030    2    1    2    0    0  0.00000000000E+00  0.00000000000E+00  0.13594423443E+04  0.20743845513E+04  0.15668400618E+04 0.  0.
        2    1    3    3  502    0  0.17885449579E+03  0.11994628776E+03 -0.31751524950E+03  0.38365606509E+03  0.25500000920E-02 0. -1.
       -2    1    3    3    0  502 -0.17885449579E+03 -0.11994628776E+03  0.16769575938E+04  0.16907284862E+04  0.25500000920E-02 0.  1.
</event>
<event>
 5   0  0.1819811E-04  0.1631767E+04  0.7818609E-02  0.8801267E-01
       -1   -1    0    0    0  501  0.00000000000E+00  0.00000000000E+00  0.37263612836E+03  0.37263612840E+03  0.50400001928E-02 0. -1.
        1   -1    0    0  501    0  0.00000000000E+00  0.00000000000E+00 -0.17863695968E+04  0.17863695968E+04  0.50400001928E-02 0.  1.
    10030    2    1    2    0    0  0.00000000000E+00  0.00000000000E+00 -0.14137334684E+04  0.21590057252E+04  0.16317669569E+04 0.  0.
        1    1    3    3  502    0 -0.25165338638E+03 -0.77597927010E+03 -0.68850476814E+03  0.10674793067E+04  0.50400001928E-02 0.  1.
       -1    1    3    3    0  502  0.25165338638E+03  0.77597927010E+03 -0.72522870030E+03  0.10915264185E+04  0.50400001928E-02 0. -1.
</event>
<event>
 5   0  0.3210612E-04  0.1586765E+04  0.7818609E-02  0.8828720E-01
       -2   -1    0    0    0  501  0.00000000000E+00  0.00000000000E+00  0.26181677662E+03  0.26181677663E+03  0.25500000920E-02 0. -1.
        2   -1    0    0  501    0  0.00000000000E+00  0.00000000000E+00 -0.24041839998E+04  0.24041839998E+04  0.25500000920E-02 0.  1.
    10030    2    1    2    0    0  0.00000000000E+00  0.00000000000E+00 -0.21423672232E+04  0.26660007765E+04  0.15867648915E+04 0.  0.
        2    1    3    3  502    0 -0.75598522111E+03  0.22860302514E+03 -0.11978394879E+04  0.14347795777E+04  0.25500000920E-02 0. -1.
       -2    1    3    3    0  502  0.75598522111E+03 -0.22860302514E+03 -0.94452773530E+03  0.12312211988E+04  0.25500000920E-02 0.  1.
</event>
<event>
 5   0  0.1761255E-04  0.1588826E+04  0.7818609E-02  0.8827442E-01
        1   -1    0    0  501    0  0.00000000000E+00  0.00000000000E+00  0.47312956116E+03  0.47312956119E+03  0.50400001928E-02 0. -1.
       -1   -1    0    0    0  501  0.00000000000E+00  0.00000000000E+00 -0.13338676984E+04  0.13338676984E+04  0.50400001928E-02 0.  1.
    10030    2    1    2    0    0  0.00000000000E+00  0.00000000000E+00 -0.86073813726E+03  0.18069972596E+04  0.15888262823E+04 0.  0.
        2    1    3    3  502    0 -0.23813146672E+03  0.61354274948E+03 -0.93637995523E+03  0.11445299129E+04  0.25500000920E-02 0.  1.
       -2    1    3    3    0  502  0.23813146672E+03 -0.61354274948E+03  0.75641817967E+02  0.66246734676E+03  0.25500000920E-02 0. -1.
</event>
<event>
 5   0  0.1764099E-04  0.1607329E+04  0.7818609E-02  0.8816058E-01
        1   -1    0    0  501    0  0.00000000000E+00  0.00000000000E+00  0.12309979001E+04  0.12309979001E+04  0.50400001928E-02 0. -1.
       -1   -1    0    0    0  501  0.00000000000E+00  0.00000000000E+00 -0.52467708290E+03  0.52467708292E+03  0.50400001928E-02 0.  1.
    10030    2    1    2    0    0  0.00000000000E+00  0.00000000000E+00  0.70632081723E+03  0.17556749831E+04  0.16073286998E+04 0.  0.
        5    1    3    3  502    0 -0.14403157256E+03  0.78581024539E+03  0.25786467583E+03  0.83949932501E+03  0.46999998093E+01 0.  1.
       -5    1    3    3    0  502  0.14403157256E+03 -0.78581024539E+03  0.44845614140E+03  0.91617565805E+03  0.46999998093E+01 0. -1.
</event>
<event>
 5   0  0.3228393E-04  0.1614396E+04  0.7818609E-02  0.8811752E-01
       -2   -1    0    0    0  501  0.00000000000E+00  0.00000000000E+00  0.59408795545E+03  0.59408795546E+03  0.25500000920E-02 0. -1.
        2   -1    0    0  501    0  0.00000000000E+00  0.00000000000E+00 -0.10967546487E+04  0.10967546487E+04  0.25500000920E-02 0.  1.
    10030    2    1    2    0    0  0.00000000000E+00  0.00000000000E+00 -0.50266669320E+03  0.16908426041E+04  0.16143961433E+04 0.  0.
        1    1    3    3  502    0 -0.47913126847E+03 -0.41512350316E+03  0.27200204490E+03  0.68984013203E+03  0.50400001928E-02 0. -1.
       -1    1    3    3    0  502  0.47913126847E+03  0.41512350316E+03 -0.77466873810E+03  0.10010024721E+04  0.50400001928E-02 0.  1.
</event>
<event>
 5   0  0.3228393E-04  0.1562960E+04  0.7818609E-02  0.8843632E-01
        2   -1    0    0  501    0  0.00000000000E+00  0.00000000000E+00  0.15894192504E+04  0.15894192504E+04  0.25500000920E-02 0.  1.
       -2   -1    0    0    0  501  0.00000000000E+00  0.00000000000E+00 -0.38423536122E+03  0.38423536123E+03  0.25500000920E-02 0. -1.
    10030    2    1    2    0    0  0.00000000000E+00  0.00000000000E+00  0.12051838892E+04  0.19736546117E+04  0.15629601144E+04 0.  0.
        1    1    3    3  502    0 -0.49220552362E+03  0.22182329770E+02 -0.16339132315E+03  0.51909060649E+03  0.50400001928E-02 0. -1.
       -1    1    3    3    0  502  0.49220552362E+03 -0.22182329770E+02  0.13685752124E+04  0.14545640052E+04  0.50400001928E-02 0.  1.
</event>
<event>
 5   0  0.3210612E-04  0.1585161E+04  0.7818609E-02  0.8829716E-01
        2   -1    0    0  501    0  0.00000000000E+00  0.00000000000E+00  0.30947734805E+04  0.30947734805E+04  0.25500000920E-02 0. -1.
       -2   -1    0    0    0  501  0.00000000000E+00  0.00000000000E+00 -0.20298228609E+03  0.20298228611E+03  0.25500000920E-02 0.  1.
    10030    2    1    2    0    0  0.00000000000E+00  0.00000000000E+00  0.28917911944E+04  0.32977557666E+04  0.15851614379E+04 0.  0.
        2    1    3    3  502    0 -0.67480177432E+03  0.41570954970E+03  0.14385899911E+04  0.16424716214E+04  0.25500000920E-02 0. -1.
       -2    1    3    3    0  502  0.67480177432E+03 -0.41570954970E+03  0.14532012033E+04  0.16552841453E+04  0.25500000920E-02 0.  1.
</event>
<event>
 5   0  0.3380454E-04  0.1614973E+04  0.7818609E-02  0.8811402E-01
        2   -1    0    0  501    0  0.00000000000E+00  0.00000000000E+00  0.17231816958E+04  0.17231816958E+04  0.25500000920E-02 0. -1.
       -2   -1    0    0    0  501  0.00000000000E+00  0.00000000000E+00 -0.37838961127E+03  0.37838961128E+03  0.25500000920E-02 0.  1.
    10030    2    1    2    0    0  0.00000000000E+00  0.00000000000E+00  0.13447920845E+04  0.21015713071E+04  0.16149725100E+04 0.  0.
        5    1    3    3  502    0  0.11209509519E+01  0.60638467501E+03  0.13662591380E+04  0.14947875276E+04  0.46999998093E+01 0. -1.
       -5    1    3    3    0  502 -0.11209509519E+01 -0.60638467501E+03 -0.21467053461E+02  0.60678377945E+03  0.46999998093E+01 0.  1.
</event>
<event>
 5   0  0.1787688E-04  0.1611649E+04  0.7818609E-02  0.8813423E-01
        1   -1    0    0  501    0  0.00000000000E+00  0.00000000000E+00  0.17647849627E+04  0.17647849627E+04  0.50400001928E-02 0. -1.
       -1   -1    0    0    0  501  0.00000000000E+00  0.00000000000E+00 -0.36795040184E+03  0.36795040187E+03  0.50400001928E-02 0.  1.
    10030    2    1    2    0    0  0.00000000000E+00  0.00000000000E+00  0.13968345609E+04  0.21327353646E+04  0.16116492624E+04 0.  0.
        4    1    3    3  502    0  0.39414351243E+03 -0.39034785688E+03 -0.75055754832E+02  0.55978168691E+03  0.12699999809E+01 0.  1.
       -4    1    3    3    0  502 -0.39414351243E+03  0.39034785688E+03  0.14718903157E+04  0.15729536777E+04  0.12699999809E+01 0. -1.
</event>
<event>
 5   0  0.3228393E-04  0.1581893E+04  0.7818609E-02  0.8831750E-01
        2   -1    0    0  501    0  0.00000000000E+00  0.00000000000E+00  0.11304906740E+04  0.11304906740E+04  0.25500000920E-02 0.  1.
       -2   -1    0    0    0  501  0.00000000000E+00  0.00000000000E+00 -0.55338475506E+03  0.55338475507E+03  0.25500000920E-02 0. -1.
    10030    2    1    2    0    0  0.00000000000E+00  0.00000000000E+00  0.57710591891E+03  0.16838754291E+04  0.15818929227E+04 0.  0.
        1    1    3    3  502    0 -0.32690111292E+03 -0.10843533343E+03 -0.46937095674E+03  0.58217836976E+03  0.50400001928E-02 0. -1.
       -1    1    3    3    0  502  0.32690111292E+03  0.10843533343E+03  0.10464768756E+04  0.11016970593E+04  0.50400001928E-02 0.  1.
</event>
<event>
 5   0  0.1819811E-04  0.1596229E+04  0.7818609E-02  0.8822868E-01
        1   -1    0    0  501    0  0.00000000000E+00  0.00000000000E+00  0.38205882521E+03  0.38205882525E+03  0.50400001928E-02 0.  1.
       -1   -1    0    0    0  501  0.00000000000E+00  0.00000000000E+00 -0.16672484431E+04  0.16672484431E+04  0.50400001928E-02 0. -1.
    10030    2    1    2    0    0  0.00000000000E+00  0.00000000000E+00 -0.12851896179E+04  0.20493072683E+04  0.15962292837E+04 0.  0.
        1    1    3    3  502    0 -0.55759709845E+03  0.33857611741E+03 -0.52252355784E+02  0.65442999641E+03  0.50400001928E-02 0.  1.
       -1    1    3    3    0  502  0.55759709845E+03 -0.33857611741E+03 -0.12329372621E+04  0.13948772719E+04  0.50400001928E-02 0. -1.
</event>
<event>
 5   0  0.1761255E-04  0.1599960E+04  0.7818609E-02  0.8820573E-01
       -1   -1    0    0    0  501  0.00000000000E+00  0.00000000000E+00  0.61888351791E+03  0.61888351793E+03  0.50400001928E-02 0.  1.
        1   -1    0    0  501    0  0.00000000000E+00  0.00000000000E+00 -0.10340685860E+04  0.10340685860E+04  0.50400001928E-02 0. -1.
    10030    2    1    2    0    0  0.00000000000E+00  0.00000000000E+00 -0.41518506805E+03  0.16529521039E+04  0.15999600048E+04 0.  0.
        2    1    3    3  502    0 -0.71942923686E+03 -0.31176624983E+03 -0.43617719814E+02  0.78528919951E+03  0.25500000920E-02 0.  1.
       -2    1    3    3    0  502  0.71942923686E+03  0.31176624983E+03 -0.37156734824E+03  0.86766290440E+03  0.25500000920E-02 0. -1.
</event>
<event>
 5   0  0.1819811E-04  0.1591902E+04  0.7818609E-02  0.8825538E-01
       -1   -1    0    0    0  501  0.00000000000E+00  0.00000000000E+00  0.99122591338E+03  0.99122591339E+03  0.50400001928E-02 0.  1.
        1   -1    0    0  501    0  0.00000000000E+00  0.00000000000E+00 -0.63914597919E+03  0.63914597921E+03  0.50400001928E-02 0. -1.
    10030    2    1    2    0    0  0.00000000000E+00  0.00000000000E+00  0.35207993419E+03  0.16303718926E+04  0.15919020787E+04 0.  0.
        1    1    3    3  502    0  0.72579320290E+03  0.12230779917E+03 -0.13427231819E+03  0.74817379436E+03  0.50400001928E-02 0. -1.
       -1    1    3    3    0  502 -0.72579320290E+03 -0.12230779917E+03  0.48635225238E+03  0.88219809823E+03  0.50400001928E-02 0.  1.
</event>
<event>
 5   0  0.1764099E-04  0.1594377E+04  0.7818609E-02  0.8824010E-01
       -1   -1    0    0    0  501  0.00000000000E+00  0.00000000000E+00  0.34216640972E+03  0.34216640976E+03  0.50400001928E-02 0.  1.
        1   -1    0    0  501    0  0.00000000000E+00  0.00000000000E+00 -0.18573118587E+04  0.18573118588E+04  0.50400001928E-02 0. -1.
    10030    2    1    2    0    0  0.00000000000E+00  0.00000000000E+00 -0.15151454490E+04  0.21994782685E+04  0.15943772834E+04 0.  0.
        5    1    3    3  502    0 -0.32422677070E+03 -0.24641884600E+03 -0.17029653799E+04  0.17509878417E+04  0.46999998093E+01 0. -1.
       -5    1    3    3    0  502  0.32422677070E+03  0.24641884600E+03  0.18781993091E+03  0.44849042682E+03  0.46999998093E+01 0.  1.
</event>
<event>
 5   0  0.1761255E-04  0.1608731E+04  0.7818609E-02  0.8815202E-01
       -1   -1    0    0    0  501  0.00000000000E+00  0.00000000000E+00  0.55690836943E+03  0.55690836945E+03  0.50400001928E-02 0.  1.
        1   -1    0    0  501    0  0.00000000000E+00  0.00000000000E+00 -0.11617785629E+04  0.11617785629E+04  0.50400001928E-02 0. -1.
    10030    2    1    2    0    0  0.00000000000E+00  0.00000000000E+00 -0.60487019345E+03  0.17186869323E+04  0.16087314320E+04 0.  0.
        2    1    3    3  502    0 -0.22664825520E+03  0.38939418442E+03  0.40944706093E+03  0.60880551751E+03  0.25500000920E-02 0.  1.
       -2    1    3    3    0  502  0.22664825520E+03 -0.38939418442E+03 -0.10143172544E+04  0.11098814148E+04  0.25500000920E-02 0. -1.
</event>
<event>
 5   0  0.3228393E-04  0.1595308E+04  0.7818609E-02  0.8823436E-01
       -2   -1    0    0    0  501  0.00000000000E+00  0.00000000000E+00  0.59760444360E+03  0.59760444360E+03  0.25500000920E-02 0. -1.
        2   -1    0    0  501    0  0.00000000000E+00  0.00000000000E+00 -0.10646699951E+04  0.10646699951E+04  0.25500000920E-02 0.  1.
    10030    2    1    2    0    0  0.00000000000E+00  0.00000000000E+00 -0.46706555152E+03  0.16622744387E+04  0.15953075190E+04 0.  0.
        1    1    3    3  502    0 -0.49216871521E+03 -0.22740488359E+02 -0.88716443750E+03  0.10147945177E+04  0.50400001928E-02 0.  1.
       -1    1    3    3    0  502  0.49216871521E+03  0.22740488359E+02  0.42009888598E+03  0.64747992098E+03  0.50400001928E-02 0. -1.
</event>
<event>
 5   0  0.3274900E-04  0.1602149E+04  0.7818609E-02  0.8819229E-01
       -2   -1    0    0    0  501  0.00000000000E+00  0.00000000000E+00  0.27965646163E+03  0.27965646165E+03  0.25500000920E-02 0.  1.
        2   -1    0    0  501    0  0.00000000000E+00  0.00000000000E+00 -0.22946738190E+04  0.22946738190E+04  0.25500000920E-02 0. -1.
    10030    2    1    2    0    0  0.00000000000E+00  0.00000000000E+00 -0.20150173574E+04  0.25743302807E+04  0.16021490079E+04 0.  0.
        3    1    3    3  502    0  0.59171972693E+03 -0.31256977920E+03 -0.29999131329E+03  0.73336682523E+03  0.10100000352E+00 0.  1.
       -3    1    3    3    0  502 -0.59171972693E+03  0.31256977920E+03 -0.17150260441E+04  0.18409634554E+04  0.10100000352E+00 0. -1.
</event>
<event>
 5   0  0.1819811E-04  0.1605043E+04  0.7818609E-02  0.8817456E-01
       -1   -1    0    0    0  501  0.00000000000E+00  0.00000000000E+00  0.34316407373E+03  0.34316407377E+03  0.50400001928E-02 0. -1.
        1   -1    0    0  501    0  0.00000000000E+00  0.00000000000E+00 -0.18767712776E+04  0.18767712776E+04  0.50400001928E-02 0.  1.
    10030    2    1    2    0    0  0.00000000000E+00  0.00000000000E+00 -0.15336072038E+04  0.22199353513E+04  0.16050426500E+04 0.  0.
        1    1    3    3  502    0  0.45897705472E+02 -0.14358184406E+03 -0.18570151144E+04  0.18631230449E+04  0.50400001928E-02 0.  1.
       -1    1    3    3    0  502 -0.45897705472E+02  0.14358184406E+03  0.32340791062E+03  0.35681230639E+03  0.50400001928E-02 0. -1.
</event>
<event>
 5   0  0.1761255E-04  0.1605306E+04  0.7818609E-02  0.8817295E-01
       -1   -1    0    0    0  501  0.00000000000E+00  0.00000000000E+00  0.33663388358E+03  0.33663388362E+03  0.50400001928E-02 0. -1.
        1   -1    0    0  501    0  0.00000000000E+00  0.00000000000E+00 -0.19138054710E+04  0.19138054710E+04  0.50400001928E-02 0.  1.
    10030    2    1    2    0    0  0.00000000000E+00  0.00000000000E+00 -0.15771715874E+04  0.22504393546E+04  0.16053059125E+04 0.  0.
        2    1    3    3  502    0 -0.59056391921E+03  0.62669545216E+01 -0.15505755233E+04  0.16592436442E+04  0.25500000920E-02 0.  1.
       -2    1    3    3    0  502  0.59056391921E+03 -0.62669545216E+01 -0.26596064143E+02  0.59119571043E+03  0.25500000920E-02 0. -1.
</event>
<event>
 5   0  0.1819811E-04  0.1529005E+04  0.7818609E-02  0.8865391E-01
       -1   -1    0    0    0  501  0.00000000000E+00  0.00000000000E+00  0.93544425539E+03  0.93544425541E+03  0.50400001928E-02 0.  1.
        1   -1    0    0  501    0  0.00000000000E+00  0.00000000000E+00 -0.62479859407E+03  0.62479859409E+03  0.50400001928E-02 0. -1.
    10030    2    1    2    0    0  0.00000000000E+00  0.00000000000E+00  0.31064566132E+03  0.15602428495E+04  0.15290052395E+04 0.  0.
        1    1    3    3  502    0  0.68146597355E+03 -0.33215624029E+03  0.54611947158E+02  0.76006980329E+03  0.50400001928E-02 0.  1.
       -1    1    3    3    0  502 -0.68146597355E+03  0.33215624029E+03  0.25603371416E+03  0.80017304621E+03  0.50400001928E-02 0. -1.
</event>
<event>
 5   0  0.1761255E-04  0.1552131E+04  0.7818609E-02  0.8850508E-01
       -1   -1    0    0    0  501  0.00000000000E+00  0.00000000000E+00  0.83944155485E+03  0.83944155486E+03  0.50400001928E-02 0.  1.
        1   -1    0    0  501    0  0.00000000000E+00  0.00000000000E+00 -0.71747425267E+03  0.71747425268E+03  0.50400001928E-02 0. -1.
    10030    2    1    2    0    0  0.00000000000E+00  0.00000000000E+00  0.12196730218E+03  0.15569158075E+04  0.15521310541E+04 0.  0.
        2    1    3    3  502    0  0.29905599061E+03  0.11846223808E+02  0.77922370406E+03  0.83472414576E+03  0.25500000920E-02 0.  1.
       -2    1    3    3    0  502 -0.29905599061E+03 -0.11846223808E+02 -0.65725640188E+03  0.72219166179E+03  0.25500000920E-02 0. -1.
</event>
<event>
 5   0  0.1736537E-04  0.1605817E+04  0.7818609E-02  0.8816983E-01
        1   -1    0    0  501    0  0.00000000000E+00  0.00000000000E+00  0.24197069224E+04  0.24197069224E+04  0.50400001928E-02 0. -1.
       -1   -1    0    0    0  501  0.00000000000E+00  0.00000000000E+00 -0.26642140346E+03  0.26642140351E+03  0.50400001928E-02 0.  1.
    10030    2    1    2    0    0  0.00000000000E+00  0.00000000000E+00  0.21532855189E+04  0.26861283259E+04  0.16058165702E+04 0.  0.
        3    1    3    3  502    0  0.40796227207E+03  0.42965319653E+03  0.19830607861E+04  0.20696775537E+04  0.10100000352E+00 0. -1.
       -3    1    3    3    0  502 -0.40796227207E+03 -0.42965319653E+03  0.17022473287E+03  0.61645077224E+03  0.10100000352E+00 0.  1.
</event>
<event>
 5   0  0.3228393E-04  0.1618315E+04  0.7818609E-02  0.8809375E-01
       -2   -1    0    0    0  501  0.00000000000E+00  0.00000000000E+00  0.35686670492E+03  0.35686670492E+03  0.25500000920E-02 0. -1.
        2   -1    0    0  501    0  0.00000000000E+00  0.00000000000E+00 -0.18346795377E+04  0.18346795377E+04  0.25500000920E-02 0.  1.
    10030    2    1    2    0    0  0.00000000000E+00  0.00000000000E+00 -0.14778128328E+04  0.21915462426E+04  0.16183152242E+04 0.  0.
        1    1    3    3  502    0 -0.38355305082E+03 -0.41625394522E+03 -0.15219607876E+04  0.16238056930E+04  0.50400001928E-02 0.  1.
       -1    1    3    3    0  502  0.38355305082E+03  0.41625394522E+03  0.44147954828E+02  0.56774054958E+03  0.50400001928E-02 0. -1.
</event>
<event>
 5   0  0.1764099E-04  0.1516142E+04  0.7818609E-02  0.8873789E-01
       -1   -1    0    0    0  501  0.00000000000E+00  0.00000000000E+00  0.47887809353E+03  0.47887809356E+03  0.50400001928E-02 0.  1.
        1   -1    0    0  501    0  0.00000000000E+00  0.00000000000E+00 -0.12000379566E+04  0.12000379566E+04  0.50400001928E-02 0. -1.
    10030    2    1    2    0    0  0.00000000000E+00  0.00000000000E+00 -0.72115986304E+03  0.16789160501E+04  0.15161423269E+04 0.  0.
        5    1    3    3  502    0 -0.17870500323E+03  0.50577124974E+03  0.23256615918E+03  0.58467866699E+03  0.46999998093E+01 0.  1.
       -5    1    3    3    0  502  0.17870500323E+03 -0.50577124974E+03 -0.95372602221E+03  0.10942373832E+04  0.46999998093E+01 0. -1.
</event>
<event>
 5   0  0.3210612E-04  0.1604566E+04  0.7818609E-02  0.8817748E-01
       -2   -1    0    0    0  501  0.00000000000E+00  0.00000000000E+00  0.82116852901E+03  0.82116852901E+03  0.25500000920E-02 0. -1.
        2   -1    0    0  501    0  0.00000000000E+00  0.00000000000E+00 -0.78383210231E+03  0.78383210231E+03  0.25500000920E-02 0.  1.
    10030    2    1    2    0    0  0.00000000000E+00  0.00000000000E+00  0.37336426701E+02  0.16050006313E+04  0.16045663021E+04 0.  0.
        2    1    3    3  502    0 -0.23138332238E+03  0.17425236462E+03 -0.72970281777E+03  0.78509128815E+03  0.25500000920E-02 0.  1.
       -2    1    3    3    0  502  0.23138332238E+03 -0.17425236462E+03  0.76703924447E+03  0.81990934317E+03  0.25500000920E-02 0. -1.
</event>
<event>
 5   0  0.1761255E-04  0.1581907E+04  0.7818609E-02  0.8831741E-01
       -1   -1    0    0    0  501  0.00000000000E+00  0.00000000000E+00  0.53003545523E+03  0.53003545525E+03  0.50400001928E-02 0. -1.
        1   -1    0    0  501    0  0.00000000000E+00  0.00000000000E+00 -0.11803127669E+04  0.11803127669E+04  0.50400001928E-02 0.  1.
    10030    2    1    2    0    0  0.00000000000E+00  0.00000000000E+00 -0.65027731163E+03  0.17103482221E+04  0.15819072220E+04 0.  0.
        2    1    3    3  502    0  0.21227073366E+03  0.71172300517E+03 -0.61925339725E+03  0.96699703746E+03  0.25500000920E-02 0. -1.
       -2    1    3    3    0  502 -0.21227073366E+03 -0.71172300517E+03 -0.31023914377E+02  0.74335118465E+03  0.25500000920E-02 0.  1.
</event>
<event>
 5   0  0.3274900E-04  0.1599888E+04  0.7818609E-02  0.8820617E-01
        2   -1    0    0  501    0  0.00000000000E+00  0.00000000000E+00  0.76936423357E+03  0.76936423358E+03  0.25500000920E-02 0. -1.
       -2   -1    0    0    0  501  0.00000000000E+00  0.00000000000E+00 -0.83173966203E+03  0.83173966203E+03  0.25500000920E-02 0.  1.
    10030    2    1    2    0    0  0.00000000000E+00  0.00000000000E+00 -0.62375428456E+02  0.16011038956E+04  0.15998884306E+04 0.  0.
        3    1    3    3  502    0  0.13304339746E+03  0.64055857523E+03  0.42948243545E+03  0.78260526862E+03  0.10100000352E+00 0.  1.
       -3    1    3    3    0  502 -0.13304339746E+03 -0.64055857523E+03 -0.49185786391E+03  0.81849862700E+03  0.10100000352E+00 0. -1.
</event>
<event>
 5   0  0.1819811E-04  0.1596688E+04  0.7818609E-02  0.8822585E-01
       -1   -1    0    0    0  501  0.00000000000E+00  0.00000000000E+00  0.56031151874E+03  0.56031151877E+03  0.50400001928E-02 0.  1.
        1   -1    0    0  501    0  0.00000000000E+00  0.00000000000E+00 -0.11374973815E+04  0.11374973815E+04  0.50400001928E-02 0. -1.
    10030    2    1    2    0    0  0.00000000000E+00  0.00000000000E+00 -0.57718586277E+03  0.16978089003E+04  0.15966876782E+04 0.  0.
        1    1    3    3  502    0 -0.47848827782E+03  0.62819494281E+03 -0.41338373720E+03  0.89132824054E+03  0.50400001928E-02 0. -1.
       -1    1    3    3    0  502  0.47848827782E+03 -0.62819494281E+03 -0.16380212558E+03  0.80648065975E+03  0.50400001928E-02 0.  1.
</event>
<event>
 5   0  0.3274900E-04  0.1590469E+04  0.7818609E-02  0.8826425E-01
       -2   -1    0    0    0  501  0.00000000000E+00  0.00000000000E+00  0.44849820120E+03  0.44849820120E+03  0.25500000920E-02 0. -1.
        2   -1    0    0  501    0  0.00000000000E+00  0.00000000000E+00 -0.14100344441E+04  0.14100344441E+04  0.25500000920E-02 0.  1.
    10030    2    1    2    0    0  0.00000000000E+00  0.00000000000E+00 -0.96153624294E+03  0.18585326453E+04  0.15904690023E+04 0.  0.
        3    1    3    3  502    0 -0.44777723714E+03 -0.20679491113E+03 -0.12097084160E+04  0.13063931457E+04  0.10100000352E+00 0.  1.
       -3    1    3    3    0  502  0.44777723714E+03  0.20679491113E+03  0.24817217302E+03  0.55213949961E+03  0.10100000352E+00 0. -1.
</event>
<event>
 5   0  0.1736537E-04  0.1598053E+04  0.7818609E-02  0.8821745E-01
        1   -1    0    0  501    0  0.00000000000E+00  0.00000000000E+00  0.12202917445E+04  0.12202917445E+04  0.50400001928E-02 0. -1.
       -1   -1    0    0    0  501  0.00000000000E+00  0.00000000000E+00 -0.52318921588E+03  0.52318921591E+03  0.50400001928E-02 0.  1.
    10030    2    1    2    0    0  0.00000000000E+00  0.00000000000E+00  0.69710252860E+03  0.17434809604E+04  0.15980531668E+04 0.  0.
        3    1    3    3  502    0 -0.26315706869E+03  0.68636161610E+03  0.68398275112E+01  0.73511271537E+03  0.10100000352E+00 0. -1.
       -3    1    3    3    0  502  0.26315706869E+03 -0.68636161610E+03  0.69026270109E+03  0.10083682450E+04  0.10100000352E+00 0.  1.
</event>
<event>
 5   0  0.1764099E-04  0.1607807E+04  0.7818609E-02  0.8815766E-01
        1   -1    0    0  501    0  0.00000000000E+00  0.00000000000E+00  0.14980588121E+04  0.14980588121E+04  0.50400001928E-02 0. -1.
       -1   -1    0    0    0  501  0.00000000000E+00  0.00000000000E+00 -0.43139869974E+03  0.43139869977E+03  0.50400001928E-02 0.  1.
    10030    2    1    2    0    0  0.00000000000E+00  0.00000000000E+00  0.10666601123E+04  0.19294575118E+04  0.16078067343E+04 0.  0.
        5    1    3    3  502    0 -0.44382032340E+03 -0.58850723415E+03  0.91832407790E+03  0.11775646250E+04  0.46999998093E+01 0.  1.
       -5    1    3    3    0  502  0.44382032340E+03  0.58850723415E+03  0.14833603443E+03  0.75189288680E+03  0.46999998093E+01 0. -1.
</event>
<event>
 5   0  0.1736537E-04  0.1599128E+04  0.7818609E-02  0.8821084E-01
        1   -1    0    0  501    0  0.00000000000E+00  0.00000000000E+00  0.11433789775E+04  0.11433789775E+04  0.50400001928E-02 0.  1.
       -1   -1    0    0    0  501  0.00000000000E+00  0.00000000000E+00 -0.55913436181E+03  0.55913436183E+03  0.50400001928E-02 0. -1.
    10030    2    1    2    0    0  0.00000000000E+00  0.00000000000E+00  0.58424461567E+03  0.17025133393E+04  0.15991278559E+04 0.  0.
        3    1    3    3  502    0  0.77865789879E+03 -0.10868376908E+03  0.13717192316E+03  0.79808297296E+03  0.10100000352E+00 0.  1.
       -3    1    3    3    0  502 -0.77865789879E+03  0.10868376908E+03  0.44707269251E+03  0.90443036636E+03  0.10100000352E+00 0. -1.
</event>
<event>
 5   0  0.3380454E-04  0.1612393E+04  0.7818609E-02  0.8812970E-01
        2   -1    0    0  501    0  0.00000000000E+00  0.00000000000E+00  0.15313321376E+04  0.15313321376E+04  0.25500000920E-02 0. -1.
       -2   -1    0    0    0  501  0.00000000000E+00  0.00000000000E+00 -0.42443631727E+03  0.42443631727E+03  0.25500000920E-02 0.  1.
    10030    2    1    2    0    0  0.00000000000E+00  0.00000000000E+00  0.11068958203E+04  0.19557684548E+04  0.16123932188E+04 0.  0.
        5    1    3    3  502    0  0.70702213751E+03  0.10986795405E+03  0.10040092606E+04  0.12328860271E+04  0.46999998093E+01 0. -1.
       -5    1    3    3    0  502 -0.70702213751E+03 -0.10986795405E+03  0.10288655967E+03  0.72288242779E+03  0.46999998093E+01 0.  1.
</event>
<event>
 5   0  0.3228393E-04  0.1598401E+04  0.7818609E-02  0.8821531E-01
       -2   -1    0    0    0  501  0.00000000000E+00  0.00000000000E+00  0.35235032854E+03  0.35235032855E+03  0.25500000920E-02 0.  1.
        2   -1    0    0  501    0  0.00000000000E+00  0.00000000000E+00 -0.18127455543E+04  0.18127455543E+04  0.25500000920E-02 0. -1.
    10030    2    1    2    0    0  0.00000000000E+00  0.00000000000E+00 -0.14603952258E+04  0.21650958829E+04  0.15984010656E+04 0.  0.
        1    1    3    3  502    0  0.21730590947E+03 -0.42228887382E+02  0.30999307086E+03  0.38092104330E+03  0.50400001928E-02 0.  1.
       -1    1    3    3    0  502 -0.21730590947E+03  0.42228887382E+02 -0.17703882966E+04  0.17841748396E+04  0.50400001928E-02 0. -1.
</event>
<event>
 5   0  0.3228393E-04  0.1599859E+04  0.7818609E-02  0.8820635E-01
        2   -1    0    0  501    0  0.00000000000E+00  0.00000000000E+00  0.10150386225E+04  0.10150386225E+04  0.25500000920E-02 0.  1.
       -2   -1    0    0    0  501  0.00000000000E+00  0.00000000000E+00 -0.63040678587E+03  0.63040678588E+03  0.25500000920E-02 0. -1.
    10030    2    1    2    0    0  0.00000000000E+00  0.00000000000E+00  0.38463183660E+03  0.16454454084E+04  0.15998590382E+04 0.  0.
        1    1    3    3  502    0 -0.65320633818E+03 -0.37444089838E+03  0.47020488651E+03  0.88768076579E+03  0.50400001928E-02 0.  1.
       -1    1    3    3    0  502  0.65320633818E+03  0.37444089838E+03 -0.85573049920E+02  0.75776464256E+03  0.50400001928E-02 0. -1.
</event>
<event>
 5   0  0.1761255E-04  0.1600160E+04  0.7818609E-02  0.8820449E-01
       -1   -1    0    0    0  501  0.00000000000E+00  0.00000000000E+00  0.25285905515E+03  0.25285905520E+03  0.50400001928E-02 0. -1.
        1   -1    0    0  501    0  0.00000000000E+00  0.00000000000E+00 -0.25315618335E+04  0.25315618335E+04  0.50400001928E-02 0.  1.
    10030    2    1    2    0    0  0.00000000000E+00  0.00000000000E+00 -0.22787027783E+04  0.27844208887E+04  0.16001604086E+04 0.  0.
        2    1    3    3  502    0  0.54277068319E+03 -0.44474065671E+03 -0.47052763489E+03  0.84486124391E+03  0.25500000920E-02 0. -1.
       -2    1    3    3    0  502 -0.54277068319E+03  0.44474065671E+03 -0.18081751434E+04  0.19395596448E+04  0.25500000920E-02 0.  1.
</event>
<event>
 5   0  0.1219463E-04  0.1499966E+04  0.7818609E-02  0.8884476E-01
       -4   -1    0    0    0  501  0.00000000000E+00  0.00000000000E+00  0.99488339750E+03  0.99488420810E+03  0.12699999809E+01 0.  1.
        4   -1    0    0  501    0  0.00000000000E+00  0.00000000000E+00 -0.56536513874E+03  0.56536656516E+03  0.12699999809E+01 0. -1.
    10030    2    1    2    0    0  0.00000000000E+00  0.00000000000E+00  0.42951825877E+03  0.15602507733E+04  0.14999655132E+04 0.  0.
        4    1    3    3  502    0 -0.13943024338E+03 -0.14313593503E+03 -0.53716582142E+03  0.57312949781E+03  0.12699999809E+01 0. -1.
       -4    1    3    3    0  502  0.13943024338E+03  0.14313593503E+03  0.96668408018E+03  0.98712127545E+03  0.12699999809E+01 0.  1.
</event>
<event>
 5   0  0.3210612E-04  0.1592606E+04  0.7818609E-02  0.8825104E-01
       -2   -1    0    0    0  501  0.00000000000E+00  0.00000000000E+00  0.11956505665E+04  0.11956505665E+04  0.25500000920E-02 0. -1.
        2   -1    0    0  501    0  0.00000000000E+00  0.00000000000E+00 -0.53033739707E+03  0.53033739708E+03  0.25500000920E-02 0.  1.
    10030    2    1    2    0    0  0.00000000000E+00  0.00000000000E+00  0.66531316946E+03  0.17259879636E+04  0.15926056753E+04 0.  0.
        2    1    3    3  502    0  0.60877271438E+03 -0.18268964697E+03 -0.18722598418E+03  0.66259587536E+03  0.25500000920E-02 0.  1.
       -2    1    3    3    0  502 -0.60877271438E+03  0.18268964697E+03  0.85253915364E+03  0.10633920883E+04  0.25500000920E-02 0. -1.
</event>
<event>
 5   0  0.1764099E-04  0.1588981E+04  0.7818609E-02  0.8827346E-01
        1   -1    0    0  501    0  0.00000000000E+00  0.00000000000E+00  0.25516912245E+04  0.25516912245E+04  0.50400001928E-02 0. -1.
       -1   -1    0    0    0  501  0.00000000000E+00  0.00000000000E+00 -0.24737139015E+03  0.24737139021E+03  0.50400001928E-02 0.  1.
    10030    2    1    2    0    0  0.00000000000E+00  0.00000000000E+00  0.23043198343E+04  0.27990626147E+04  0.15889813158E+04 0.  0.
        5    1    3    3  502    0 -0.12016329865E+03  0.69496351673E+03  0.50785847025E+03  0.86911208928E+03  0.46999998093E+01 0.  1.
       -5    1    3    3    0  502  0.12016329865E+03 -0.69496351673E+03  0.17964613641E+04  0.19299505254E+04  0.46999998093E+01 0. -1.
</event>
<event>
 5   0  0.1787688E-04  0.1596917E+04  0.7818609E-02  0.8822444E-01
        1   -1    0    0  501    0  0.00000000000E+00  0.00000000000E+00  0.88275230814E+03  0.88275230815E+03  0.50400001928E-02 0. -1.
       -1   -1    0    0    0  501  0.00000000000E+00  0.00000000000E+00 -0.72221391798E+03  0.72221391800E+03  0.50400001928E-02 0.  1.
    10030    2    1    2    0    0  0.00000000000E+00  0.00000000000E+00  0.16053839016E+03  0.16049662261E+04  0.15969170336E+04 0.  0.
        4    1    3    3  502    0  0.62687812580E+02  0.61457922858E+03  0.58868160390E+03  0.85333758485E+03  0.12699999809E+01 0.  1.
       -4    1    3    3    0  502 -0.62687812580E+02 -0.61457922858E+03 -0.42814321375E+03  0.75162864130E+03  0.12699999809E+01 0. -1.
</event>
<event>
 5   0  0.1736537E-04  0.1596159E+04  0.7818609E-02  0.8822911E-01
        1   -1    0    0  501    0  0.00000000000E+00  0.00000000000E+00  0.14846509553E+04  0.14846509553E+04  0.50400001928E-02 0.  1.
       -1   -1    0    0    0  501  0.00000000000E+00  0.00000000000E+00 -0.42901079355E+03  0.42901079358E+03  0.50400001928E-02 0. -1.
    10030    2    1    2    0    0  0.00000000000E+00  0.00000000000E+00  0.10556401617E+04  0.19136617488E+04  0.15961594964E+04 0.  0.
        3    1    3    3  502    0  0.56686184228E+03 -0.24450946211E+03  0.11342087615E+04  0.12913352587E+04  0.10100000352E+00 0.  1.
       -3    1    3    3    0  502 -0.56686184228E+03  0.24450946211E+03 -0.78568599841E+02  0.62232649018E+03  0.10100000352E+00 0. -1.
</event>
<event>
 5   0  0.1764099E-04  0.1607431E+04  0.7818609E-02  0.8815996E-01
       -1   -1    0    0    0  501  0.00000000000E+00  0.00000000000E+00  0.16942726265E+04  0.16942726265E+04  0.50400001928E-02 0. -1.
        1   -1    0    0  501    0  0.00000000000E+00  0.00000000000E+00 -0.38125991304E+03  0.38125991308E+03  0.50400001928E-02 0.  1.
    10030    2    1    2    0    0  0.00000000000E+00  0.00000000000E+00  0.13130127135E+04  0.20755325396E+04  0.16074305388E+04 0.  0.
        5    1    3    3  502    0 -0.57562905745E+03  0.20038804291E+02 -0.67247003703E+02  0.57990914372E+03  0.46999998093E+01 0.  1.
       -5    1    3    3    0  502  0.57562905745E+03 -0.20038804291E+02  0.13802597172E+04  0.14956233959E+04  0.46999998093E+01 0. -1.
</event>
<event>
 5   0  0.3210612E-04  0.1549047E+04  0.7818609E-02  0.8852477E-01
       -2   -1    0    0    0  501  0.00000000000E+00  0.00000000000E+00  0.36594608303E+03  0.36594608304E+03  0.25500000920E-02 0.  1.
        2   -1    0    0  501    0  0.00000000000E+00  0.00000000000E+00 -0.16392765376E+04  0.16392765376E+04  0.25500000920E-02 0. -1.
    10030    2    1    2    0    0  0.00000000000E+00  0.00000000000E+00 -0.12733304546E+04  0.20052226207E+04  0.15490472271E+04 0.  0.
        2    1    3    3  502    0 -0.44543840410E+03  0.30056900918E+03  0.85387130303E+02  0.54410298947E+03  0.25500000920E-02 0.  1.
       -2    1    3    3    0  502  0.44543840410E+03 -0.30056900918E+03 -0.13587175849E+04  0.14611196312E+04  0.25500000920E-02 0. -1.
</event>
<event>
 5   0  0.3210612E-04  0.1564443E+04  0.7818609E-02  0.8842695E-01
       -2   -1    0    0    0  501  0.00000000000E+00  0.00000000000E+00  0.45498863744E+03  0.45498863744E+03  0.25500000920E-02 0. -1.
        2   -1    0    0  501    0  0.00000000000E+00  0.00000000000E+00 -0.13448032210E+04  0.13448032210E+04  0.25500000920E-02 0.  1.
    10030    2    1    2    0    0  0.00000000000E+00  0.00000000000E+00 -0.88981458357E+03  0.17997918584E+04  0.15644426294E+04 0.  0.
        2    1    3    3  502    0  0.75370587789E+03  0.11223599894E+03 -0.64811721741E+03  0.10003626329E+04  0.25500000920E-02 0.  1.
       -2    1    3    3    0  502 -0.75370587789E+03 -0.11223599894E+03 -0.24169736616E+03  0.79942922554E+03  0.25500000920E-02 0. -1.
</event>
<event>
 5   0  0.1787688E-04  0.1634324E+04  0.7818609E-02  0.8799734E-01
        1   -1    0    0  501    0  0.00000000000E+00  0.00000000000E+00  0.40230575321E+03  0.40230575324E+03  0.50400001928E-02 0. -1.
       -1   -1    0    0    0  501  0.00000000000E+00  0.00000000000E+00 -0.16598172674E+04  0.16598172675E+04  0.50400001928E-02 0.  1.
    10030    2    1    2    0    0  0.00000000000E+00  0.00000000000E+00 -0.12575115142E+04  0.20621230207E+04  0.16343243693E+04 0.  0.
        4    1    3    3  502    0 -0.74580906359E+03  0.37932018769E+02 -0.21012097419E+03  0.77577215346E+03  0.12699999809E+01 0. -1.
       -4    1    3    3    0  502  0.74580906359E+03 -0.37932018769E+02 -0.10473905400E+04  0.12863508672E+04  0.12699999809E+01 0.  1.
</event>
<event>
 5   0  0.1819811E-04  0.1615238E+04  0.7818609E-02  0.8811241E-01
       -1   -1    0    0    0  501  0.00000000000E+00  0.00000000000E+00  0.10310361671E+04  0.10310361671E+04  0.50400001928E-02 0. -1.
        1   -1    0    0  501    0  0.00000000000E+00  0.00000000000E+00 -0.63261414757E+03  0.63261414759E+03  0.50400001928E-02 0.  1.
    10030    2    1    2    0    0  0.00000000000E+00  0.00000000000E+00  0.39842201950E+03  0.16636503147E+04  0.16152375255E+04 0.  0.
        1    1    3    3  502    0  0.92227779499E+02  0.19794851782E+03  0.10000492672E+04  0.10236152186E+04  0.50400001928E-02 0. -1.
       -1    1    3    3    0  502 -0.92227779499E+02 -0.19794851782E+03 -0.60162724767E+03  0.64003509605E+03  0.50400001928E-02 0.  1.
</event>
<event>
 5   0  0.1819811E-04  0.1600403E+04  0.7818609E-02  0.8820301E-01
        1   -1    0    0  501    0  0.00000000000E+00  0.00000000000E+00  0.65874162526E+03  0.65874162528E+03  0.50400001928E-02 0.  1.
       -1   -1    0    0    0  501  0.00000000000E+00  0.00000000000E+00 -0.97203824679E+03  0.97203824681E+03  0.50400001928E-02 0. -1.
    10030    2    1    2    0    0  0.00000000000E+00  0.00000000000E+00 -0.31329662154E+03  0.16307798721E+04  0.16004025175E+04 0.  0.
        1    1    3    3  502    0  0.43533272204E+03 -0.29611518001E+03  0.45738673704E+03  0.69742483893E+03  0.50400001928E-02 0.  1.
       -1    1    3    3    0  502 -0.43533272204E+03  0.29611518001E+03 -0.77068335858E+03  0.93335503316E+03  0.50400001928E-02 0. -1.
</event>
<event>
 5   0  0.1764099E-04  0.1583358E+04  0.7818609E-02  0.8830837E-01
       -1   -1    0    0    0  501  0.00000000000E+00  0.00000000000E+00  0.46750775335E+03  0.46750775338E+03  0.50400001928E-02 0.  1.
        1   -1    0    0  501    0  0.00000000000E+00  0.00000000000E+00 -0.13406320179E+04  0.13406320179E+04  0.50400001928E-02 0. -1.
    10030    2    1    2    0    0  0.00000000000E+00  0.00000000000E+00 -0.87312426450E+03  0.18081397712E+04  0.15833582826E+04 0.  0.
        5    1    3    3  502    0 -0.54247906956E+02  0.37332294499E+03 -0.12313738185E+04  0.12878728305E+04  0.46999998093E+01 0. -1.
       -5    1    3    3    0  502  0.54247906956E+02 -0.37332294499E+03  0.35824955401E+03  0.52026694073E+03  0.46999998093E+01 0.  1.
</event>
<event>
 5   0  0.3263294E-04  0.1588016E+04  0.7818609E-02  0.8827944E-01
        2   -1    0    0  501    0  0.00000000000E+00  0.00000000000E+00  0.17653810296E+04  0.17653810296E+04  0.25500000920E-02 0.  1.
       -2   -1    0    0    0  501  0.00000000000E+00  0.00000000000E+00 -0.35711772560E+03  0.35711772561E+03  0.25500000920E-02 0. -1.
    10030    2    1    2    0    0  0.00000000000E+00  0.00000000000E+00  0.14082633040E+04  0.21224987552E+04  0.15880161940E+04 0.  0.
        4    1    3    3  502    0 -0.54994827269E+03 -0.21697873260E+03 -0.42824972230E+01  0.59122146926E+03  0.12699999809E+01 0. -1.
       -4    1    3    3    0  502  0.54994827269E+03  0.21697873260E+03  0.14125458012E+04  0.15312772860E+04  0.12699999809E+01 0.  1.
</event>
<event>
 5   0  0.3274900E-04  0.1596768E+04  0.7818609E-02  0.8822536E-01
        2   -1    0    0  501    0  0.00000000000E+00  0.00000000000E+00  0.94118780443E+03  0.94118780443E+03  0.25500000920E-02 0.  1.
       -2   -1    0    0    0  501  0.00000000000E+00  0.00000000000E+00 -0.67724743300E+03  0.67724743301E+03  0.25500000920E-02 0. -1.
    10030    2    1    2    0    0  0.00000000000E+00  0.00000000000E+00  0.26394037143E+03  0.16184352374E+04  0.15967680164E+04 0.  0.
        3    1    3    3  502    0 -0.10287559745E+03 -0.38648558779E+03  0.83233310090E+03  0.92343537899E+03  0.10100000352E+00 0.  1.
       -3    1    3    3    0  502  0.10287559745E+03  0.38648558779E+03 -0.56839272948E+03  0.69499985845E+03  0.10100000352E+00 0. -1.
</event>
<event>
 5   0  0.3228393E-04  0.1798993E+04  0.7818609E-02  0.8706835E-01
       -2   -1    0    0    0  501  0.00000000000E+00  0.00000000000E+00  0.84817844283E+03  0.84817844283E+03  0.25500000920E-02 0. -1.
        2   -1    0    0  501    0  0.00000000000E+00  0.00000000000E+00 -0.95391934198E+03  0.95391934199E+03  0.25500000920E-02 0.  1.
    10030    2    1    2    0    0  0.00000000000E+00  0.00000000000E+00 -0.10574089915E+03  0.18020977848E+04  0.17989928539E+04 0.  0.
        1    1    3    3  502    0 -0.14722819910E+03  0.88288698753E+03 -0.14206482983E+03  0.90628251183E+03  0.50400001928E-02 0.  1.
       -1    1    3    3    0  502  0.14722819910E+03 -0.88288698753E+03  0.36323930675E+02  0.89581527299E+03  0.50400001928E-02 0. -1.
</event>
<event>
 5   0  0.3274900E-04  0.1608521E+04  0.7818609E-02  0.8815331E-01
       -2   -1    0    0    0  501  0.00000000000E+00  0.00000000000E+00  0.66740407407E+03  0.66740407408E+03  0.25500000920E-02 0. -1.
        2   -1    0    0  501    0  0.00000000000E+00  0.00000000000E+00 -0.96917981221E+03  0.96917981221E+03  0.25500000920E-02 0.  1.
    10030    2    1    2    0    0  0.00000000000E+00  0.00000000000E+00 -0.30177573813E+03  0.16365838863E+04  0.16085205068E+04 0.  0.
        3    1    3    3  502    0 -0.52762705846E+03 -0.60635350049E+03 -0.17929749911E+03  0.82353049960E+03  0.10100000352E+00 0.  1.
       -3    1    3    3    0  502  0.52762705846E+03  0.60635350049E+03 -0.12247823902E+03  0.81305338669E+03  0.10100000352E+00 0. -1.
</event>
<event>
 5   0  0.3380454E-04  0.1595148E+04  0.7818609E-02  0.8823534E-01
        2   -1    0    0  501    0  0.00000000000E+00  0.00000000000E+00  0.91700063535E+03  0.91700063535E+03  0.25500000920E-02 0. -1.
       -2   -1    0    0    0  501  0.00000000000E+00  0.00000000000E+00 -0.69370115447E+03  0.69370115448E+03  0.25500000920E-02 0.  1.
    10030    2    1    2    0    0  0.00000000000E+00  0.00000000000E+00  0.22329948088E+03  0.16107017898E+04  0.15951481428E+04 0.  0.
        5    1    3    3  502    0 -0.69819573029E+02 -0.77879136513E+03 -0.47082109905E+02  0.78334512078E+03  0.46999998093E+01 0.  1.
       -5    1    3    3    0  502  0.69819573029E+02  0.77879136513E+03  0.27038159078E+03  0.82735666904E+03  0.46999998093E+01 0. -1.
</event>
<event>
 5   0  0.1219463E-04  0.1598056E+04  0.7818609E-02  0.8821743E-01
        4   -1    0    0  501    0  0.00000000000E+00  0.00000000000E+00  0.73629252585E+03  0.73629362113E+03  0.12699999809E+01 0.  1.
       -4   -1    0    0    0  501  0.00000000000E+00  0.00000000000E+00 -0.86710709295E+03  0.86710802299E+03  0.12699999809E+01 0. -1.
    10030    2    1    2    0    0  0.00000000000E+00  0.00000000000E+00 -0.13081456710E+03  0.16034016441E+04  0.15980564387E+04 0.  0.
        2    1    3    3  502    0 -0.97465073811E+02 -0.58521565298E+03  0.47161122041E+03  0.75788781777E+03  0.25500000920E-02 0.  1.
       -2    1    3    3    0  502  0.97465073811E+02  0.58521565298E+03 -0.60242578751E+03  0.84551382636E+03  0.25500000920E-02 0. -1.
</event>
<event>
 5   0  0.1736537E-04  0.1599190E+04  0.7818609E-02  0.8821046E-01
        1   -1    0    0  501    0  0.00000000000E+00  0.00000000000E+00  0.74493176556E+03  0.74493176558E+03  0.50400001928E-02 0. -1.
       -1   -1    0    0    0  501  0.00000000000E+00  0.00000000000E+00 -0.85826976128E+03  0.85826976130E+03  0.50400001928E-02 0.  1.
    10030    2    1    2    0    0  0.00000000000E+00  0.00000000000E+00 -0.11333799572E+03  0.16032015269E+04  0.15991903059E+04 0.  0.
        3    1    3    3  502    0 -0.24154279584E+03  0.58599711849E+03 -0.54535127568E+03  0.83614805458E+03  0.10100000352E+00 0.  1.
       -3    1    3    3    0  502  0.24154279584E+03 -0.58599711849E+03  0.43201327995E+03  0.76705347229E+03  0.10100000352E+00 0. -1.
</event>
<event>
 5   0  0.3228393E-04  0.1609523E+04  0.7818609E-02  0.8814719E-01
       -2   -1    0    0    0  501  0.00000000000E+00  0.00000000000E+00  0.54010469861E+03  0.54010469862E+03  0.25500000920E-02 0. -1.
        2   -1    0    0  501    0  0.00000000000E+00  0.00000000000E+00 -0.11991035442E+04  0.11991035442E+04  0.25500000920E-02 0.  1.
    10030    2    1    2    0    0  0.00000000000E+00  0.00000000000E+00 -0.65899884554E+03  0.17392082428E+04  0.16095234802E+04 0.  0.
        1    1    3    3  502    0  0.46935513872E+03  0.36046310497E+03 -0.91879699588E+03  0.10928933232E+04  0.50400001928E-02 0.  1.
       -1    1    3    3    0  502 -0.46935513872E+03 -0.36046310497E+03  0.25979815034E+03  0.64631491955E+03  0.50400001928E-02 0. -1.
</event>
<event>
 5   0  0.1736537E-04  0.1596287E+04  0.7818609E-02  0.8822832E-01
        1   -1    0    0  501    0  0.00000000000E+00  0.00000000000E+00  0.75731257338E+03  0.75731257340E+03  0.50400001928E-02 0.  1.
       -1   -1    0    0    0  501  0.00000000000E+00  0.00000000000E+00 -0.84117585504E+03  0.84117585506E+03  0.50400001928E-02 0. -1.
    10030    2    1    2    0    0  0.00000000000E+00  0.00000000000E+00 -0.83863281665E+02  0.15984884285E+04  0.15962870061E+04 0.  0.
        3    1    3    3  502    0 -0.25518959492E+03 -0.74746087216E+03 -0.15704040238E+03  0.80528329360E+03  0.10100000352E+00 0. -1.
       -3    1    3    3    0  502  0.25518959492E+03  0.74746087216E+03  0.73177120718E+02  0.79320513486E+03  0.10100000352E+00 0.  1.
</event>
<event>
 5   0  0.1761255E-04  0.1598963E+04  0.7818609E-02  0.8821186E-01
       -1   -1    0    0    0  501  0.00000000000E+00  0.00000000000E+00  0.32660776038E+03  0.32660776042E+03  0.50400001928E-02 0. -1.
        1   -1    0    0  501    0  0.00000000000E+00  0.00000000000E+00 -0.19569970841E+04  0.19569970842E+04  0.50400001928E-02 0.  1.
    10030    2    1    2    0    0  0.00000000000E+00  0.00000000000E+00 -0.16303893238E+04  0.22836048446E+04  0.15989627072E+04 0.  0.
        2    1    3    3  502    0 -0.14851637389E+03  0.35039518067E+03  0.18894466659E+03  0.42489290767E+03  0.25500000920E-02 0. -1.
       -2    1    3    3    0  502  0.14851637389E+03 -0.35039518067E+03 -0.18193339903E+04  0.18587119369E+04  0.25500000920E-02 0.  1.
</event>
<event>
 5   0  0.1787688E-04  0.1599786E+04  0.7818609E-02  0.8820679E-01
       -1   -1    0    0    0  501  0.00000000000E+00  0.00000000000E+00  0.64788918376E+03  0.64788918378E+03  0.50400001928E-02 0.  1.
        1   -1    0    0  501    0  0.00000000000E+00  0.00000000000E+00 -0.98755946383E+03  0.98755946384E+03  0.50400001928E-02 0. -1.
    10030    2    1    2    0    0  0.00000000000E+00  0.00000000000E+00 -0.33967028006E+03  0.16354486476E+04  0.15997863544E+04 0.  0.
        4    1    3    3  502    0 -0.53420422548E+03  0.59264797810E+03 -0.22786046482E+03  0.82977574368E+03  0.12699999809E+01 0.  1.
       -4    1    3    3    0  502  0.53420422548E+03 -0.59264797810E+03 -0.11180981524E+03  0.80567290395E+03  0.12699999809E+01 0. -1.
</event>
<event>
 5   0  0.3263294E-04  0.1624369E+04  0.7818609E-02  0.8805716E-01
        2   -1    0    0  501    0  0.00000000000E+00  0.00000000000E+00  0.83836794887E+03  0.83836794887E+03  0.25500000920E-02 0. -1.
       -2   -1    0    0    0  501  0.00000000000E+00  0.00000000000E+00 -0.78681833459E+03  0.78681833459E+03  0.25500000920E-02 0.  1.
    10030    2    1    2    0    0  0.00000000000E+00  0.00000000000E+00  0.51549614281E+02  0.16251862835E+04  0.16243685214E+04 0.  0.
        4    1    3    3  502    0  0.18479100647E+03  0.46263321679E+03  0.66755268585E+03  0.83294982480E+03  0.12699999809E+01 0. -1.
       -4    1    3    3    0  502 -0.18479100647E+03 -0.46263321679E+03 -0.61600307157E+03  0.79223645866E+03  0.12699999809E+01 0.  1.
</event>
<event>
 5   0  0.1764099E-04  0.1593360E+04  0.7818609E-02  0.8824637E-01
        1   -1    0    0  501    0  0.00000000000E+00  0.00000000000E+00  0.10396414788E+04  0.10396414788E+04  0.50400001928E-02 0. -1.
       -1   -1    0    0    0  501  0.00000000000E+00  0.00000000000E+00 -0.61049825922E+03  0.61049825924E+03  0.50400001928E-02 0.  1.
    10030    2    1    2    0    0  0.00000000000E+00  0.00000000000E+00  0.42914321959E+03  0.16501397381E+04  0.15933603648E+04 0.  0.
        5    1    3    3  502    0 -0.39775557314E+03 -0.13172328858E+03  0.91629872670E+03  0.10075643738E+04  0.46999998093E+01 0. -1.
       -5    1    3    3    0  502  0.39775557314E+03  0.13172328858E+03 -0.48715550710E+03  0.64257536431E+03  0.46999998093E+01 0.  1.
</event>
<event>
 5   0  0.1764099E-04  0.1604812E+04  0.7818609E-02  0.8817597E-01
       -1   -1    0    0    0  501  0.00000000000E+00  0.00000000000E+00  0.43176265255E+03  0.43176265258E+03  0.50400001928E-02 0.  1.
        1   -1    0    0  501    0  0.00000000000E+00  0.00000000000E+00 -0.14912251278E+04  0.14912251278E+04  0.50400001928E-02 0. -1.
    10030    2    1    2    0    0  0.00000000000E+00  0.00000000000E+00 -0.10594624752E+04  0.19229877803E+04  0.16048119102E+04 0.  0.
        5    1    3    3  502    0  0.13900997582E+03  0.58365511828E+03  0.10868150155E+03  0.60976292873E+03  0.46999998093E+01 0.  1.
       -5    1    3    3    0  502 -0.13900997582E+03 -0.58365511828E+03 -0.11681439768E+04  0.13132248516E+04  0.46999998093E+01 0. -1.
</event>
<event>
 5   0  0.1764099E-04  0.1545293E+04  0.7818609E-02  0.8854880E-01
       -1   -1    0    0    0  501  0.00000000000E+00  0.00000000000E+00  0.13152232347E+04  0.13152232347E+04  0.50400001928E-02 0. -1.
        1   -1    0    0  501    0  0.00000000000E+00  0.00000000000E+00 -0.45390228019E+03  0.45390228022E+03  0.50400001928E-02 0.  1.
    10030    2    1    2    0    0  0.00000000000E+00  0.00000000000E+00  0.86132095450E+03  0.17691255149E+04  0.15452932734E+04 0.  0.
        5    1    3    3  502    0 -0.54681531754E+03 -0.35295730070E+03  0.90735573138E+03  0.11166478231E+04  0.46999998093E+01 0. -1.
       -5    1    3    3    0  502  0.54681531754E+03  0.35295730070E+03 -0.46034776883E+02  0.65247769180E+03  0.46999998093E+01 0.  1.
</event>
<event>
 5   0  0.3380454E-04  0.1600874E+04  0.7818609E-02  0.8820011E-01
       -2   -1    0    0    0  501  0.00000000000E+00  0.00000000000E+00  0.86707056816E+03  0.86707056816E+03  0.25500000920E-02 0.  1.
        2   -1    0    0  501    0  0.00000000000E+00  0.00000000000E+00 -0.73892418500E+03  0.73892418501E+03  0.25500000920E-02 0. -1.
    10030    2    1    2    0    0  0.00000000000E+00  0.00000000000E+00  0.12814638316E+03  0.16059947532E+04  0.16008740274E+04 0.  0.
        5    1    3    3  502    0 -0.11638884903E+03  0.16248314064E+03 -0.71347388292E+03  0.74095492898E+03  0.46999998093E+01 0. -1.
       -5    1    3    3    0  502  0.11638884903E+03 -0.16248314064E+03  0.84162026608E+03  0.86503982419E+03  0.46999998093E+01 0.  1.
</event>
<event>
 5   0  0.3228393E-04  0.1594922E+04  0.7818609E-02  0.8823674E-01
        2   -1    0    0  501    0  0.00000000000E+00  0.00000000000E+00  0.43338617151E+03  0.43338617152E+03  0.25500000920E-02 0.  1.
       -2   -1    0    0    0  501  0.00000000000E+00  0.00000000000E+00 -0.14673833994E+04  0.14673833994E+04  0.25500000920E-02 0. -1.
    10030    2    1    2    0    0  0.00000000000E+00  0.00000000000E+00 -0.10339972279E+04  0.19007695709E+04  0.15949215324E+04 0.  0.
        1    1    3    3  502    0 -0.87535335249E+02  0.30344939852E+03  0.35567819180E+03  0.47565843683E+03  0.50400001928E-02 0.  1.
       -1    1    3    3    0  502  0.87535335249E+02 -0.30344939852E+03 -0.13896754197E+04  0.14251111341E+04  0.50400001928E-02 0. -1.
</event>
<event>
 5   0  0.1761255E-04  0.1595275E+04  0.7818609E-02  0.8823456E-01
        1   -1    0    0  501    0  0.00000000000E+00  0.00000000000E+00  0.53886091352E+03  0.53886091354E+03  0.50400001928E-02 0. -1.
       -1   -1    0    0    0  501  0.00000000000E+00  0.00000000000E+00 -0.11806858503E+04  0.11806858503E+04  0.50400001928E-02 0.  1.
    10030    2    1    2    0    0  0.00000000000E+00  0.00000000000E+00 -0.64182493674E+03  0.17195467638E+04  0.15952748426E+04 0.  0.
        2    1    3    3  502    0 -0.43620860717E+03  0.66720917546E+03 -0.35100544208E+03  0.87100565622E+03  0.25500000920E-02 0.  1.
       -2    1    3    3    0  502  0.43620860717E+03 -0.66720917546E+03 -0.29081949466E+03  0.84854110759E+03  0.25500000920E-02 0. -1.
</event>
<event>
 5   0  0.3380454E-04  0.1595222E+04  0.7818609E-02  0.8823489E-01
        2   -1    0    0  501    0  0.00000000000E+00  0.00000000000E+00  0.66302809790E+03  0.66302809790E+03  0.25500000920E-02 0. -1.
       -2   -1    0    0    0  501  0.00000000000E+00  0.00000000000E+00 -0.95951132642E+03  0.95951132642E+03  0.25500000920E-02 0.  1.
    10030    2    1    2    0    0  0.00000000000E+00  0.00000000000E+00 -0.29648322852E+03  0.16225394243E+04  0.15952215767E+04 0.  0.
        5    1    3    3  502    0 -0.39211590613E+03 -0.46571041691E+02 -0.85310039138E+03  0.94006707927E+03  0.46999998093E+01 0.  1.
       -5    1    3    3    0  502  0.39211590613E+03  0.46571041691E+02  0.55661716286E+03  0.68247234505E+03  0.46999998093E+01 0. -1.
</event>
<event>
 5   0  0.3228393E-04  0.1580622E+04  0.7818609E-02  0.8832542E-01
       -2   -1    0    0    0  501  0.00000000000E+00  0.00000000000E+00  0.46384355258E+03  0.46384355259E+03  0.25500000920E-02 0.  1.
        2   -1    0    0  501    0  0.00000000000E+00  0.00000000000E+00 -0.13465567009E+04  0.13465567009E+04  0.25500000920E-02 0. -1.
    10030    2    1    2    0    0  0.00000000000E+00  0.00000000000E+00 -0.88271314829E+03  0.18104002535E+04  0.15806222115E+04 0.  0.
        1    1    3    3  502    0  0.70606868307E+03 -0.12581338763E+03 -0.82162978853E+03  0.10906133610E+04  0.50400001928E-02 0. -1.
       -1    1    3    3    0  502 -0.70606868307E+03  0.12581338763E+03 -0.61083359755E+02  0.71978689248E+03  0.50400001928E-02 0.  1.
</event>
<event>
 5   0  0.1219463E-04  0.1633862E+04  0.7818609E-02  0.8800011E-01
        3   -1    0    0  501    0  0.00000000000E+00  0.00000000000E+00  0.71429159290E+03  0.71429160004E+03  0.10100000352E+00 0.  1.
       -3   -1    0    0    0  501  0.00000000000E+00  0.00000000000E+00 -0.93431899179E+03  0.93431899725E+03  0.10100000352E+00 0. -1.
    10030    2    1    2    0    0  0.00000000000E+00  0.00000000000E+00 -0.22002739889E+03  0.16486105973E+04  0.16338619419E+04 0.  0.
        5    1    3    3  502    0 -0.68947365824E+03  0.43814820717E+03 -0.11255525691E+03  0.82464450080E+03  0.46999998093E+01 0.  1.
       -5    1    3    3    0  502  0.68947365824E+03 -0.43814820717E+03 -0.10747214198E+03  0.82396609648E+03  0.46999998093E+01 0. -1.
</event>
<event>
 5   0  0.3228393E-04  0.1569685E+04  0.7818609E-02  0.8839391E-01
       -2   -1    0    0    0  501  0.00000000000E+00  0.00000000000E+00  0.47940108708E+03  0.47940108709E+03  0.25500000920E-02 0.  1.
        2   -1    0    0  501    0  0.00000000000E+00  0.00000000000E+00 -0.12848897246E+04  0.12848897246E+04  0.25500000920E-02 0. -1.
    10030    2    1    2    0    0  0.00000000000E+00  0.00000000000E+00 -0.80548863747E+03  0.17642908116E+04  0.15696847209E+04 0.  0.
        1    1    3    3  502    0  0.36975843801E+03  0.16070914134E+03  0.35410999776E+03  0.53660285233E+03  0.50400001928E-02 0.  1.
       -1    1    3    3    0  502 -0.36975843801E+03 -0.16070914134E+03 -0.11595986352E+04  0.12276879593E+04  0.50400001928E-02 0. -1.
</event>
<event>
 5   0  0.3274900E-04  0.1594110E+04  0.7818609E-02  0.8824175E-01
        2   -1    0    0  501    0  0.00000000000E+00  0.00000000000E+00  0.86766555789E+03  0.86766555789E+03  0.25500000920E-02 0.  1.
       -2   -1    0    0    0  501  0.00000000000E+00  0.00000000000E+00 -0.73219028154E+03  0.73219028155E+03  0.25500000920E-02 0. -1.
    10030    2    1    2    0    0  0.00000000000E+00  0.00000000000E+00  0.13547527635E+03  0.15998558394E+04  0.15941095184E+04 0.  0.
        3    1    3    3  502    0 -0.34181059839E+03  0.71909227773E+03  0.10485866728E+03  0.80307131649E+03  0.10100000352E+00 0.  1.
       -3    1    3    3    0  502  0.34181059839E+03 -0.71909227773E+03  0.30616609064E+02  0.79678452295E+03  0.10100000352E+00 0. -1.
</event>
<event>
 5   0  0.1787688E-04  0.1602783E+04  0.7818609E-02  0.8818840E-01
       -1   -1    0    0    0  501  0.00000000000E+00  0.00000000000E+00  0.70953147404E+03  0.70953147405E+03  0.50400001928E-02 0. -1.
        1   -1    0    0  501    0  0.00000000000E+00  0.00000000000E+00 -0.90514441384E+03  0.90514441385E+03  0.50400001928E-02 0.  1.
    10030    2    1    2    0    0  0.00000000000E+00  0.00000000000E+00 -0.19561293980E+03  0.16146758879E+04  0.16027831422E+04 0.  0.
        4    1    3    3  502    0  0.16518269522E+03 -0.77856609148E+03 -0.19218380328E+03  0.81877146307E+03  0.12699999809E+01 0. -1.
       -4    1    3    3    0  502 -0.16518269522E+03  0.77856609148E+03 -0.34291365247E+01  0.79590442484E+03  0.12699999809E+01 0.  1.
</event>
<event>
 5   0  0.1787688E-04  0.1587447E+04  0.7818609E-02  0.8828297E-01
       -1   -1    0    0    0  501  0.00000000000E+00  0.00000000000E+00  0.80476582979E+03  0.80476582980E+03  0.50400001928E-02 0. -1.
        1   -1    0    0  501    0  0.00000000000E+00  0.00000000000E+00 -0.78283261071E+03  0.78283261072E+03  0.50400001928E-02 0.  1.
    10030    2    1    2    0    0  0.00000000000E+00  0.00000000000E+00  0.21933219082E+02  0.15875984405E+04  0.15874469258E+04 0.  0.
        4    1    3    3  502    0 -0.27357250009E+03 -0.36339981643E+03  0.66148544247E+03  0.80278636192E+03  0.12699999809E+01 0. -1.
       -4    1    3    3    0  502  0.27357250009E+03  0.36339981643E+03 -0.63955222339E+03  0.78481207861E+03  0.12699999809E+01 0.  1.
</event>
<event>
 5   0  0.1819811E-04  0.1609470E+04  0.7818609E-02  0.8814751E-01
       -1   -1    0    0    0  501  0.00000000000E+00  0.00000000000E+00  0.39840030036E+03  0.39840030039E+03  0.50400001928E-02 0. -1.
        1   -1    0    0  501    0  0.00000000000E+00  0.00000000000E+00 -0.16254970953E+04  0.16254970953E+04  0.50400001928E-02 0.  1.
    10030    2    1    2    0    0  0.00000000000E+00  0.00000000000E+00 -0.12270967949E+04  0.20238973957E+04  0.16094701377E+04 0.  0.
        1    1    3    3  502    0 -0.25486141184E+03 -0.33974554343E+03  0.24598936174E+03  0.49080764016E+03  0.50400001928E-02 0. -1.
       -1    1    3    3    0  502  0.25486141184E+03  0.33974554343E+03 -0.14730861567E+04  0.15330897555E+04  0.50400001928E-02 0.  1.
</event>
<event>
 5   0  0.3380454E-04  0.1614117E+04  0.7818609E-02  0.8811922E-01
        2   -1    0    0  501    0  0.00000000000E+00  0.00000000000E+00  0.18769604400E+04  0.18769604400E+04  0.25500000920E-02 0.  1.
       -2   -1    0    0    0  501  0.00000000000E+00  0.00000000000E+00 -0.34702045889E+03  0.34702045890E+03  0.25500000920E-02 0. -1.
    10030    2    1    2    0    0  0.00000000000E+00  0.00000000000E+00  0.15299399811E+04  0.22239808989E+04  0.16141173107E+04 0.  0.
        5    1    3    3  502    0  0.59158317759E+03 -0.97409291586E+02  0.20606608387E+02  0.59992161855E+03  0.46999998093E+01 0. -1.
       -5    1    3    3    0  502 -0.59158317759E+03  0.97409291586E+02  0.15093333727E+04  0.16240592803E+04  0.46999998093E+01 0.  1.
</event>
<event>
 5   0  0.1819811E-04  0.1590899E+04  0.7818609E-02  0.8826158E-01
       -1   -1    0    0    0  501  0.00000000000E+00  0.00000000000E+00  0.45192713702E+03  0.45192713705E+03  0.50400001928E-02 0.  1.
        1   -1    0    0  501    0  0.00000000000E+00  0.00000000000E+00 -0.14000935044E+04  0.14000935045E+04  0.50400001928E-02 0. -1.
    10030    2    1    2    0    0  0.00000000000E+00  0.00000000000E+00 -0.94816636743E+03  0.18520206415E+04  0.15908994300E+04 0.  0.
        1    1    3    3  502    0  0.74261431562E+03  0.12609627682E+03 -0.17645622824E+03  0.77363627972E+03  0.50400001928E-02 0.  1.
       -1    1    3    3    0  502 -0.74261431562E+03 -0.12609627682E+03 -0.77171013918E+03  0.10783843618E+04  0.50400001928E-02 0. -1.
</event>
<event>
 5   0  0.3380454E-04  0.1605370E+04  0.7818609E-02  0.8817256E-01
       -2   -1    0    0    0  501  0.00000000000E+00  0.00000000000E+00  0.65981687518E+03  0.65981687518E+03  0.25500000920E-02 0.  1.
        2   -1    0    0  501    0  0.00000000000E+00  0.00000000000E+00 -0.97648844612E+03  0.97648844612E+03  0.25500000920E-02 0. -1.
    10030    2    1    2    0    0  0.00000000000E+00  0.00000000000E+00 -0.31667157094E+03  0.16363053213E+04  0.16053704310E+04 0.  0.
        5    1    3    3  502    0 -0.46245292142E+03 -0.35680660567E+03  0.40282542617E+03  0.70955202229E+03  0.46999998093E+01 0.  1.
       -5    1    3    3    0  502  0.46245292142E+03  0.35680660567E+03 -0.71949699711E+03  0.92675329901E+03  0.46999998093E+01 0. -1.
</event>
<event>
 5   0  0.3228393E-04  0.1603388E+04  0.7818609E-02  0.8818469E-01
       -2   -1    0    0    0  501  0.00000000000E+00  0.00000000000E+00  0.33764427701E+03  0.33764427702E+03  0.25500000920E-02 0. -1.
        2   -1    0    0  501    0  0.00000000000E+00  0.00000000000E+00 -0.19035221564E+04  0.19035221564E+04  0.25500000920E-02 0.  1.
    10030    2    1    2    0    0  0.00000000000E+00  0.00000000000E+00 -0.15658778794E+04  0.22411664334E+04  0.16033881156E+04 0.  0.
        1    1    3    3  502    0  0.77015181493E+03  0.39623494354E+01 -0.10941234275E+04  0.13380043321E+04  0.50400001928E-02 0.  1.
       -1    1    3    3    0  502 -0.77015181493E+03 -0.39623494354E+01 -0.47175445189E+03  0.90316210126E+03  0.50400001928E-02 0. -1.
</event>
<event>
 5   0  0.3263294E-04  0.1598141E+04  0.7818609E-02  0.8821691E-01
       -2   -1    0    0    0  501  0.00000000000E+00  0.00000000000E+00  0.43197508357E+03  0.43197508358E+03  0.25500000920E-02 0. -1.
        2   -1    0    0  501    0  0.00000000000E+00  0.00000000000E+00 -0.14781267680E+04  0.14781267680E+04  0.25500000920E-02 0.  1.
    10030    2    1    2    0    0  0.00000000000E+00  0.00000000000E+00 -0.10461516844E+04  0.19101018516E+04  0.15981413381E+04 0.  0.
        4    1    3    3  502    0  0.67133181060E+03 -0.40043272563E+03 -0.32494769572E+03  0.84653729128E+03  0.12699999809E+01 0. -1.
       -4    1    3    3    0  502 -0.67133181060E+03  0.40043272563E+03 -0.72120398868E+03  0.10635645603E+04  0.12699999809E+01 0.  1.
</event>
<event>
 5   0  0.3380454E-04  0.1664418E+04  0.7818609E-02  0.8781923E-01
       -2   -1    0    0    0  501  0.00000000000E+00  0.00000000000E+00  0.81092748605E+03  0.81092748606E+03  0.25500000920E-02 0. -1.
        2   -1    0    0  501    0  0.00000000000E+00  0.00000000000E+00 -0.85404873463E+03  0.85404873463E+03  0.25500000920E-02 0.  1.
    10030    2    1    2    0    0  0.00000000000E+00  0.00000000000E+00 -0.43121248573E+02  0.16649762207E+04  0.16644177280E+04 0.  0.
        5    1    3    3  502    0 -0.33951784429E+03  0.51179363191E+03 -0.58330440682E+03  0.84703672250E+03  0.46999998093E+01 0.  1.
       -5    1    3    3    0  502  0.33951784429E+03 -0.51179363191E+03  0.54018315824E+03  0.81793949819E+03  0.46999998093E+01 0. -1.
</event>
<event>
 5   0  0.1787688E-04  0.1606212E+04  0.7818609E-02  0.8816741E-01
        1   -1    0    0  501    0  0.00000000000E+00  0.00000000000E+00  0.10434274676E+04  0.10434274676E+04  0.50400001928E-02 0.  1.
       -1   -1    0    0    0  501  0.00000000000E+00  0.00000000000E+00 -0.61813499062E+03  0.61813499064E+03  0.50400001928E-02 0. -1.
    10030    2    1    2    0    0  0.00000000000E+00  0.00000000000E+00  0.42529247698E+03  0.16615624583E+04  0.16062117269E+04 0.  0.
        4    1    3    3  502    0 -0.60794017578E+02 -0.32042398942E+03  0.97183727625E+03  0.10251032875E+04  0.12699999809E+01 0.  1.
       -4    1    3    3    0  502  0.60794017578E+02  0.32042398942E+03 -0.54654479927E+03  0.63645917079E+03  0.12699999809E+01 0. -1.
</event>
<event>
 5   0  0.3228393E-04  0.1574975E+04  0.7818609E-02  0.8836071E-01
       -2   -1    0    0    0  501  0.00000000000E+00  0.00000000000E+00  0.95298520885E+03  0.95298520886E+03  0.25500000920E-02 0.  1.
        2   -1    0    0  501    0  0.00000000000E+00  0.00000000000E+00 -0.65073061885E+03  0.65073061885E+03  0.25500000920E-02 0. -1.
    10030    2    1    2    0    0  0.00000000000E+00  0.00000000000E+00  0.30225459001E+03  0.16037158277E+04  0.15749751169E+04 0.  0.
        1    1    3    3  502    0  0.26556663796E+02 -0.77848818117E+03  0.26894329472E+03  0.82406286194E+03  0.50400001928E-02 0.  1.
       -1    1    3    3    0  502 -0.26556663796E+02  0.77848818117E+03  0.33311295285E+02  0.77965296577E+03  0.50400001928E-02 0. -1.
</event>
<event>
 5   0  0.1787688E-04  0.1603554E+04  0.7818609E-02  0.8818368E-01
       -1   -1    0    0    0  501  0.00000000000E+00  0.00000000000E+00  0.59355944722E+03  0.59355944724E+03  0.50400001928E-02 0.  1.
        1   -1    0    0  501    0  0.00000000000E+00  0.00000000000E+00 -0.10830362493E+04  0.10830362493E+04  0.50400001928E-02 0. -1.
    10030    2    1    2    0    0  0.00000000000E+00  0.00000000000E+00 -0.48947680205E+03  0.16765956965E+04  0.16035540496E+04 0.  0.
        4    1    3    3  502    0  0.19059973828E+03 -0.63974639626E+03  0.21960943097E+03  0.70273296979E+03  0.12699999809E+01 0.  1.
       -4    1    3    3    0  502 -0.19059973828E+03  0.63974639626E+03 -0.70908623302E+03  0.97386272673E+03  0.12699999809E+01 0. -1.
</event>
<event>
 5   0  0.1761255E-04  0.1591862E+04  0.7818609E-02  0.8825563E-01
        1   -1    0    0  501    0  0.00000000000E+00  0.00000000000E+00  0.10415915414E+04  0.10415915414E+04  0.50400001928E-02 0.  1.
       -1   -1    0    0    0  501  0.00000000000E+00  0.00000000000E+00 -0.60820944982E+03  0.60820944984E+03  0.50400001928E-02 0. -1.
    10030    2    1    2    0    0  0.00000000000E+00  0.00000000000E+00  0.43338209161E+03  0.16498009913E+04  0.15918615749E+04 0.  0.
        2    1    3    3  502    0 -0.38061553179E+03 -0.26409518190E+03 -0.45408410756E+03  0.64869625010E+03  0.25500000920E-02 0. -1.
       -2    1    3    3    0  502  0.38061553179E+03  0.26409518190E+03  0.88746619918E+03  0.10011047412E+04  0.25500000920E-02 0.  1.
</event>
<event>
 5   0  0.1219463E-04  0.1495123E+04  0.7818609E-02  0.8887703E-01
        4   -1    0    0  501    0  0.00000000000E+00  0.00000000000E+00  0.39435004376E+03  0.39435208876E+03  0.12699999809E+01 0. -1.
       -4   -1    0    0    0  501  0.00000000000E+00  0.00000000000E+00 -0.14171310279E+04  0.14171315970E+04  0.12699999809E+01 0.  1.
    10030    2    1    2    0    0  0.00000000000E+00  0.00000000000E+00 -0.10227809842E+04  0.18114836858E+04  0.14951228051E+04 0.  0.
        5    1    3    3  502    0  0.19373304537E+03 -0.76865372432E+00  0.36338872510E+03  0.41183314488E+03  0.46999998093E+01 0. -1.
       -5    1    3    3    0  502 -0.19373304537E+03  0.76865372432E+00 -0.13861697093E+04  0.13996505409E+04  0.46999998093E+01 0.  1.
</event>
<event>
 5   0  0.1819811E-04  0.1602347E+04  0.7818609E-02  0.8819107E-01
       -1   -1    0    0    0  501  0.00000000000E+00  0.00000000000E+00  0.36840495228E+03  0.36840495231E+03  0.50400001928E-02 0. -1.
        1   -1    0    0  501    0  0.00000000000E+00  0.00000000000E+00 -0.17423189648E+04  0.17423189648E+04  0.50400001928E-02 0.  1.
    10030    2    1    2    0    0  0.00000000000E+00  0.00000000000E+00 -0.13739140125E+04  0.21107239171E+04  0.16023469476E+04 0.  0.
        1    1    3    3  502    0  0.79025875237E+03  0.13171781271E+03 -0.68099903922E+03  0.10514837941E+04  0.50400001928E-02 0.  1.
       -1    1    3    3    0  502 -0.79025875237E+03 -0.13171781271E+03 -0.69291497329E+03  0.10592401230E+04  0.50400001928E-02 0. -1.
</event>
<event>
 5   0  0.1787688E-04  0.1596708E+04  0.7818609E-02  0.8822573E-01
       -1   -1    0    0    0  501  0.00000000000E+00  0.00000000000E+00  0.73867248704E+03  0.73867248705E+03  0.50400001928E-02 0.  1.
        1   -1    0    0  501    0  0.00000000000E+00  0.00000000000E+00 -0.86285775879E+03  0.86285775880E+03  0.50400001928E-02 0. -1.
    10030    2    1    2    0    0  0.00000000000E+00  0.00000000000E+00 -0.12418527175E+03  0.16015302459E+04  0.15967082221E+04 0.  0.
        4    1    3    3  502    0  0.71838651450E+03 -0.28302198910E+03 -0.26565144018E+03  0.81654940518E+03  0.12699999809E+01 0. -1.
       -4    1    3    3    0  502 -0.71838651450E+03  0.28302198910E+03  0.14146616843E+03  0.78498084068E+03  0.12699999809E+01 0.  1.
</event>
<event>
 5   0  0.3263294E-04  0.1602751E+04  0.7818609E-02  0.8818860E-01
        2   -1    0    0  501    0  0.00000000000E+00  0.00000000000E+00  0.19739494847E+04  0.19739494847E+04  0.25500000920E-02 0.  1.
       -2   -1    0    0    0  501  0.00000000000E+00  0.00000000000E+00 -0.32533894422E+03  0.32533894423E+03  0.25500000920E-02 0. -1.
    10030    2    1    2    0    0  0.00000000000E+00  0.00000000000E+00  0.16486105405E+04  0.22992884290E+04  0.16027509368E+04 0.  0.
        4    1    3    3  502    0  0.53151767621E+03 -0.57975834803E+03  0.10445520026E+04  0.13075631079E+04  0.12699999809E+01 0.  1.
       -4    1    3    3    0  502 -0.53151767621E+03  0.57975834803E+03  0.60405853794E+03  0.99172532104E+03  0.12699999809E+01 0. -1.
</event>
<event>
 5   0  0.3210612E-04  0.1586387E+04  0.7818609E-02  0.8828955E-01
        2   -1    0    0  501    0  0.00000000000E+00  0.00000000000E+00  0.24952250141E+04  0.24952250141E+04  0.25500000920E-02 0.  1.
       -2   -1    0    0    0  501  0.00000000000E+00  0.00000000000E+00 -0.25214406306E+03  0.25214406308E+03  0.25500000920E-02 0. -1.
    10030    2    1    2    0    0  0.00000000000E+00  0.00000000000E+00  0.22430809510E+04  0.27473690772E+04  0.15863873087E+04 0.  0.
        2    1    3    3  502    0  0.17930802883E+03 -0.42157492190E+03  0.14309822584E+00  0.45812313243E+03  0.25500000920E-02 0. -1.
       -2    1    3    3    0  502 -0.17930802883E+03  0.42157492190E+03  0.22429378528E+04  0.22892459447E+04  0.25500000920E-02 0.  1.
</event>
<event>
 5   0  0.1764099E-04  0.1588644E+04  0.7818609E-02  0.8827555E-01
       -1   -1    0    0    0  501  0.00000000000E+00  0.00000000000E+00  0.48056408629E+03  0.48056408631E+03  0.50400001928E-02 0. -1.
        1   -1    0    0  501    0  0.00000000000E+00  0.00000000000E+00 -0.13129308045E+04  0.13129308045E+04  0.50400001928E-02 0.  1.
    10030    2    1    2    0    0  0.00000000000E+00  0.00000000000E+00 -0.83236671822E+03  0.17934948908E+04  0.15886439405E+04 0.  0.
        5    1    3    3  502    0  0.46214502361E+03  0.64267933948E+03 -0.34206262261E+03  0.86234777441E+03  0.46999998093E+01 0.  1.
       -5    1    3    3    0  502 -0.46214502361E+03 -0.64267933948E+03 -0.49030409560E+03  0.93114711641E+03  0.46999998093E+01 0. -1.
</event>
<event>
 5   0  0.3210612E-04  0.1586654E+04  0.7818609E-02  0.8828789E-01
       -2   -1    0    0    0  501  0.00000000000E+00  0.00000000000E+00  0.59199555734E+03  0.59199555735E+03  0.25500000920E-02 0. -1.
        2   -1    0    0  501    0  0.00000000000E+00  0.00000000000E+00 -0.10631289786E+04  0.10631289786E+04  0.25500000920E-02 0.  1.
    10030    2    1    2    0    0  0.00000000000E+00  0.00000000000E+00 -0.47113342123E+03  0.16551245359E+04  0.15866538781E+04 0.  0.
        2    1    3    3  502    0 -0.60782189850E+03 -0.50811235806E+03 -0.27910516317E+03  0.83995554693E+03  0.25500000920E-02 0. -1.
       -2    1    3    3    0  502  0.60782189850E+03  0.50811235806E+03 -0.19202825806E+03  0.81516898899E+03  0.25500000920E-02 0.  1.
</event>
<event>
 5   0  0.1764099E-04  0.1603362E+04  0.7818609E-02  0.8818485E-01
        1   -1    0    0  501    0  0.00000000000E+00  0.00000000000E+00  0.20709356266E+04  0.20709356266E+04  0.50400001928E-02 0. -1.
       -1   -1    0    0    0  501  0.00000000000E+00  0.00000000000E+00 -0.31033923130E+03  0.31033923135E+03  0.50400001928E-02 0.  1.
    10030    2    1    2    0    0  0.00000000000E+00  0.00000000000E+00  0.17605963953E+04  0.23812748580E+04  0.16033621805E+04 0.  0.
        5    1    3    3  502    0 -0.26493838948E+03  0.51902073225E+03  0.16979487117E+04  0.17951676212E+04  0.46999998093E+01 0. -1.
       -5    1    3    3    0  502  0.26493838948E+03 -0.51902073225E+03  0.62647683633E+02  0.58610723676E+03  0.46999998093E+01 0.  1.
</event>
<event>
 5   0  0.3228393E-04  0.1603293E+04  0.7818609E-02  0.8818528E-01
        2   -1    0    0  501    0  0.00000000000E+00  0.00000000000E+00  0.57724857400E+03  0.57724857401E+03  0.25500000920E-02 0.  1.
       -2   -1    0    0    0  501  0.00000000000E+00  0.00000000000E+00 -0.11132757063E+04  0.11132757063E+04  0.25500000920E-02 0. -1.
    10030    2    1    2    0    0  0.00000000000E+00  0.00000000000E+00 -0.53602713231E+03  0.16905242803E+04  0.16032926295E+04 0.  0.
        1    1    3    3  502    0  0.88755358617E+02  0.32878735933E+03  0.49718303199E+03  0.60263555211E+03  0.50400001928E-02 0.  1.
       -1    1    3    3    0  502 -0.88755358617E+02 -0.32878735933E+03 -0.10332101643E+04  0.10878887282E+04  0.50400001928E-02 0. -1.
</event>
<event>
 5   0  0.3263294E-04  0.1576395E+04  0.7818609E-02  0.8835182E-01
        2   -1    0    0  501    0  0.00000000000E+00  0.00000000000E+00  0.18759251342E+04  0.18759251342E+04  0.25500000920E-02 0.  1.
       -2   -1    0    0    0  501  0.00000000000E+00  0.00000000000E+00 -0.33117282697E+03  0.33117282698E+03  0.25500000920E-02 0. -1.
    10030    2    1    2    0    0  0.00000000000E+00  0.00000000000E+00  0.15447523073E+04  0.22070979612E+04  0.15763951661E+04 0.  0.
        4    1    3    3  502    0  0.63447237413E+03  0.27484101750E+03  0.24262862991E+03  0.73277762206E+03  0.12699999809E+01 0. -1.
       -4    1    3    3    0  502 -0.63447237413E+03 -0.27484101750E+03  0.13021236774E+04  0.14743203392E+04  0.12699999809E+01 0.  1.
</event>
<event>
 5   0  0.1764099E-04  0.1647011E+04  0.7818609E-02  0.8792176E-01
       -1   -1    0    0    0  501  0.00000000000E+00  0.00000000000E+00  0.41597738855E+03  0.41597738858E+03  0.50400001928E-02 0. -1.
        1   -1    0    0  501    0  0.00000000000E+00  0.00000000000E+00 -0.16302848952E+04  0.16302848952E+04  0.50400001928E-02 0.  1.
    10030    2    1    2    0    0  0.00000000000E+00  0.00000000000E+00 -0.12143075066E+04  0.20462622838E+04  0.16470114187E+04 0.  0.
        5    1    3    3  502    0  0.33424219059E+03  0.47482379426E+03  0.11831549441E+03  0.59261802519E+03  0.46999998093E+01 0. -1.
       -5    1    3    3    0  502 -0.33424219059E+03 -0.47482379426E+03 -0.13326230010E+04  0.14536442586E+04  0.46999998093E+01 0.  1.
</event>
<event>
 5   0  0.3263294E-04  0.1547733E+04  0.7818609E-02  0.8853317E-01
       -2   -1    0    0    0  501  0.00000000000E+00  0.00000000000E+00  0.59437207760E+03  0.59437207761E+03  0.25500000920E-02 0. -1.
        2   -1    0    0  501    0  0.00000000000E+00  0.00000000000E+00 -0.10075665850E+04  0.10075665850E+04  0.25500000920E-02 0.  1.
    10030    2    1    2    0    0  0.00000000000E+00  0.00000000000E+00 -0.41319450735E+03  0.16019386626E+04  0.15477331093E+04 0.  0.
        4    1    3    3  502    0  0.15826367851E+03 -0.60374888571E+03  0.26692722665E+03  0.67883125013E+03  0.12699999809E+01 0. -1.
       -4    1    3    3    0  502 -0.15826367851E+03  0.60374888571E+03 -0.68012173400E+03  0.92310741243E+03  0.12699999809E+01 0.  1.
</event>
<event>
 5   0  0.3380454E-04  0.1584200E+04  0.7818609E-02  0.8830314E-01
       -2   -1    0    0    0  501  0.00000000000E+00  0.00000000000E+00  0.76042115146E+03  0.76042115146E+03  0.25500000920E-02 0. -1.
        2   -1    0    0  501    0  0.00000000000E+00  0.00000000000E+00 -0.82509810126E+03  0.82509810126E+03  0.25500000920E-02 0.  1.
    10030    2    1    2    0    0  0.00000000000E+00  0.00000000000E+00 -0.64676949798E+02  0.15855192527E+04  0.15841995433E+04 0.  0.
        5    1    3    3  502    0  0.81601504249E+02  0.48661883341E+03 -0.65248621065E+03  0.81805686820E+03  0.46999998093E+01 0.  1.
       -5    1    3    3    0  502 -0.81601504249E+02 -0.48661883341E+03  0.58780926085E+03  0.76746238453E+03  0.46999998093E+01 0. -1.
</event>
<event>
 5   0  0.3228393E-04  0.1600212E+04  0.7818609E-02  0.8820418E-01
       -2   -1    0    0    0  501  0.00000000000E+00  0.00000000000E+00  0.55927673297E+03  0.55927673298E+03  0.25500000920E-02 0. -1.
        2   -1    0    0  501    0  0.00000000000E+00  0.00000000000E+00 -0.11446379926E+04  0.11446379926E+04  0.25500000920E-02 0.  1.
    10030    2    1    2    0    0  0.00000000000E+00  0.00000000000E+00 -0.58536125960E+03  0.17039147256E+04  0.16002117322E+04 0.  0.
        1    1    3    3  502    0 -0.36911232209E+03  0.42805504801E+03  0.31031764756E+03  0.64480390264E+03  0.50400001928E-02 0. -1.
       -1    1    3    3    0  502  0.36911232209E+03 -0.42805504801E+03 -0.89567890716E+03  0.10591108229E+04  0.50400001928E-02 0.  1.
</event>
<event>
 5   0  0.1787688E-04  0.1600465E+04  0.7818609E-02  0.8820262E-01
        1   -1    0    0  501    0  0.00000000000E+00  0.00000000000E+00  0.15840186735E+04  0.15840186735E+04  0.50400001928E-02 0. -1.
       -1   -1    0    0    0  501  0.00000000000E+00  0.00000000000E+00 -0.40427052866E+03  0.40427052869E+03  0.50400001928E-02 0.  1.
    10030    2    1    2    0    0  0.00000000000E+00  0.00000000000E+00  0.11797481449E+04  0.19882892022E+04  0.16004650157E+04 0.  0.
        4    1    3    3  502    0 -0.34331421585E+03 -0.64128032630E+03  0.10042679497E+04  0.12400245301E+04  0.12699999809E+01 0. -1.
       -4    1    3    3    0  502  0.34331421585E+03  0.64128032630E+03  0.17548019520E+03  0.74826467210E+03  0.12699999809E+01 0.  1.
</event>
<event>
 5   0  0.3228393E-04  0.1601315E+04  0.7818609E-02  0.8819740E-01
       -2   -1    0    0    0  501  0.00000000000E+00  0.00000000000E+00  0.95724687085E+03  0.95724687086E+03  0.25500000920E-02 0.  1.
        2   -1    0    0  501    0  0.00000000000E+00  0.00000000000E+00 -0.66968361181E+03  0.66968361181E+03  0.25500000920E-02 0. -1.
    10030    2    1    2    0    0  0.00000000000E+00  0.00000000000E+00  0.28756325905E+03  0.16269304827E+04  0.16013151368E+04 0.  0.
        1    1    3    3  502    0 -0.62567481662E+03 -0.37517448608E+03  0.47894909421E+03  0.87270676978E+03  0.50400001928E-02 0.  1.
       -1    1    3    3    0  502  0.62567481662E+03  0.37517448608E+03 -0.19138583516E+03  0.75422371289E+03  0.50400001928E-02 0. -1.
</event>
<event>
 5   0  0.1761255E-04  0.1569299E+04  0.7818609E-02  0.8839634E-01
       -1   -1    0    0    0  501  0.00000000000E+00  0.00000000000E+00  0.39810309437E+03  0.39810309441E+03  0.50400001928E-02 0. -1.
        1   -1    0    0  501    0  0.00000000000E+00  0.00000000000E+00 -0.15465210689E+04  0.15465210690E+04  0.50400001928E-02 0.  1.
    10030    2    1    2    0    0  0.00000000000E+00  0.00000000000E+00 -0.11484179746E+04  0.19446241634E+04  0.15692989812E+04 0.  0.
        2    1    3    3  502    0  0.55476234725E+02 -0.54978597873E+03 -0.12645182116E+04  0.13799813559E+04  0.25500000920E-02 0.  1.
       -2    1    3    3    0  502 -0.55476234725E+02  0.54978597873E+03  0.11610023703E+03  0.56464280751E+03  0.25500000920E-02 0. -1.
</event>
<event>
 5   0  0.3274900E-04  0.1602138E+04  0.7818609E-02  0.8819236E-01
        2   -1    0    0  501    0  0.00000000000E+00  0.00000000000E+00  0.16874211166E+04  0.16874211166E+04  0.25500000920E-02 0. -1.
       -2   -1    0    0    0  501  0.00000000000E+00  0.00000000000E+00 -0.38029105622E+03  0.38029105623E+03  0.25500000920E-02 0.  1.
    10030    2    1    2    0    0  0.00000000000E+00  0.00000000000E+00  0.13071300604E+04  0.20677121728E+04  0.16021375206E+04 0.  0.
        3    1    3    3  502    0 -0.22532455797E+03 -0.75968292958E+03  0.50183442074E+03  0.93793768767E+03  0.10100000352E+00 0.  1.
       -3    1    3    3    0  502  0.22532455797E+03  0.75968292958E+03  0.80529563965E+03  0.11297744852E+04  0.10100000352E+00 0. -1.
</event>
<event>
 5   0  0.1787688E-04  0.1689901E+04  0.7818609E-02  0.8767145E-01
        1   -1    0    0  501    0  0.00000000000E+00  0.00000000000E+00  0.11338291487E+04  0.11338291487E+04  0.50400001928E-02 0.  1.
       -1   -1    0    0    0  501  0.00000000000E+00  0.00000000000E+00 -0.62967283774E+03  0.62967283776E+03  0.50400001928E-02 0. -1.
    10030    2    1    2    0    0  0.00000000000E+00  0.00000000000E+00  0.50415631094E+03  0.17635019865E+04  0.16899010830E+04 0.  0.
        4    1    3    3  502    0  0.40231080617E+03 -0.52863102960E+03 -0.29280767764E+03  0.72597706521E+03  0.12699999809E+01 0. -1.
       -4    1    3    3    0  502 -0.40231080617E+03  0.52863102960E+03  0.79696398857E+03  0.10375249212E+04  0.12699999809E+01 0.  1.
</event>
<event>
 5   0  0.1787688E-04  0.1601637E+04  0.7818609E-02  0.8819543E-01
        1   -1    0    0  501    0  0.00000000000E+00  0.00000000000E+00  0.97484836648E+03  0.97484836649E+03  0.50400001928E-02 0.  1.
       -1   -1    0    0    0  501  0.00000000000E+00  0.00000000000E+00 -0.65785625173E+03  0.65785625174E+03  0.50400001928E-02 0. -1.
    10030    2    1    2    0    0  0.00000000000E+00  0.00000000000E+00  0.31699211475E+03  0.16327046182E+04  0.16016367783E+04 0.  0.
        4    1    3    3  502    0  0.26810536338E+02  0.73295504363E+03  0.48623923429E+03  0.87998415139E+03  0.12699999809E+01 0.  1.
       -4    1    3    3    0  502 -0.26810536338E+02 -0.73295504363E+03 -0.16924711953E+03  0.75272046685E+03  0.12699999809E+01 0. -1.
</event>
<event>
 5   0  0.3228393E-04  0.1593257E+04  0.7818609E-02  0.8824701E-01
       -2   -1    0    0    0  501  0.00000000000E+00  0.00000000000E+00  0.37633689252E+03  0.37633689253E+03  0.25500000920E-02 0.  1.
        2   -1    0    0  501    0  0.00000000000E+00  0.00000000000E+00 -0.16862997900E+04  0.16862997900E+04  0.25500000920E-02 0. -1.
    10030    2    1    2    0    0  0.00000000000E+00  0.00000000000E+00 -0.13099628975E+04  0.20626366826E+04  0.15932568190E+04 0.  0.
        1    1    3    3  502    0 -0.19555306012E+03 -0.59366420217E+03 -0.12943882464E+04  0.14374001241E+04  0.50400001928E-02 0. -1.
       -1    1    3    3    0  502  0.19555306012E+03  0.59366420217E+03 -0.15574651076E+02  0.62523655846E+03  0.50400001928E-02 0.  1.
</event>
<event>
 5   0  0.3263294E-04  0.1591042E+04  0.7818609E-02  0.8826070E-01
        2   -1    0    0  501    0  0.00000000000E+00  0.00000000000E+00  0.87742474196E+03  0.87742474197E+03  0.25500000920E-02 0. -1.
       -2   -1    0    0    0  501  0.00000000000E+00  0.00000000000E+00 -0.72126301032E+03  0.72126301033E+03  0.25500000920E-02 0.  1.
    10030    2    1    2    0    0  0.00000000000E+00  0.00000000000E+00  0.15616173164E+03  0.15986877523E+04  0.15910424391E+04 0.  0.
        4    1    3    3  502    0 -0.39964208367E+03 -0.66552954866E+03 -0.96561747347E+02  0.78228457682E+03  0.12699999809E+01 0. -1.
       -4    1    3    3    0  502  0.39964208367E+03  0.66552954866E+03  0.25272347898E+03  0.81640317547E+03  0.12699999809E+01 0.  1.
</event>
<event>
 5   0  0.1764099E-04  0.1594394E+04  0.7818609E-02  0.8824000E-01
        1   -1    0    0  501    0  0.00000000000E+00  0.00000000000E+00  0.78310493435E+03  0.78310493437E+03  0.50400001928E-02 0. -1.
       -1   -1    0    0    0  501  0.00000000000E+00  0.00000000000E+00 -0.81154243122E+03  0.81154243123E+03  0.50400001928E-02 0.  1.
    10030    2    1    2    0    0  0.00000000000E+00  0.00000000000E+00 -0.28437496867E+02  0.15946473656E+04  0.15943937812E+04 0.  0.
        5    1    3    3  502    0  0.36075294065E+03 -0.43453302248E+03 -0.57692636177E+03  0.80735850074E+03  0.46999998093E+01 0.  1.
       -5    1    3    3    0  502 -0.36075294065E+03  0.43453302248E+03  0.54848886490E+03  0.78728886486E+03  0.46999998093E+01 0. -1.
</event>
<event>
 5   0  0.3228393E-04  0.1599301E+04  0.7818609E-02  0.8820977E-01
        2   -1    0    0  501    0  0.00000000000E+00  0.00000000000E+00  0.16613584270E+04  0.16613584270E+04  0.25500000920E-02 0. -1.
       -2   -1    0    0    0  501  0.00000000000E+00  0.00000000000E+00 -0.38489052894E+03  0.38489052895E+03  0.25500000920E-02 0.  1.
    10030    2    1    2    0    0  0.00000000000E+00  0.00000000000E+00  0.12764678980E+04  0.20462489559E+04  0.15993012521E+04 0.  0.
        1    1    3    3  502    0  0.36170911990E+03 -0.66452325515E+03  0.96945581458E+03  0.12297435588E+04  0.50400001928E-02 0. -1.
       -1    1    3    3    0  502 -0.36170911990E+03  0.66452325515E+03  0.30701208345E+03  0.81650539708E+03  0.50400001928E-02 0.  1.
</event>
<event>
 5   0  0.3274900E-04  0.1634159E+04  0.7818609E-02  0.8799833E-01
       -2   -1    0    0    0  501  0.00000000000E+00  0.00000000000E+00  0.12777638373E+04  0.12777638373E+04  0.25500000920E-02 0.  1.
        2   -1    0    0  501    0  0.00000000000E+00  0.00000000000E+00 -0.52248995466E+03  0.52248995466E+03  0.25500000920E-02 0. -1.
    10030    2    1    2    0    0  0.00000000000E+00  0.00000000000E+00  0.75527388262E+03  0.18002537919E+04  0.16341588288E+04 0.  0.
        3    1    3    3  502    0 -0.51668108662E+03  0.60206390446E+03  0.16238418393E+03  0.80982030335E+03  0.10100000352E+00 0. -1.
       -3    1    3    3    0  502  0.51668108662E+03 -0.60206390446E+03  0.59288969869E+03  0.99043348860E+03  0.10100000352E+00 0.  1.
</event>
<event>
 5   0  0.1819811E-04  0.1665343E+04  0.7818609E-02  0.8781381E-01
       -1   -1    0    0    0  501  0.00000000000E+00  0.00000000000E+00  0.14156576135E+04  0.14156576135E+04  0.50400001928E-02 0. -1.
        1   -1    0    0  501    0  0.00000000000E+00  0.00000000000E+00 -0.48976656202E+03  0.48976656205E+03  0.50400001928E-02 0.  1.
    10030    2    1    2    0    0  0.00000000000E+00  0.00000000000E+00  0.92589105149E+03  0.19054241756E+04  0.16653429225E+04 0.  0.
        1    1    3    3  502    0  0.26229633105E+03  0.13459496784E+03  0.13539443149E+04  0.13856696499E+04  0.50400001928E-02 0. -1.
       -1    1    3    3    0  502 -0.26229633105E+03 -0.13459496784E+03 -0.42805326342E+03  0.51975452571E+03  0.50400001928E-02 0.  1.
</event>
<event>
 5   0  0.1787688E-04  0.1596015E+04  0.7818609E-02  0.8823000E-01
       -1   -1    0    0    0  501  0.00000000000E+00  0.00000000000E+00  0.12807397226E+04  0.12807397226E+04  0.50400001928E-02 0.  1.
        1   -1    0    0  501    0  0.00000000000E+00  0.00000000000E+00 -0.49722499242E+03  0.49722499245E+03  0.50400001928E-02 0. -1.
    10030    2    1    2    0    0  0.00000000000E+00  0.00000000000E+00  0.78351473013E+03  0.17779647150E+04  0.15960147855E+04 0.  0.
        4    1    3    3  502    0  0.32246743882E+03  0.56561381424E+03  0.90578232333E+03  0.11155032345E+04  0.12699999809E+01 0.  1.
       -4    1    3    3    0  502 -0.32246743882E+03 -0.56561381424E+03 -0.12226759320E+03  0.66246148054E+03  0.12699999809E+01 0. -1.
</event>
<event>
 5   0  0.1736537E-04  0.1610346E+04  0.7818609E-02  0.8814217E-01
        1   -1    0    0  501    0  0.00000000000E+00  0.00000000000E+00  0.17547669254E+04  0.17547669254E+04  0.50400001928E-02 0. -1.
       -1   -1    0    0    0  501  0.00000000000E+00  0.00000000000E+00 -0.36945294593E+03  0.36945294597E+03  0.50400001928E-02 0.  1.
    10030    2    1    2    0    0  0.00000000000E+00  0.00000000000E+00  0.13853139795E+04  0.21242198714E+04  0.16103463107E+04 0.  0.
        3    1    3    3  502    0  0.31560569660E+03  0.53887778947E+03  0.22234224052E+02  0.62489246966E+03  0.10100000352E+00 0. -1.
       -3    1    3    3    0  502 -0.31560569660E+03 -0.53887778947E+03  0.13630797554E+04  0.14993274017E+04  0.10100000352E+00 0.  1.
</event>
<event>
 5   0  0.1764099E-04  0.1605453E+04  0.7818609E-02  0.8817205E-01
       -1   -1    0    0    0  501  0.00000000000E+00  0.00000000000E+00  0.12092062675E+04  0.12092062675E+04  0.50400001928E-02 0. -1.
        1   -1    0    0  501    0  0.00000000000E+00  0.00000000000E+00 -0.53288659745E+03  0.53288659748E+03  0.50400001928E-02 0.  1.
    10030    2    1    2    0    0  0.00000000000E+00  0.00000000000E+00  0.67631967009E+03  0.17420928650E+04  0.16054529748E+04 0.  0.
        5    1    3    3  502    0 -0.19525047180E+03 -0.42061344844E+03  0.10491422562E+04  0.11470658148E+04  0.46999998093E+01 0. -1.
       -5    1    3    3    0  502  0.19525047180E+03  0.42061344844E+03 -0.37282258613E+03  0.59502705020E+03  0.46999998093E+01 0.  1.
</event>
<event>
 5   0  0.1764099E-04  0.1594218E+04  0.7818609E-02  0.8824108E-01
       -1   -1    0    0    0  501  0.00000000000E+00  0.00000000000E+00  0.71535102583E+03  0.71535102585E+03  0.50400001928E-02 0. -1.
        1   -1    0    0  501    0  0.00000000000E+00  0.00000000000E+00 -0.88821075297E+03  0.88821075298E+03  0.50400001928E-02 0.  1.
    10030    2    1    2    0    0  0.00000000000E+00  0.00000000000E+00 -0.17285972713E+03  0.16035617788E+04  0.15942176430E+04 0.  0.
        5    1    3    3  502    0 -0.66578742741E+03 -0.69846008404E+01 -0.52722060518E+03  0.84929696789E+03  0.46999998093E+01 0.  1.
       -5    1    3    3    0  502  0.66578742741E+03  0.69846008404E+01  0.35436087805E+03  0.75426481094E+03  0.46999998093E+01 0. -1.
</event>
<event>
 5   0  0.3263294E-04  0.1595681E+04  0.7818609E-02  0.8823206E-01
        2   -1    0    0  501    0  0.00000000000E+00  0.00000000000E+00  0.77727737048E+03  0.77727737048E+03  0.25500000920E-02 0. -1.
       -2   -1    0    0    0  501  0.00000000000E+00  0.00000000000E+00 -0.81894797288E+03  0.81894797289E+03  0.25500000920E-02 0.  1.
    10030    2    1    2    0    0  0.00000000000E+00  0.00000000000E+00 -0.41670602405E+02  0.15962253434E+04  0.15956813303E+04 0.  0.
        4    1    3    3  502    0  0.13025890096E+03  0.13580897852E+02 -0.80812095683E+03  0.81866532590E+03  0.12699999809E+01 0.  1.
       -4    1    3    3    0  502 -0.13025890096E+03 -0.13580897852E+02  0.76645035443E+03  0.77756001747E+03  0.12699999809E+01 0. -1.
</event>
<event>
 5   0  0.3228393E-04  0.1605239E+04  0.7818609E-02  0.8817336E-01
       -2   -1    0    0    0  501  0.00000000000E+00  0.00000000000E+00  0.10536253178E+04  0.10536253178E+04  0.25500000920E-02 0. -1.
        2   -1    0    0  501    0  0.00000000000E+00  0.00000000000E+00 -0.61141131353E+03  0.61141131354E+03  0.25500000920E-02 0.  1.
    10030    2    1    2    0    0  0.00000000000E+00  0.00000000000E+00  0.44221400427E+03  0.16650366313E+04  0.16052394707E+04 0.  0.
        1    1    3    3  502    0 -0.22553722530E+03 -0.64015981472E+03 -0.22325173308E+03  0.71450189974E+03  0.50400001928E-02 0.  1.
       -1    1    3    3    0  502  0.22553722530E+03  0.64015981472E+03  0.66546573735E+03  0.95053473160E+03  0.50400001928E-02 0. -1.
</event>
<event>
 5   0  0.1761255E-04  0.1594175E+04  0.7818609E-02  0.8824134E-01
       -1   -1    0    0    0  501  0.00000000000E+00  0.00000000000E+00  0.59138873540E+03  0.59138873543E+03  0.50400001928E-02 0. -1.
        1   -1    0    0  501    0  0.00000000000E+00  0.00000000000E+00 -0.10743334704E+04  0.10743334704E+04  0.50400001928E-02 0.  1.
    10030    2    1    2    0    0  0.00000000000E+00  0.00000000000E+00 -0.48294473503E+03  0.16657222059E+04  0.15941752884E+04 0.  0.
        2    1    3    3  502    0  0.17679255343E+03  0.68600514353E+03 -0.62323283010E+03  0.94354534836E+03  0.25500000920E-02 0.  1.
       -2    1    3    3    0  502 -0.17679255343E+03 -0.68600514353E+03  0.14028809506E+03  0.72217685751E+03  0.25500000920E-02 0. -1.
</event>
<event>
 5   0  0.3380454E-04  0.1587352E+04  0.7818609E-02  0.8828356E-01
       -2   -1    0    0    0  501  0.00000000000E+00  0.00000000000E+00  0.35610158067E+03  0.35610158068E+03  0.25500000920E-02 0. -1.
        2   -1    0    0  501    0  0.00000000000E+00  0.00000000000E+00 -0.17689375761E+04  0.17689375761E+04  0.25500000920E-02 0.  1.
    10030    2    1    2    0    0  0.00000000000E+00  0.00000000000E+00 -0.14128359954E+04  0.21250391568E+04  0.15873518412E+04 0.  0.
        5    1    3    3  502    0  0.35855869538E+03  0.67322695059E+03 -0.10000264719E+04  0.12577256853E+04  0.46999998093E+01 0.  1.
       -5    1    3    3    0  502 -0.35855869538E+03 -0.67322695059E+03 -0.41280952352E+03  0.86731347144E+03  0.46999998093E+01 0. -1.
</event>
<event>
 5   0  0.1761255E-04  0.1603913E+04  0.7818609E-02  0.8818148E-01
        1   -1    0    0  501    0  0.00000000000E+00  0.00000000000E+00  0.56259457902E+03  0.56259457904E+03  0.50400001928E-02 0.  1.
       -1   -1    0    0    0  501  0.00000000000E+00  0.00000000000E+00 -0.11431569384E+04  0.11431569384E+04  0.50400001928E-02 0. -1.
    10030    2    1    2    0    0  0.00000000000E+00  0.00000000000E+00 -0.58056235936E+03  0.17057515174E+04  0.16039125868E+04 0.  0.
        2    1    3    3  502    0  0.47776671628E+03  0.64235549449E+03 -0.34075268573E+03  0.87005402667E+03  0.25500000920E-02 0. -1.
       -2    1    3    3    0  502 -0.47776671628E+03 -0.64235549449E+03 -0.23980967363E+03  0.83569749076E+03  0.25500000920E-02 0.  1.
</event>
<event>
 5   0  0.3210612E-04  0.1592170E+04  0.7818609E-02  0.8825373E-01
        2   -1    0    0  501    0  0.00000000000E+00  0.00000000000E+00  0.18007300816E+04  0.18007300816E+04  0.25500000920E-02 0. -1.
       -2   -1    0    0    0  501  0.00000000000E+00  0.00000000000E+00 -0.35194149116E+03  0.35194149117E+03  0.25500000920E-02 0.  1.
    10030    2    1    2    0    0  0.00000000000E+00  0.00000000000E+00  0.14487885904E+04  0.21526715727E+04  0.15921703805E+04 0.  0.
        2    1    3    3  502    0 -0.27880031173E+03 -0.36299754788E+03  0.16050408003E+04  0.16690275025E+04  0.25500000920E-02 0. -1.
       -2    1    3    3    0  502  0.27880031173E+03  0.36299754788E+03 -0.15625220986E+03  0.48364407024E+03  0.25500000920E-02 0.  1.
</event>
<event>
 5   0  0.3274900E-04  0.1561848E+04  0.7818609E-02  0.8844335E-01
       -2   -1    0    0    0  501  0.00000000000E+00  0.00000000000E+00  0.74213383524E+03  0.74213383525E+03  0.25500000920E-02 0. -1.
        2   -1    0    0  501    0  0.00000000000E+00  0.00000000000E+00 -0.82174141501E+03  0.82174141501E+03  0.25500000920E-02 0.  1.
    10030    2    1    2    0    0  0.00000000000E+00  0.00000000000E+00 -0.79607579767E+02  0.15638752503E+04  0.15618477620E+04 0.  0.
        3    1    3    3  502    0  0.64534292015E+03  0.27931765899E+03  0.30027847773E+03  0.76462606128E+03  0.10100000352E+00 0. -1.
       -3    1    3    3    0  502 -0.64534292015E+03 -0.27931765899E+03 -0.37988605749E+03  0.79924918898E+03  0.10100000352E+00 0.  1.
</event>
<event>
 5   0  0.1219463E-04  0.1598816E+04  0.7818609E-02  0.8821276E-01
        3   -1    0    0  501    0  0.00000000000E+00  0.00000000000E+00  0.46616966126E+03  0.46616967221E+03  0.10100000352E+00 0. -1.
       -3   -1    0    0    0  501  0.00000000000E+00  0.00000000000E+00 -0.13708589137E+04  0.13708589174E+04  0.10100000352E+00 0.  1.
    10030    2    1    2    0    0  0.00000000000E+00  0.00000000000E+00 -0.90468925240E+03  0.18370285896E+04  0.15988156228E+04 0.  0.
        5    1    3    3  502    0  0.26471100369E+03  0.90296244844E+02  0.40810140867E+03  0.49476679058E+03  0.46999998093E+01 0. -1.
       -5    1    3    3    0  502 -0.26471100369E+03 -0.90296244844E+02 -0.13127906611E+04  0.13422617990E+04  0.46999998093E+01 0.  1.
</event>
<event>
 5   0  0.3228393E-04  0.1595284E+04  0.7818609E-02  0.8823451E-01
       -2   -1    0    0    0  501  0.00000000000E+00  0.00000000000E+00  0.40277790570E+03  0.40277790571E+03  0.25500000920E-02 0.  1.
        2   -1    0    0  501    0  0.00000000000E+00  0.00000000000E+00 -0.15796114219E+04  0.15796114219E+04  0.25500000920E-02 0. -1.
    10030    2    1    2    0    0  0.00000000000E+00  0.00000000000E+00 -0.11768335162E+04  0.19823893276E+04  0.15952837746E+04 0.  0.
        1    1    3    3  502    0  0.46239613830E+03 -0.45663865969E+03 -0.13691909192E+02  0.65001270960E+03  0.50400001928E-02 0.  1.
       -1    1    3    3    0  502 -0.46239613830E+03  0.45663865969E+03 -0.11631416070E+04  0.13323766180E+04  0.50400001928E-02 0. -1.
</event>
<event>
 5   0  0.3263294E-04  0.1613897E+04  0.7818609E-02  0.8812055E-01
        2   -1    0    0  501    0  0.00000000000E+00  0.00000000000E+00  0.14475991968E+04  0.14475991968E+04  0.25500000920E-02 0.  1.
       -2   -1    0    0    0  501  0.00000000000E+00  0.00000000000E+00 -0.44982494991E+03  0.44982494992E+03  0.25500000920E-02 0. -1.
    10030    2    1    2    0    0  0.00000000000E+00  0.00000000000E+00  0.99777424688E+03  0.18974241467E+04  0.16138974394E+04 0.  0.
        4    1    3    3  502    0 -0.36169378618E+03  0.28619702312E+03  0.12773543832E+04  0.13580747270E+04  0.12699999809E+01 0.  1.
       -4    1    3    3    0  502  0.36169378618E+03 -0.28619702312E+03 -0.27958013631E+03  0.53934941969E+03  0.12699999809E+01 0. -1.
</event>
<event>
 5   0  0.1764099E-04  0.1554067E+04  0.7818609E-02  0.8849274E-01
       -1   -1    0    0    0  501  0.00000000000E+00  0.00000000000E+00  0.80338951380E+03  0.80338951382E+03  0.50400001928E-02 0.  1.
        1   -1    0    0  501    0  0.00000000000E+00  0.00000000000E+00 -0.75154238052E+03  0.75154238054E+03  0.50400001928E-02 0. -1.
    10030    2    1    2    0    0  0.00000000000E+00  0.00000000000E+00  0.51847133285E+02  0.15549318944E+04  0.15540672672E+04 0.  0.
        5    1    3    3  502    0  0.14632155404E+03 -0.62963751681E+03 -0.40548424287E+03  0.76308122828E+03  0.46999998093E+01 0. -1.
       -5    1    3    3    0  502 -0.14632155404E+03  0.62963751681E+03  0.45733137615E+03  0.79185066607E+03  0.46999998093E+01 0.  1.
</event>
<event>
 5   0  0.1787688E-04  0.1602882E+04  0.7818609E-02  0.8818780E-01
       -1   -1    0    0    0  501  0.00000000000E+00  0.00000000000E+00  0.65221228456E+03  0.65221228458E+03  0.50400001928E-02 0.  1.
        1   -1    0    0  501    0  0.00000000000E+00  0.00000000000E+00 -0.98481364958E+03  0.98481364959E+03  0.50400001928E-02 0. -1.
    10030    2    1    2    0    0  0.00000000000E+00  0.00000000000E+00 -0.33260136501E+03  0.16370259342E+04  0.16028818550E+04 0.  0.
        4    1    3    3  502    0  0.39637834856E+03  0.46915620445E+03  0.35952847514E+03  0.71167807098E+03  0.12699999809E+01 0.  1.
       -4    1    3    3    0  502 -0.39637834856E+03 -0.46915620445E+03 -0.69212984015E+03  0.92534786319E+03  0.12699999809E+01 0. -1.
</event>
<event>
 5   0  0.1764099E-04  0.1574929E+04  0.7818609E-02  0.8836100E-01
        1   -1    0    0  501    0  0.00000000000E+00  0.00000000000E+00  0.74070676872E+03  0.74070676874E+03  0.50400001928E-02 0. -1.
       -1   -1    0    0    0  501  0.00000000000E+00  0.00000000000E+00 -0.83717419875E+03  0.83717419876E+03  0.50400001928E-02 0.  1.
    10030    2    1    2    0    0  0.00000000000E+00  0.00000000000E+00 -0.96467430028E+02  0.15778809675E+04  0.15749293262E+04 0.  0.
        5    1    3    3  502    0 -0.78286532450E+03 -0.48092215227E+02 -0.11827559665E+03  0.79322265741E+03  0.46999998093E+01 0. -1.
       -5    1    3    3    0  502  0.78286532450E+03  0.48092215227E+02  0.21808166620E+02  0.78465831009E+03  0.46999998093E+01 0.  1.
</event>
<event>
 5   0  0.3274900E-04  0.1576766E+04  0.7818609E-02  0.8834950E-01
       -2   -1    0    0    0  501  0.00000000000E+00  0.00000000000E+00  0.74720701446E+03  0.74720701446E+03  0.25500000920E-02 0. -1.
        2   -1    0    0  501    0  0.00000000000E+00  0.00000000000E+00 -0.83182847426E+03  0.83182847426E+03  0.25500000920E-02 0.  1.
    10030    2    1    2    0    0  0.00000000000E+00  0.00000000000E+00 -0.84621459803E+02  0.15790354887E+04  0.15767664010E+04 0.  0.
        3    1    3    3  502    0 -0.31599037676E+03 -0.11734870947E+03 -0.75602661714E+03  0.82776620723E+03  0.10100000352E+00 0.  1.
       -3    1    3    3    0  502  0.31599037676E+03  0.11734870947E+03  0.67140515733E+03  0.75126928149E+03  0.10100000352E+00 0. -1.
</event>
<event>
 5   0  0.3210612E-04  0.1597725E+04  0.7818609E-02  0.8821947E-01
        2   -1    0    0  501    0  0.00000000000E+00  0.00000000000E+00  0.21433259728E+04  0.21433259728E+04  0.25500000920E-02 0. -1.
       -2   -1    0    0    0  501  0.00000000000E+00  0.00000000000E+00 -0.29775268407E+03  0.29775268408E+03  0.25500000920E-02 0.  1.
    10030    2    1    2    0    0  0.00000000000E+00  0.00000000000E+00  0.18455732887E+04  0.24410786569E+04  0.15977247088E+04 0.  0.
        2    1    3    3  502    0 -0.33164991933E+02 -0.32973613976E+02  0.21412326598E+04  0.21417433271E+04  0.25500000920E-02 0. -1.
       -2    1    3    3    0  502  0.33164991933E+02  0.32973613976E+02 -0.29565937109E+03  0.29933532973E+03  0.25500000920E-02 0.  1.
</event>
<event>
 5   0  0.3380454E-04  0.1595371E+04  0.7818609E-02  0.8823397E-01
       -2   -1    0    0    0  501  0.00000000000E+00  0.00000000000E+00  0.42096097596E+03  0.42096097597E+03  0.25500000920E-02 0.  1.
        2   -1    0    0  501    0  0.00000000000E+00  0.00000000000E+00 -0.15115463784E+04  0.15115463784E+04  0.25500000920E-02 0. -1.
    10030    2    1    2    0    0  0.00000000000E+00  0.00000000000E+00 -0.10905854025E+04  0.19325073544E+04  0.15953708518E+04 0.  0.
        5    1    3    3  502    0 -0.28395627522E+03 -0.66090756025E+03 -0.12769407870E+03  0.73058732344E+03  0.46999998093E+01 0.  1.
       -5    1    3    3    0  502  0.28395627522E+03  0.66090756025E+03 -0.96289132377E+03  0.12019200310E+04  0.46999998093E+01 0. -1.
</event>
<event>
 5   0  0.1787688E-04  0.1602678E+04  0.7818609E-02  0.8818905E-01
       -1   -1    0    0    0  501  0.00000000000E+00  0.00000000000E+00  0.36357815134E+03  0.36357815137E+03  0.50400001928E-02 0. -1.
        1   -1    0    0  501    0  0.00000000000E+00  0.00000000000E+00 -0.17661786892E+04  0.17661786892E+04  0.50400001928E-02 0.  1.
    10030    2    1    2    0    0  0.00000000000E+00  0.00000000000E+00 -0.14026005378E+04  0.21297568406E+04  0.16026777378E+04 0.  0.
        4    1    3    3  502    0  0.15011606134E+02 -0.71655920178E+02  0.35912327245E+03  0.36651201472E+03  0.12699999809E+01 0. -1.
       -4    1    3    3    0  502 -0.15011606134E+02  0.71655920178E+02 -0.17617238103E+04  0.17632448259E+04  0.12699999809E+01 0.  1.
</event>
<event>
 5   0  0.1819811E-04  0.1610274E+04  0.7818609E-02  0.8814261E-01
       -1   -1    0    0    0  501  0.00000000000E+00  0.00000000000E+00  0.65556663553E+03  0.65556663555E+03  0.50400001928E-02 0.  1.
        1   -1    0    0  501    0  0.00000000000E+00  0.00000000000E+00 -0.98883296941E+03  0.98883296942E+03  0.50400001928E-02 0. -1.
    10030    2    1    2    0    0  0.00000000000E+00  0.00000000000E+00 -0.33326633388E+03  0.16443996050E+04  0.16102743901E+04 0.  0.
        1    1    3    3  502    0 -0.20052110519E+03 -0.87930171256E+02  0.62458022545E+03  0.66184657338E+03  0.50400001928E-02 0.  1.
       -1    1    3    3    0  502  0.20052110519E+03  0.87930171256E+02 -0.95784655933E+03  0.98255303159E+03  0.50400001928E-02 0. -1.
</event>
<event>
 5   0  0.3210612E-04  0.1600085E+04  0.7818609E-02  0.8820496E-01
       -2   -1    0    0    0  501  0.00000000000E+00  0.00000000000E+00  0.39758610411E+03  0.39758610412E+03  0.25500000920E-02 0.  1.
        2   -1    0    0  501    0  0.00000000000E+00  0.00000000000E+00 -0.16098857175E+04  0.16098857175E+04  0.25500000920E-02 0. -1.
    10030    2    1    2    0    0  0.00000000000E+00  0.00000000000E+00 -0.12122996134E+04  0.20074718216E+04  0.16000852358E+04 0.  0.
        2    1    3    3  502    0 -0.11241442915E+03  0.18260232559E+03 -0.15731611656E+04  0.15877079915E+04  0.25500000920E-02 0. -1.
       -2    1    3    3    0  502  0.11241442915E+03 -0.18260232559E+03  0.36086155224E+03  0.41976383013E+03  0.25500000920E-02 0.  1.
</event>
<event>
 5   0  0.1219463E-04  0.1607661E+04  0.7818609E-02  0.8815855E-01
        3   -1    0    0  501    0  0.00000000000E+00  0.00000000000E+00  0.14839404332E+04  0.14839404366E+04  0.10100000352E+00 0. -1.
       -3   -1    0    0    0  501  0.00000000000E+00  0.00000000000E+00 -0.43542404624E+03  0.43542405795E+03  0.10100000352E+00 0.  1.
    10030    2    1    2    0    0  0.00000000000E+00  0.00000000000E+00  0.10485163869E+04  0.19193644946E+04  0.16076608627E+04 0.  0.
        3    1    3    3  502    0  0.67469299740E+03 -0.43182469078E+03  0.44452527804E+03  0.91612550304E+03  0.10100000352E+00 0. -1.
       -3    1    3    3    0  502 -0.67469299740E+03  0.43182469078E+03  0.60399110891E+03  0.10032389915E+04  0.10100000352E+00 0.  1.
</event>
<event>
 5   0  0.1787688E-04  0.1568371E+04  0.7818609E-02  0.8840218E-01
        1   -1    0    0  501    0  0.00000000000E+00  0.00000000000E+00  0.11870512522E+04  0.11870512523E+04  0.50400001928E-02 0.  1.
       -1   -1    0    0    0  501  0.00000000000E+00  0.00000000000E+00 -0.51804569049E+03  0.51804569051E+03  0.50400001928E-02 0. -1.
    10030    2    1    2    0    0  0.00000000000E+00  0.00000000000E+00  0.66900556175E+03  0.17050969428E+04  0.15683708562E+04 0.  0.
        4    1    3    3  502    0  0.41495281850E+03 -0.65499873692E+03  0.20708494381E+03  0.80255527773E+03  0.12699999809E+01 0. -1.
       -4    1    3    3    0  502 -0.41495281850E+03  0.65499873692E+03  0.46192061794E+03  0.90254166504E+03  0.12699999809E+01 0.  1.
</event>
<event>
 5   0  0.3263294E-04  0.1612353E+04  0.7818609E-02  0.8812995E-01
       -2   -1    0    0    0  501  0.00000000000E+00  0.00000000000E+00  0.10829139232E+04  0.10829139232E+04  0.25500000920E-02 0. -1.
        2   -1    0    0  501    0  0.00000000000E+00  0.00000000000E+00 -0.60015913747E+03  0.60015913747E+03  0.25500000920E-02 0.  1.
    10030    2    1    2    0    0  0.00000000000E+00  0.00000000000E+00  0.48275478575E+03  0.16830730607E+04  0.16123531699E+04 0.  0.
        4    1    3    3  502    0  0.17810519233E+03  0.40093509654E+03  0.94739246705E+03  0.10440423893E+04  0.12699999809E+01 0. -1.
       -4    1    3    3    0  502 -0.17810519233E+03 -0.40093509654E+03 -0.46463768130E+03  0.63903067137E+03  0.12699999809E+01 0.  1.
</event>
<event>
 5   0  0.1764099E-04  0.1624228E+04  0.7818609E-02  0.8805800E-01
       -1   -1    0    0    0  501  0.00000000000E+00  0.00000000000E+00  0.52478545370E+03  0.52478545373E+03  0.50400001928E-02 0. -1.
        1   -1    0    0  501    0  0.00000000000E+00  0.00000000000E+00 -0.12567597022E+04  0.12567597023E+04  0.50400001928E-02 0.  1.
    10030    2    1    2    0    0  0.00000000000E+00  0.00000000000E+00 -0.73197424854E+03  0.17815451560E+04  0.16242280758E+04 0.  0.
        5    1    3    3  502    0 -0.11206101248E+03  0.50149722329E+03 -0.10557433088E+04  0.11741691358E+04  0.46999998093E+01 0.  1.
       -5    1    3    3    0  502  0.11206101248E+03 -0.50149722329E+03  0.32376906024E+03  0.60737602015E+03  0.46999998093E+01 0. -1.
</event>
<event>
 5   0  0.3274900E-04  0.1582185E+04  0.7818609E-02  0.8831568E-01
       -2   -1    0    0    0  501  0.00000000000E+00  0.00000000000E+00  0.36308591608E+03  0.36308591609E+03  0.25500000920E-02 0.  1.
        2   -1    0    0  501    0  0.00000000000E+00  0.00000000000E+00 -0.17236342507E+04  0.17236342507E+04  0.25500000920E-02 0. -1.
    10030    2    1    2    0    0  0.00000000000E+00  0.00000000000E+00 -0.13605483346E+04  0.20867201668E+04  0.15821849714E+04 0.  0.
        3    1    3    3  502    0 -0.72467703562E+02 -0.74092535364E+03 -0.10331969815E+04  0.12734669059E+04  0.10100000352E+00 0. -1.
       -3    1    3    3    0  502  0.72467703562E+02  0.74092535364E+03 -0.32735135315E+03  0.81325326089E+03  0.10100000352E+00 0.  1.
</event>
<event>
 5   0  0.3228393E-04  0.1618586E+04  0.7818609E-02  0.8809210E-01
       -2   -1    0    0    0  501  0.00000000000E+00  0.00000000000E+00  0.45930976273E+03  0.45930976273E+03  0.25500000920E-02 0. -1.
        2   -1    0    0  501    0  0.00000000000E+00  0.00000000000E+00 -0.14259559726E+04  0.14259559726E+04  0.25500000920E-02 0.  1.
    10030    2    1    2    0    0  0.00000000000E+00  0.00000000000E+00 -0.96664620984E+03  0.18852657353E+04  0.16185864196E+04 0.  0.
        1    1    3    3  502    0  0.48623984628E+03 -0.22607695592E+03 -0.11893405489E+04  0.13046344007E+04  0.50400001928E-02 0.  1.
       -1    1    3    3    0  502 -0.48623984628E+03  0.22607695592E+03  0.22269433905E+03  0.58063133465E+03  0.50400001928E-02 0. -1.
</event>
<event>
 5   0  0.1736537E-04  0.1621527E+04  0.7818609E-02  0.8807431E-01
       -1   -1    0    0    0  501  0.00000000000E+00  0.00000000000E+00  0.97734913232E+03  0.97734913233E+03  0.50400001928E-02 0. -1.
        1   -1    0    0  501    0  0.00000000000E+00  0.00000000000E+00 -0.67257159452E+03  0.67257159454E+03  0.50400001928E-02 0.  1.
    10030    2    1    2    0    0  0.00000000000E+00  0.00000000000E+00  0.30477753780E+03  0.16499207269E+04  0.16215267674E+04 0.  0.
        3    1    3    3  502    0 -0.32444978867E+03 -0.74284172989E+03  0.13611645119E+03  0.82195449967E+03  0.10100000352E+00 0.  1.
       -3    1    3    3    0  502  0.32444978867E+03  0.74284172989E+03  0.16866108662E+03  0.82796622720E+03  0.10100000352E+00 0. -1.
</event>
<event>
 5   0  0.1761255E-04  0.1604347E+04  0.7818609E-02  0.8817882E-01
        1   -1    0    0  501    0  0.00000000000E+00  0.00000000000E+00  0.13847956704E+04  0.13847956705E+04  0.50400001928E-02 0.  1.
       -1   -1    0    0    0  501  0.00000000000E+00  0.00000000000E+00 -0.46467661817E+03  0.46467661820E+03  0.50400001928E-02 0. -1.
    10030    2    1    2    0    0  0.00000000000E+00  0.00000000000E+00  0.92011905227E+03  0.18494722887E+04  0.16043468067E+04 0.  0.
        2    1    3    3  502    0 -0.53375357815E+03 -0.57899759567E+03  0.63621777196E+03  0.10123754992E+04  0.25500000920E-02 0. -1.
       -2    1    3    3    0  502  0.53375357815E+03  0.57899759567E+03  0.28390128031E+03  0.83709678947E+03  0.25500000920E-02 0.  1.
</event>
<event>
 5   0  0.1787688E-04  0.1604366E+04  0.7818609E-02  0.8817870E-01
       -1   -1    0    0    0  501  0.00000000000E+00  0.00000000000E+00  0.13906175232E+04  0.13906175232E+04  0.50400001928E-02 0. -1.
        1   -1    0    0  501    0  0.00000000000E+00  0.00000000000E+00 -0.46274218292E+03  0.46274218295E+03  0.50400001928E-02 0.  1.
    10030    2    1    2    0    0  0.00000000000E+00  0.00000000000E+00  0.92787534029E+03  0.18533597062E+04  0.16043657792E+04 0.  0.
        4    1    3    3  502    0  0.19210256916E+02  0.72695463368E+03  0.72764277700E+02  0.73084083521E+03  0.12699999809E+01 0.  1.
       -4    1    3    3    0  502 -0.19210256916E+02 -0.72695463368E+03  0.85511106259E+03  0.11225188710E+04  0.12699999809E+01 0. -1.
</event>
<event>
 5   0  0.1787688E-04  0.1607179E+04  0.7818609E-02  0.8816150E-01
        1   -1    0    0  501    0  0.00000000000E+00  0.00000000000E+00  0.15179909838E+04  0.15179909839E+04  0.50400001928E-02 0.  1.
       -1   -1    0    0    0  501  0.00000000000E+00  0.00000000000E+00 -0.42540200296E+03  0.42540200299E+03  0.50400001928E-02 0. -1.
    10030    2    1    2    0    0  0.00000000000E+00  0.00000000000E+00  0.10925889809E+04  0.19433929868E+04  0.16071793989E+04 0.  0.
        4    1    3    3  502    0 -0.59987819179E+02 -0.42566412562E+03  0.13672712539E+04  0.14332553091E+04  0.12699999809E+01 0.  1.
       -4    1    3    3    0  502  0.59987819179E+02  0.42566412562E+03 -0.27468227301E+03  0.51013767779E+03  0.12699999809E+01 0. -1.
</event>
<event>
 5   0  0.1736537E-04  0.1610359E+04  0.7818609E-02  0.8814209E-01
        1   -1    0    0  501    0  0.00000000000E+00  0.00000000000E+00  0.10388032024E+04  0.10388032025E+04  0.50400001928E-02 0. -1.
       -1   -1    0    0    0  501  0.00000000000E+00  0.00000000000E+00 -0.62409696033E+03  0.62409696035E+03  0.50400001928E-02 0.  1.
    10030    2    1    2    0    0  0.00000000000E+00  0.00000000000E+00  0.41470624212E+03  0.16629001628E+04  0.16103588681E+04 0.  0.
        3    1    3    3  502    0 -0.43176314050E+03 -0.63011568839E+03 -0.55609616760E+02  0.76587050467E+03  0.10100000352E+00 0.  1.
       -3    1    3    3    0  502  0.43176314050E+03  0.63011568839E+03  0.47031585888E+03  0.89702965813E+03  0.10100000352E+00 0. -1.
</event>
<event>
 5   0  0.3380454E-04  0.1621810E+04  0.7818609E-02  0.8807260E-01
       -2   -1    0    0    0  501  0.00000000000E+00  0.00000000000E+00  0.11354907826E+04  0.11354907826E+04  0.25500000920E-02 0. -1.
        2   -1    0    0  501    0  0.00000000000E+00  0.00000000000E+00 -0.57910337860E+03  0.57910337861E+03  0.25500000920E-02 0.  1.
    10030    2    1    2    0    0  0.00000000000E+00  0.00000000000E+00  0.55638740396E+03  0.17145941612E+04  0.16218095432E+04 0.  0.
        5    1    3    3  502    0  0.78986257230E+03 -0.11512287935E+03  0.42922427965E+03  0.90630664386E+03  0.46999998093E+01 0.  1.
       -5    1    3    3    0  502 -0.78986257230E+03  0.11512287935E+03  0.12716312431E+03  0.80828751732E+03  0.46999998093E+01 0. -1.
</event>
<event>
 5   0  0.3210612E-04  0.1654422E+04  0.7818609E-02  0.8787795E-01
       -2   -1    0    0    0  501  0.00000000000E+00  0.00000000000E+00  0.53704727373E+03  0.53704727373E+03  0.25500000920E-02 0. -1.
        2   -1    0    0  501    0  0.00000000000E+00  0.00000000000E+00 -0.12741487436E+04  0.12741487437E+04  0.25500000920E-02 0.  1.
    10030    2    1    2    0    0  0.00000000000E+00  0.00000000000E+00 -0.73710146992E+03  0.18111960174E+04  0.16544220853E+04 0.  0.
        2    1    3    3  502    0 -0.46558756011E+02 -0.33136564975E+03 -0.11967478998E+04  0.12426489638E+04  0.25500000920E-02 0.  1.
       -2    1    3    3    0  502  0.46558756011E+02  0.33136564975E+03  0.45964642989E+03  0.56854705356E+03  0.25500000920E-02 0. -1.
</event>
<event>
 5   0  0.1761255E-04  0.1607773E+04  0.7818609E-02  0.8815787E-01
        1   -1    0    0  501    0  0.00000000000E+00  0.00000000000E+00  0.18480042915E+04  0.18480042915E+04  0.50400001928E-02 0. -1.
       -1   -1    0    0    0  501  0.00000000000E+00  0.00000000000E+00 -0.34969274021E+03  0.34969274024E+03  0.50400001928E-02 0.  1.
    10030    2    1    2    0    0  0.00000000000E+00  0.00000000000E+00  0.14983115513E+04  0.21976970318E+04  0.16077732236E+04 0.  0.
        2    1    3    3  502    0  0.55903274929E+03 -0.22575418940E+03  0.14760064436E+04  0.15943894098E+04  0.25500000920E-02 0. -1.
       -2    1    3    3    0  502 -0.55903274929E+03  0.22575418940E+03  0.22305107743E+02  0.60330762191E+03  0.25500000920E-02 0.  1.
</event>
<event>
 5   0  0.1819811E-04  0.1607638E+04  0.7818609E-02  0.8815869E-01
       -1   -1    0    0    0  501  0.00000000000E+00  0.00000000000E+00  0.10618693788E+04  0.10618693788E+04  0.50400001928E-02 0.  1.
        1   -1    0    0  501    0  0.00000000000E+00  0.00000000000E+00 -0.60847878873E+03  0.60847878875E+03  0.50400001928E-02 0. -1.
    10030    2    1    2    0    0  0.00000000000E+00  0.00000000000E+00  0.45339059008E+03  0.16703481676E+04  0.16076380108E+04 0.  0.
        1    1    3    3  502    0 -0.30197930138E+03 -0.25594152722E+03 -0.50018499311E+03  0.63787349151E+03  0.50400001928E-02 0. -1.
       -1    1    3    3    0  502  0.30197930138E+03  0.25594152722E+03  0.95357558319E+03  0.10324746761E+04  0.50400001928E-02 0.  1.
</event>
<event>
 5   0  0.1736537E-04  0.1658320E+04  0.7818609E-02  0.8785499E-01
       -1   -1    0    0    0  501  0.00000000000E+00  0.00000000000E+00  0.72967204022E+03  0.72967204024E+03  0.50400001928E-02 0. -1.
        1   -1    0    0  501    0  0.00000000000E+00  0.00000000000E+00 -0.94221332535E+03  0.94221332536E+03  0.50400001928E-02 0.  1.
    10030    2    1    2    0    0  0.00000000000E+00  0.00000000000E+00 -0.21254128513E+03  0.16718853656E+04  0.16583204991E+04 0.  0.
        3    1    3    3  502    0 -0.59278814673E+03 -0.41725537095E+03  0.29952254626E+03  0.78435552998E+03  0.10100000352E+00 0. -1.
       -3    1    3    3    0  502  0.59278814673E+03  0.41725537095E+03 -0.51206383139E+03  0.88752983562E+03  0.10100000352E+00 0.  1.
</event>
<event>
 5   0  0.1819811E-04  0.1597062E+04  0.7818609E-02  0.8822355E-01
        1   -1    0    0  501    0  0.00000000000E+00  0.00000000000E+00  0.40514250434E+03  0.40514250437E+03  0.50400001928E-02 0. -1.
       -1   -1    0    0    0  501  0.00000000000E+00  0.00000000000E+00 -0.15738954290E+04  0.15738954290E+04  0.50400001928E-02 0.  1.
    10030    2    1    2    0    0  0.00000000000E+00  0.00000000000E+00 -0.11687529247E+04  0.19790379334E+04  0.15970622226E+04 0.  0.
        1    1    3    3  502    0 -0.18199800070E+03  0.11762903685E+02  0.37898889215E+03  0.42058794390E+03  0.50400001928E-02 0. -1.
       -1    1    3    3    0  502  0.18199800070E+03 -0.11762903685E+02 -0.15477418168E+04  0.15584499895E+04  0.50400001928E-02 0.  1.
</event>
<event>
 5   0  0.1787688E-04  0.1602381E+04  0.7818609E-02  0.8819087E-01
        1   -1    0    0  501    0  0.00000000000E+00  0.00000000000E+00  0.17861702366E+04  0.17861702366E+04  0.50400001928E-02 0. -1.
       -1   -1    0    0    0  501  0.00000000000E+00  0.00000000000E+00 -0.35937553547E+03  0.35937553550E+03  0.50400001928E-02 0.  1.
    10030    2    1    2    0    0  0.00000000000E+00  0.00000000000E+00  0.14267947011E+04  0.21455457721E+04  0.16023805856E+04 0.  0.
        4    1    3    3  502    0  0.55070471893E+03  0.10547986647E+03 -0.52868505264E+02  0.56320367669E+03  0.12699999809E+01 0.  1.
       -4    1    3    3    0  502 -0.55070471893E+03 -0.10547986647E+03  0.14796632064E+04  0.15823420954E+04  0.12699999809E+01 0. -1.
</event>
<event>
 5   0  0.1787688E-04  0.1610087E+04  0.7818609E-02  0.8814375E-01
        1   -1    0    0  501    0  0.00000000000E+00  0.00000000000E+00  0.58576763807E+03  0.58576763809E+03  0.50400001928E-02 0. -1.
       -1   -1    0    0    0  501  0.00000000000E+00  0.00000000000E+00 -0.11064025922E+04  0.11064025923E+04  0.50400001928E-02 0.  1.
    10030    2    1    2    0    0  0.00000000000E+00  0.00000000000E+00 -0.52063495418E+03  0.16921702304E+04  0.16100867470E+04 0.  0.
        4    1    3    3  502    0  0.51729270798E+03 -0.47437513584E+02 -0.90669300828E+03  0.10449573616E+04  0.12699999809E+01 0.  1.
       -4    1    3    3    0  502 -0.51729270798E+03  0.47437513584E+02  0.38605805411E+03  0.64721286874E+03  0.12699999809E+01 0. -1.
</event>
<event>
 5   0  0.1736537E-04  0.1588272E+04  0.7818609E-02  0.8827786E-01
        1   -1    0    0  501    0  0.00000000000E+00  0.00000000000E+00  0.16007147557E+04  0.16007147558E+04  0.50400001928E-02 0. -1.
       -1   -1    0    0    0  501  0.00000000000E+00  0.00000000000E+00 -0.39398127253E+03  0.39398127256E+03  0.50400001928E-02 0.  1.
    10030    2    1    2    0    0  0.00000000000E+00  0.00000000000E+00  0.12067334832E+04  0.19946960283E+04  0.15882715592E+04 0.  0.
        3    1    3    3  502    0 -0.55704961239E+03  0.51289049256E+03  0.90397023370E+03  0.11792044444E+04  0.10100000352E+00 0. -1.
       -3    1    3    3    0  502  0.55704961239E+03 -0.51289049256E+03  0.30276324952E+03  0.81549158395E+03  0.10100000352E+00 0.  1.
</event>
<event>
 5   0  0.3210612E-04  0.1607391E+04  0.7818609E-02  0.8816021E-01
        2   -1    0    0  501    0  0.00000000000E+00  0.00000000000E+00  0.81089382986E+03  0.81089382986E+03  0.25500000920E-02 0.  1.
       -2   -1    0    0    0  501  0.00000000000E+00  0.00000000000E+00 -0.79656060523E+03  0.79656060523E+03  0.25500000920E-02 0. -1.
    10030    2    1    2    0    0  0.00000000000E+00  0.00000000000E+00  0.14333224631E+02  0.16074544351E+04  0.16073905311E+04 0.  0.
        2    1    3    3  502    0 -0.30012173132E+03  0.40777073138E+03  0.63135170807E+03  0.80929290264E+03  0.25500000920E-02 0.  1.
       -2    1    3    3    0  502  0.30012173132E+03 -0.40777073138E+03 -0.61701848344E+03  0.79816153245E+03  0.25500000920E-02 0. -1.
</event>
<event>
 5   0  0.1764099E-04  0.1600532E+04  0.7818609E-02  0.8820221E-01
       -1   -1    0    0    0  501  0.00000000000E+00  0.00000000000E+00  0.60172538832E+03  0.60172538834E+03  0.50400001928E-02 0. -1.
        1   -1    0    0  501    0  0.00000000000E+00  0.00000000000E+00 -0.10643161631E+04  0.10643161631E+04  0.50400001928E-02 0.  1.
    10030    2    1    2    0    0  0.00000000000E+00  0.00000000000E+00 -0.46259077479E+03  0.16660415515E+04  0.16005324821E+04 0.  0.
        5    1    3    3  502    0  0.74662597929E+03 -0.28717955204E+03 -0.25413705632E+03  0.83936296169E+03  0.46999998093E+01 0. -1.
       -5    1    3    3    0  502 -0.74662597929E+03  0.28717955204E+03 -0.20845371847E+03  0.82667858978E+03  0.46999998093E+01 0.  1.
</event>
<event>
 5   0  0.3228393E-04  0.1607456E+04  0.7818609E-02  0.8815980E-01
       -2   -1    0    0    0  501  0.00000000000E+00  0.00000000000E+00  0.32943409474E+03  0.32943409475E+03  0.25500000920E-02 0. -1.
        2   -1    0    0  501    0  0.00000000000E+00  0.00000000000E+00 -0.19608746197E+04  0.19608746197E+04  0.25500000920E-02 0.  1.
    10030    2    1    2    0    0  0.00000000000E+00  0.00000000000E+00 -0.16314405249E+04  0.22903087144E+04  0.16074563201E+04 0.  0.
        1    1    3    3  502    0 -0.39938152939E+03  0.20385948342E+03  0.13465079780E+03  0.46818279803E+03  0.50400001928E-02 0. -1.
       -1    1    3    3    0  502  0.39938152939E+03 -0.20385948342E+03 -0.17660913227E+04  0.18221259164E+04  0.50400001928E-02 0.  1.
</event>
<event>
 5   0  0.1736537E-04  0.1582523E+04  0.7818609E-02  0.8831357E-01
       -1   -1    0    0    0  501  0.00000000000E+00  0.00000000000E+00  0.49196069436E+03  0.49196069439E+03  0.50400001928E-02 0. -1.
        1   -1    0    0  501    0  0.00000000000E+00  0.00000000000E+00 -0.12726522343E+04  0.12726522343E+04  0.50400001928E-02 0.  1.
    10030    2    1    2    0    0  0.00000000000E+00  0.00000000000E+00 -0.78069153995E+03  0.17646129287E+04  0.15825231460E+04 0.  0.
        3    1    3    3  502    0  0.20735243601E+03  0.71360918828E+02  0.45740092513E+03  0.50725046078E+03  0.10100000352E+00 0. -1.
       -3    1    3    3    0  502 -0.20735243601E+03 -0.71360918828E+02 -0.12380924651E+04  0.12573624679E+04  0.10100000352E+00 0.  1.
</event>
<event>
 5   0  0.3228393E-04  0.1599660E+04  0.7818609E-02  0.8820757E-01
        2   -1    0    0  501    0  0.00000000000E+00  0.00000000000E+00  0.12309790185E+04  0.12309790185E+04  0.25500000920E-02 0. -1.
       -2   -1    0    0    0  501  0.00000000000E+00  0.00000000000E+00 -0.51969053961E+03  0.51969053961E+03  0.25500000920E-02 0.  1.
    10030    2    1    2    0    0  0.00000000000E+00  0.00000000000E+00  0.71128847886E+03  0.17506695581E+04  0.15996601519E+04 0.  0.
        1    1    3    3  502    0 -0.10014833284E+03  0.19503413025E+03 -0.48616291617E+03  0.53331264903E+03  0.50400001928E-02 0.  1.
       -1    1    3    3    0  502  0.10014833284E+03 -0.19503413025E+03  0.11974513950E+04  0.12173569091E+04  0.50400001928E-02 0. -1.
</event>
<event>
 5   0  0.1819811E-04  0.1597995E+04  0.7818609E-02  0.8821781E-01
       -1   -1    0    0    0  501  0.00000000000E+00  0.00000000000E+00  0.63071110369E+03  0.63071110371E+03  0.50400001928E-02 0.  1.
        1   -1    0    0  501    0  0.00000000000E+00  0.00000000000E+00 -0.10121860664E+04  0.10121860664E+04  0.50400001928E-02 0. -1.
    10030    2    1    2    0    0  0.00000000000E+00  0.00000000000E+00 -0.38147496270E+03  0.16428971701E+04  0.15979949826E+04 0.  0.
        1    1    3    3  502    0 -0.61775222020E+02 -0.36740601789E+03  0.53594286880E+03  0.65271595558E+03  0.50400001928E-02 0.  1.
       -1    1    3    3    0  502  0.61775222020E+02  0.36740601789E+03 -0.91741783149E+03  0.99018121453E+03  0.50400001928E-02 0. -1.
</event>
<event>
 5   0  0.3380454E-04  0.1611391E+04  0.7818609E-02  0.8813581E-01
        2   -1    0    0  501    0  0.00000000000E+00  0.00000000000E+00  0.11843203136E+04  0.11843203136E+04  0.25500000920E-02 0. -1.
       -2   -1    0    0    0  501  0.00000000000E+00  0.00000000000E+00 -0.54811618403E+03  0.54811618404E+03  0.25500000920E-02 0.  1.
    10030    2    1    2    0    0  0.00000000000E+00  0.00000000000E+00  0.63620412956E+03  0.17324364976E+04  0.16113908663E+04 0.  0.
        5    1    3    3  502    0 -0.54861259846E+03 -0.56190430381E+03  0.51165571982E+03  0.93729712230E+03  0.46999998093E+01 0. -1.
       -5    1    3    3    0  502  0.54861259846E+03  0.56190430381E+03  0.12454840974E+03  0.79513937533E+03  0.46999998093E+01 0.  1.
</event>
<event>
 5   0  0.1761255E-04  0.1632237E+04  0.7818609E-02  0.8800985E-01
        1   -1    0    0  501    0  0.00000000000E+00  0.00000000000E+00  0.19924189065E+04  0.19924189065E+04  0.50400001928E-02 0. -1.
       -1   -1    0    0    0  501  0.00000000000E+00  0.00000000000E+00 -0.33429193946E+03  0.33429193950E+03  0.50400001928E-02 0.  1.
    10030    2    1    2    0    0  0.00000000000E+00  0.00000000000E+00  0.16581269670E+04  0.23267108460E+04  0.16322372138E+04 0.  0.
        2    1    3    3  502    0  0.66388749554E+03 -0.46688998630E+03  0.95099534186E+03  0.12502499775E+04  0.25500000920E-02 0. -1.
       -2    1    3    3    0  502 -0.66388749554E+03  0.46688998630E+03  0.70713162518E+03  0.10764608685E+04  0.25500000920E-02 0.  1.
</event>
<event>
 5   0  0.3274900E-04  0.1607563E+04  0.7818609E-02  0.8815915E-01
       -2   -1    0    0    0  501  0.00000000000E+00  0.00000000000E+00  0.39751052885E+03  0.39751052886E+03  0.25500000920E-02 0. -1.
        2   -1    0    0  501    0  0.00000000000E+00  0.00000000000E+00 -0.16252777384E+04  0.16252777384E+04  0.25500000920E-02 0.  1.
    10030    2    1    2    0    0  0.00000000000E+00  0.00000000000E+00 -0.12277672096E+04  0.20227882673E+04  0.16075633902E+04 0.  0.
        3    1    3    3  502    0 -0.64249106331E+03  0.29680288136E+03 -0.10933223760E+04  0.13023979978E+04  0.10100000352E+00 0.  1.
       -3    1    3    3    0  502  0.64249106331E+03 -0.29680288136E+03 -0.13444483360E+03  0.72039026943E+03  0.10100000352E+00 0. -1.
</event>
<event>
 5   0  0.3210612E-04  0.1616245E+04  0.7818609E-02  0.8810630E-01
       -2   -1    0    0    0  501  0.00000000000E+00  0.00000000000E+00  0.45929579277E+03  0.45929579277E+03  0.25500000920E-02 0. -1.
        2   -1    0    0  501    0  0.00000000000E+00  0.00000000000E+00 -0.14218772173E+04  0.14218772173E+04  0.25500000920E-02 0.  1.
    10030    2    1    2    0    0  0.00000000000E+00  0.00000000000E+00 -0.96258142456E+03  0.18811730101E+04  0.16162453078E+04 0.  0.
        2    1    3    3  502    0  0.63157253059E+03  0.42580546303E+03 -0.79547907529E+03  0.11013542178E+04  0.25500000920E-02 0. -1.
       -2    1    3    3    0  502 -0.63157253059E+03 -0.42580546303E+03 -0.16710234927E+03  0.77981879234E+03  0.25500000920E-02 0.  1.
</event>
<event>
 5   0  0.1219463E-04  0.1592035E+04  0.7818609E-02  0.8825456E-01
        4   -1    0    0  501    0  0.00000000000E+00  0.00000000000E+00  0.68699161185E+03  0.68699278573E+03  0.12699999809E+01 0. -1.
       -4   -1    0    0    0  501  0.00000000000E+00  0.00000000000E+00 -0.92234359445E+03  0.92234446880E+03  0.12699999809E+01 0.  1.
    10030    2    1    2    0    0  0.00000000000E+00  0.00000000000E+00 -0.23535198260E+03  0.16093372545E+04  0.15920351262E+04 0.  0.
        5    1    3    3  502    0 -0.35011982294E+03  0.57860115357E+03  0.30671844582E+03  0.74260452485E+03  0.46999998093E+01 0. -1.
       -5    1    3    3    0  502  0.35011982294E+03 -0.57860115357E+03 -0.54207042842E+03  0.86673272968E+03  0.46999998093E+01 0.  1.
</event>
<event>
 5   0  0.3380454E-04  0.1633112E+04  0.7818609E-02  0.8800460E-01
        2   -1    0    0  501    0  0.00000000000E+00  0.00000000000E+00  0.88750079163E+03  0.88750079164E+03  0.25500000920E-02 0. -1.
       -2   -1    0    0    0  501  0.00000000000E+00  0.00000000000E+00 -0.75128255403E+03  0.75128255403E+03  0.25500000920E-02 0.  1.
    10030    2    1    2    0    0  0.00000000000E+00  0.00000000000E+00  0.13621823761E+03  0.16387833457E+04  0.16331121963E+04 0.  0.
        5    1    3    3  502    0  0.22039485371E+03 -0.78576939212E+03  0.40916264529E+02  0.81713136021E+03  0.46999998093E+01 0.  1.
       -5    1    3    3    0  502 -0.22039485371E+03  0.78576939212E+03  0.95301973078E+02  0.82165198546E+03  0.46999998093E+01 0. -1.
</event>
<event>
 5   0  0.3380454E-04  0.1604908E+04  0.7818609E-02  0.8817538E-01
        2   -1    0    0  501    0  0.00000000000E+00  0.00000000000E+00  0.95392098139E+03  0.95392098139E+03  0.25500000920E-02 0. -1.
       -2   -1    0    0    0  501  0.00000000000E+00  0.00000000000E+00 -0.67503749229E+03  0.67503749229E+03  0.25500000920E-02 0.  1.
    10030    2    1    2    0    0  0.00000000000E+00  0.00000000000E+00  0.27888348910E+03  0.16289584737E+04  0.16049080062E+04 0.  0.
        5    1    3    3  502    0  0.63496298061E+03  0.31639885434E+02  0.63640263346E+03  0.89956071000E+03  0.46999998093E+01 0. -1.
       -5    1    3    3    0  502 -0.63496298061E+03 -0.31639885434E+02 -0.35751914436E+03  0.72939776369E+03  0.46999998093E+01 0.  1.
</event>
<event>
 5   0  0.3274900E-04  0.1650607E+04  0.7818609E-02  0.8790048E-01
        2   -1    0    0  501    0  0.00000000000E+00  0.00000000000E+00  0.75298888462E+03  0.75298888462E+03  0.25500000920E-02 0. -1.
       -2   -1    0    0    0  501  0.00000000000E+00  0.00000000000E+00 -0.90456282009E+03  0.90456282009E+03  0.25500000920E-02 0.  1.
    10030    2    1    2    0    0  0.00000000000E+00  0.00000000000E+00 -0.15157393547E+03  0.16575517047E+04  0.16506068569E+04 0.  0.
        3    1    3    3  502    0 -0.35274731983E+02  0.79329092489E+03  0.15003903901E+03  0.80812531309E+03  0.10100000352E+00 0. -1.
       -3    1    3    3    0  502  0.35274731983E+02 -0.79329092489E+03 -0.30161297448E+03  0.84942639163E+03  0.10100000352E+00 0.  1.
</event>
<event>
 5   0  0.3228393E-04  0.1594049E+04  0.7818609E-02  0.8824213E-01
        2   -1    0    0  501    0  0.00000000000E+00  0.00000000000E+00  0.24799827076E+04  0.24799827076E+04  0.25500000920E-02 0. -1.
       -2   -1    0    0    0  501  0.00000000000E+00  0.00000000000E+00 -0.25615003888E+03  0.25615003890E+03  0.25500000920E-02 0.  1.
    10030    2    1    2    0    0  0.00000000000E+00  0.00000000000E+00  0.22238326687E+04  0.27361327465E+04  0.15940485150E+04 0.  0.
        1    1    3    3  502    0  0.76584286516E+03  0.18682215692E+03  0.91005904598E+03  0.12040038537E+04  0.50400001928E-02 0.  1.
       -1    1    3    3    0  502 -0.76584286516E+03 -0.18682215692E+03  0.13137736227E+04  0.15321288928E+04  0.50400001928E-02 0. -1.
</event>
<event>
 5   0  0.1764099E-04  0.1602901E+04  0.7818609E-02  0.8818768E-01
       -1   -1    0    0    0  501  0.00000000000E+00  0.00000000000E+00  0.32089604197E+03  0.32089604201E+03  0.50400001928E-02 0.  1.
        1   -1    0    0  501    0  0.00000000000E+00  0.00000000000E+00 -0.20016553205E+04  0.20016553205E+04  0.50400001928E-02 0. -1.
    10030    2    1    2    0    0  0.00000000000E+00  0.00000000000E+00 -0.16807592786E+04  0.23225513626E+04  0.16029014565E+04 0.  0.
        5    1    3    3  502    0  0.73921915081E+03  0.29213324943E+03 -0.98895629363E+03  0.12687960549E+04  0.46999998093E+01 0.  1.
       -5    1    3    3    0  502 -0.73921915081E+03 -0.29213324943E+03 -0.69180298494E+03  0.10537553076E+04  0.46999998093E+01 0. -1.
</event>
<event>
 5   0  0.1819811E-04  0.1598027E+04  0.7818609E-02  0.8821761E-01
       -1   -1    0    0    0  501  0.00000000000E+00  0.00000000000E+00  0.33350910273E+03  0.33350910277E+03  0.50400001928E-02 0. -1.
        1   -1    0    0  501    0  0.00000000000E+00  0.00000000000E+00 -0.19142593689E+04  0.19142593689E+04  0.50400001928E-02 0.  1.
    10030    2    1    2    0    0  0.00000000000E+00  0.00000000000E+00 -0.15807502661E+04  0.22477684716E+04  0.15980274398E+04 0.  0.
        1    1    3    3  502    0 -0.71729003294E+02 -0.14062471070E+03 -0.18921060441E+04  0.18986799733E+04  0.50400001928E-02 0.  1.
       -1    1    3    3    0  502  0.71729003294E+02  0.14062471070E+03  0.31135577793E+03  0.34908849830E+03  0.50400001928E-02 0. -1.
</event>
<event>
 5   0  0.3210612E-04  0.1597931E+04  0.7818609E-02  0.8821820E-01
       -2   -1    0    0    0  501  0.00000000000E+00  0.00000000000E+00  0.55350161203E+03  0.55350161203E+03  0.25500000920E-02 0. -1.
        2   -1    0    0  501    0  0.00000000000E+00  0.00000000000E+00 -0.11532865309E+04  0.11532865309E+04  0.25500000920E-02 0.  1.
    10030    2    1    2    0    0  0.00000000000E+00  0.00000000000E+00 -0.59978491886E+03  0.17067881429E+04  0.15979311049E+04 0.  0.
        2    1    3    3  502    0 -0.34175505144E+03 -0.69393112371E+03 -0.86243588950E+02  0.77831540925E+03  0.25500000920E-02 0. -1.
       -2    1    3    3    0  502  0.34175505144E+03  0.69393112371E+03 -0.51354132991E+03  0.92847273367E+03  0.25500000920E-02 0.  1.
</event>
<event>
 5   0  0.1761255E-04  0.1608943E+04  0.7818609E-02  0.8815073E-01
       -1   -1    0    0    0  501  0.00000000000E+00  0.00000000000E+00  0.86048703851E+03  0.86048703852E+03  0.50400001928E-02 0. -1.
        1   -1    0    0  501    0  0.00000000000E+00  0.00000000000E+00 -0.75210252595E+03  0.75210252597E+03  0.50400001928E-02 0.  1.
    10030    2    1    2    0    0  0.00000000000E+00  0.00000000000E+00  0.10838451256E+03  0.16125895645E+04  0.16089431006E+04 0.  0.
        2    1    3    3  502    0 -0.43529117725E+03  0.15269146279E+03  0.71476212721E+03  0.85069265325E+03  0.25500000920E-02 0. -1.
       -2    1    3    3    0  502  0.43529117725E+03 -0.15269146279E+03 -0.60637761465E+03  0.76189691124E+03  0.25500000920E-02 0.  1.
</event>
<event>
 5   0  0.3228393E-04  0.1600843E+04  0.7818609E-02  0.8820030E-01
        2   -1    0    0  501    0  0.00000000000E+00  0.00000000000E+00  0.16560973922E+04  0.16560973922E+04  0.25500000920E-02 0.  1.
       -2   -1    0    0    0  501  0.00000000000E+00  0.00000000000E+00 -0.38685803558E+03  0.38685803559E+03  0.25500000920E-02 0. -1.
    10030    2    1    2    0    0  0.00000000000E+00  0.00000000000E+00  0.12692393566E+04  0.20429554278E+04  0.16008430078E+04 0.  0.
        1    1    3    3  502    0  0.36504717715E+03 -0.50349024436E+03 -0.84416210551E+01  0.62195910533E+03  0.50400001928E-02 0. -1.
       -1    1    3    3    0  502 -0.36504717715E+03  0.50349024436E+03  0.12776809776E+04  0.14209963224E+04  0.50400001928E-02 0.  1.
</event>
<event>
 5   0  0.3380454E-04  0.1567159E+04  0.7818609E-02  0.8840981E-01
        2   -1    0    0  501    0  0.00000000000E+00  0.00000000000E+00  0.10873566486E+04  0.10873566487E+04  0.25500000920E-02 0.  1.
       -2   -1    0    0    0  501  0.00000000000E+00  0.00000000000E+00 -0.56466916060E+03  0.56466916061E+03  0.25500000920E-02 0. -1.
    10030    2    1    2    0    0  0.00000000000E+00  0.00000000000E+00  0.52268748805E+03  0.16520258093E+04  0.15671589148E+04 0.  0.
        5    1    3    3  502    0  0.56440049799E+03  0.42004900497E+03  0.62496642944E+03  0.94106015569E+03  0.46999998093E+01 0.  1.
       -5    1    3    3    0  502 -0.56440049799E+03 -0.42004900497E+03 -0.10227894139E+03  0.71096565357E+03  0.46999998093E+01 0. -1.
</event>
<event>
 5   0  0.1764099E-04  0.1478066E+04  0.7818609E-02  0.8899171E-01
        1   -1    0    0  501    0  0.00000000000E+00  0.00000000000E+00  0.86952172976E+03  0.86952172978E+03  0.50400001928E-02 0. -1.
       -1   -1    0    0    0  501  0.00000000000E+00  0.00000000000E+00 -0.62812692625E+03  0.62812692627E+03  0.50400001928E-02 0.  1.
    10030    2    1    2    0    0  0.00000000000E+00  0.00000000000E+00  0.24139480351E+03  0.14976486561E+04  0.14780663198E+04 0.  0.
        5    1    3    3  502    0 -0.34631267817E+03 -0.57222773296E+03  0.43913949068E+03  0.80015163044E+03  0.46999998093E+01 0. -1.
       -5    1    3    3    0  502  0.34631267817E+03  0.57222773296E+03 -0.19774468717E+03  0.69749702561E+03  0.46999998093E+01 0.  1.
</event>
<event>
 5   0  0.1764099E-04  0.1596717E+04  0.7818609E-02  0.8822567E-01
        1   -1    0    0  501    0  0.00000000000E+00  0.00000000000E+00  0.67145409714E+03  0.67145409716E+03  0.50400001928E-02 0.  1.
       -1   -1    0    0    0  501  0.00000000000E+00  0.00000000000E+00 -0.94924822228E+03  0.94924822229E+03  0.50400001928E-02 0. -1.
    10030    2    1    2    0    0  0.00000000000E+00  0.00000000000E+00 -0.27779412514E+03  0.16207023195E+04  0.15967173928E+04 0.  0.
        5    1    3    3  502    0  0.12451847087E+03 -0.59293009802E+03  0.38880041573E+03  0.71990194055E+03  0.46999998093E+01 0.  1.
       -5    1    3    3    0  502 -0.12451847087E+03  0.59293009802E+03 -0.66659454087E+03  0.90080037891E+03  0.46999998093E+01 0. -1.
</event>
<event>
 5   0  0.3228393E-04  0.1593585E+04  0.7818609E-02  0.8824499E-01
        2   -1    0    0  501    0  0.00000000000E+00  0.00000000000E+00  0.22334151452E+04  0.22334151452E+04  0.25500000920E-02 0.  1.
       -2   -1    0    0    0  501  0.00000000000E+00  0.00000000000E+00 -0.28426345287E+03  0.28426345289E+03  0.25500000920E-02 0. -1.
    10030    2    1    2    0    0  0.00000000000E+00  0.00000000000E+00  0.19491516924E+04  0.25176785981E+04  0.15935850161E+04 0.  0.
        1    1    3    3  502    0  0.48294851614E+03  0.61269470075E+03  0.12305181130E+04  0.14569862360E+04  0.50400001928E-02 0.  1.
       -1    1    3    3    0  502 -0.48294851614E+03 -0.61269470075E+03  0.71863357937E+03  0.10606923621E+04  0.50400001928E-02 0. -1.
</event>
<event>
 5   0  0.3263294E-04  0.1607566E+04  0.7818609E-02  0.8815913E-01
       -2   -1    0    0    0  501  0.00000000000E+00  0.00000000000E+00  0.89647300198E+03  0.89647300198E+03  0.25500000920E-02 0.  1.
        2   -1    0    0  501    0  0.00000000000E+00  0.00000000000E+00 -0.72067644668E+03  0.72067644669E+03  0.25500000920E-02 0. -1.
    10030    2    1    2    0    0  0.00000000000E+00  0.00000000000E+00  0.17579655530E+03  0.16171494487E+04  0.16075658339E+04 0.  0.
        4    1    3    3  502    0  0.10021380022E+03  0.79263647688E+03 -0.66048211875E+00  0.79894770754E+03  0.12699999809E+01 0. -1.
       -4    1    3    3    0  502 -0.10021380022E+03 -0.79263647688E+03  0.17645703742E+03  0.81820174113E+03  0.12699999809E+01 0.  1.
</event>
<event>
 5   0  0.1219463E-04  0.1602518E+04  0.7818609E-02  0.8819003E-01
        4   -1    0    0  501    0  0.00000000000E+00  0.00000000000E+00  0.68722310781E+03  0.68722428130E+03  0.12699999809E+01 0. -1.
       -4   -1    0    0    0  501  0.00000000000E+00  0.00000000000E+00 -0.93421470946E+03  0.93421557270E+03  0.12699999809E+01 0.  1.
    10030    2    1    2    0    0  0.00000000000E+00  0.00000000000E+00 -0.24699160165E+03  0.16214398540E+04  0.16025175034E+04 0.  0.
        3    1    3    3  502    0  0.45698523191E+03 -0.51471581428E+03  0.29152764951E+03  0.74750000153E+03  0.10100000352E+00 0. -1.
       -3    1    3    3    0  502 -0.45698523191E+03  0.51471581428E+03 -0.53851925117E+03  0.87393985247E+03  0.10100000352E+00 0.  1.
</event>
<event>
 5   0  0.1787688E-04  0.1608982E+04  0.7818609E-02  0.8815049E-01
       -1   -1    0    0    0  501  0.00000000000E+00  0.00000000000E+00  0.14671358732E+04  0.14671358732E+04  0.50400001928E-02 0. -1.
        1   -1    0    0  501    0  0.00000000000E+00  0.00000000000E+00 -0.44113561467E+03  0.44113561470E+03  0.50400001928E-02 0.  1.
    10030    2    1    2    0    0  0.00000000000E+00  0.00000000000E+00  0.10260002585E+04  0.19082714879E+04  0.16089821444E+04 0.  0.
        4    1    3    3  502    0 -0.34627877683E+03  0.21755060902E+03 -0.30866457620E+03  0.51235992454E+03  0.12699999809E+01 0.  1.
       -4    1    3    3    0  502  0.34627877683E+03 -0.21755060902E+03  0.13346648347E+04  0.13959115633E+04  0.12699999809E+01 0. -1.
</event>
<event>
 5   0  0.3274900E-04  0.1607507E+04  0.7818609E-02  0.8815949E-01
        2   -1    0    0  501    0  0.00000000000E+00  0.00000000000E+00  0.56009972282E+03  0.56009972283E+03  0.25500000920E-02 0.  1.
       -2   -1    0    0    0  501  0.00000000000E+00  0.00000000000E+00 -0.11534011012E+04  0.11534011012E+04  0.25500000920E-02 0. -1.
    10030    2    1    2    0    0  0.00000000000E+00  0.00000000000E+00 -0.59330137836E+03  0.17135008240E+04  0.16075069357E+04 0.  0.
        3    1    3    3  502    0  0.27204596121E+03 -0.62924365002E+03 -0.74391636807E+03  0.10116166018E+04  0.10100000352E+00 0.  1.
       -3    1    3    3    0  502 -0.27204596121E+03  0.62924365002E+03  0.15061498971E+03  0.70188422224E+03  0.10100000352E+00 0. -1.
</event>
<event>
 5   0  0.1819811E-04  0.1586561E+04  0.7818609E-02  0.8828847E-01
        1   -1    0    0  501    0  0.00000000000E+00  0.00000000000E+00  0.96231428871E+03  0.96231428873E+03  0.50400001928E-02 0.  1.
       -1   -1    0    0    0  501  0.00000000000E+00  0.00000000000E+00 -0.65393823046E+03  0.65393823048E+03  0.50400001928E-02 0. -1.
    10030    2    1    2    0    0  0.00000000000E+00  0.00000000000E+00  0.30837605825E+03  0.16162525192E+04  0.15865611909E+04 0.  0.
        1    1    3    3  502    0  0.37812038659E+03  0.57921621563E+03 -0.24144530233E+03  0.73264062489E+03  0.50400001928E-02 0. -1.
       -1    1    3    3    0  502 -0.37812038659E+03 -0.57921621563E+03  0.54982136057E+03  0.88361189431E+03  0.50400001928E-02 0.  1.
</event>
<event>
 5   0  0.3274900E-04  0.1611672E+04  0.7818609E-02  0.8813410E-01
        2   -1    0    0  501    0  0.00000000000E+00  0.00000000000E+00  0.68829600030E+03  0.68829600030E+03  0.25500000920E-02 0. -1.
       -2   -1    0    0    0  501  0.00000000000E+00  0.00000000000E+00 -0.94344786555E+03  0.94344786555E+03  0.25500000920E-02 0.  1.
    10030    2    1    2    0    0  0.00000000000E+00  0.00000000000E+00 -0.25515186525E+03  0.16317438659E+04  0.16116716692E+04 0.  0.
        3    1    3    3  502    0 -0.25504385955E+03  0.14219449276E+03 -0.88799901416E+03  0.93477746197E+03  0.10100000352E+00 0.  1.
       -3    1    3    3    0  502  0.25504385955E+03 -0.14219449276E+03  0.63284714891E+03  0.69696640388E+03  0.10100000352E+00 0. -1.
</event>
<event>
 5   0  0.1761255E-04  0.1597701E+04  0.7818609E-02  0.8821961E-01
       -1   -1    0    0    0  501  0.00000000000E+00  0.00000000000E+00  0.30099654804E+03  0.30099654808E+03  0.50400001928E-02 0. -1.
        1   -1    0    0  501    0  0.00000000000E+00  0.00000000000E+00 -0.21201650014E+04  0.21201650014E+04  0.50400001928E-02 0.  1.
    10030    2    1    2    0    0  0.00000000000E+00  0.00000000000E+00 -0.18191684533E+04  0.24211615494E+04  0.15977012821E+04 0.  0.
        2    1    3    3  502    0  0.73985174400E+03  0.18768861207E+03 -0.55240293831E+03  0.94220837635E+03  0.25500000920E-02 0. -1.
       -2    1    3    3    0  502 -0.73985174400E+03 -0.18768861207E+03 -0.12667655150E+04  0.14789531731E+04  0.25500000920E-02 0.  1.
</event>
<event>
 5   0  0.3228393E-04  0.1602748E+04  0.7818609E-02  0.8818861E-01
        2   -1    0    0  501    0  0.00000000000E+00  0.00000000000E+00  0.46571445064E+03  0.46571445065E+03  0.25500000920E-02 0. -1.
       -2   -1    0    0    0  501  0.00000000000E+00  0.00000000000E+00 -0.13789576760E+04  0.13789576760E+04  0.25500000920E-02 0.  1.
    10030    2    1    2    0    0  0.00000000000E+00  0.00000000000E+00 -0.91324322535E+03  0.18446721266E+04  0.16027482853E+04 0.  0.
        1    1    3    3  502    0  0.10184979718E+03  0.39530274802E+03 -0.12503242722E+04  0.13152750394E+04  0.50400001928E-02 0.  1.
       -1    1    3    3    0  502 -0.10184979718E+03 -0.39530274802E+03  0.33708104682E+03  0.52939708720E+03  0.50400001928E-02 0. -1.
</event>
<event>
 5   0  0.3210612E-04  0.1596993E+04  0.7818609E-02  0.8822398E-01
        2   -1    0    0  501    0  0.00000000000E+00  0.00000000000E+00  0.30090869241E+04  0.30090869241E+04  0.25500000920E-02 0. -1.
       -2   -1    0    0    0  501  0.00000000000E+00  0.00000000000E+00 -0.21189037099E+03  0.21189037100E+03  0.25500000920E-02 0.  1.
    10030    2    1    2    0    0  0.00000000000E+00  0.00000000000E+00  0.27971965531E+04  0.32209772951E+04  0.15969928550E+04 0.  0.
        2    1    3    3  502    0 -0.16118625398E+03  0.33011478507E+03  0.28285227924E+04  0.28522794336E+04  0.25500000920E-02 0. -1.
       -2    1    3    3    0  502  0.16118625398E+03 -0.33011478507E+03 -0.31326239364E+02  0.36869786150E+03  0.25500000920E-02 0.  1.
</event>
<event>
 5   0  0.1219463E-04  0.1587282E+04  0.7818609E-02  0.8828399E-01
       -3   -1    0    0    0  501  0.00000000000E+00  0.00000000000E+00  0.15415236457E+04  0.15415236490E+04  0.10100000352E+00 0.  1.
        3   -1    0    0  501    0  0.00000000000E+00  0.00000000000E+00 -0.40859981633E+03  0.40859982881E+03  0.10100000352E+00 0. -1.
    10030    2    1    2    0    0  0.00000000000E+00  0.00000000000E+00  0.11329238294E+04  0.19501234778E+04  0.15872823238E+04 0.  0.
        1    1    3    3  502    0  0.33667050739E+03 -0.65268335942E+03  0.19681331199E+03  0.76031445995E+03  0.50400001928E-02 0. -1.
       -1    1    3    3    0  502 -0.33667050739E+03  0.65268335942E+03  0.93611051740E+03  0.11898090179E+04  0.50400001928E-02 0.  1.
</event>
<event>
 5   0  0.1787688E-04  0.1593015E+04  0.7818609E-02  0.8824851E-01
        1   -1    0    0  501    0  0.00000000000E+00  0.00000000000E+00  0.10025666671E+04  0.10025666671E+04  0.50400001928E-02 0. -1.
       -1   -1    0    0    0  501  0.00000000000E+00  0.00000000000E+00 -0.63279978906E+03  0.63279978908E+03  0.50400001928E-02 0.  1.
    10030    2    1    2    0    0  0.00000000000E+00  0.00000000000E+00  0.36976687802E+03  0.16353664562E+04  0.15930147212E+04 0.  0.
        4    1    3    3  502    0  0.17801998446E+03 -0.57419473684E+03 -0.35153264906E+03  0.69639609916E+03  0.12699999809E+01 0.  1.
       -4    1    3    3    0  502 -0.17801998446E+03  0.57419473684E+03  0.72129952708E+03  0.93897035701E+03  0.12699999809E+01 0. -1.
</event>
<event>
 5   0  0.3263294E-04  0.1591869E+04  0.7818609E-02  0.8825559E-01
       -2   -1    0    0    0  501  0.00000000000E+00  0.00000000000E+00  0.59119393533E+03  0.59119393534E+03  0.25500000920E-02 0.  1.
        2   -1    0    0  501    0  0.00000000000E+00  0.00000000000E+00 -0.10715797344E+04  0.10715797344E+04  0.25500000920E-02 0. -1.
    10030    2    1    2    0    0  0.00000000000E+00  0.00000000000E+00 -0.48038579906E+03  0.16627736697E+04  0.15918686381E+04 0.  0.
        4    1    3    3  502    0 -0.35044353297E+03 -0.29902682365E+02  0.50561667068E+03  0.61591774677E+03  0.12699999809E+01 0.  1.
       -4    1    3    3    0  502  0.35044353297E+03  0.29902682365E+02 -0.98600246974E+03  0.10468559230E+04  0.12699999809E+01 0. -1.
</event>
<event>
 5   0  0.3380454E-04  0.1607101E+04  0.7818609E-02  0.8816197E-01
        2   -1    0    0  501    0  0.00000000000E+00  0.00000000000E+00  0.96126575428E+03  0.96126575428E+03  0.25500000920E-02 0.  1.
       -2   -1    0    0    0  501  0.00000000000E+00  0.00000000000E+00 -0.67171167909E+03  0.67171167909E+03  0.25500000920E-02 0. -1.
    10030    2    1    2    0    0  0.00000000000E+00  0.00000000000E+00  0.28955407519E+03  0.16329774334E+04  0.16071010346E+04 0.  0.
        5    1    3    3  502    0 -0.43454930147E+03 -0.48058999897E+03 -0.33813465586E+03  0.73086043675E+03  0.46999998093E+01 0. -1.
       -5    1    3    3    0  502  0.43454930147E+03  0.48058999897E+03  0.62768873105E+03  0.90211699662E+03  0.46999998093E+01 0.  1.
</event>
<event>
 5   0  0.1819811E-04  0.1607433E+04  0.7818609E-02  0.8815995E-01
        1   -1    0    0  501    0  0.00000000000E+00  0.00000000000E+00  0.43291807551E+03  0.43291807554E+03  0.50400001928E-02 0.  1.
       -1   -1    0    0    0  501  0.00000000000E+00  0.00000000000E+00 -0.14921067470E+04  0.14921067470E+04  0.50400001928E-02 0. -1.
    10030    2    1    2    0    0  0.00000000000E+00  0.00000000000E+00 -0.10591886715E+04  0.19250248225E+04  0.16074327126E+04 0.  0.
        1    1    3    3  502    0  0.72575967493E+03 -0.34529118588E+03 -0.53273385306E+03  0.96423983895E+03  0.50400001928E-02 0. -1.
       -1    1    3    3    0  502 -0.72575967493E+03  0.34529118588E+03 -0.52645481840E+03  0.96078498357E+03  0.50400001928E-02 0.  1.
</event>
<event>
 5   0  0.3263294E-04  0.1605149E+04  0.7818609E-02  0.8817391E-01
        2   -1    0    0  501    0  0.00000000000E+00  0.00000000000E+00  0.12166520762E+04  0.12166520762E+04  0.25500000920E-02 0.  1.
       -2   -1    0    0    0  501  0.00000000000E+00  0.00000000000E+00 -0.52942514116E+03  0.52942514117E+03  0.25500000920E-02 0. -1.
    10030    2    1    2    0    0  0.00000000000E+00  0.00000000000E+00  0.68722693506E+03  0.17460772174E+04  0.16051494600E+04 0.  0.
        4    1    3    3  502    0 -0.98150824560E+01 -0.22452822682E+03  0.11817224987E+04  0.12029043758E+04  0.12699999809E+01 0.  1.
       -4    1    3    3    0  502  0.98150824560E+01  0.22452822682E+03 -0.49449556364E+03  0.54317284160E+03  0.12699999809E+01 0. -1.
</event>
<event>
 5   0  0.1219463E-04  0.1612534E+04  0.7818609E-02  0.8812885E-01
        3   -1    0    0  501    0  0.00000000000E+00  0.00000000000E+00  0.13255503067E+04  0.13255503106E+04  0.10100000352E+00 0.  1.
       -3   -1    0    0    0  501  0.00000000000E+00  0.00000000000E+00 -0.49041260152E+03  0.49041261192E+03  0.10100000352E+00 0. -1.
    10030    2    1    2    0    0  0.00000000000E+00  0.00000000000E+00  0.83513770519E+03  0.18159629225E+04  0.16125341389E+04 0.  0.
        5    1    3    3  502    0  0.72443595820E+03  0.76062537424E+02  0.80678774991E+03  0.10869781647E+04  0.46999998093E+01 0.  1.
       -5    1    3    3    0  502 -0.72443595820E+03 -0.76062537424E+02  0.28349955289E+02  0.72898475779E+03  0.46999998093E+01 0. -1.
</event>
<event>
 5   0  0.1736537E-04  0.1624249E+04  0.7818609E-02  0.8805788E-01
       -1   -1    0    0    0  501  0.00000000000E+00  0.00000000000E+00  0.32074148976E+03  0.32074148980E+03  0.50400001928E-02 0. -1.
        1   -1    0    0  501    0  0.00000000000E+00  0.00000000000E+00 -0.20563173052E+04  0.20563173052E+04  0.50400001928E-02 0.  1.
    10030    2    1    2    0    0  0.00000000000E+00  0.00000000000E+00 -0.17355758154E+04  0.23770587950E+04  0.16242490892E+04 0.  0.
        3    1    3    3  502    0 -0.63930990812E+03  0.40298092395E+03 -0.13029996112E+04  0.15062930593E+04  0.10100000352E+00 0.  1.
       -3    1    3    3    0  502  0.63930990812E+03 -0.40298092395E+03 -0.43257620426E+03  0.87076573565E+03  0.10100000352E+00 0. -1.
</event>
<event>
 5   0  0.1761255E-04  0.1603615E+04  0.7818609E-02  0.8818331E-01
       -1   -1    0    0    0  501  0.00000000000E+00  0.00000000000E+00  0.60340044010E+03  0.60340044012E+03  0.50400001928E-02 0. -1.
        1   -1    0    0  501    0  0.00000000000E+00  0.00000000000E+00 -0.10654531573E+04  0.10654531573E+04  0.50400001928E-02 0.  1.
    10030    2    1    2    0    0  0.00000000000E+00  0.00000000000E+00 -0.46205271715E+03  0.16688535974E+04  0.16036145472E+04 0.  0.
        2    1    3    3  502    0  0.17696290628E+03  0.72454013512E+02 -0.10413762593E+04  0.10587870266E+04  0.25500000920E-02 0.  1.
       -2    1    3    3    0  502 -0.17696290628E+03 -0.72454013512E+02  0.57932354216E+03  0.61006657077E+03  0.25500000920E-02 0. -1.
</event>
<event>
 5   0  0.1761255E-04  0.1609847E+04  0.7818609E-02  0.8814521E-01
       -1   -1    0    0    0  501  0.00000000000E+00  0.00000000000E+00  0.10684057796E+04  0.10684057797E+04  0.50400001928E-02 0.  1.
        1   -1    0    0  501    0  0.00000000000E+00  0.00000000000E+00 -0.60641911469E+03  0.60641911472E+03  0.50400001928E-02 0. -1.
    10030    2    1    2    0    0  0.00000000000E+00  0.00000000000E+00  0.46198666495E+03  0.16748248944E+04  0.16098468089E+04 0.  0.
        2    1    3    3  502    0  0.43501573820E+03 -0.62502102424E+03 -0.40323486051E+02  0.76257193547E+03  0.25500000920E-02 0. -1.
       -2    1    3    3    0  502 -0.43501573820E+03  0.62502102424E+03  0.50231015100E+03  0.91225295891E+03  0.25500000920E-02 0.  1.
</event>
<event>
 5   0  0.1819811E-04  0.1592390E+04  0.7818609E-02  0.8825237E-01
        1   -1    0    0  501    0  0.00000000000E+00  0.00000000000E+00  0.74902630312E+03  0.74902630314E+03  0.50400001928E-02 0.  1.
       -1   -1    0    0    0  501  0.00000000000E+00  0.00000000000E+00 -0.84633368061E+03  0.84633368062E+03  0.50400001928E-02 0. -1.
    10030    2    1    2    0    0  0.00000000000E+00  0.00000000000E+00 -0.97307377488E+02  0.15953599838E+04  0.15923896358E+04 0.  0.
        1    1    3    3  502    0  0.10667542062E+03 -0.34518702613E+03  0.66217133002E+03  0.75432393486E+03  0.50400001928E-02 0.  1.
       -1    1    3    3    0  502 -0.10667542062E+03  0.34518702613E+03 -0.75947870751E+03  0.84103604891E+03  0.50400001928E-02 0. -1.
</event>
<event>
 5   0  0.1764099E-04  0.1593195E+04  0.7818609E-02  0.8824739E-01
       -1   -1    0    0    0  501  0.00000000000E+00  0.00000000000E+00  0.53973566919E+03  0.53973566921E+03  0.50400001928E-02 0.  1.
        1   -1    0    0  501    0  0.00000000000E+00  0.00000000000E+00 -0.11757012861E+04  0.11757012862E+04  0.50400001928E-02 0. -1.
    10030    2    1    2    0    0  0.00000000000E+00  0.00000000000E+00 -0.63596561695E+03  0.17154369554E+04  0.15931954312E+04 0.  0.
        5    1    3    3  502    0  0.70184726094E+03 -0.37675571246E+03 -0.31434960549E+03  0.85637153679E+03  0.46999998093E+01 0.  1.
       -5    1    3    3    0  502 -0.70184726094E+03  0.37675571246E+03 -0.32161601146E+03  0.85906541857E+03  0.46999998093E+01 0. -1.
</event>
<event>
 5   0  0.1761255E-04  0.1652565E+04  0.7818609E-02  0.8788890E-01
       -1   -1    0    0    0  501  0.00000000000E+00  0.00000000000E+00  0.52430460259E+03  0.52430460261E+03  0.50400001928E-02 0.  1.
        1   -1    0    0  501    0  0.00000000000E+00  0.00000000000E+00 -0.13021877896E+04  0.13021877896E+04  0.50400001928E-02 0. -1.
    10030    2    1    2    0    0  0.00000000000E+00  0.00000000000E+00 -0.77788318702E+03  0.18264923922E+04  0.16525653410E+04 0.  0.
        2    1    3    3  502    0  0.42824691288E+02  0.68173810623E+02  0.51995931263E+03  0.52615521420E+03  0.25500000920E-02 0.  1.
       -2    1    3    3    0  502 -0.42824691288E+02 -0.68173810623E+02 -0.12978424996E+04  0.13003371780E+04  0.25500000920E-02 0. -1.
</event>
<event>
 5   0  0.3263294E-04  0.1604256E+04  0.7818609E-02  0.8817938E-01
       -2   -1    0    0    0  501  0.00000000000E+00  0.00000000000E+00  0.10114970175E+04  0.10114970175E+04  0.25500000920E-02 0. -1.
        2   -1    0    0  501    0  0.00000000000E+00  0.00000000000E+00 -0.63609627796E+03  0.63609627797E+03  0.25500000920E-02 0.  1.
    10030    2    1    2    0    0  0.00000000000E+00  0.00000000000E+00  0.37540073953E+03  0.16475932955E+04  0.16042561990E+04 0.  0.
        4    1    3    3  502    0  0.23816018950E+03 -0.50596406140E+03  0.77828955031E+03  0.95836117634E+03  0.12699999809E+01 0. -1.
       -4    1    3    3    0  502 -0.23816018950E+03  0.50596406140E+03 -0.40288881077E+03  0.68923211913E+03  0.12699999809E+01 0.  1.
</event>
<event>
 5   0  0.3263294E-04  0.1566583E+04  0.7818609E-02  0.8841344E-01
       -2   -1    0    0    0  501  0.00000000000E+00  0.00000000000E+00  0.75742831253E+03  0.75742831254E+03  0.25500000920E-02 0.  1.
        2   -1    0    0  501    0  0.00000000000E+00  0.00000000000E+00 -0.81003795080E+03  0.81003795081E+03  0.25500000920E-02 0. -1.
    10030    2    1    2    0    0  0.00000000000E+00  0.00000000000E+00 -0.52609638270E+02  0.15674662633E+04  0.15665831330E+04 0.  0.
        4    1    3    3  502    0  0.21734610697E+03 -0.29941775207E+03 -0.71709516689E+03  0.80691846661E+03  0.12699999809E+01 0. -1.
       -4    1    3    3    0  502 -0.21734610697E+03  0.29941775207E+03  0.66448552862E+03  0.76054779673E+03  0.12699999809E+01 0.  1.
</event>
<event>
 5   0  0.3228393E-04  0.1584459E+04  0.7818609E-02  0.8830153E-01
       -2   -1    0    0    0  501  0.00000000000E+00  0.00000000000E+00  0.96304062315E+03  0.96304062316E+03  0.25500000920E-02 0. -1.
        2   -1    0    0  501    0  0.00000000000E+00  0.00000000000E+00 -0.65171431106E+03  0.65171431106E+03  0.25500000920E-02 0.  1.
    10030    2    1    2    0    0  0.00000000000E+00  0.00000000000E+00  0.31132631210E+03  0.16147549342E+04  0.15844587167E+04 0.  0.
        1    1    3    3  502    0 -0.31765178096E+03  0.46467620256E+03 -0.41249167865E+03  0.69783666581E+03  0.50400001928E-02 0.  1.
       -1    1    3    3    0  502  0.31765178096E+03 -0.46467620256E+03  0.72381799075E+03  0.91691826840E+03  0.50400001928E-02 0. -1.
</event>
<event>
 5   0  0.1787688E-04  0.1622601E+04  0.7818609E-02  0.8806783E-01
        1   -1    0    0  501    0  0.00000000000E+00  0.00000000000E+00  0.74705756593E+03  0.74705756594E+03  0.50400001928E-02 0. -1.
       -1   -1    0    0    0  501  0.00000000000E+00  0.00000000000E+00 -0.88106764121E+03  0.88106764122E+03  0.50400001928E-02 0.  1.
    10030    2    1    2    0    0  0.00000000000E+00  0.00000000000E+00 -0.13401007528E+03  0.16281252072E+04  0.16226006871E+04 0.  0.
        4    1    3    3  502    0  0.42113919276E+03 -0.62418209534E+03 -0.37010158140E+03  0.83901031059E+03  0.12699999809E+01 0.  1.
       -4    1    3    3    0  502 -0.42113919276E+03  0.62418209534E+03  0.23609150612E+03  0.78911489657E+03  0.12699999809E+01 0. -1.
</event>
<event>
 5   0  0.1787688E-04  0.1604863E+04  0.7818609E-02  0.8817566E-01
        1   -1    0    0  501    0  0.00000000000E+00  0.00000000000E+00  0.42892038563E+03  0.42892038566E+03  0.50400001928E-02 0. -1.
       -1   -1    0    0    0  501  0.00000000000E+00  0.00000000000E+00 -0.15012015084E+04  0.15012015084E+04  0.50400001928E-02 0.  1.
    10030    2    1    2    0    0  0.00000000000E+00  0.00000000000E+00 -0.10722811228E+04  0.19301218941E+04  0.16048625236E+04 0.  0.
        4    1    3    3  502    0 -0.25586319751E+03  0.30717598819E+03  0.30062066530E+03  0.50019742189E+03  0.12699999809E+01 0. -1.
       -4    1    3    3    0  502  0.25586319751E+03 -0.30717598819E+03 -0.13729017881E+04  0.14299244722E+04  0.12699999809E+01 0.  1.
</event>
<event>
 5   0  0.3380454E-04  0.1596102E+04  0.7818609E-02  0.8822946E-01
        2   -1    0    0  501    0  0.00000000000E+00  0.00000000000E+00  0.73519540483E+03  0.73519540484E+03  0.25500000920E-02 0.  1.
       -2   -1    0    0    0  501  0.00000000000E+00  0.00000000000E+00 -0.86628091256E+03  0.86628091256E+03  0.25500000920E-02 0. -1.
    10030    2    1    2    0    0  0.00000000000E+00  0.00000000000E+00 -0.13108550773E+03  0.16014763174E+04  0.15961024356E+04 0.  0.
        5    1    3    3  502    0 -0.19743396934E+03  0.16168303315E+03 -0.82422485683E+03  0.86283850173E+03  0.46999998093E+01 0. -1.
       -5    1    3    3    0  502  0.19743396934E+03 -0.16168303315E+03  0.69313934910E+03  0.73863781567E+03  0.46999998093E+01 0.  1.
</event>
<event>
 5   0  0.1764099E-04  0.1530453E+04  0.7818609E-02  0.8864451E-01
       -1   -1    0    0    0  501  0.00000000000E+00  0.00000000000E+00  0.55347618937E+03  0.55347618939E+03  0.50400001928E-02 0. -1.
        1   -1    0    0  501    0  0.00000000000E+00  0.00000000000E+00 -0.10579881483E+04  0.10579881483E+04  0.50400001928E-02 0.  1.
    10030    2    1    2    0    0  0.00000000000E+00  0.00000000000E+00 -0.50451195896E+03  0.16114643377E+04  0.15304525458E+04 0.  0.
        5    1    3    3  502    0 -0.50966647670E+03 -0.52444108007E+03 -0.48946011415E+03  0.87999525980E+03  0.46999998093E+01 0.  1.
       -5    1    3    3    0  502  0.50966647670E+03  0.52444108007E+03 -0.15051844807E+02  0.73146907793E+03  0.46999998093E+01 0. -1.
</event>
<event>
 5   0  0.1764099E-04  0.1592906E+04  0.7818609E-02  0.8824918E-01
        1   -1    0    0  501    0  0.00000000000E+00  0.00000000000E+00  0.18646523585E+04  0.18646523585E+04  0.50400001928E-02 0. -1.
       -1   -1    0    0    0  501  0.00000000000E+00  0.00000000000E+00 -0.34019052861E+03  0.34019052865E+03  0.50400001928E-02 0.  1.
    10030    2    1    2    0    0  0.00000000000E+00  0.00000000000E+00  0.15244618299E+04  0.22048428872E+04  0.15929056112E+04 0.  0.
        5    1    3    3  502    0  0.60565784818E+03 -0.23531779448E+03  0.13997269405E+04  0.15431958695E+04  0.46999998093E+01 0. -1.
       -5    1    3    3    0  502 -0.60565784818E+03  0.23531779448E+03  0.12473488940E+03  0.66164701775E+03  0.46999998093E+01 0.  1.
</event>
<event>
 5   0  0.3210612E-04  0.1557860E+04  0.7818609E-02  0.8846863E-01
       -2   -1    0    0    0  501  0.00000000000E+00  0.00000000000E+00  0.30899323837E+03  0.30899323838E+03  0.25500000920E-02 0. -1.
        2   -1    0    0  501    0  0.00000000000E+00  0.00000000000E+00 -0.19635765095E+04  0.19635765095E+04  0.25500000920E-02 0.  1.
    10030    2    1    2    0    0  0.00000000000E+00  0.00000000000E+00 -0.16545832712E+04  0.22725697479E+04  0.15578598967E+04 0.  0.
        2    1    3    3  502    0  0.70185535997E+03 -0.26235218313E+03 -0.11377824170E+04  0.13623429975E+04  0.25500000920E-02 0.  1.
       -2    1    3    3    0  502 -0.70185535997E+03  0.26235218313E+03 -0.51680085412E+03  0.91022675040E+03  0.25500000920E-02 0. -1.
</event>
<event>
 5   0  0.1736537E-04  0.1597918E+04  0.7818609E-02  0.8821828E-01
       -1   -1    0    0    0  501  0.00000000000E+00  0.00000000000E+00  0.56899688127E+03  0.56899688129E+03  0.50400001928E-02 0.  1.
        1   -1    0    0  501    0  0.00000000000E+00  0.00000000000E+00 -0.11218610547E+04  0.11218610548E+04  0.50400001928E-02 0. -1.
    10030    2    1    2    0    0  0.00000000000E+00  0.00000000000E+00 -0.55286417347E+03  0.16908579360E+04  0.15979179471E+04 0.  0.
        3    1    3    3  502    0 -0.55982354395E+03 -0.44652221535E+03 -0.65137282782E+03  0.96802430764E+03  0.10100000352E+00 0. -1.
       -3    1    3    3    0  502  0.55982354395E+03  0.44652221535E+03  0.98508654343E+02  0.72283362840E+03  0.10100000352E+00 0.  1.
</event>
<event>
 5   0  0.3274900E-04  0.1593242E+04  0.7818609E-02  0.8824710E-01
       -2   -1    0    0    0  501  0.00000000000E+00  0.00000000000E+00  0.40062943732E+03  0.40062943733E+03  0.25500000920E-02 0. -1.
        2   -1    0    0  501    0  0.00000000000E+00  0.00000000000E+00 -0.15840202157E+04  0.15840202157E+04  0.25500000920E-02 0.  1.
    10030    2    1    2    0    0  0.00000000000E+00  0.00000000000E+00 -0.11833907784E+04  0.19846496530E+04  0.15932421382E+04 0.  0.
        3    1    3    3  502    0  0.45723182430E+01 -0.50093582110E+03 -0.13632528283E+04  0.14523828307E+04  0.10100000352E+00 0.  1.
       -3    1    3    3    0  502 -0.45723182430E+01  0.50093582110E+03  0.17986204990E+03  0.53226682232E+03  0.10100000352E+00 0. -1.
</event>
<event>
 5   0  0.3263294E-04  0.1600673E+04  0.7818609E-02  0.8820134E-01
       -2   -1    0    0    0  501  0.00000000000E+00  0.00000000000E+00  0.11702351746E+04  0.11702351746E+04  0.25500000920E-02 0. -1.
        2   -1    0    0  501    0  0.00000000000E+00  0.00000000000E+00 -0.54735906643E+03  0.54735906644E+03  0.25500000920E-02 0.  1.
    10030    2    1    2    0    0  0.00000000000E+00  0.00000000000E+00  0.62287610813E+03  0.17175942410E+04  0.16006733991E+04 0.  0.
        4    1    3    3  502    0 -0.45411993694E+03  0.17944583427E+03  0.99188002186E+03  0.11055556590E+04  0.12699999809E+01 0. -1.
       -4    1    3    3    0  502  0.45411993694E+03 -0.17944583427E+03 -0.36900391373E+03  0.61203858196E+03  0.12699999809E+01 0.  1.
</event>
<event>
 5   0  0.3263294E-04  0.1598595E+04  0.7818609E-02  0.8821411E-01
       -2   -1    0    0    0  501  0.00000000000E+00  0.00000000000E+00  0.43326612803E+03  0.43326612804E+03  0.25500000920E-02 0.  1.
        2   -1    0    0  501    0  0.00000000000E+00  0.00000000000E+00 -0.14745599311E+04  0.14745599311E+04  0.25500000920E-02 0. -1.
    10030    2    1    2    0    0  0.00000000000E+00  0.00000000000E+00 -0.10412938031E+04  0.19078260592E+04  0.15985954734E+04 0.  0.
        4    1    3    3  502    0  0.39953921904E+02  0.18357904239E+03 -0.14478327252E+04  0.14599721893E+04  0.12699999809E+01 0. -1.
       -4    1    3    3    0  502 -0.39953921904E+02 -0.18357904239E+03  0.40653892206E+03  0.44785386984E+03  0.12699999809E+01 0.  1.
</event>
<event>
 5   0  0.1761255E-04  0.1605111E+04  0.7818609E-02  0.8817414E-01
       -1   -1    0    0    0  501  0.00000000000E+00  0.00000000000E+00  0.10662569787E+04  0.10662569787E+04  0.50400001928E-02 0.  1.
        1   -1    0    0  501    0  0.00000000000E+00  0.00000000000E+00 -0.60407155685E+03  0.60407155687E+03  0.50400001928E-02 0. -1.
    10030    2    1    2    0    0  0.00000000000E+00  0.00000000000E+00  0.46218542187E+03  0.16703285356E+04  0.16051112275E+04 0.  0.
        2    1    3    3  502    0  0.60536035460E+03 -0.47744161747E+03  0.46304807267E+03  0.89934708240E+03  0.25500000920E-02 0. -1.
       -2    1    3    3    0  502 -0.60536035460E+03  0.47744161747E+03 -0.86265079960E+00  0.77098145321E+03  0.25500000920E-02 0.  1.
</event>
<event>
 5   0  0.3228393E-04  0.1489057E+04  0.7818609E-02  0.8891763E-01
       -2   -1    0    0    0  501  0.00000000000E+00  0.00000000000E+00  0.87380178395E+03  0.87380178395E+03  0.25500000920E-02 0.  1.
        2   -1    0    0  501    0  0.00000000000E+00  0.00000000000E+00 -0.63438013718E+03  0.63438013718E+03  0.25500000920E-02 0. -1.
    10030    2    1    2    0    0  0.00000000000E+00  0.00000000000E+00  0.23942164677E+03  0.15081819211E+04  0.14890567425E+04 0.  0.
        1    1    3    3  502    0 -0.44840329763E+03 -0.28462757719E+03 -0.40876087934E+03  0.67019686028E+03  0.50400001928E-02 0.  1.
       -1    1    3    3    0  502  0.44840329763E+03  0.28462757719E+03  0.64818252611E+03  0.83798506085E+03  0.50400001928E-02 0. -1.
</event>
<event>
 5   0  0.1819811E-04  0.1591290E+04  0.7818609E-02  0.8825917E-01
       -1   -1    0    0    0  501  0.00000000000E+00  0.00000000000E+00  0.52181319304E+03  0.52181319306E+03  0.50400001928E-02 0. -1.
        1   -1    0    0  501    0  0.00000000000E+00  0.00000000000E+00 -0.12131756516E+04  0.12131756516E+04  0.50400001928E-02 0.  1.
    10030    2    1    2    0    0  0.00000000000E+00  0.00000000000E+00 -0.69136245858E+03  0.17349888447E+04  0.15912901188E+04 0.  0.
        1    1    3    3  502    0  0.61948782368E+03  0.40852643225E+03 -0.32720404504E+02  0.74278505264E+03  0.50400001928E-02 0.  1.
       -1    1    3    3    0  502 -0.61948782368E+03 -0.40852643225E+03 -0.65864205408E+03  0.99220379205E+03  0.50400001928E-02 0. -1.
</event>
<event>
 5   0  0.1764099E-04  0.1606811E+04  0.7818609E-02  0.8816375E-01
        1   -1    0    0  501    0  0.00000000000E+00  0.00000000000E+00  0.82665669483E+03  0.82665669485E+03  0.50400001928E-02 0.  1.
       -1   -1    0    0    0  501  0.00000000000E+00  0.00000000000E+00 -0.78080809134E+03  0.78080809135E+03  0.50400001928E-02 0. -1.
    10030    2    1    2    0    0  0.00000000000E+00  0.00000000000E+00  0.45848603496E+02  0.16074647862E+04  0.16068107992E+04 0.  0.
        5    1    3    3  502    0 -0.18819174658E+03 -0.58660093168E+02 -0.75622579602E+03  0.78150923512E+03  0.46999998093E+01 0. -1.
       -5    1    3    3    0  502  0.18819174658E+03  0.58660093168E+02  0.80207439951E+03  0.82595555108E+03  0.46999998093E+01 0.  1.
</event>
<event>
 5   0  0.3228393E-04  0.1610146E+04  0.7818609E-02  0.8814339E-01
       -2   -1    0    0    0  501  0.00000000000E+00  0.00000000000E+00  0.63217716845E+03  0.63217716846E+03  0.25500000920E-02 0. -1.
        2   -1    0    0  501    0  0.00000000000E+00  0.00000000000E+00 -0.10252549955E+04  0.10252549955E+04  0.25500000920E-02 0.  1.
    10030    2    1    2    0    0  0.00000000000E+00  0.00000000000E+00 -0.39307782703E+03  0.16574321639E+04  0.16101463287E+04 0.  0.
        1    1    3    3  502    0 -0.29979146563E+03 -0.32421387901E+03 -0.88947465063E+03  0.99305322936E+03  0.50400001928E-02 0.  1.
       -1    1    3    3    0  502  0.29979146563E+03  0.32421387901E+03  0.49639682360E+03  0.66437893458E+03  0.50400001928E-02 0. -1.
</event>
<event>
 5   0  0.1764099E-04  0.1600905E+04  0.7818609E-02  0.8819992E-01
        1   -1    0    0  501    0  0.00000000000E+00  0.00000000000E+00  0.13561028302E+04  0.13561028302E+04  0.50400001928E-02 0. -1.
       -1   -1    0    0    0  501  0.00000000000E+00  0.00000000000E+00 -0.47247445943E+03  0.47247445946E+03  0.50400001928E-02 0.  1.
    10030    2    1    2    0    0  0.00000000000E+00  0.00000000000E+00  0.88362837080E+03  0.18285772897E+04  0.16009046838E+04 0.  0.
        5    1    3    3  502    0 -0.55365862466E+03 -0.18388262808E+03 -0.18416877132E+03  0.61179320027E+03  0.46999998093E+01 0.  1.
       -5    1    3    3    0  502  0.55365862466E+03  0.18388262808E+03  0.10677971421E+04  0.12167840894E+04  0.46999998093E+01 0. -1.
</event>
<event>
 5   0  0.1736537E-04  0.1596345E+04  0.7818609E-02  0.8822796E-01
        1   -1    0    0  501    0  0.00000000000E+00  0.00000000000E+00  0.48220390805E+03  0.48220390808E+03  0.50400001928E-02 0. -1.
       -1   -1    0    0    0  501  0.00000000000E+00  0.00000000000E+00 -0.13211826203E+04  0.13211826203E+04  0.50400001928E-02 0.  1.
    10030    2    1    2    0    0  0.00000000000E+00  0.00000000000E+00 -0.83897871224E+03  0.18033865284E+04  0.15963451040E+04 0.  0.
        3    1    3    3  502    0 -0.24959861290E+03  0.69613088619E+02  0.43336388718E+03  0.50492545844E+03  0.10100000352E+00 0. -1.
       -3    1    3    3    0  502  0.24959861290E+03 -0.69613088619E+02 -0.12723425994E+04  0.12984610699E+04  0.10100000352E+00 0.  1.
</event>
<event>
 5   0  0.1787688E-04  0.1602098E+04  0.7818609E-02  0.8819260E-01
       -1   -1    0    0    0  501  0.00000000000E+00  0.00000000000E+00  0.12594011380E+04  0.12594011380E+04  0.50400001928E-02 0. -1.
        1   -1    0    0  501    0  0.00000000000E+00  0.00000000000E+00 -0.50951181381E+03  0.50951181383E+03  0.50400001928E-02 0.  1.
    10030    2    1    2    0    0  0.00000000000E+00  0.00000000000E+00  0.74988932421E+03  0.17689129519E+04  0.16020983218E+04 0.  0.
        4    1    3    3  502    0 -0.19024449382E+03 -0.78636365942E+02 -0.47980704847E+03  0.52210445520E+03  0.12699999809E+01 0.  1.
       -4    1    3    3    0  502  0.19024449382E+03  0.78636365942E+02  0.12296963727E+04  0.12468084967E+04  0.12699999809E+01 0. -1.
</event>
<event>
 5   0  0.3380454E-04  0.1593176E+04  0.7818609E-02  0.8824752E-01
        2   -1    0    0  501    0  0.00000000000E+00  0.00000000000E+00  0.18051674999E+04  0.18051674999E+04  0.25500000920E-02 0.  1.
       -2   -1    0    0    0  501  0.00000000000E+00  0.00000000000E+00 -0.35151977603E+03  0.35151977604E+03  0.25500000920E-02 0. -1.
    10030    2    1    2    0    0  0.00000000000E+00  0.00000000000E+00  0.14536477239E+04  0.21566872759E+04  0.15931755399E+04 0.  0.
        5    1    3    3  502    0 -0.72431898165E+03  0.98489821361E+02  0.29833500333E+03  0.78953410078E+03  0.46999998093E+01 0. -1.
       -5    1    3    3    0  502  0.72431898165E+03 -0.98489821361E+02  0.11553127205E+04  0.13671531752E+04  0.46999998093E+01 0.  1.
</event>
<event>
 5   0  0.3228393E-04  0.1593966E+04  0.7818609E-02  0.8824264E-01
        2   -1    0    0  501    0  0.00000000000E+00  0.00000000000E+00  0.12888630167E+04  0.12888630167E+04  0.25500000920E-02 0. -1.
       -2   -1    0    0    0  501  0.00000000000E+00  0.00000000000E+00 -0.49282315802E+03  0.49282315803E+03  0.25500000920E-02 0.  1.
    10030    2    1    2    0    0  0.00000000000E+00  0.00000000000E+00  0.79603985872E+03  0.17816861748E+04  0.15939655481E+04 0.  0.
        1    1    3    3  502    0  0.67379736876E+02  0.68990885304E+03  0.83761368480E+03  0.10872492536E+04  0.50400001928E-02 0. -1.
       -1    1    3    3    0  502 -0.67379736876E+02 -0.68990885304E+03 -0.41573826079E+02  0.69443692117E+03  0.50400001928E-02 0.  1.
</event>
<event>
 5   0  0.1761255E-04  0.1595255E+04  0.7818609E-02  0.8823468E-01
       -1   -1    0    0    0  501  0.00000000000E+00  0.00000000000E+00  0.55618120473E+03  0.55618120475E+03  0.50400001928E-02 0.  1.
        1   -1    0    0  501    0  0.00000000000E+00  0.00000000000E+00 -0.11438890932E+04  0.11438890932E+04  0.50400001928E-02 0. -1.
    10030    2    1    2    0    0  0.00000000000E+00  0.00000000000E+00 -0.58770788849E+03  0.17000702980E+04  0.15952549815E+04 0.  0.
        2    1    3    3  502    0 -0.17393094446E+03  0.63027682958E+03  0.19300943356E+03  0.68172831597E+03  0.25500000920E-02 0.  1.
       -2    1    3    3    0  502  0.17393094446E+03 -0.63027682958E+03 -0.78071732205E+03  0.10183419820E+04  0.25500000920E-02 0. -1.
</event>
<event>
 5   0  0.1764099E-04  0.1420810E+04  0.7818609E-02  0.8938892E-01
       -1   -1    0    0    0  501  0.00000000000E+00  0.00000000000E+00  0.73115399393E+03  0.73115399395E+03  0.50400001928E-02 0. -1.
        1   -1    0    0  501    0  0.00000000000E+00  0.00000000000E+00 -0.69024468934E+03  0.69024468936E+03  0.50400001928E-02 0.  1.
    10030    2    1    2    0    0  0.00000000000E+00  0.00000000000E+00  0.40909304595E+02  0.14213986833E+04  0.14208098556E+04 0.  0.
        5    1    3    3  502    0  0.13053090554E+03  0.17216647255E+01 -0.67812679370E+03  0.69059345476E+03  0.46999998093E+01 0.  1.
       -5    1    3    3    0  502 -0.13053090554E+03 -0.17216647255E+01  0.71903609829E+03  0.73080522855E+03  0.46999998093E+01 0. -1.
</event>
<event>
 5   0  0.3274900E-04  0.1687839E+04  0.7818609E-02  0.8768330E-01
       -2   -1    0    0    0  501  0.00000000000E+00  0.00000000000E+00  0.80827851667E+03  0.80827851667E+03  0.25500000920E-02 0. -1.
        2   -1    0    0  501    0  0.00000000000E+00  0.00000000000E+00 -0.88113256055E+03  0.88113256055E+03  0.25500000920E-02 0.  1.
    10030    2    1    2    0    0  0.00000000000E+00  0.00000000000E+00 -0.72854043880E+02  0.16894110772E+04  0.16878394699E+04 0.  0.
        3    1    3    3  502    0  0.30837325092E+02 -0.80407388003E+03 -0.29105486057E+03  0.85568609153E+03  0.10100000352E+00 0.  1.
       -3    1    3    3    0  502 -0.30837325092E+02  0.80407388003E+03  0.21820081669E+03  0.83372498570E+03  0.10100000352E+00 0. -1.
</event>
<event>
 5   0  0.3228393E-04  0.1567201E+04  0.7818609E-02  0.8840955E-01
        2   -1    0    0  501    0  0.00000000000E+00  0.00000000000E+00  0.11110053886E+04  0.11110053886E+04  0.25500000920E-02 0.  1.
       -2   -1    0    0    0  501  0.00000000000E+00  0.00000000000E+00 -0.55267955269E+03  0.55267955270E+03  0.25500000920E-02 0. -1.
    10030    2    1    2    0    0  0.00000000000E+00  0.00000000000E+00  0.55832583595E+03  0.16636849413E+04  0.15672012777E+04 0.  0.
        1    1    3    3  502    0 -0.15628427564E+03  0.31556324343E+03  0.10222769100E+04  0.10812284755E+04  0.50400001928E-02 0.  1.
       -1    1    3    3    0  502  0.15628427564E+03 -0.31556324343E+03 -0.46395107409E+03  0.58245646583E+03  0.50400001928E-02 0. -1.
</event>
<event>
 5   0  0.1219463E-04  0.1586764E+04  0.7818609E-02  0.8828721E-01
       -3   -1    0    0    0  501  0.00000000000E+00  0.00000000000E+00  0.71101197069E+03  0.71101197786E+03  0.10100000352E+00 0. -1.
        3   -1    0    0  501    0  0.00000000000E+00  0.00000000000E+00 -0.88529470978E+03  0.88529471555E+03  0.10100000352E+00 0.  1.
    10030    2    1    2    0    0  0.00000000000E+00  0.00000000000E+00 -0.17428273910E+03  0.15963066934E+04  0.15867641874E+04 0.  0.
        4    1    3    3  502    0  0.56140053650E+03 -0.16851714459E+02 -0.65086737630E+03  0.85970023676E+03  0.12699999809E+01 0.  1.
       -4    1    3    3    0  502 -0.56140053650E+03  0.16851714459E+02  0.47658463720E+03  0.73660645665E+03  0.12699999809E+01 0. -1.
</event>
<event>
 5   0  0.1761255E-04  0.1615439E+04  0.7818609E-02  0.8811119E-01
        1   -1    0    0  501    0  0.00000000000E+00  0.00000000000E+00  0.60507825240E+03  0.60507825242E+03  0.50400001928E-02 0.  1.
       -1   -1    0    0    0  501  0.00000000000E+00  0.00000000000E+00 -0.10782255840E+04  0.10782255840E+04  0.50400001928E-02 0. -1.
    10030    2    1    2    0    0  0.00000000000E+00  0.00000000000E+00 -0.47314733156E+03  0.16833038364E+04  0.16154390760E+04 0.  0.
        2    1    3    3  502    0 -0.21147420918E+03  0.88025961454E+02 -0.10436714952E+04  0.10685130327E+04  0.25500000920E-02 0. -1.
       -2    1    3    3    0  502  0.21147420918E+03 -0.88025961454E+02  0.57052416366E+03  0.61479080374E+03  0.25500000920E-02 0.  1.
</event>
<event>
 5   0  0.1764099E-04  0.1604620E+04  0.7818609E-02  0.8817715E-01
       -1   -1    0    0    0  501  0.00000000000E+00  0.00000000000E+00  0.59105366684E+03  0.59105366686E+03  0.50400001928E-02 0.  1.
        1   -1    0    0  501    0  0.00000000000E+00  0.00000000000E+00 -0.10890740803E+04  0.10890740803E+04  0.50400001928E-02 0. -1.
    10030    2    1    2    0    0  0.00000000000E+00  0.00000000000E+00 -0.49802041349E+03  0.16801277472E+04  0.16046198661E+04 0.  0.
        5    1    3    3  502    0 -0.57222165538E+03  0.56234313684E+03 -0.24542685005E+03  0.83900170153E+03  0.46999998093E+01 0. -1.
       -5    1    3    3    0  502  0.57222165538E+03 -0.56234313684E+03 -0.25259356344E+03  0.84112604569E+03  0.46999998093E+01 0.  1.
</event>
<event>
 5   0  0.1761255E-04  0.1599195E+04  0.7818609E-02  0.8821042E-01
        1   -1    0    0  501    0  0.00000000000E+00  0.00000000000E+00  0.14372147920E+04  0.14372147920E+04  0.50400001928E-02 0.  1.
       -1   -1    0    0    0  501  0.00000000000E+00  0.00000000000E+00 -0.44485798716E+03  0.44485798718E+03  0.50400001928E-02 0. -1.
    10030    2    1    2    0    0  0.00000000000E+00  0.00000000000E+00  0.99235680487E+03  0.18820727792E+04  0.15991953971E+04 0.  0.
        2    1    3    3  502    0  0.70176239603E+03  0.27405473924E+03  0.81148761984E+03  0.11072888592E+04  0.25500000920E-02 0. -1.
       -2    1    3    3    0  502 -0.70176239603E+03 -0.27405473924E+03  0.18086918503E+03  0.77478392000E+03  0.25500000920E-02 0.  1.
</event>
<event>
 5   0  0.1764099E-04  0.1603080E+04  0.7818609E-02  0.8818658E-01
       -1   -1    0    0    0  501  0.00000000000E+00  0.00000000000E+00  0.37866301361E+03  0.37866301365E+03  0.50400001928E-02 0.  1.
        1   -1    0    0  501    0  0.00000000000E+00  0.00000000000E+00 -0.16966709715E+04  0.16966709715E+04  0.50400001928E-02 0. -1.
    10030    2    1    2    0    0  0.00000000000E+00  0.00000000000E+00 -0.13180079579E+04  0.20753339852E+04  0.16030802141E+04 0.  0.
        5    1    3    3  502    0 -0.91769521557E+02 -0.20715705091E+03 -0.16543324875E+04  0.16697825482E+04  0.46999998093E+01 0. -1.
       -5    1    3    3    0  502  0.91769521557E+02  0.20715705091E+03  0.33632452963E+03  0.40555143701E+03  0.46999998093E+01 0.  1.
</event>
<event>
 5   0  0.1761255E-04  0.1605878E+04  0.7818609E-02  0.8816945E-01
       -1   -1    0    0    0  501  0.00000000000E+00  0.00000000000E+00  0.11950542180E+04  0.11950542180E+04  0.50400001928E-02 0. -1.
        1   -1    0    0  501    0  0.00000000000E+00  0.00000000000E+00 -0.53948235026E+03  0.53948235028E+03  0.50400001928E-02 0.  1.
    10030    2    1    2    0    0  0.00000000000E+00  0.00000000000E+00  0.65557186778E+03  0.17345365683E+04  0.16058775274E+04 0.  0.
        2    1    3    3  502    0 -0.27813285637E+03 -0.63403495935E+03 -0.11142824045E+03  0.70126633189E+03  0.25500000920E-02 0.  1.
       -2    1    3    3    0  502  0.27813285637E+03  0.63403495935E+03  0.76700010823E+03  0.10332702364E+04  0.25500000920E-02 0. -1.
</event>
<event>
 5   0  0.3274900E-04  0.1614571E+04  0.7818609E-02  0.8811646E-01
        2   -1    0    0  501    0  0.00000000000E+00  0.00000000000E+00  0.11942345938E+04  0.11942345938E+04  0.25500000920E-02 0. -1.
       -2   -1    0    0    0  501  0.00000000000E+00  0.00000000000E+00 -0.54571347311E+03  0.54571347312E+03  0.25500000920E-02 0.  1.
    10030    2    1    2    0    0  0.00000000000E+00  0.00000000000E+00  0.64852112066E+03  0.17399480669E+04  0.16145710364E+04 0.  0.
        3    1    3    3  502    0 -0.32408730285E+03 -0.36668519184E+03 -0.36763936348E+03  0.61208604098E+03  0.10100000352E+00 0.  1.
       -3    1    3    3    0  502  0.32408730285E+03  0.36668519184E+03  0.10161604841E+04  0.11278620259E+04  0.10100000352E+00 0. -1.
</event>
<event>
 5   0  0.3210612E-04  0.1601043E+04  0.7818609E-02  0.8819907E-01
       -2   -1    0    0    0  501  0.00000000000E+00  0.00000000000E+00  0.68681730612E+03  0.68681730612E+03  0.25500000920E-02 0. -1.
        2   -1    0    0  501    0  0.00000000000E+00  0.00000000000E+00 -0.93305009794E+03  0.93305009794E+03  0.25500000920E-02 0.  1.
    10030    2    1    2    0    0  0.00000000000E+00  0.00000000000E+00 -0.24623279182E+03  0.16198674041E+04  0.16010433533E+04 0.  0.
        2    1    3    3  502    0  0.32719977703E+03 -0.70096791496E+03 -0.33149725810E+03  0.84160925852E+03  0.25500000920E-02 0. -1.
       -2    1    3    3    0  502 -0.32719977703E+03  0.70096791496E+03  0.85264466281E+02  0.77825814555E+03  0.25500000920E-02 0.  1.
</event>
<event>
 5   0  0.3228393E-04  0.1580626E+04  0.7818609E-02  0.8832539E-01
        2   -1    0    0  501    0  0.00000000000E+00  0.00000000000E+00  0.11964838855E+04  0.11964838855E+04  0.25500000920E-02 0. -1.
       -2   -1    0    0    0  501  0.00000000000E+00  0.00000000000E+00 -0.52202531008E+03  0.52202531009E+03  0.25500000920E-02 0.  1.
    10030    2    1    2    0    0  0.00000000000E+00  0.00000000000E+00  0.67445857542E+03  0.17185091956E+04  0.15806262953E+04 0.  0.
        1    1    3    3  502    0 -0.73298264847E+03  0.60987214245E+02  0.65161052660E+03  0.98263893759E+03  0.50400001928E-02 0. -1.
       -1    1    3    3    0  502  0.73298264847E+03 -0.60987214245E+02  0.22848048817E+02  0.73587025800E+03  0.50400001928E-02 0.  1.
</event>
<event>
 5   0  0.1761255E-04  0.1597078E+04  0.7818609E-02  0.8822345E-01
       -1   -1    0    0    0  501  0.00000000000E+00  0.00000000000E+00  0.62897805719E+03  0.62897805721E+03  0.50400001928E-02 0. -1.
        1   -1    0    0  501    0  0.00000000000E+00  0.00000000000E+00 -0.10138108473E+04  0.10138108473E+04  0.50400001928E-02 0.  1.
    10030    2    1    2    0    0  0.00000000000E+00  0.00000000000E+00 -0.38483279011E+03  0.16427889045E+04  0.15970783038E+04 0.  0.
        2    1    3    3  502    0 -0.40150913963E+03 -0.53304168747E+03  0.25868040789E+03  0.71572242051E+03  0.25500000920E-02 0. -1.
       -2    1    3    3    0  502  0.40150913963E+03  0.53304168747E+03 -0.64351319800E+03  0.92706648402E+03  0.25500000920E-02 0.  1.
</event>
<event>
 5   0  0.3263294E-04  0.1617840E+04  0.7818609E-02  0.8809663E-01
       -2   -1    0    0    0  501  0.00000000000E+00  0.00000000000E+00  0.59087277822E+03  0.59087277823E+03  0.25500000920E-02 0. -1.
        2   -1    0    0  501    0  0.00000000000E+00  0.00000000000E+00 -0.11074323624E+04  0.11074323624E+04  0.25500000920E-02 0.  1.
    10030    2    1    2    0    0  0.00000000000E+00  0.00000000000E+00 -0.51655958414E+03  0.16983051406E+04  0.16178400868E+04 0.  0.
        4    1    3    3  502    0  0.51424185735E+03 -0.62437109901E+03 -0.24974739344E+03  0.84655734039E+03  0.12699999809E+01 0.  1.
       -4    1    3    3    0  502 -0.51424185735E+03  0.62437109901E+03 -0.26681219069E+03  0.85174780020E+03  0.12699999809E+01 0. -1.
</event>
<event>
 5   0  0.1819811E-04  0.1611766E+04  0.7818609E-02  0.8813352E-01
       -1   -1    0    0    0  501  0.00000000000E+00  0.00000000000E+00  0.56625797384E+03  0.56625797387E+03  0.50400001928E-02 0.  1.
        1   -1    0    0  501    0  0.00000000000E+00  0.00000000000E+00 -0.11469115098E+04  0.11469115098E+04  0.50400001928E-02 0. -1.
    10030    2    1    2    0    0  0.00000000000E+00  0.00000000000E+00 -0.58065353592E+03  0.17131694836E+04  0.16117664691E+04 0.  0.
        1    1    3    3  502    0  0.25171691471E+03 -0.86298210302E+02 -0.10988678001E+04  0.11306278028E+04  0.50400001928E-02 0. -1.
       -1    1    3    3    0  502 -0.25171691471E+03  0.86298210302E+02  0.51821426422E+03  0.58254168084E+03  0.50400001928E-02 0.  1.
</event>
<event>
 5   0  0.1787688E-04  0.1586908E+04  0.7818609E-02  0.8828632E-01
       -1   -1    0    0    0  501  0.00000000000E+00  0.00000000000E+00  0.64536125673E+03  0.64536125675E+03  0.50400001928E-02 0. -1.
        1   -1    0    0  501    0  0.00000000000E+00  0.00000000000E+00 -0.97552949368E+03  0.97552949369E+03  0.50400001928E-02 0.  1.
    10030    2    1    2    0    0  0.00000000000E+00  0.00000000000E+00 -0.33016823695E+03  0.16208907504E+04  0.15869076092E+04 0.  0.
        4    1    3    3  502    0 -0.22740907562E+03 -0.42386138133E+03  0.47945523679E+03  0.67915557514E+03  0.12699999809E+01 0. -1.
       -4    1    3    3    0  502  0.22740907562E+03  0.42386138133E+03 -0.80962347374E+03  0.94173517530E+03  0.12699999809E+01 0.  1.
</event>
<event>
 5   0  0.3274900E-04  0.1609107E+04  0.7818609E-02  0.8814973E-01
        2   -1    0    0  501    0  0.00000000000E+00  0.00000000000E+00  0.18999266009E+04  0.18999266009E+04  0.25500000920E-02 0. -1.
       -2   -1    0    0    0  501  0.00000000000E+00  0.00000000000E+00 -0.34070056571E+03  0.34070056572E+03  0.25500000920E-02 0.  1.
    10030    2    1    2    0    0  0.00000000000E+00  0.00000000000E+00  0.15592260352E+04  0.22406271667E+04  0.16091066686E+04 0.  0.
        3    1    3    3  502    0 -0.22792828550E+03 -0.59045388043E+03  0.14712624640E+04  0.16016242807E+04  0.10100000352E+00 0. -1.
       -3    1    3    3    0  502  0.22792828550E+03  0.59045388043E+03  0.87963571217E+02  0.63900288599E+03  0.10100000352E+00 0.  1.
</event>
<event>
 5   0  0.1764099E-04  0.1407841E+04  0.7818609E-02  0.8948162E-01
       -1   -1    0    0    0  501  0.00000000000E+00  0.00000000000E+00  0.41258967828E+03  0.41258967831E+03  0.50400001928E-02 0.  1.
        1   -1    0    0  501    0  0.00000000000E+00  0.00000000000E+00 -0.12009613049E+04  0.12009613049E+04  0.50400001928E-02 0. -1.
    10030    2    1    2    0    0  0.00000000000E+00  0.00000000000E+00 -0.78837162658E+03  0.16135509832E+04  0.14078412388E+04 0.  0.
        5    1    3    3  502    0  0.50769192648E+03  0.46529137707E+02 -0.95045550954E+03  0.10785656301E+04  0.46999998093E+01 0. -1.
       -5    1    3    3    0  502 -0.50769192648E+03 -0.46529137707E+02  0.16208388296E+03  0.53498535306E+03  0.46999998093E+01 0.  1.
</event>
<event>
 5   0  0.3274900E-04  0.1596929E+04  0.7818609E-02  0.8822437E-01
        2   -1    0    0  501    0  0.00000000000E+00  0.00000000000E+00  0.65540331655E+03  0.65540331655E+03  0.25500000920E-02 0. -1.
       -2   -1    0    0    0  501  0.00000000000E+00  0.00000000000E+00 -0.97275277861E+03  0.97275277861E+03  0.25500000920E-02 0.  1.
    10030    2    1    2    0    0  0.00000000000E+00  0.00000000000E+00 -0.31734946206E+03  0.16281560952E+04  0.15969287990E+04 0.  0.
        3    1    3    3  502    0 -0.21255930099E+03  0.74604361142E+03 -0.35153732961E+03  0.85166955499E+03  0.10100000352E+00 0.  1.
       -3    1    3    3    0  502  0.21255930099E+03 -0.74604361142E+03  0.34187867548E+02  0.77648654017E+03  0.10100000352E+00 0. -1.
</event>
<event>
 5   0  0.1787688E-04  0.1596033E+04  0.7818609E-02  0.8822989E-01
       -1   -1    0    0    0  501  0.00000000000E+00  0.00000000000E+00  0.73411422765E+03  0.73411422767E+03  0.50400001928E-02 0. -1.
        1   -1    0    0  501    0  0.00000000000E+00  0.00000000000E+00 -0.86748161079E+03  0.86748161080E+03  0.50400001928E-02 0.  1.
    10030    2    1    2    0    0  0.00000000000E+00  0.00000000000E+00 -0.13336738314E+03  0.16015958385E+04  0.15960333239E+04 0.  0.
        4    1    3    3  502    0  0.46024653744E+03 -0.37829095017E+03 -0.59947486530E+03  0.84516427115E+03  0.12699999809E+01 0.  1.
       -4    1    3    3    0  502 -0.46024653744E+03  0.37829095017E+03  0.46610748216E+03  0.75643156732E+03  0.12699999809E+01 0. -1.
</event>
<event>
 5   0  0.1764099E-04  0.1473462E+04  0.7818609E-02  0.8902295E-01
        1   -1    0    0  501    0  0.00000000000E+00  0.00000000000E+00  0.47022912149E+03  0.47022912152E+03  0.50400001928E-02 0. -1.
       -1   -1    0    0    0  501  0.00000000000E+00  0.00000000000E+00 -0.11542721562E+04  0.11542721562E+04  0.50400001928E-02 0.  1.
    10030    2    1    2    0    0  0.00000000000E+00  0.00000000000E+00 -0.68404303470E+03  0.16245012777E+04  0.14734617498E+04 0.  0.
        5    1    3    3  502    0  0.39319749976E+03 -0.22317265604E+03 -0.98331651616E+03  0.10822863619E+04  0.46999998093E+01 0.  1.
       -5    1    3    3    0  502 -0.39319749976E+03  0.22317265604E+03  0.29927348146E+03  0.54221491581E+03  0.46999998093E+01 0. -1.
</event>
<event>
 5   0  0.3380454E-04  0.1579462E+04  0.7818609E-02  0.8833266E-01
       -2   -1    0    0    0  501  0.00000000000E+00  0.00000000000E+00  0.41520136507E+03  0.41520136507E+03  0.25500000920E-02 0. -1.
        2   -1    0    0  501    0  0.00000000000E+00  0.00000000000E+00 -0.15021016858E+04  0.15021016858E+04  0.25500000920E-02 0.  1.
    10030    2    1    2    0    0  0.00000000000E+00  0.00000000000E+00 -0.10869003207E+04  0.19173030509E+04  0.15794615164E+04 0.  0.
        5    1    3    3  502    0  0.61004401106E+03  0.35684356801E+02 -0.11506721738E+04  0.13028797375E+04  0.46999998093E+01 0.  1.
       -5    1    3    3    0  502 -0.61004401106E+03 -0.35684356801E+02  0.63771853116E+02  0.61442331336E+03  0.46999998093E+01 0. -1.
</event>
<event>
 5   0  0.1819811E-04  0.1605479E+04  0.7818609E-02  0.8817189E-01
        1   -1    0    0  501    0  0.00000000000E+00  0.00000000000E+00  0.17066041668E+04  0.17066041668E+04  0.50400001928E-02 0. -1.
       -1   -1    0    0    0  501  0.00000000000E+00  0.00000000000E+00 -0.37758631644E+03  0.37758631647E+03  0.50400001928E-02 0.  1.
    10030    2    1    2    0    0  0.00000000000E+00  0.00000000000E+00  0.13290178504E+04  0.20841904833E+04  0.16054785966E+04 0.  0.
        1    1    3    3  502    0 -0.20729347518E+03 -0.11215032697E+02 -0.34213605091E+03  0.40019175300E+03  0.50400001928E-02 0.  1.
       -1    1    3    3    0  502  0.20729347518E+03  0.11215032697E+02  0.16711539013E+04  0.16839987303E+04  0.50400001928E-02 0. -1.
</event>
<event>
 5   0  0.3380454E-04  0.1603037E+04  0.7818609E-02  0.8818685E-01
       -2   -1    0    0    0  501  0.00000000000E+00  0.00000000000E+00  0.70277847524E+03  0.70277847524E+03  0.25500000920E-02 0.  1.
        2   -1    0    0  501    0  0.00000000000E+00  0.00000000000E+00 -0.91413102811E+03  0.91413102811E+03  0.25500000920E-02 0. -1.
    10030    2    1    2    0    0  0.00000000000E+00  0.00000000000E+00 -0.21135255287E+03  0.16169095034E+04  0.16030366310E+04 0.  0.
        5    1    3    3  502    0 -0.53464988377E+03  0.59702438700E+03 -0.11676703406E+03  0.80990446790E+03  0.46999998093E+01 0.  1.
       -5    1    3    3    0  502  0.53464988377E+03 -0.59702438700E+03 -0.94585518813E+02  0.80700503546E+03  0.46999998093E+01 0. -1.
</event>
<event>
 5   0  0.1761255E-04  0.1598962E+04  0.7818609E-02  0.8821186E-01
       -1   -1    0    0    0  501  0.00000000000E+00  0.00000000000E+00  0.86690697455E+03  0.86690697456E+03  0.50400001928E-02 0.  1.
        1   -1    0    0  501    0  0.00000000000E+00  0.00000000000E+00 -0.73729924762E+03  0.73729924764E+03  0.50400001928E-02 0. -1.
    10030    2    1    2    0    0  0.00000000000E+00  0.00000000000E+00  0.12960772693E+03  0.16042062222E+04  0.15989619884E+04 0.  0.
        2    1    3    3  502    0  0.74410790590E+03 -0.22122335548E+03 -0.12696043921E+03  0.78661000614E+03  0.25500000920E-02 0. -1.
       -2    1    3    3    0  502 -0.74410790590E+03  0.22122335548E+03  0.25656816614E+03  0.81759621606E+03  0.25500000920E-02 0.  1.
</event>
<event>
 5   0  0.1736537E-04  0.1605437E+04  0.7818609E-02  0.8817215E-01
       -1   -1    0    0    0  501  0.00000000000E+00  0.00000000000E+00  0.30999639924E+03  0.30999639928E+03  0.50400001928E-02 0.  1.
        1   -1    0    0  501    0  0.00000000000E+00  0.00000000000E+00 -0.20785942164E+04  0.20785942164E+04  0.50400001928E-02 0. -1.
    10030    2    1    2    0    0  0.00000000000E+00  0.00000000000E+00 -0.17685978171E+04  0.23885906156E+04  0.16054366666E+04 0.  0.
        3    1    3    3  502    0 -0.59952581240E+03  0.52408227614E+03 -0.73357170448E+03  0.10826915016E+04  0.10100000352E+00 0.  1.
       -3    1    3    3    0  502  0.59952581240E+03 -0.52408227614E+03 -0.10350261126E+04  0.13058991140E+04  0.10100000352E+00 0. -1.
</event>
<event>
 5   0  0.1764099E-04  0.1595140E+04  0.7818609E-02  0.8823539E-01
        1   -1    0    0  501    0  0.00000000000E+00  0.00000000000E+00  0.19418694170E+04  0.19418694170E+04  0.50400001928E-02 0. -1.
       -1   -1    0    0    0  501  0.00000000000E+00  0.00000000000E+00 -0.32758010340E+03  0.32758010344E+03  0.50400001928E-02 0.  1.
    10030    2    1    2    0    0  0.00000000000E+00  0.00000000000E+00  0.16142893136E+04  0.22694495205E+04  0.15951398490E+04 0.  0.
        5    1    3    3  502    0 -0.55729243328E+03 -0.55616714424E+03  0.62606688541E+03  0.10059217582E+04  0.46999998093E+01 0.  1.
       -5    1    3    3    0  502  0.55729243328E+03  0.55616714424E+03  0.98822242823E+03  0.12635277623E+04  0.46999998093E+01 0. -1.
</event>
<event>
 5   0  0.3210612E-04  0.1619393E+04  0.7818609E-02  0.8808722E-01
       -2   -1    0    0    0  501  0.00000000000E+00  0.00000000000E+00  0.12855735481E+04  0.12855735481E+04  0.25500000920E-02 0. -1.
        2   -1    0    0  501    0  0.00000000000E+00  0.00000000000E+00 -0.50997369873E+03  0.50997369873E+03  0.25500000920E-02 0.  1.
    10030    2    1    2    0    0  0.00000000000E+00  0.00000000000E+00  0.77559984935E+03  0.17955472468E+04  0.16193933399E+04 0.  0.
        2    1    3    3  502    0  0.10677335110E+03  0.74517488806E+03  0.71843612854E+03  0.10405943653E+04  0.25500000920E-02 0.  1.
       -2    1    3    3    0  502 -0.10677335110E+03 -0.74517488806E+03  0.57163720807E+02  0.75495288150E+03  0.25500000920E-02 0. -1.
</event>
<event>
 5   0  0.3228393E-04  0.1597975E+04  0.7818609E-02  0.8821793E-01
       -2   -1    0    0    0  501  0.00000000000E+00  0.00000000000E+00  0.46655429832E+03  0.46655429833E+03  0.25500000920E-02 0.  1.
        2   -1    0    0  501    0  0.00000000000E+00  0.00000000000E+00 -0.13682881318E+04  0.13682881318E+04  0.25500000920E-02 0. -1.
    10030    2    1    2    0    0  0.00000000000E+00  0.00000000000E+00 -0.90173383352E+03  0.18348424302E+04  0.15979746046E+04 0.  0.
        1    1    3    3  502    0 -0.55257107255E+03  0.38661629006E+03  0.41098083445E+02  0.67564487598E+03  0.50400001928E-02 0.  1.
       -1    1    3    3    0  502  0.55257107255E+03 -0.38661629006E+03 -0.94283191696E+03  0.11591975542E+04  0.50400001928E-02 0. -1.
</event>
<event>
 5   0  0.1819811E-04  0.1591068E+04  0.7818609E-02  0.8826054E-01
        1   -1    0    0  501    0  0.00000000000E+00  0.00000000000E+00  0.10071223568E+04  0.10071223568E+04  0.50400001928E-02 0. -1.
       -1   -1    0    0    0  501  0.00000000000E+00  0.00000000000E+00 -0.62839834568E+03  0.62839834570E+03  0.50400001928E-02 0.  1.
    10030    2    1    2    0    0  0.00000000000E+00  0.00000000000E+00  0.37872401115E+03  0.16355207025E+04  0.15910675950E+04 0.  0.
        1    1    3    3  502    0 -0.36155153106E+03 -0.51126859306E+02 -0.53716672363E+03  0.64952409837E+03  0.50400001928E-02 0.  1.
       -1    1    3    3    0  502  0.36155153106E+03  0.51126859306E+02  0.91589073479E+03  0.98599660418E+03  0.50400001928E-02 0. -1.
</event>
<event>
 5   0  0.1736537E-04  0.1595935E+04  0.7818609E-02  0.8823049E-01
       -1   -1    0    0    0  501  0.00000000000E+00  0.00000000000E+00  0.10511222202E+04  0.10511222202E+04  0.50400001928E-02 0.  1.
        1   -1    0    0  501    0  0.00000000000E+00  0.00000000000E+00 -0.60578340636E+03  0.60578340638E+03  0.50400001928E-02 0. -1.
    10030    2    1    2    0    0  0.00000000000E+00  0.00000000000E+00  0.44533881384E+03  0.16569056266E+04  0.15959353359E+04 0.  0.
        3    1    3    3  502    0 -0.27491029661E+02 -0.72622480618E+03 -0.11945631226E+03  0.73649714634E+03  0.10100000352E+00 0. -1.
       -3    1    3    3    0  502  0.27491029661E+02  0.72622480618E+03  0.56479512610E+03  0.92040848024E+03  0.10100000352E+00 0.  1.
</event>
<event>
 5   0  0.1736537E-04  0.1589014E+04  0.7818609E-02  0.8827326E-01
        1   -1    0    0  501    0  0.00000000000E+00  0.00000000000E+00  0.82690310957E+03  0.82690310958E+03  0.50400001928E-02 0.  1.
       -1   -1    0    0    0  501  0.00000000000E+00  0.00000000000E+00 -0.76337985942E+03  0.76337985944E+03  0.50400001928E-02 0. -1.
    10030    2    1    2    0    0  0.00000000000E+00  0.00000000000E+00  0.63523250144E+02  0.15902829690E+04  0.15890137565E+04 0.  0.
        3    1    3    3  502    0 -0.16281150248E+03 -0.43377128307E+03  0.67770419035E+03  0.82094341533E+03  0.10100000352E+00 0.  1.
       -3    1    3    3    0  502  0.16281150248E+03  0.43377128307E+03 -0.61418094021E+03  0.76933955369E+03  0.10100000352E+00 0. -1.
</event>
<event>
 5   0  0.1761255E-04  0.1592846E+04  0.7818609E-02  0.8824955E-01
        1   -1    0    0  501    0  0.00000000000E+00  0.00000000000E+00  0.13255878621E+04  0.13255878621E+04  0.50400001928E-02 0. -1.
       -1   -1    0    0    0  501  0.00000000000E+00  0.00000000000E+00 -0.47849692728E+03  0.47849692731E+03  0.50400001928E-02 0.  1.
    10030    2    1    2    0    0  0.00000000000E+00  0.00000000000E+00  0.84709093481E+03  0.18040847894E+04  0.15928461556E+04 0.  0.
        2    1    3    3  502    0  0.55937854877E+03 -0.18760997134E+03 -0.18236536149E+03  0.61754270075E+03  0.25500000920E-02 0.  1.
       -2    1    3    3    0  502 -0.55937854877E+03  0.18760997134E+03  0.10294562963E+04  0.11865420887E+04  0.25500000920E-02 0. -1.
</event>
<event>
 5   0  0.3228393E-04  0.1605657E+04  0.7818609E-02  0.8817080E-01
        2   -1    0    0  501    0  0.00000000000E+00  0.00000000000E+00  0.10944003037E+04  0.10944003037E+04  0.25500000920E-02 0.  1.
       -2   -1    0    0    0  501  0.00000000000E+00  0.00000000000E+00 -0.58893762312E+03  0.58893762313E+03  0.25500000920E-02 0. -1.
    10030    2    1    2    0    0  0.00000000000E+00  0.00000000000E+00  0.50546268056E+03  0.16833379268E+04  0.16056568919E+04 0.  0.
        1    1    3    3  502    0  0.57508154269E+03  0.41578129539E+03 -0.14085198581E+03  0.72348610787E+03  0.50400001928E-02 0. -1.
       -1    1    3    3    0  502 -0.57508154269E+03 -0.41578129539E+03  0.64631466637E+03  0.95985181895E+03  0.50400001928E-02 0.  1.
</event>
<event>
 5   0  0.3274900E-04  0.1632720E+04  0.7818609E-02  0.8800695E-01
       -2   -1    0    0    0  501  0.00000000000E+00  0.00000000000E+00  0.46033458625E+03  0.46033458626E+03  0.25500000920E-02 0. -1.
        2   -1    0    0  501    0  0.00000000000E+00  0.00000000000E+00 -0.14477381151E+04  0.14477381151E+04  0.25500000920E-02 0.  1.
    10030    2    1    2    0    0  0.00000000000E+00  0.00000000000E+00 -0.98740352889E+03  0.19080727014E+04  0.16327203389E+04 0.  0.
        3    1    3    3  502    0 -0.76317111789E+02 -0.81047950683E+03 -0.42220788477E+03  0.91703917076E+03  0.10100000352E+00 0. -1.
       -3    1    3    3    0  502  0.76317111789E+02  0.81047950683E+03 -0.56519564412E+03  0.99103353065E+03  0.10100000352E+00 0.  1.
</event>
<event>
 5   0  0.1736537E-04  0.1604739E+04  0.7818609E-02  0.8817642E-01
        1   -1    0    0  501    0  0.00000000000E+00  0.00000000000E+00  0.62448924341E+03  0.62448924343E+03  0.50400001928E-02 0. -1.
       -1   -1    0    0    0  501  0.00000000000E+00  0.00000000000E+00 -0.10309174528E+04  0.10309174529E+04  0.50400001928E-02 0.  1.
    10030    2    1    2    0    0  0.00000000000E+00  0.00000000000E+00 -0.40642820943E+03  0.16554066963E+04  0.16047390569E+04 0.  0.
        3    1    3    3  502    0 -0.61615246824E+03 -0.50273504678E+03 -0.31340655351E+03  0.85475731606E+03  0.10100000352E+00 0.  1.
       -3    1    3    3    0  502  0.61615246824E+03  0.50273504678E+03 -0.93021655922E+02  0.80064938022E+03  0.10100000352E+00 0. -1.
</event>
<event>
 5   0  0.3263294E-04  0.1661889E+04  0.7818609E-02  0.8783404E-01
        2   -1    0    0  501    0  0.00000000000E+00  0.00000000000E+00  0.53508521197E+03  0.53508521198E+03  0.25500000920E-02 0.  1.
       -2   -1    0    0    0  501  0.00000000000E+00  0.00000000000E+00 -0.12903907026E+04  0.12903907026E+04  0.25500000920E-02 0. -1.
    10030    2    1    2    0    0  0.00000000000E+00  0.00000000000E+00 -0.75530549059E+03  0.18254759145E+04  0.16618892654E+04 0.  0.
        4    1    3    3  502    0 -0.54029061500E+03 -0.59321314170E+03 -0.14040218449E+03  0.81457361021E+03  0.12699999809E+01 0.  1.
       -4    1    3    3    0  502  0.54029061500E+03  0.59321314170E+03 -0.61490330610E+03  0.10109023043E+04  0.12699999809E+01 0. -1.
</event>
<event>
 5   0  0.1736537E-04  0.1599862E+04  0.7818609E-02  0.8820633E-01
        1   -1    0    0  501    0  0.00000000000E+00  0.00000000000E+00  0.10967963086E+04  0.10967963086E+04  0.50400001928E-02 0.  1.
       -1   -1    0    0    0  501  0.00000000000E+00  0.00000000000E+00 -0.58341696085E+03  0.58341696088E+03  0.50400001928E-02 0. -1.
    10030    2    1    2    0    0  0.00000000000E+00  0.00000000000E+00  0.51337934772E+03  0.16802132695E+04  0.15998619554E+04 0.  0.
        3    1    3    3  502    0  0.52230880078E+03 -0.59218200725E+03  0.12218085270E+03  0.79900825030E+03  0.10100000352E+00 0. -1.
       -3    1    3    3    0  502 -0.52230880078E+03  0.59218200725E+03  0.39119849502E+03  0.88120501916E+03  0.10100000352E+00 0.  1.
</event>
<event>
 5   0  0.1736537E-04  0.1604628E+04  0.7818609E-02  0.8817710E-01
        1   -1    0    0  501    0  0.00000000000E+00  0.00000000000E+00  0.12523909083E+04  0.12523909083E+04  0.50400001928E-02 0.  1.
       -1   -1    0    0    0  501  0.00000000000E+00  0.00000000000E+00 -0.51398319586E+03  0.51398319589E+03  0.50400001928E-02 0. -1.
    10030    2    1    2    0    0  0.00000000000E+00  0.00000000000E+00  0.73840771245E+03  0.17663741042E+04  0.16046281582E+04 0.  0.
        3    1    3    3  502    0 -0.12563917376E+02 -0.41652059358E+03  0.11239227323E+04  0.11986866043E+04  0.10100000352E+00 0.  1.
       -3    1    3    3    0  502  0.12563917376E+02  0.41652059358E+03 -0.38551501982E+03  0.56768749996E+03  0.10100000352E+00 0. -1.
</event>
<event>
 5   0  0.3274900E-04  0.1582526E+04  0.7818609E-02  0.8831356E-01
       -2   -1    0    0    0  501  0.00000000000E+00  0.00000000000E+00  0.41037129801E+03  0.41037129801E+03  0.25500000920E-02 0. -1.
        2   -1    0    0  501    0  0.00000000000E+00  0.00000000000E+00 -0.15256840079E+04  0.15256840079E+04  0.25500000920E-02 0.  1.
    10030    2    1    2    0    0  0.00000000000E+00  0.00000000000E+00 -0.11153127099E+04  0.19360553059E+04  0.15825257365E+04 0.  0.
        3    1    3    3  502    0 -0.36269578532E+03 -0.67844218722E+03 -0.78411640580E+03  0.10984855858E+04  0.10100000352E+00 0.  1.
       -3    1    3    3    0  502  0.36269578532E+03  0.67844218722E+03 -0.33119630412E+03  0.83756972017E+03  0.10100000352E+00 0. -1.
</event>
<event>
 5   0  0.1787688E-04  0.1585979E+04  0.7818609E-02  0.8829208E-01
        1   -1    0    0  501    0  0.00000000000E+00  0.00000000000E+00  0.81719990078E+03  0.81719990079E+03  0.50400001928E-02 0. -1.
       -1   -1    0    0    0  501  0.00000000000E+00  0.00000000000E+00 -0.76949667707E+03  0.76949667709E+03  0.50400001928E-02 0.  1.
    10030    2    1    2    0    0  0.00000000000E+00  0.00000000000E+00  0.47703223707E+02  0.15866965779E+04  0.15859793292E+04 0.  0.
        4    1    3    3  502    0 -0.31661820750E+03  0.58690689618E+03 -0.40543940451E+03  0.78044187339E+03  0.12699999809E+01 0.  1.
       -4    1    3    3    0  502  0.31661820750E+03 -0.58690689618E+03  0.45314262822E+03  0.80625470449E+03  0.12699999809E+01 0. -1.
</event>
<event>
 5   0  0.1736537E-04  0.1612984E+04  0.7818609E-02  0.8812611E-01
        1   -1    0    0  501    0  0.00000000000E+00  0.00000000000E+00  0.12135491104E+04  0.12135491104E+04  0.50400001928E-02 0.  1.
       -1   -1    0    0    0  501  0.00000000000E+00  0.00000000000E+00 -0.53597299565E+03  0.53597299567E+03  0.50400001928E-02 0. -1.
    10030    2    1    2    0    0  0.00000000000E+00  0.00000000000E+00  0.67757611476E+03  0.17495221061E+04  0.16129842555E+04 0.  0.
        3    1    3    3  502    0 -0.46233394955E+03 -0.54199582954E+02 -0.37554981573E+03  0.59810362814E+03  0.10100000352E+00 0. -1.
       -3    1    3    3    0  502  0.46233394955E+03  0.54199582954E+02  0.10531259305E+04  0.11514184780E+04  0.10100000352E+00 0.  1.
</event>
<event>
 5   0  0.3210612E-04  0.1604566E+04  0.7818609E-02  0.8817748E-01
       -2   -1    0    0    0  501  0.00000000000E+00  0.00000000000E+00  0.33179841309E+03  0.33179841310E+03  0.25500000920E-02 0. -1.
        2   -1    0    0  501    0  0.00000000000E+00  0.00000000000E+00 -0.19399074162E+04  0.19399074162E+04  0.25500000920E-02 0.  1.
    10030    2    1    2    0    0  0.00000000000E+00  0.00000000000E+00 -0.16081090032E+04  0.22717058293E+04  0.16045662370E+04 0.  0.
        2    1    3    3  502    0 -0.57250981255E+03  0.40083142892E+03 -0.24625886508E+03  0.74099713125E+03  0.25500000920E-02 0. -1.
       -2    1    3    3    0  502  0.57250981255E+03 -0.40083142892E+03 -0.13618501381E+04  0.15307086981E+04  0.25500000920E-02 0.  1.
</event>
<event>
 5   0  0.1787688E-04  0.1598317E+04  0.7818609E-02  0.8821583E-01
        1   -1    0    0  501    0  0.00000000000E+00  0.00000000000E+00  0.47972405697E+03  0.47972405700E+03  0.50400001928E-02 0.  1.
       -1   -1    0    0    0  501  0.00000000000E+00  0.00000000000E+00 -0.13312952602E+04  0.13312952602E+04  0.50400001928E-02 0. -1.
    10030    2    1    2    0    0  0.00000000000E+00  0.00000000000E+00 -0.85157120318E+03  0.18110193172E+04  0.15983170690E+04 0.  0.
        4    1    3    3  502    0 -0.16329121258E+03 -0.42824841322E+03 -0.11675776763E+04  0.12543125474E+04  0.12699999809E+01 0. -1.
       -4    1    3    3    0  502  0.16329121258E+03  0.42824841322E+03  0.31600647311E+03  0.55670676974E+03  0.12699999809E+01 0.  1.
</event>
<event>
 5   0  0.3228393E-04  0.1605956E+04  0.7818609E-02  0.8816897E-01
        2   -1    0    0  501    0  0.00000000000E+00  0.00000000000E+00  0.11857312062E+04  0.11857312062E+04  0.25500000920E-02 0. -1.
       -2   -1    0    0    0  501  0.00000000000E+00  0.00000000000E+00 -0.54377758277E+03  0.54377758278E+03  0.25500000920E-02 0.  1.
    10030    2    1    2    0    0  0.00000000000E+00  0.00000000000E+00  0.64195362345E+03  0.17295087890E+04  0.16059564741E+04 0.  0.
        1    1    3    3  502    0  0.51585206009E+03  0.45124389822E+03  0.77155443587E+03  0.10319983775E+04  0.50400001928E-02 0. -1.
       -1    1    3    3    0  502 -0.51585206009E+03 -0.45124389822E+03 -0.12960081242E+03  0.69751041153E+03  0.50400001928E-02 0.  1.
</event>
<event>
 5   0  0.1761255E-04  0.1599315E+04  0.7818609E-02  0.8820969E-01
       -1   -1    0    0    0  501  0.00000000000E+00  0.00000000000E+00  0.70849453050E+03  0.70849453052E+03  0.50400001928E-02 0. -1.
        1   -1    0    0  501    0  0.00000000000E+00  0.00000000000E+00 -0.90255090126E+03  0.90255090127E+03  0.50400001928E-02 0.  1.
    10030    2    1    2    0    0  0.00000000000E+00  0.00000000000E+00 -0.19405637076E+03  0.16110454318E+04  0.15993153248E+04 0.  0.
        2    1    3    3  502    0 -0.63344037854E+03 -0.20691928485E+03  0.34824335411E+03  0.75188811488E+03  0.25500000920E-02 0. -1.
       -2    1    3    3    0  502  0.63344037854E+03  0.20691928485E+03 -0.54229972487E+03  0.85915731691E+03  0.25500000920E-02 0.  1.
</event>
<event>
 5   0  0.1787688E-04  0.1543859E+04  0.7818609E-02  0.8855800E-01
       -1   -1    0    0    0  501  0.00000000000E+00  0.00000000000E+00  0.41623912037E+03  0.41623912040E+03  0.50400001928E-02 0. -1.
        1   -1    0    0  501    0  0.00000000000E+00  0.00000000000E+00 -0.14315699823E+04  0.14315699823E+04  0.50400001928E-02 0.  1.
    10030    2    1    2    0    0  0.00000000000E+00  0.00000000000E+00 -0.10153308619E+04  0.18478091027E+04  0.15438593592E+04 0.  0.
        4    1    3    3  502    0  0.64384843034E+03  0.21019335171E+03 -0.64414070575E+02  0.68034758157E+03  0.12699999809E+01 0. -1.
       -4    1    3    3    0  502 -0.64384843034E+03 -0.21019335171E+03 -0.95091679135E+03  0.11674615211E+04  0.12699999809E+01 0.  1.
</event>
<event>
 5   0  0.3274900E-04  0.1592212E+04  0.7818609E-02  0.8825347E-01
       -2   -1    0    0    0  501  0.00000000000E+00  0.00000000000E+00  0.61884949418E+03  0.61884949419E+03  0.25500000920E-02 0.  1.
        2   -1    0    0  501    0  0.00000000000E+00  0.00000000000E+00 -0.10241342317E+04  0.10241342317E+04  0.25500000920E-02 0. -1.
    10030    2    1    2    0    0  0.00000000000E+00  0.00000000000E+00 -0.40528473747E+03  0.16429837258E+04  0.15922122362E+04 0.  0.
        3    1    3    3  502    0 -0.60335583345E+03  0.37732282958E+03  0.16563325493E+03  0.73064708637E+03  0.10100000352E+00 0.  1.
       -3    1    3    3    0  502  0.60335583345E+03 -0.37732282958E+03 -0.57091799240E+03  0.91233663947E+03  0.10100000352E+00 0. -1.
</event>
<event>
 5   0  0.1736537E-04  0.1602849E+04  0.7818609E-02  0.8818800E-01
       -1   -1    0    0    0  501  0.00000000000E+00  0.00000000000E+00  0.36013816603E+03  0.36013816607E+03  0.50400001928E-02 0. -1.
        1   -1    0    0  501    0  0.00000000000E+00  0.00000000000E+00 -0.17834290741E+04  0.17834290741E+04  0.50400001928E-02 0.  1.
    10030    2    1    2    0    0  0.00000000000E+00  0.00000000000E+00 -0.14232909081E+04  0.21435672402E+04  0.16028485593E+04 0.  0.
        3    1    3    3  502    0  0.58215933709E+03  0.39111348007E+03 -0.12302912642E+04  0.14161553068E+04  0.10100000352E+00 0.  1.
       -3    1    3    3    0  502 -0.58215933709E+03 -0.39111348007E+03 -0.19299964385E+03  0.72741193335E+03  0.10100000352E+00 0. -1.
</event>
<event>
 5   0  0.3210612E-04  0.1649039E+04  0.7818609E-02  0.8790975E-01
       -2   -1    0    0    0  501  0.00000000000E+00  0.00000000000E+00  0.10579632168E+04  0.10579632168E+04  0.25500000920E-02 0. -1.
        2   -1    0    0  501    0  0.00000000000E+00  0.00000000000E+00 -0.64258610546E+03  0.64258610547E+03  0.25500000920E-02 0.  1.
    10030    2    1    2    0    0  0.00000000000E+00  0.00000000000E+00  0.41537711138E+03  0.17005493223E+04  0.16490390696E+04 0.  0.
        2    1    3    3  502    0  0.11969130650E+03 -0.81048368964E+03  0.11192979971E+03  0.82688457483E+03  0.25500000920E-02 0. -1.
       -2    1    3    3    0  502 -0.11969130650E+03  0.81048368964E+03  0.30344731167E+03  0.87366474748E+03  0.25500000920E-02 0.  1.
</event>
<event>
 5   0  0.3274900E-04  0.1599717E+04  0.7818609E-02  0.8820722E-01
        2   -1    0    0  501    0  0.00000000000E+00  0.00000000000E+00  0.11735130550E+04  0.11735130550E+04  0.25500000920E-02 0. -1.
       -2   -1    0    0    0  501  0.00000000000E+00  0.00000000000E+00 -0.54517806612E+03  0.54517806613E+03  0.25500000920E-02 0.  1.
    10030    2    1    2    0    0  0.00000000000E+00  0.00000000000E+00  0.62833498890E+03  0.17186911212E+04  0.15997169474E+04 0.  0.
        3    1    3    3  502    0  0.79888358558E+03  0.80860435444E+01  0.35568332422E+03  0.87452330142E+03  0.10100000352E+00 0.  1.
       -3    1    3    3    0  502 -0.79888358558E+03 -0.80860435444E+01  0.27265166468E+03  0.84416781973E+03  0.10100000352E+00 0. -1.
</event>
<event>
 5   0  0.3210612E-04  0.1571921E+04  0.7818609E-02  0.8837986E-01
       -2   -1    0    0    0  501  0.00000000000E+00  0.00000000000E+00  0.44802171252E+03  0.44802171252E+03  0.25500000920E-02 0.  1.
        2   -1    0    0  501    0  0.00000000000E+00  0.00000000000E+00 -0.13788026629E+04  0.13788026629E+04  0.25500000920E-02 0. -1.
    10030    2    1    2    0    0  0.00000000000E+00  0.00000000000E+00 -0.93078095038E+03  0.18268243754E+04  0.15719205200E+04 0.  0.
        2    1    3    3  502    0  0.18027619934E+03  0.68108071238E+03 -0.60526141949E+02  0.70713072249E+03  0.25500000920E-02 0. -1.
       -2    1    3    3    0  502 -0.18027619934E+03 -0.68108071238E+03 -0.87025480843E+03  0.11196936529E+04  0.25500000920E-02 0.  1.
</event>
<event>
 5   0  0.3210612E-04  0.1557793E+04  0.7818609E-02  0.8846905E-01
        2   -1    0    0  501    0  0.00000000000E+00  0.00000000000E+00  0.46781285674E+03  0.46781285675E+03  0.25500000920E-02 0.  1.
       -2   -1    0    0    0  501  0.00000000000E+00  0.00000000000E+00 -0.12968425405E+04  0.12968425405E+04  0.25500000920E-02 0. -1.
    10030    2    1    2    0    0  0.00000000000E+00  0.00000000000E+00 -0.82902968372E+03  0.17646553972E+04  0.15577928150E+04 0.  0.
        2    1    3    3  502    0 -0.28988573910E+03 -0.17124213942E+03  0.38112304412E+03  0.50853946436E+03  0.25500000920E-02 0.  1.
       -2    1    3    3    0  502  0.28988573910E+03  0.17124213942E+03 -0.12101527278E+04  0.12561159329E+04  0.25500000920E-02 0. -1.
</event>
<event>
 5   0  0.1764099E-04  0.1602815E+04  0.7818609E-02  0.8818821E-01
        1   -1    0    0  501    0  0.00000000000E+00  0.00000000000E+00  0.18565626549E+04  0.18565626549E+04  0.50400001928E-02 0. -1.
       -1   -1    0    0    0  501  0.00000000000E+00  0.00000000000E+00 -0.34593709602E+03  0.34593709606E+03  0.50400001928E-02 0.  1.
    10030    2    1    2    0    0  0.00000000000E+00  0.00000000000E+00  0.15106255589E+04  0.22024997510E+04  0.16028148907E+04 0.  0.
        5    1    3    3  502    0  0.69268149994E+03 -0.16589715349E+03  0.25060251122E+03  0.75508491875E+03  0.46999998093E+01 0.  1.
       -5    1    3    3    0  502 -0.69268149994E+03  0.16589715349E+03  0.12600230477E+04  0.14474148322E+04  0.46999998093E+01 0. -1.
</event>
<event>
 5   0  0.1787688E-04  0.1618212E+04  0.7818609E-02  0.8809437E-01
       -1   -1    0    0    0  501  0.00000000000E+00  0.00000000000E+00  0.55789892475E+03  0.55789892477E+03  0.50400001928E-02 0. -1.
        1   -1    0    0  501    0  0.00000000000E+00  0.00000000000E+00 -0.11734252223E+04  0.11734252223E+04  0.50400001928E-02 0.  1.
    10030    2    1    2    0    0  0.00000000000E+00  0.00000000000E+00 -0.61552629756E+03  0.17313241471E+04  0.16182121861E+04 0.  0.
        4    1    3    3  502    0 -0.72972965350E+03 -0.20131836042E+03 -0.21076675601E+01  0.75699438875E+03  0.12699999809E+01 0. -1.
       -4    1    3    3    0  502  0.72972965350E+03  0.20131836042E+03 -0.61341863000E+03  0.97432975833E+03  0.12699999809E+01 0.  1.
</event>
<event>
 5   0  0.3210612E-04  0.1594807E+04  0.7818609E-02  0.8823744E-01
       -2   -1    0    0    0  501  0.00000000000E+00  0.00000000000E+00  0.10405662240E+04  0.10405662240E+04  0.25500000920E-02 0. -1.
        2   -1    0    0  501    0  0.00000000000E+00  0.00000000000E+00 -0.61106412111E+03  0.61106412112E+03  0.25500000920E-02 0.  1.
    10030    2    1    2    0    0  0.00000000000E+00  0.00000000000E+00  0.42950210293E+03  0.16516303452E+04  0.15948074306E+04 0.  0.
        2    1    3    3  502    0  0.60551971190E+03 -0.48284501248E+02  0.74974907624E+03  0.96493999393E+03  0.25500000920E-02 0. -1.
       -2    1    3    3    0  502 -0.60551971190E+03  0.48284501248E+02 -0.32024697331E+03  0.68669035123E+03  0.25500000920E-02 0.  1.
</event>
<event>
 5   0  0.3210612E-04  0.1602637E+04  0.7818609E-02  0.8818929E-01
       -2   -1    0    0    0  501  0.00000000000E+00  0.00000000000E+00  0.25929570819E+03  0.25929570820E+03  0.25500000920E-02 0. -1.
        2   -1    0    0  501    0  0.00000000000E+00  0.00000000000E+00 -0.24763682392E+04  0.24763682392E+04  0.25500000920E-02 0.  1.
    10030    2    1    2    0    0  0.00000000000E+00  0.00000000000E+00 -0.22170725310E+04  0.27356639474E+04  0.16026373967E+04 0.  0.
        2    1    3    3  502    0 -0.61605872085E+02 -0.44347708308E+02 -0.24702172744E+04  0.24713832939E+04  0.25500000920E-02 0.  1.
       -2    1    3    3    0  502  0.61605872085E+02  0.44347708308E+02  0.25314474338E+03  0.26428065350E+03  0.25500000920E-02 0. -1.
</event>
<event>
 5   0  0.1219463E-04  0.1595251E+04  0.7818609E-02  0.8823471E-01
       -3   -1    0    0    0  501  0.00000000000E+00  0.00000000000E+00  0.82753028104E+03  0.82753028720E+03  0.10100000352E+00 0.  1.
        3   -1    0    0  501    0  0.00000000000E+00  0.00000000000E+00 -0.76880144724E+03  0.76880145388E+03  0.10100000352E+00 0. -1.
    10030    2    1    2    0    0  0.00000000000E+00  0.00000000000E+00  0.58728833797E+02  0.15963317411E+04  0.15952510623E+04 0.  0.
        3    1    3    3  502    0 -0.22489392293E+03  0.47131220640E+03  0.63267748583E+03  0.82036167862E+03  0.10100000352E+00 0.  1.
       -3    1    3    3    0  502  0.22489392293E+03 -0.47131220640E+03 -0.57394865203E+03  0.77597006246E+03  0.10100000352E+00 0. -1.
</event>
<event>
 5   0  0.3274900E-04  0.1583162E+04  0.7818609E-02  0.8830960E-01
       -2   -1    0    0    0  501  0.00000000000E+00  0.00000000000E+00  0.33851993945E+03  0.33851993946E+03  0.25500000920E-02 0.  1.
        2   -1    0    0  501    0  0.00000000000E+00  0.00000000000E+00 -0.18509996149E+04  0.18509996149E+04  0.25500000920E-02 0. -1.
    10030    2    1    2    0    0  0.00000000000E+00  0.00000000000E+00 -0.15124796754E+04  0.21895195544E+04  0.15831617448E+04 0.  0.
        3    1    3    3  502    0  0.54547293876E+03  0.14657618108E+03 -0.15232463153E+04  0.16245936880E+04  0.10100000352E+00 0. -1.
       -3    1    3    3    0  502 -0.54547293876E+03 -0.14657618108E+03  0.10766639837E+02  0.56492586639E+03  0.10100000352E+00 0.  1.
</event>
<event>
 5   0  0.1219463E-04  0.1599702E+04  0.7818609E-02  0.8820731E-01
       -4   -1    0    0    0  501  0.00000000000E+00  0.00000000000E+00  0.62761136258E+03  0.62761264753E+03  0.12699999809E+01 0. -1.
        4   -1    0    0  501    0  0.00000000000E+00  0.00000000000E+00 -0.10193572036E+04  0.10193579948E+04  0.12699999809E+01 0.  1.
    10030    2    1    2    0    0  0.00000000000E+00  0.00000000000E+00 -0.39174584105E+03  0.16469706423E+04  0.15997023137E+04 0.  0.
        3    1    3    3  502    0  0.76092509713E+03  0.13038674456E+02 -0.44928581663E+03  0.88376171319E+03  0.10100000352E+00 0.  1.
       -3    1    3    3    0  502 -0.76092509713E+03 -0.13038674456E+02  0.57539975581E+02  0.76320892911E+03  0.10100000352E+00 0. -1.
</event>
<event>
 5   0  0.1819811E-04  0.1596968E+04  0.7818609E-02  0.8822413E-01
        1   -1    0    0  501    0  0.00000000000E+00  0.00000000000E+00  0.76919588839E+03  0.76919588840E+03  0.50400001928E-02 0. -1.
       -1   -1    0    0    0  501  0.00000000000E+00  0.00000000000E+00 -0.82888754250E+03  0.82888754251E+03  0.50400001928E-02 0.  1.
    10030    2    1    2    0    0  0.00000000000E+00  0.00000000000E+00 -0.59691654110E+02  0.15980834309E+04  0.15969682397E+04 0.  0.
        1    1    3    3  502    0  0.27533549741E+03 -0.19636394674E+03 -0.75368243881E+03  0.82607847951E+03  0.50400001928E-02 0.  1.
       -1    1    3    3    0  502 -0.27533549741E+03  0.19636394674E+03  0.69399078470E+03  0.77200495140E+03  0.50400001928E-02 0. -1.
</event>
<event>
 5   0  0.3210612E-04  0.1610249E+04  0.7818609E-02  0.8814276E-01
        2   -1    0    0  501    0  0.00000000000E+00  0.00000000000E+00  0.16739409230E+04  0.16739409230E+04  0.25500000920E-02 0.  1.
       -2   -1    0    0    0  501  0.00000000000E+00  0.00000000000E+00 -0.38724512006E+03  0.38724512006E+03  0.25500000920E-02 0. -1.
    10030    2    1    2    0    0  0.00000000000E+00  0.00000000000E+00  0.12866958029E+04  0.20611860431E+04  0.16102489916E+04 0.  0.
        2    1    3    3  502    0 -0.80308361654E+03 -0.28901433140E+02  0.70666619832E+03  0.10701194811E+04  0.25500000920E-02 0. -1.
       -2    1    3    3    0  502  0.80308361654E+03  0.28901433140E+02  0.58002960462E+03  0.99106656196E+03  0.25500000920E-02 0.  1.
</event>
<event>
 5   0  0.3380454E-04  0.1611162E+04  0.7818609E-02  0.8813720E-01
        2   -1    0    0  501    0  0.00000000000E+00  0.00000000000E+00  0.23142783238E+04  0.23142783238E+04  0.25500000920E-02 0. -1.
       -2   -1    0    0    0  501  0.00000000000E+00  0.00000000000E+00 -0.28041613242E+03  0.28041613244E+03  0.25500000920E-02 0.  1.
    10030    2    1    2    0    0  0.00000000000E+00  0.00000000000E+00  0.20338621914E+04  0.25946944563E+04  0.16111622847E+04 0.  0.
        5    1    3    3  502    0 -0.74476779577E+03 -0.41420917102E+02  0.52701538859E+03  0.91332473513E+03  0.46999998093E+01 0.  1.
       -5    1    3    3    0  502  0.74476779577E+03  0.41420917102E+02  0.15068468028E+04  0.16813697211E+04  0.46999998093E+01 0. -1.
</event>
<event>
 5   0  0.1219463E-04  0.1601389E+04  0.7818609E-02  0.8819695E-01
        4   -1    0    0  501    0  0.00000000000E+00  0.00000000000E+00  0.76492329969E+03  0.76492435398E+03  0.12699999809E+01 0. -1.
       -4   -1    0    0    0  501  0.00000000000E+00  0.00000000000E+00 -0.83813641783E+03  0.83813738002E+03  0.12699999809E+01 0.  1.
    10030    2    1    2    0    0  0.00000000000E+00  0.00000000000E+00 -0.73213118136E+02  0.16030617340E+04  0.16013890103E+04 0.  0.
        1    1    3    3  502    0  0.50464336781E+03 -0.27843234294E+03  0.51978170099E+03  0.77612016787E+03  0.50400001928E-02 0. -1.
       -1    1    3    3    0  502 -0.50464336781E+03  0.27843234294E+03 -0.59299481913E+03  0.82694156613E+03  0.50400001928E-02 0.  1.
</event>
<event>
 5   0  0.1764099E-04  0.1613618E+04  0.7818609E-02  0.8812225E-01
       -1   -1    0    0    0  501  0.00000000000E+00  0.00000000000E+00  0.78812321822E+03  0.78812321824E+03  0.50400001928E-02 0. -1.
        1   -1    0    0  501    0  0.00000000000E+00  0.00000000000E+00 -0.82593790675E+03  0.82593790676E+03  0.50400001928E-02 0.  1.
    10030    2    1    2    0    0  0.00000000000E+00  0.00000000000E+00 -0.37814688523E+02  0.16140611250E+04  0.16136180975E+04 0.  0.
        5    1    3    3  502    0 -0.48383802457E+03  0.67156535202E+02 -0.66119696084E+03  0.82207830847E+03  0.46999998093E+01 0.  1.
       -5    1    3    3    0  502  0.48383802457E+03 -0.67156535202E+02  0.62338227232E+03  0.79198281653E+03  0.46999998093E+01 0. -1.
</event>
<event>
 5   0  0.3263294E-04  0.1595758E+04  0.7818609E-02  0.8823158E-01
        2   -1    0    0  501    0  0.00000000000E+00  0.00000000000E+00  0.59589089334E+03  0.59589089335E+03  0.25500000920E-02 0.  1.
       -2   -1    0    0    0  501  0.00000000000E+00  0.00000000000E+00 -0.10683345272E+04  0.10683345272E+04  0.25500000920E-02 0. -1.
    10030    2    1    2    0    0  0.00000000000E+00  0.00000000000E+00 -0.47244363383E+03  0.16642254205E+04  0.15957578962E+04 0.  0.
        4    1    3    3  502    0  0.11510635895E+03  0.10477645132E+03 -0.10523459579E+04  0.10637956602E+04  0.12699999809E+01 0. -1.
       -4    1    3    3    0  502 -0.11510635895E+03 -0.10477645132E+03  0.57990232412E+03  0.60042976029E+03  0.12699999809E+01 0.  1.
</event>
<event>
 5   0  0.1736537E-04  0.1540310E+04  0.7818609E-02  0.8858081E-01
       -1   -1    0    0    0  501  0.00000000000E+00  0.00000000000E+00  0.41628987753E+03  0.41628987756E+03  0.50400001928E-02 0. -1.
        1   -1    0    0  501    0  0.00000000000E+00  0.00000000000E+00 -0.14248208205E+04  0.14248208206E+04  0.50400001928E-02 0.  1.
    10030    2    1    2    0    0  0.00000000000E+00  0.00000000000E+00 -0.10085309430E+04  0.18411106981E+04  0.15403096895E+04 0.  0.
        3    1    3    3  502    0  0.72669832148E+03  0.25456789521E+03 -0.52290622521E+03  0.93076645528E+03  0.10100000352E+00 0.  1.
       -3    1    3    3    0  502 -0.72669832148E+03 -0.25456789521E+03 -0.48562471780E+03  0.91034424283E+03  0.10100000352E+00 0. -1.
</event>
<event>
 5   0  0.1761255E-04  0.1546232E+04  0.7818609E-02  0.8854278E-01
        1   -1    0    0  501    0  0.00000000000E+00  0.00000000000E+00  0.13484365744E+04  0.13484365744E+04  0.50400001928E-02 0. -1.
       -1   -1    0    0    0  501  0.00000000000E+00  0.00000000000E+00 -0.44326018932E+03  0.44326018935E+03  0.50400001928E-02 0.  1.
    10030    2    1    2    0    0  0.00000000000E+00  0.00000000000E+00  0.90517638512E+03  0.17916967638E+04  0.15462318730E+04 0.  0.
        2    1    3    3  502    0 -0.34438145735E+03  0.66887324375E+03  0.24621918489E+03  0.79158947150E+03  0.25500000920E-02 0.  1.
       -2    1    3    3    0  502  0.34438145735E+03 -0.66887324375E+03  0.65895720023E+03  0.10001072923E+04  0.25500000920E-02 0. -1.
</event>
<event>
 5   0  0.3210612E-04  0.1595578E+04  0.7818609E-02  0.8823269E-01
        2   -1    0    0  501    0  0.00000000000E+00  0.00000000000E+00  0.99850894702E+03  0.99850894702E+03  0.25500000920E-02 0.  1.
       -2   -1    0    0    0  501  0.00000000000E+00  0.00000000000E+00 -0.63741801185E+03  0.63741801186E+03  0.25500000920E-02 0. -1.
    10030    2    1    2    0    0  0.00000000000E+00  0.00000000000E+00  0.36109093517E+03  0.16359269589E+04  0.15955783752E+04 0.  0.
        2    1    3    3  502    0 -0.40824425696E+03 -0.62182687710E+03 -0.11507816770E+03  0.75271177957E+03  0.25500000920E-02 0. -1.
       -2    1    3    3    0  502  0.40824425696E+03  0.62182687710E+03  0.47616910287E+03  0.88321517931E+03  0.25500000920E-02 0.  1.
</event>
<event>
 5   0  0.3274900E-04  0.1614106E+04  0.7818609E-02  0.8811929E-01
       -2   -1    0    0    0  501  0.00000000000E+00  0.00000000000E+00  0.39551273681E+03  0.39551273682E+03  0.25500000920E-02 0.  1.
        2   -1    0    0  501    0  0.00000000000E+00  0.00000000000E+00 -0.16468105081E+04  0.16468105081E+04  0.25500000920E-02 0. -1.
    10030    2    1    2    0    0  0.00000000000E+00  0.00000000000E+00 -0.12512977713E+04  0.20423232450E+04  0.16141059830E+04 0.  0.
        3    1    3    3  502    0 -0.67422797327E+03 -0.39964086807E+03 -0.86915965651E+03  0.11703566559E+04  0.10100000352E+00 0.  1.
       -3    1    3    3    0  502  0.67422797327E+03  0.39964086807E+03 -0.38213811482E+03  0.87196658903E+03  0.10100000352E+00 0. -1.
</event>
<event>
 5   0  0.1787688E-04  0.1460792E+04  0.7818609E-02  0.8910953E-01
       -1   -1    0    0    0  501  0.00000000000E+00  0.00000000000E+00  0.54970630299E+03  0.54970630302E+03  0.50400001928E-02 0.  1.
        1   -1    0    0  501    0  0.00000000000E+00  0.00000000000E+00 -0.97047829298E+03  0.97047829299E+03  0.50400001928E-02 0. -1.
    10030    2    1    2    0    0  0.00000000000E+00  0.00000000000E+00 -0.42077198998E+03  0.15201845960E+04  0.14607916136E+04 0.  0.
        4    1    3    3  502    0  0.28623775262E+03 -0.11961721179E+03  0.47773698785E+03  0.56962669428E+03  0.12699999809E+01 0.  1.
       -4    1    3    3    0  502 -0.28623775262E+03  0.11961721179E+03 -0.89850897783E+03  0.95055790172E+03  0.12699999809E+01 0. -1.
</event>
<event>
 5   0  0.3274900E-04  0.1628727E+04  0.7818609E-02  0.8803092E-01
        2   -1    0    0  501    0  0.00000000000E+00  0.00000000000E+00  0.96961461932E+03  0.96961461932E+03  0.25500000920E-02 0. -1.
       -2   -1    0    0    0  501  0.00000000000E+00  0.00000000000E+00 -0.68397032233E+03  0.68397032234E+03  0.25500000920E-02 0.  1.
    10030    2    1    2    0    0  0.00000000000E+00  0.00000000000E+00  0.28564429698E+03  0.16535849417E+04  0.16287266483E+04 0.  0.
        3    1    3    3  502    0 -0.31802986885E+03 -0.36739447430E+03 -0.52065468416E+03  0.71218186411E+03  0.10100000352E+00 0.  1.
       -3    1    3    3    0  502  0.31802986885E+03  0.36739447430E+03  0.80629898114E+03  0.94140307755E+03  0.10100000352E+00 0. -1.
</event>
<event>
 5   0  0.1736537E-04  0.1599497E+04  0.7818609E-02  0.8820857E-01
        1   -1    0    0  501    0  0.00000000000E+00  0.00000000000E+00  0.10940610137E+04  0.10940610137E+04  0.50400001928E-02 0.  1.
       -1   -1    0    0    0  501  0.00000000000E+00  0.00000000000E+00 -0.58460855248E+03  0.58460855250E+03  0.50400001928E-02 0. -1.
    10030    2    1    2    0    0  0.00000000000E+00  0.00000000000E+00  0.50945246119E+03  0.16786695662E+04  0.15994967028E+04 0.  0.
        3    1    3    3  502    0 -0.41086315864E+03  0.67451209374E+03  0.12271317316E+03  0.79927068806E+03  0.10100000352E+00 0. -1.
       -3    1    3    3    0  502  0.41086315864E+03 -0.67451209374E+03  0.38673928803E+03  0.87939887811E+03  0.10100000352E+00 0.  1.
</event>
<event>
 5   0  0.3210612E-04  0.1606830E+04  0.7818609E-02  0.8816363E-01
        2   -1    0    0  501    0  0.00000000000E+00  0.00000000000E+00  0.47705585324E+03  0.47705585325E+03  0.25500000920E-02 0. -1.
       -2   -1    0    0    0  501  0.00000000000E+00  0.00000000000E+00 -0.13530398634E+04  0.13530398634E+04  0.25500000920E-02 0.  1.
    10030    2    1    2    0    0  0.00000000000E+00  0.00000000000E+00 -0.87598401013E+03  0.18300957166E+04  0.16068299057E+04 0.  0.
        2    1    3    3  502    0  0.27966291580E+03  0.54270003491E+03  0.15681906522E+03  0.63033871338E+03  0.25500000920E-02 0. -1.
       -2    1    3    3    0  502 -0.27966291580E+03 -0.54270003491E+03 -0.10328030753E+04  0.11997570032E+04  0.25500000920E-02 0.  1.
</event>
<event>
 5   0  0.3274900E-04  0.1601090E+04  0.7818609E-02  0.8819879E-01
       -2   -1    0    0    0  501  0.00000000000E+00  0.00000000000E+00  0.42152000304E+03  0.42152000305E+03  0.25500000920E-02 0.  1.
        2   -1    0    0  501    0  0.00000000000E+00  0.00000000000E+00 -0.15203834420E+04  0.15203834420E+04  0.25500000920E-02 0. -1.
    10030    2    1    2    0    0  0.00000000000E+00  0.00000000000E+00 -0.10988634390E+04  0.19419034451E+04  0.16010896703E+04 0.  0.
        3    1    3    3  502    0 -0.68085610401E+03 -0.19181434189E+03 -0.10040764444E+04  0.12282211904E+04  0.10100000352E+00 0. -1.
       -3    1    3    3    0  502  0.68085610401E+03  0.19181434189E+03 -0.94786994608E+02  0.71368225470E+03  0.10100000352E+00 0.  1.
</event>
<event>
 5   0  0.3228393E-04  0.1604164E+04  0.7818609E-02  0.8817994E-01
       -2   -1    0    0    0  501  0.00000000000E+00  0.00000000000E+00  0.75946286035E+03  0.75946286035E+03  0.25500000920E-02 0.  1.
        2   -1    0    0  501    0  0.00000000000E+00  0.00000000000E+00 -0.84709257066E+03  0.84709257066E+03  0.25500000920E-02 0. -1.
    10030    2    1    2    0    0  0.00000000000E+00  0.00000000000E+00 -0.87629710312E+02  0.16065554310E+04  0.16041637656E+04 0.  0.
        1    1    3    3  502    0  0.60865075133E+03 -0.46842861962E+03 -0.27536128192E+03  0.81590743616E+03  0.50400001928E-02 0. -1.
       -1    1    3    3    0  502 -0.60865075133E+03  0.46842861962E+03  0.18773157161E+03  0.79064799486E+03  0.50400001928E-02 0.  1.
</event>
<event>
 5   0  0.1819811E-04  0.1573195E+04  0.7818609E-02  0.8837187E-01
       -1   -1    0    0    0  501  0.00000000000E+00  0.00000000000E+00  0.40177321550E+03  0.40177321553E+03  0.50400001928E-02 0. -1.
        1   -1    0    0  501    0  0.00000000000E+00  0.00000000000E+00 -0.15400116296E+04  0.15400116296E+04  0.50400001928E-02 0.  1.
    10030    2    1    2    0    0  0.00000000000E+00  0.00000000000E+00 -0.11382384141E+04  0.19417848452E+04  0.15731947424E+04 0.  0.
        1    1    3    3  502    0 -0.75833164478E+03  0.10792726457E+03 -0.78998627001E+03  0.11003606158E+04  0.50400001928E-02 0. -1.
       -1    1    3    3    0  502  0.75833164478E+03 -0.10792726457E+03 -0.34825214413E+03  0.84142422940E+03  0.50400001928E-02 0.  1.
</event>
<event>
 5   0  0.3274900E-04  0.1587733E+04  0.7818609E-02  0.8828120E-01
       -2   -1    0    0    0  501  0.00000000000E+00  0.00000000000E+00  0.53639077402E+03  0.53639077403E+03  0.25500000920E-02 0.  1.
        2   -1    0    0  501    0  0.00000000000E+00  0.00000000000E+00 -0.11749344481E+04  0.11749344481E+04  0.25500000920E-02 0. -1.
    10030    2    1    2    0    0  0.00000000000E+00  0.00000000000E+00 -0.63854367403E+03  0.17113252221E+04  0.15877329725E+04 0.  0.
        3    1    3    3  502    0  0.65545313044E+03 -0.42966772915E+03 -0.45557015959E+03  0.90651935676E+03  0.10100000352E+00 0. -1.
       -3    1    3    3    0  502 -0.65545313044E+03  0.42966772915E+03 -0.18297351444E+03  0.80480586533E+03  0.10100000352E+00 0.  1.
</event>
<event>
 5   0  0.1787688E-04  0.1576524E+04  0.7818609E-02  0.8835102E-01
       -1   -1    0    0    0  501  0.00000000000E+00  0.00000000000E+00  0.47520763114E+03  0.47520763117E+03  0.50400001928E-02 0.  1.
        1   -1    0    0  501    0  0.00000000000E+00  0.00000000000E+00 -0.13075480735E+04  0.13075480735E+04  0.50400001928E-02 0. -1.
    10030    2    1    2    0    0  0.00000000000E+00  0.00000000000E+00 -0.83234044237E+03  0.17827557047E+04  0.15765237996E+04 0.  0.
        4    1    3    3  502    0 -0.14394634100E+03  0.17948238330E+03 -0.12687327861E+04  0.12894258297E+04  0.12699999809E+01 0. -1.
       -4    1    3    3    0  502  0.14394634100E+03 -0.17948238330E+03  0.43639234370E+03  0.49332987497E+03  0.12699999809E+01 0.  1.
</event>
<event>
 5   0  0.3380454E-04  0.1601577E+04  0.7818609E-02  0.8819580E-01
        2   -1    0    0  501    0  0.00000000000E+00  0.00000000000E+00  0.90708265426E+03  0.90708265426E+03  0.25500000920E-02 0.  1.
       -2   -1    0    0    0  501  0.00000000000E+00  0.00000000000E+00 -0.70694972766E+03  0.70694972766E+03  0.25500000920E-02 0. -1.
    10030    2    1    2    0    0  0.00000000000E+00  0.00000000000E+00  0.20013292660E+03  0.16140323819E+04  0.16015765176E+04 0.  0.
        5    1    3    3  502    0 -0.35312043805E+01 -0.65569758747E+03 -0.36316912362E+03  0.74957701269E+03  0.46999998093E+01 0. -1.
       -5    1    3    3    0  502  0.35312043805E+01  0.65569758747E+03  0.56330205022E+03  0.86445536923E+03  0.46999998093E+01 0.  1.
</event>
<event>
 5   0  0.1787688E-04  0.1617204E+04  0.7818609E-02  0.8810048E-01
        1   -1    0    0  501    0  0.00000000000E+00  0.00000000000E+00  0.13863622121E+04  0.13863622121E+04  0.50400001928E-02 0.  1.
       -1   -1    0    0    0  501  0.00000000000E+00  0.00000000000E+00 -0.47162046710E+03  0.47162046713E+03  0.50400001928E-02 0. -1.
    10030    2    1    2    0    0  0.00000000000E+00  0.00000000000E+00  0.91474174498E+03  0.18579826792E+04  0.16172035049E+04 0.  0.
        4    1    3    3  502    0  0.56437539321E+03 -0.20369464107E+02 -0.20749647219E+03  0.60165679453E+03  0.12699999809E+01 0. -1.
       -4    1    3    3    0  502 -0.56437539321E+03  0.20369464107E+02  0.11222382172E+04  0.12563258847E+04  0.12699999809E+01 0.  1.
</event>
<event>
 5   0  0.1736537E-04  0.1596338E+04  0.7818609E-02  0.8822801E-01
        1   -1    0    0  501    0  0.00000000000E+00  0.00000000000E+00  0.97257212003E+03  0.97257212004E+03  0.50400001928E-02 0.  1.
       -1   -1    0    0    0  501  0.00000000000E+00  0.00000000000E+00 -0.65504021888E+03  0.65504021890E+03  0.50400001928E-02 0. -1.
    10030    2    1    2    0    0  0.00000000000E+00  0.00000000000E+00  0.31753190115E+03  0.16276123389E+04  0.15963381276E+04 0.  0.
        3    1    3    3  502    0 -0.44140948166E+03 -0.48510590085E+03 -0.30501221460E+03  0.72332739945E+03  0.10100000352E+00 0. -1.
       -3    1    3    3    0  502  0.44140948166E+03  0.48510590085E+03  0.62254411575E+03  0.90428493949E+03  0.10100000352E+00 0.  1.
</event>
<event>
 5   0  0.3228393E-04  0.1599693E+04  0.7818609E-02  0.8820737E-01
       -2   -1    0    0    0  501  0.00000000000E+00  0.00000000000E+00  0.13363406631E+04  0.13363406631E+04  0.25500000920E-02 0. -1.
        2   -1    0    0  501    0  0.00000000000E+00  0.00000000000E+00 -0.47873608069E+03  0.47873608069E+03  0.25500000920E-02 0.  1.
    10030    2    1    2    0    0  0.00000000000E+00  0.00000000000E+00  0.85760458244E+03  0.18150767438E+04  0.15996930850E+04 0.  0.
        1    1    3    3  502    0  0.20305667943E+03 -0.69451879894E+03  0.42081023909E+02  0.72481665940E+03  0.50400001928E-02 0.  1.
       -1    1    3    3    0  502 -0.20305667943E+03  0.69451879894E+03  0.81552355853E+03  0.10902600844E+04  0.50400001928E-02 0. -1.
</event>
<event>
 5   0  0.3263294E-04  0.1599539E+04  0.7818609E-02  0.8820832E-01
        2   -1    0    0  501    0  0.00000000000E+00  0.00000000000E+00  0.91504562905E+03  0.91504562905E+03  0.25500000920E-02 0.  1.
       -2   -1    0    0    0  501  0.00000000000E+00  0.00000000000E+00 -0.69901534293E+03  0.69901534294E+03  0.25500000920E-02 0. -1.
    10030    2    1    2    0    0  0.00000000000E+00  0.00000000000E+00  0.21603028611E+03  0.16140609720E+04  0.15995386012E+04 0.  0.
        4    1    3    3  502    0 -0.75807635357E+03 -0.45455285254E+02  0.36105745765E+03  0.84089835379E+03  0.12699999809E+01 0.  1.
       -4    1    3    3    0  502  0.75807635357E+03  0.45455285254E+02 -0.14502717153E+03  0.77316261820E+03  0.12699999809E+01 0. -1.
</event>
<event>
 5   0  0.3274900E-04  0.1601560E+04  0.7818609E-02  0.8819590E-01
        2   -1    0    0  501    0  0.00000000000E+00  0.00000000000E+00  0.10664459743E+04  0.10664459743E+04  0.25500000920E-02 0.  1.
       -2   -1    0    0    0  501  0.00000000000E+00  0.00000000000E+00 -0.60129527995E+03  0.60129527996E+03  0.25500000920E-02 0. -1.
    10030    2    1    2    0    0  0.00000000000E+00  0.00000000000E+00  0.46515069437E+03  0.16677412543E+04  0.16015604025E+04 0.  0.
        3    1    3    3  502    0 -0.50441372817E+03 -0.41516854628E+03  0.71479973892E+03  0.96836811593E+03  0.10100000352E+00 0.  1.
       -3    1    3    3    0  502  0.50441372817E+03  0.41516854628E+03 -0.24964904455E+03  0.69937313834E+03  0.10100000352E+00 0. -1.
</event>
<event>
 5   0  0.1761255E-04  0.1587201E+04  0.7818609E-02  0.8828450E-01
       -1   -1    0    0    0  501  0.00000000000E+00  0.00000000000E+00  0.22089917821E+04  0.22089917821E+04  0.50400001928E-02 0.  1.
        1   -1    0    0  501    0  0.00000000000E+00  0.00000000000E+00 -0.28510831380E+03  0.28510831384E+03  0.50400001928E-02 0. -1.
    10030    2    1    2    0    0  0.00000000000E+00  0.00000000000E+00  0.19238834683E+04  0.24941000959E+04  0.15872012125E+04 0.  0.
        2    1    3    3  502    0 -0.73665305891E+03 -0.14685483803E+03  0.13643440562E+04  0.15574526562E+04  0.25500000920E-02 0.  1.
       -2    1    3    3    0  502  0.73665305891E+03  0.14685483803E+03  0.55953941213E+03  0.93664743975E+03  0.25500000920E-02 0. -1.
</event>
<event>
 5   0  0.1761255E-04  0.1598320E+04  0.7818609E-02  0.8821581E-01
       -1   -1    0    0    0  501  0.00000000000E+00  0.00000000000E+00  0.36851381374E+03  0.36851381377E+03  0.50400001928E-02 0. -1.
        1   -1    0    0  501    0  0.00000000000E+00  0.00000000000E+00 -0.17330603379E+04  0.17330603379E+04  0.50400001928E-02 0.  1.
    10030    2    1    2    0    0  0.00000000000E+00  0.00000000000E+00 -0.13645465242E+04  0.21015741517E+04  0.15983199612E+04 0.  0.
        2    1    3    3  502    0  0.73337796703E+03  0.31747714489E+03 -0.68839755816E+03  0.10547635650E+04  0.25500000920E-02 0. -1.
       -2    1    3    3    0  502 -0.73337796703E+03 -0.31747714489E+03 -0.67614896600E+03  0.10468105866E+04  0.25500000920E-02 0.  1.
</event>
<event>
 5   0  0.3380454E-04  0.1599684E+04  0.7818609E-02  0.8820742E-01
        2   -1    0    0  501    0  0.00000000000E+00  0.00000000000E+00  0.21147060579E+04  0.21147060579E+04  0.25500000920E-02 0. -1.
       -2   -1    0    0    0  501  0.00000000000E+00  0.00000000000E+00 -0.30252303718E+03  0.30252303719E+03  0.25500000920E-02 0.  1.
    10030    2    1    2    0    0  0.00000000000E+00  0.00000000000E+00  0.18121830207E+04  0.24172290951E+04  0.15996840931E+04 0.  0.
        5    1    3    3  502    0 -0.38002425584E+03  0.63767301592E+03  0.13560745883E+04  0.15459643234E+04  0.46999998093E+01 0. -1.
       -5    1    3    3    0  502  0.38002425584E+03 -0.63767301592E+03  0.45610843245E+03  0.87126477170E+03  0.46999998093E+01 0.  1.
</event>
<event>
 5   0  0.1819811E-04  0.1607093E+04  0.7818609E-02  0.8816202E-01
       -1   -1    0    0    0  501  0.00000000000E+00  0.00000000000E+00  0.81474958067E+03  0.81474958069E+03  0.50400001928E-02 0. -1.
        1   -1    0    0  501    0  0.00000000000E+00  0.00000000000E+00 -0.79249793928E+03  0.79249793930E+03  0.50400001928E-02 0.  1.
    10030    2    1    2    0    0  0.00000000000E+00  0.00000000000E+00  0.22251641387E+02  0.16072475200E+04  0.16070934805E+04 0.  0.
        1    1    3    3  502    0  0.68277306529E+03 -0.41756374701E+03 -0.60636350970E+02  0.80263024400E+03  0.50400001928E-02 0.  1.
       -1    1    3    3    0  502 -0.68277306529E+03  0.41756374701E+03  0.82887992357E+02  0.80461727598E+03  0.50400001928E-02 0. -1.
</event>
<event>
 5   0  0.3274900E-04  0.1596422E+04  0.7818609E-02  0.8822749E-01
       -2   -1    0    0    0  501  0.00000000000E+00  0.00000000000E+00  0.80858282874E+03  0.80858282875E+03  0.25500000920E-02 0.  1.
        2   -1    0    0  501    0  0.00000000000E+00  0.00000000000E+00 -0.78797248287E+03  0.78797248287E+03  0.25500000920E-02 0. -1.
    10030    2    1    2    0    0  0.00000000000E+00  0.00000000000E+00  0.20610345875E+02  0.15965553116E+04  0.15964222739E+04 0.  0.
        3    1    3    3  502    0 -0.86101165357E+02  0.36363612672E+03  0.71569817454E+03  0.80738375670E+03  0.10100000352E+00 0.  1.
       -3    1    3    3    0  502  0.86101165357E+02 -0.36363612672E+03 -0.69508782867E+03  0.78917155492E+03  0.10100000352E+00 0. -1.
</event>
<event>
 5   0  0.1761255E-04  0.1594350E+04  0.7818609E-02  0.8824027E-01
        1   -1    0    0  501    0  0.00000000000E+00  0.00000000000E+00  0.87791694770E+03  0.87791694771E+03  0.50400001928E-02 0.  1.
       -1   -1    0    0    0  501  0.00000000000E+00  0.00000000000E+00 -0.72385864929E+03  0.72385864930E+03  0.50400001928E-02 0. -1.
    10030    2    1    2    0    0  0.00000000000E+00  0.00000000000E+00  0.15405829841E+03  0.16017755970E+04  0.15943497433E+04 0.  0.
        2    1    3    3  502    0 -0.30869890024E+03  0.69669699243E+03  0.31222648082E+03  0.82350900760E+03  0.25500000920E-02 0.  1.
       -2    1    3    3    0  502  0.30869890024E+03 -0.69669699243E+03 -0.15816818241E+03  0.77826658941E+03  0.25500000920E-02 0. -1.
</event>
<event>
 5   0  0.1787688E-04  0.1531126E+04  0.7818609E-02  0.8864014E-01
       -1   -1    0    0    0  501  0.00000000000E+00  0.00000000000E+00  0.92035662855E+03  0.92035662856E+03  0.50400001928E-02 0. -1.
        1   -1    0    0  501    0  0.00000000000E+00  0.00000000000E+00 -0.63680413310E+03  0.63680413312E+03  0.50400001928E-02 0.  1.
    10030    2    1    2    0    0  0.00000000000E+00  0.00000000000E+00  0.28355249545E+03  0.15571607617E+04  0.15311262587E+04 0.  0.
        4    1    3    3  502    0  0.28847041164E+03 -0.65671032301E+03 -0.13035850637E+03  0.72902577445E+03  0.12699999809E+01 0.  1.
       -4    1    3    3    0  502 -0.28847041164E+03  0.65671032301E+03  0.41391100183E+03  0.82813498722E+03  0.12699999809E+01 0. -1.
</event>
<event>
 5   0  0.1219463E-04  0.1590356E+04  0.7818609E-02  0.8826495E-01
       -3   -1    0    0    0  501  0.00000000000E+00  0.00000000000E+00  0.53503103261E+03  0.53503104214E+03  0.10100000352E+00 0. -1.
        3   -1    0    0  501    0  0.00000000000E+00  0.00000000000E+00 -0.11818152526E+04  0.11818152569E+04  0.10100000352E+00 0.  1.
    10030    2    1    2    0    0  0.00000000000E+00  0.00000000000E+00 -0.64678422001E+03  0.17168462991E+04  0.15903557424E+04 0.  0.
        4    1    3    3  502    0 -0.51702905601E+03  0.18925466089E+02 -0.97526474170E+03  0.11040018783E+04  0.12699999809E+01 0.  1.
       -4    1    3    3    0  502  0.51702905601E+03 -0.18925466089E+02  0.32848052170E+03  0.61284442076E+03  0.12699999809E+01 0. -1.
</event>
<event>
 5   0  0.3263294E-04  0.1584728E+04  0.7818609E-02  0.8829986E-01
       -2   -1    0    0    0  501  0.00000000000E+00  0.00000000000E+00  0.10882305488E+04  0.10882305488E+04  0.25500000920E-02 0.  1.
        2   -1    0    0  501    0  0.00000000000E+00  0.00000000000E+00 -0.57693694353E+03  0.57693694353E+03  0.25500000920E-02 0. -1.
    10030    2    1    2    0    0  0.00000000000E+00  0.00000000000E+00  0.51129360523E+03  0.16651674923E+04  0.15847276191E+04 0.  0.
        4    1    3    3  502    0  0.31782866038E+03  0.18351600611E+03  0.99353554309E+03  0.10591542240E+04  0.12699999809E+01 0.  1.
       -4    1    3    3    0  502 -0.31782866038E+03 -0.18351600611E+03 -0.48224193786E+03  0.60601326833E+03  0.12699999809E+01 0. -1.
</event>
<event>
 5   0  0.1764099E-04  0.1587274E+04  0.7818609E-02  0.8828405E-01
       -1   -1    0    0    0  501  0.00000000000E+00  0.00000000000E+00  0.49247899180E+03  0.49247899183E+03  0.50400001928E-02 0.  1.
        1   -1    0    0  501    0  0.00000000000E+00  0.00000000000E+00 -0.12789569411E+04  0.12789569411E+04  0.50400001928E-02 0. -1.
    10030    2    1    2    0    0  0.00000000000E+00  0.00000000000E+00 -0.78647794932E+03  0.17714359330E+04  0.15872736688E+04 0.  0.
        5    1    3    3  502    0  0.36736280439E+03 -0.62434548006E+03 -0.75500065764E+03  0.10463320656E+04  0.46999998093E+01 0. -1.
       -5    1    3    3    0  502 -0.36736280439E+03  0.62434548006E+03 -0.31477291681E+02  0.72510386733E+03  0.46999998093E+01 0.  1.
</event>
<event>
 5   0  0.3210612E-04  0.1601100E+04  0.7818609E-02  0.8819873E-01
       -2   -1    0    0    0  501  0.00000000000E+00  0.00000000000E+00  0.17601069528E+04  0.17601069528E+04  0.25500000920E-02 0.  1.
        2   -1    0    0  501    0  0.00000000000E+00  0.00000000000E+00 -0.36411433731E+03  0.36411433732E+03  0.25500000920E-02 0. -1.
    10030    2    1    2    0    0  0.00000000000E+00  0.00000000000E+00  0.13959926155E+04  0.21242212901E+04  0.16010998429E+04 0.  0.
        2    1    3    3  502    0 -0.78225015476E+03 -0.11104668181E+03  0.52688715168E+03  0.94966138216E+03  0.25500000920E-02 0.  1.
       -2    1    3    3    0  502  0.78225015476E+03  0.11104668181E+03  0.86910546378E+03  0.11745599079E+04  0.25500000920E-02 0. -1.
</event>
<event>
 5   0  0.1761255E-04  0.1689123E+04  0.7818609E-02  0.8767592E-01
       -1   -1    0    0    0  501  0.00000000000E+00  0.00000000000E+00  0.18502247379E+04  0.18502247379E+04  0.50400001928E-02 0.  1.
        1   -1    0    0  501    0  0.00000000000E+00  0.00000000000E+00 -0.38551213955E+03  0.38551213958E+03  0.50400001928E-02 0. -1.
    10030    2    1    2    0    0  0.00000000000E+00  0.00000000000E+00  0.14647125984E+04  0.22357368775E+04  0.16891229646E+04 0.  0.
        2    1    3    3  502    0  0.19227186530E+03  0.25346844258E+02 -0.35564085461E+03  0.40508190551E+03  0.25500000920E-02 0. -1.
       -2    1    3    3    0  502 -0.19227186530E+03 -0.25346844258E+02  0.18203534530E+04  0.18306549720E+04  0.25500000920E-02 0.  1.
</event>
<event>
 5   0  0.1819811E-04  0.1601161E+04  0.7818609E-02  0.8819835E-01
       -1   -1    0    0    0  501  0.00000000000E+00  0.00000000000E+00  0.43113057629E+03  0.43113057632E+03  0.50400001928E-02 0. -1.
        1   -1    0    0  501    0  0.00000000000E+00  0.00000000000E+00 -0.14866242243E+04  0.14866242243E+04  0.50400001928E-02 0.  1.
    10030    2    1    2    0    0  0.00000000000E+00  0.00000000000E+00 -0.10554936480E+04  0.19177548006E+04  0.16011610270E+04 0.  0.
        1    1    3    3  502    0  0.46871119471E+03 -0.13602503515E+03  0.23234906334E+03  0.54053592064E+03  0.50400001928E-02 0. -1.
       -1    1    3    3    0  502 -0.46871119471E+03  0.13602503515E+03 -0.12878427114E+04  0.13772188800E+04  0.50400001928E-02 0.  1.
</event>
<event>
 5   0  0.3210612E-04  0.1595436E+04  0.7818609E-02  0.8823357E-01
        2   -1    0    0  501    0  0.00000000000E+00  0.00000000000E+00  0.51581341386E+03  0.51581341386E+03  0.25500000920E-02 0.  1.
       -2   -1    0    0    0  501  0.00000000000E+00  0.00000000000E+00 -0.12336895678E+04  0.12336895678E+04  0.25500000920E-02 0. -1.
    10030    2    1    2    0    0  0.00000000000E+00  0.00000000000E+00 -0.71787615396E+03  0.17495029817E+04  0.15954355238E+04 0.  0.
        2    1    3    3  502    0  0.55288680735E+03 -0.50510924006E+03 -0.57562539539E+02  0.75108761946E+03  0.25500000920E-02 0.  1.
       -2    1    3    3    0  502 -0.55288680735E+03  0.50510924006E+03 -0.66031361442E+03  0.99841536223E+03  0.25500000920E-02 0. -1.
</event>
<event>
 5   0  0.3263294E-04  0.1586028E+04  0.7818609E-02  0.8829178E-01
        2   -1    0    0  501    0  0.00000000000E+00  0.00000000000E+00  0.12668253425E+04  0.12668253425E+04  0.25500000920E-02 0.  1.
       -2   -1    0    0    0  501  0.00000000000E+00  0.00000000000E+00 -0.49641505752E+03  0.49641505753E+03  0.25500000920E-02 0. -1.
    10030    2    1    2    0    0  0.00000000000E+00  0.00000000000E+00  0.77041028497E+03  0.17632404000E+04  0.15860279635E+04 0.  0.
        4    1    3    3  502    0  0.16590803469E+03 -0.67528528671E+03  0.80902773518E+03  0.10668004423E+04  0.12699999809E+01 0.  1.
       -4    1    3    3    0  502 -0.16590803469E+03  0.67528528671E+03 -0.38617450211E+02  0.69643995777E+03  0.12699999809E+01 0. -1.
</event>
<event>
 5   0  0.1761255E-04  0.1591091E+04  0.7818609E-02  0.8826040E-01
       -1   -1    0    0    0  501  0.00000000000E+00  0.00000000000E+00  0.56584533023E+03  0.56584533025E+03  0.50400001928E-02 0. -1.
        1   -1    0    0  501    0  0.00000000000E+00  0.00000000000E+00 -0.11184909855E+04  0.11184909856E+04  0.50400001928E-02 0.  1.
    10030    2    1    2    0    0  0.00000000000E+00  0.00000000000E+00 -0.55264565532E+03  0.16843363158E+04  0.15910913250E+04 0.  0.
        2    1    3    3  502    0 -0.53889989047E+03 -0.42139260077E+03 -0.70621019102E+03  0.98321800728E+03  0.25500000920E-02 0.  1.
       -2    1    3    3    0  502  0.53889989047E+03  0.42139260077E+03  0.15356453570E+03  0.70111830854E+03  0.25500000920E-02 0. -1.
</event>
<event>
 5   0  0.1819811E-04  0.1593118E+04  0.7818609E-02  0.8824787E-01
        1   -1    0    0  501    0  0.00000000000E+00  0.00000000000E+00  0.70848908238E+03  0.70848908240E+03  0.50400001928E-02 0.  1.
       -1   -1    0    0    0  501  0.00000000000E+00  0.00000000000E+00 -0.89557663547E+03  0.89557663549E+03  0.50400001928E-02 0. -1.
    10030    2    1    2    0    0  0.00000000000E+00  0.00000000000E+00 -0.18708755309E+03  0.16040657179E+04  0.15931180354E+04 0.  0.
        1    1    3    3  502    0 -0.66130967206E+03 -0.55586204525E+02  0.35003551522E+03  0.75029672159E+03  0.50400001928E-02 0.  1.
       -1    1    3    3    0  502  0.66130967206E+03  0.55586204525E+02 -0.53712306832E+03  0.85376899629E+03  0.50400001928E-02 0. -1.
</event>
<event>
 5   0  0.1787688E-04  0.1595610E+04  0.7818609E-02  0.8823249E-01
       -1   -1    0    0    0  501  0.00000000000E+00  0.00000000000E+00  0.71148207204E+03  0.71148207205E+03  0.50400001928E-02 0. -1.
        1   -1    0    0  501    0  0.00000000000E+00  0.00000000000E+00 -0.89460152687E+03  0.89460152689E+03  0.50400001928E-02 0.  1.
    10030    2    1    2    0    0  0.00000000000E+00  0.00000000000E+00 -0.18311945484E+03  0.16060835989E+04  0.15956101629E+04 0.  0.
        4    1    3    3  502    0 -0.52189373462E+02 -0.54779276784E+03 -0.67301109591E+03  0.86933664096E+03  0.12699999809E+01 0.  1.
       -4    1    3    3    0  502  0.52189373462E+02  0.54779276784E+03  0.48989164107E+03  0.73674695798E+03  0.12699999809E+01 0. -1.
</event>
<event>
 5   0  0.3263294E-04  0.1592749E+04  0.7818609E-02  0.8825015E-01
       -2   -1    0    0    0  501  0.00000000000E+00  0.00000000000E+00  0.82315065844E+03  0.82315065844E+03  0.25500000920E-02 0. -1.
        2   -1    0    0  501    0  0.00000000000E+00  0.00000000000E+00 -0.77046896684E+03  0.77046896684E+03  0.25500000920E-02 0.  1.
    10030    2    1    2    0    0  0.00000000000E+00  0.00000000000E+00  0.52681691604E+02  0.15936196253E+04  0.15927486146E+04 0.  0.
        4    1    3    3  502    0 -0.68661669738E+03  0.18098733056E+03 -0.33442744082E+03  0.78488357672E+03  0.12699999809E+01 0. -1.
       -4    1    3    3    0  502  0.68661669738E+03 -0.18098733056E+03  0.38710913242E+03  0.80873604856E+03  0.12699999809E+01 0.  1.
</event>
<event>
 5   0  0.1736537E-04  0.1605673E+04  0.7818609E-02  0.8817070E-01
        1   -1    0    0  501    0  0.00000000000E+00  0.00000000000E+00  0.10830241458E+04  0.10830241458E+04  0.50400001928E-02 0.  1.
       -1   -1    0    0    0  501  0.00000000000E+00  0.00000000000E+00 -0.59513609553E+03  0.59513609555E+03  0.50400001928E-02 0. -1.
    10030    2    1    2    0    0  0.00000000000E+00  0.00000000000E+00  0.48788805027E+03  0.16781602414E+04  0.16056733933E+04 0.  0.
        3    1    3    3  502    0 -0.47469395154E+03  0.39594214808E+03 -0.29147409793E+03  0.68341911901E+03  0.10100000352E+00 0.  1.
       -3    1    3    3    0  502  0.47469395154E+03 -0.39594214808E+03  0.77936214821E+03  0.99474112236E+03  0.10100000352E+00 0. -1.
</event>
<event>
 5   0  0.1819811E-04  0.1591720E+04  0.7818609E-02  0.8825651E-01
        1   -1    0    0  501    0  0.00000000000E+00  0.00000000000E+00  0.99137305651E+03  0.99137305652E+03  0.50400001928E-02 0.  1.
       -1   -1    0    0    0  501  0.00000000000E+00  0.00000000000E+00 -0.63890467651E+03  0.63890467653E+03  0.50400001928E-02 0. -1.
    10030    2    1    2    0    0  0.00000000000E+00  0.00000000000E+00  0.35246838000E+03  0.16302777331E+04  0.15917196763E+04 0.  0.
        1    1    3    3  502    0  0.53257360295E+03 -0.28117374387E+03  0.70912568755E+03  0.93035077125E+03  0.50400001928E-02 0.  1.
       -1    1    3    3    0  502 -0.53257360295E+03  0.28117374387E+03 -0.35665730756E+03  0.69992696180E+03  0.50400001928E-02 0. -1.
</event>
<event>
 5   0  0.1819811E-04  0.1610696E+04  0.7818609E-02  0.8814004E-01
        1   -1    0    0  501    0  0.00000000000E+00  0.00000000000E+00  0.11932746469E+04  0.11932746469E+04  0.50400001928E-02 0. -1.
       -1   -1    0    0    0  501  0.00000000000E+00  0.00000000000E+00 -0.54353421339E+03  0.54353421341E+03  0.50400001928E-02 0.  1.
    10030    2    1    2    0    0  0.00000000000E+00  0.00000000000E+00  0.64974043349E+03  0.17368088603E+04  0.16106962427E+04 0.  0.
        1    1    3    3  502    0 -0.20889376383E+03 -0.25146414513E+03 -0.46877009884E+03  0.57150347894E+03  0.50400001928E-02 0.  1.
       -1    1    3    3    0  502  0.20889376383E+03  0.25146414513E+03  0.11185105323E+04  0.11653053814E+04  0.50400001928E-02 0. -1.
</event>
<event>
 5   0  0.3263294E-04  0.1597263E+04  0.7818609E-02  0.8822231E-01
        2   -1    0    0  501    0  0.00000000000E+00  0.00000000000E+00  0.13978255132E+04  0.13978255132E+04  0.25500000920E-02 0. -1.
       -2   -1    0    0    0  501  0.00000000000E+00  0.00000000000E+00 -0.45628888138E+03  0.45628888138E+03  0.25500000920E-02 0.  1.
    10030    2    1    2    0    0  0.00000000000E+00  0.00000000000E+00  0.94153663186E+03  0.18541143946E+04  0.15972629587E+04 0.  0.
        4    1    3    3  502    0 -0.32623221526E+03  0.23658692272E+03 -0.32960788922E+03  0.52061867410E+03  0.12699999809E+01 0.  1.
       -4    1    3    3    0  502  0.32623221526E+03 -0.23658692272E+03  0.12711445211E+04  0.13334957205E+04  0.12699999809E+01 0. -1.
</event>
<event>
 5   0  0.3274900E-04  0.1595861E+04  0.7818609E-02  0.8823095E-01
       -2   -1    0    0    0  501  0.00000000000E+00  0.00000000000E+00  0.55147734409E+03  0.55147734409E+03  0.25500000920E-02 0.  1.
        2   -1    0    0  501    0  0.00000000000E+00  0.00000000000E+00 -0.11545220839E+04  0.11545220839E+04  0.25500000920E-02 0. -1.
    10030    2    1    2    0    0  0.00000000000E+00  0.00000000000E+00 -0.60304473978E+03  0.17059994280E+04  0.15958606111E+04 0.  0.
        3    1    3    3  502    0 -0.99001533485E+01  0.52902594363E+03  0.33696379386E+03  0.62730460755E+03  0.10100000352E+00 0.  1.
       -3    1    3    3    0  502  0.99001533485E+01 -0.52902594363E+03 -0.94000853364E+03  0.10786948204E+04  0.10100000352E+00 0. -1.
</event>
<event>
 5   0  0.3380454E-04  0.1605775E+04  0.7818609E-02  0.8817008E-01
        2   -1    0    0  501    0  0.00000000000E+00  0.00000000000E+00  0.45704495068E+03  0.45704495069E+03  0.25500000920E-02 0. -1.
       -2   -1    0    0    0  501  0.00000000000E+00  0.00000000000E+00 -0.14104265125E+04  0.14104265125E+04  0.25500000920E-02 0.  1.
    10030    2    1    2    0    0  0.00000000000E+00  0.00000000000E+00 -0.95338156178E+03  0.18674714632E+04  0.16057749728E+04 0.  0.
        5    1    3    3  502    0  0.47062429569E+02 -0.79341287123E+03 -0.34466722477E+03  0.86633506356E+03  0.46999998093E+01 0. -1.
       -5    1    3    3    0  502 -0.47062429569E+02  0.79341287123E+03 -0.60871433701E+03  0.10011363996E+04  0.46999998093E+01 0.  1.
</event>
<event>
 5   0  0.3274900E-04  0.1570162E+04  0.7818609E-02  0.8839091E-01
       -2   -1    0    0    0  501  0.00000000000E+00  0.00000000000E+00  0.81530672004E+03  0.81530672005E+03  0.25500000920E-02 0.  1.
        2   -1    0    0  501    0  0.00000000000E+00  0.00000000000E+00 -0.75597552987E+03  0.75597552987E+03  0.25500000920E-02 0. -1.
    10030    2    1    2    0    0  0.00000000000E+00  0.00000000000E+00  0.59331190173E+02  0.15712822499E+04  0.15701616856E+04 0.  0.
        3    1    3    3  502    0  0.68285675118E+03  0.25308613658E+03 -0.26381146791E+03  0.77455951092E+03  0.10100000352E+00 0.  1.
       -3    1    3    3    0  502 -0.68285675118E+03 -0.25308613658E+03  0.32314265808E+03  0.79672273900E+03  0.10100000352E+00 0. -1.
</event>
<event>
 5   0  0.1764099E-04  0.1607522E+04  0.7818609E-02  0.8815941E-01
        1   -1    0    0  501    0  0.00000000000E+00  0.00000000000E+00  0.78304333960E+03  0.78304333961E+03  0.50400001928E-02 0.  1.
       -1   -1    0    0    0  501  0.00000000000E+00  0.00000000000E+00 -0.82502634048E+03  0.82502634050E+03  0.50400001928E-02 0. -1.
    10030    2    1    2    0    0  0.00000000000E+00  0.00000000000E+00 -0.41983000883E+02  0.16080696801E+04  0.16075215469E+04 0.  0.
        5    1    3    3  502    0  0.18650957352E+03 -0.76832785358E+03  0.12361151429E+03  0.80025958792E+03  0.46999998093E+01 0.  1.
       -5    1    3    3    0  502 -0.18650957352E+03  0.76832785358E+03 -0.16559451517E+03  0.80781009219E+03  0.46999998093E+01 0. -1.
</event>
<event>
 5   0  0.3380454E-04  0.1606849E+04  0.7818609E-02  0.8816351E-01
       -2   -1    0    0    0  501  0.00000000000E+00  0.00000000000E+00  0.37758865367E+03  0.37758865368E+03  0.25500000920E-02 0.  1.
        2   -1    0    0  501    0  0.00000000000E+00  0.00000000000E+00 -0.17095091332E+04  0.17095091332E+04  0.25500000920E-02 0. -1.
    10030    2    1    2    0    0  0.00000000000E+00  0.00000000000E+00 -0.13319204795E+04  0.20870977868E+04  0.16068494043E+04 0.  0.
        5    1    3    3  502    0 -0.36081550747E+03  0.44963977469E+03  0.60836387950E+02  0.57973003503E+03  0.46999998093E+01 0.  1.
       -5    1    3    3    0  502  0.36081550747E+03 -0.44963977469E+03 -0.13927568674E+04  0.15073677518E+04  0.46999998093E+01 0. -1.
</event>
<event>
 5   0  0.3210612E-04  0.1699951E+04  0.7818609E-02  0.8761392E-01
        2   -1    0    0  501    0  0.00000000000E+00  0.00000000000E+00  0.76609568391E+03  0.76609568392E+03  0.25500000920E-02 0. -1.
       -2   -1    0    0    0  501  0.00000000000E+00  0.00000000000E+00 -0.94303898290E+03  0.94303898290E+03  0.25500000920E-02 0.  1.
    10030    2    1    2    0    0  0.00000000000E+00  0.00000000000E+00 -0.17694329899E+03  0.17091346668E+04  0.16999506988E+04 0.  0.
        2    1    3    3  502    0 -0.12472399002E+02 -0.54518159572E+03  0.56703193183E+03  0.78670435665E+03  0.25500000920E-02 0. -1.
       -2    1    3    3    0  502  0.12472399002E+02  0.54518159572E+03 -0.74397523082E+03  0.92243031017E+03  0.25500000920E-02 0.  1.
</event>
<event>
 5   0  0.3380454E-04  0.1599694E+04  0.7818609E-02  0.8820736E-01
       -2   -1    0    0    0  501  0.00000000000E+00  0.00000000000E+00  0.51748388001E+03  0.51748388002E+03  0.25500000920E-02 0. -1.
        2   -1    0    0  501    0  0.00000000000E+00  0.00000000000E+00 -0.12362797967E+04  0.12362797967E+04  0.25500000920E-02 0.  1.
    10030    2    1    2    0    0  0.00000000000E+00  0.00000000000E+00 -0.71879591672E+03  0.17537636768E+04  0.15996935532E+04 0.  0.
        5    1    3    3  502    0 -0.79321343768E+03  0.92677320377E+02 -0.40788586330E+03  0.89675504509E+03  0.46999998093E+01 0. -1.
       -5    1    3    3    0  502  0.79321343768E+03 -0.92677320377E+02 -0.31091005342E+03  0.85700863166E+03  0.46999998093E+01 0.  1.
</event>
<event>
 5   0  0.1819811E-04  0.1583842E+04  0.7818609E-02  0.8830537E-01
       -1   -1    0    0    0  501  0.00000000000E+00  0.00000000000E+00  0.11514755908E+04  0.11514755908E+04  0.50400001928E-02 0.  1.
        1   -1    0    0  501    0  0.00000000000E+00  0.00000000000E+00 -0.54463902404E+03  0.54463902406E+03  0.50400001928E-02 0. -1.
    10030    2    1    2    0    0  0.00000000000E+00  0.00000000000E+00  0.60683656672E+03  0.16961146148E+04  0.15838415855E+04 0.  0.
        1    1    3    3  502    0 -0.46989441662E+03  0.29436935014E+03 -0.30206787683E+03  0.63142622634E+03  0.50400001928E-02 0. -1.
       -1    1    3    3    0  502  0.46989441662E+03 -0.29436935014E+03  0.90890444355E+03  0.10646883885E+04  0.50400001928E-02 0.  1.
</event>
<event>
 5   0  0.3210612E-04  0.1590698E+04  0.7818609E-02  0.8826283E-01
        2   -1    0    0  501    0  0.00000000000E+00  0.00000000000E+00  0.94193831583E+03  0.94193831583E+03  0.25500000920E-02 0. -1.
       -2   -1    0    0    0  501  0.00000000000E+00  0.00000000000E+00 -0.67157263388E+03  0.67157263389E+03  0.25500000920E-02 0.  1.
    10030    2    1    2    0    0  0.00000000000E+00  0.00000000000E+00  0.27036568194E+03  0.16135109497E+04  0.15906979546E+04 0.  0.
        2    1    3    3  502    0  0.21698159055E+03  0.58631504308E+03 -0.36353253009E+03  0.72318893853E+03  0.25500000920E-02 0.  1.
       -2    1    3    3    0  502 -0.21698159055E+03 -0.58631504308E+03  0.63389821203E+03  0.89032201118E+03  0.25500000920E-02 0. -1.
</event>
<event>
 5   0  0.1764099E-04  0.1603628E+04  0.7818609E-02  0.8818322E-01
        1   -1    0    0  501    0  0.00000000000E+00  0.00000000000E+00  0.70822485927E+03  0.70822485929E+03  0.50400001928E-02 0.  1.
       -1   -1    0    0    0  501  0.00000000000E+00  0.00000000000E+00 -0.90777050168E+03  0.90777050170E+03  0.50400001928E-02 0. -1.
    10030    2    1    2    0    0  0.00000000000E+00  0.00000000000E+00 -0.19954564241E+03  0.16159953610E+04  0.16036279317E+04 0.  0.
        5    1    3    3  502    0  0.26411298040E+03 -0.23544844985E+03 -0.82482988079E+03  0.89752886371E+03  0.46999998093E+01 0. -1.
       -5    1    3    3    0  502 -0.26411298040E+03  0.23544844985E+03  0.62528423837E+03  0.71846649728E+03  0.46999998093E+01 0.  1.
</event>
<event>
 5   0  0.1736537E-04  0.1585442E+04  0.7818609E-02  0.8829542E-01
        1   -1    0    0  501    0  0.00000000000E+00  0.00000000000E+00  0.71972298559E+03  0.71972298561E+03  0.50400001928E-02 0. -1.
       -1   -1    0    0    0  501  0.00000000000E+00  0.00000000000E+00 -0.87312324240E+03  0.87312324241E+03  0.50400001928E-02 0.  1.
    10030    2    1    2    0    0  0.00000000000E+00  0.00000000000E+00 -0.15340025680E+03  0.15928462280E+04  0.15854423570E+04 0.  0.
        3    1    3    3  502    0 -0.17103173997E+03 -0.14673375712E+03  0.68686500079E+03  0.72288739861E+03  0.10100000352E+00 0. -1.
       -3    1    3    3    0  502  0.17103173997E+03  0.14673375712E+03 -0.84026525759E+03  0.86995882941E+03  0.10100000352E+00 0.  1.
</event>
<event>
 5   0  0.3263294E-04  0.1597479E+04  0.7818609E-02  0.8822099E-01
        2   -1    0    0  501    0  0.00000000000E+00  0.00000000000E+00  0.43839863982E+03  0.43839863982E+03  0.25500000920E-02 0.  1.
       -2   -1    0    0    0  501  0.00000000000E+00  0.00000000000E+00 -0.14552609556E+04  0.14552609556E+04  0.25500000920E-02 0. -1.
    10030    2    1    2    0    0  0.00000000000E+00  0.00000000000E+00 -0.10168623158E+04  0.18936595954E+04  0.15974785426E+04 0.  0.
        4    1    3    3  502    0  0.28830205382E+03  0.72705623657E+03 -0.70050327907E+03  0.10499691911E+04  0.12699999809E+01 0. -1.
       -4    1    3    3    0  502 -0.28830205382E+03 -0.72705623657E+03 -0.31635903673E+03  0.84369040435E+03  0.12699999809E+01 0.  1.
</event>
<event>
 5   0  0.1764099E-04  0.1602180E+04  0.7818609E-02  0.8819210E-01
       -1   -1    0    0    0  501  0.00000000000E+00  0.00000000000E+00  0.40721948062E+03  0.40721948065E+03  0.50400001928E-02 0.  1.
        1   -1    0    0  501    0  0.00000000000E+00  0.00000000000E+00 -0.15759204304E+04  0.15759204304E+04  0.50400001928E-02 0. -1.
    10030    2    1    2    0    0  0.00000000000E+00  0.00000000000E+00 -0.11687009498E+04  0.19831399111E+04  0.16021803884E+04 0.  0.
        5    1    3    3  502    0  0.17496291835E+02  0.69384644375E+03 -0.89248867276E+02  0.69979744073E+03  0.46999998093E+01 0. -1.
       -5    1    3    3    0  502 -0.17496291835E+02 -0.69384644375E+03 -0.10794520825E+04  0.12833424703E+04  0.46999998093E+01 0.  1.
</event>
<event>
 5   0  0.1787688E-04  0.1615866E+04  0.7818609E-02  0.8810860E-01
       -1   -1    0    0    0  501  0.00000000000E+00  0.00000000000E+00  0.25099756574E+03  0.25099756579E+03  0.50400001928E-02 0. -1.
        1   -1    0    0  501    0  0.00000000000E+00  0.00000000000E+00 -0.26006444031E+04  0.26006444031E+04  0.50400001928E-02 0.  1.
    10030    2    1    2    0    0  0.00000000000E+00  0.00000000000E+00 -0.23496468374E+04  0.28516419689E+04  0.16158656066E+04 0.  0.
        4    1    3    3  502    0 -0.32188474621E+03 -0.61579749453E+03 -0.19023256320E+04  0.20252557289E+04  0.12699999809E+01 0. -1.
       -4    1    3    3    0  502  0.32188474621E+03  0.61579749453E+03 -0.44732120537E+03  0.82638624007E+03  0.12699999809E+01 0.  1.
</event>
<event>
 5   0  0.1736537E-04  0.1633898E+04  0.7818609E-02  0.8799990E-01
       -1   -1    0    0    0  501  0.00000000000E+00  0.00000000000E+00  0.80190577753E+03  0.80190577755E+03  0.50400001928E-02 0.  1.
        1   -1    0    0  501    0  0.00000000000E+00  0.00000000000E+00 -0.83227410326E+03  0.83227410327E+03  0.50400001928E-02 0. -1.
    10030    2    1    2    0    0  0.00000000000E+00  0.00000000000E+00 -0.30368325726E+02  0.16341798808E+04  0.16338976858E+04 0.  0.
        3    1    3    3  502    0  0.11662911733E+03  0.49570503525E+02  0.79201520954E+03  0.80208957616E+03  0.10100000352E+00 0.  1.
       -3    1    3    3    0  502 -0.11662911733E+03 -0.49570503525E+02 -0.82238353527E+03  0.83209030466E+03  0.10100000352E+00 0. -1.
</event>
<event>
 5   0  0.3380454E-04  0.1639456E+04  0.7818609E-02  0.8796669E-01
        2   -1    0    0  501    0  0.00000000000E+00  0.00000000000E+00  0.20591035512E+04  0.20591035512E+04  0.25500000920E-02 0. -1.
       -2   -1    0    0    0  501  0.00000000000E+00  0.00000000000E+00 -0.32633326757E+03  0.32633326758E+03  0.25500000920E-02 0.  1.
    10030    2    1    2    0    0  0.00000000000E+00  0.00000000000E+00  0.17327702837E+04  0.23854368188E+04  0.16394559953E+04 0.  0.
        5    1    3    3  502    0  0.33958907491E+03  0.68053213557E+03  0.13112664582E+04  0.15158781421E+04  0.46999998093E+01 0.  1.
       -5    1    3    3    0  502 -0.33958907491E+03 -0.68053213557E+03  0.42150382545E+03  0.86955867669E+03  0.46999998093E+01 0. -1.
</event>
<event>
 5   0  0.1787688E-04  0.1588737E+04  0.7818609E-02  0.8827497E-01
       -1   -1    0    0    0  501  0.00000000000E+00  0.00000000000E+00  0.53715178024E+03  0.53715178026E+03  0.50400001928E-02 0.  1.
        1   -1    0    0  501    0  0.00000000000E+00  0.00000000000E+00 -0.11747543002E+04  0.11747543002E+04  0.50400001928E-02 0. -1.
    10030    2    1    2    0    0  0.00000000000E+00  0.00000000000E+00 -0.63760251996E+03  0.17119060805E+04  0.15887370629E+04 0.  0.
        4    1    3    3  502    0 -0.18453757970E+03  0.49608664187E+03 -0.95706050202E+03  0.10936738508E+04  0.12699999809E+01 0. -1.
       -4    1    3    3    0  502  0.18453757970E+03 -0.49608664187E+03  0.31945798206E+03  0.61823222964E+03  0.12699999809E+01 0.  1.
</event>
<event>
 5   0  0.1219463E-04  0.1599136E+04  0.7818609E-02  0.8821079E-01
        3   -1    0    0  501    0  0.00000000000E+00  0.00000000000E+00  0.11101565098E+04  0.11101565144E+04  0.10100000352E+00 0. -1.
       -3   -1    0    0    0  501  0.00000000000E+00  0.00000000000E+00 -0.57587284978E+03  0.57587285863E+03  0.10100000352E+00 0.  1.
    10030    2    1    2    0    0  0.00000000000E+00  0.00000000000E+00  0.53428366003E+03  0.16860293730E+04  0.15991360222E+04 0.  0.
        2    1    3    3  502    0 -0.61176359389E+03  0.26287994307E+03 -0.19957196820E+03  0.69511835667E+03  0.25500000920E-02 0.  1.
       -2    1    3    3    0  502  0.61176359389E+03 -0.26287994307E+03  0.73385562823E+03  0.99091101637E+03  0.25500000920E-02 0. -1.
</event>
<event>
 5   0  0.3380454E-04  0.1594467E+04  0.7818609E-02  0.8823954E-01
       -2   -1    0    0    0  501  0.00000000000E+00  0.00000000000E+00  0.41185231152E+03  0.41185231153E+03  0.25500000920E-02 0.  1.
        2   -1    0    0  501    0  0.00000000000E+00  0.00000000000E+00 -0.15432258855E+04  0.15432258855E+04  0.25500000920E-02 0. -1.
    10030    2    1    2    0    0  0.00000000000E+00  0.00000000000E+00 -0.11313735740E+04  0.19550781971E+04  0.15944668678E+04 0.  0.
        5    1    3    3  502    0  0.10491374819E+03  0.70782527877E+03 -0.13471921873E+03  0.72814481919E+03  0.46999998093E+01 0.  1.
       -5    1    3    3    0  502 -0.10491374819E+03 -0.70782527877E+03 -0.99665435528E+03  0.12269333779E+04  0.46999998093E+01 0. -1.
</event>
<event>
 5   0  0.1764099E-04  0.1612727E+04  0.7818609E-02  0.8812767E-01
       -1   -1    0    0    0  501  0.00000000000E+00  0.00000000000E+00  0.88148431016E+03  0.88148431017E+03  0.50400001928E-02 0.  1.
        1   -1    0    0  501    0  0.00000000000E+00  0.00000000000E+00 -0.73764446761E+03  0.73764446763E+03  0.50400001928E-02 0. -1.
    10030    2    1    2    0    0  0.00000000000E+00  0.00000000000E+00  0.14383984255E+03  0.16191287778E+04  0.16127269139E+04 0.  0.
        5    1    3    3  502    0 -0.16456081615E+03 -0.12623891080E+03 -0.71039300557E+03  0.74006542763E+03  0.46999998093E+01 0. -1.
       -5    1    3    3    0  502  0.16456081615E+03  0.12623891080E+03  0.85423284812E+03  0.87906335017E+03  0.46999998093E+01 0.  1.
</event>
<event>
 5   0  0.3263294E-04  0.1598587E+04  0.7818609E-02  0.8821416E-01
       -2   -1    0    0    0  501  0.00000000000E+00  0.00000000000E+00  0.56090540725E+03  0.56090540726E+03  0.25500000920E-02 0.  1.
        2   -1    0    0  501    0  0.00000000000E+00  0.00000000000E+00 -0.11389983229E+04  0.11389983229E+04  0.25500000920E-02 0. -1.
    10030    2    1    2    0    0  0.00000000000E+00  0.00000000000E+00 -0.57809291565E+03  0.16999037302E+04  0.15985872740E+04 0.  0.
        4    1    3    3  502    0  0.94560050004E+02 -0.75670073864E+02  0.55109081957E+03  0.56424309251E+03  0.12699999809E+01 0.  1.
       -4    1    3    3    0  502 -0.94560050004E+02  0.75670073864E+02 -0.11291837352E+04  0.11356606377E+04  0.12699999809E+01 0. -1.
</event>
<event>
 5   0  0.1787688E-04  0.1633979E+04  0.7818609E-02  0.8799941E-01
       -1   -1    0    0    0  501  0.00000000000E+00  0.00000000000E+00  0.35755692478E+03  0.35755692481E+03  0.50400001928E-02 0.  1.
        1   -1    0    0  501    0  0.00000000000E+00  0.00000000000E+00 -0.18667573831E+04  0.18667573831E+04  0.50400001928E-02 0. -1.
    10030    2    1    2    0    0  0.00000000000E+00  0.00000000000E+00 -0.15092004584E+04  0.22243143080E+04  0.16339792279E+04 0.  0.
        4    1    3    3  502    0  0.30023227348E+03 -0.65276111588E+03 -0.22521205622E+03  0.75296651692E+03  0.12699999809E+01 0.  1.
       -4    1    3    3    0  502 -0.30023227348E+03  0.65276111588E+03 -0.12839884021E+04  0.14713477910E+04  0.12699999809E+01 0. -1.
</event>
<event>
 5   0  0.1761255E-04  0.1609857E+04  0.7818609E-02  0.8814515E-01
        1   -1    0    0  501    0  0.00000000000E+00  0.00000000000E+00  0.92819878373E+03  0.92819878374E+03  0.50400001928E-02 0. -1.
       -1   -1    0    0    0  501  0.00000000000E+00  0.00000000000E+00 -0.69802949697E+03  0.69802949699E+03  0.50400001928E-02 0.  1.
    10030    2    1    2    0    0  0.00000000000E+00  0.00000000000E+00  0.23016928676E+03  0.16262282807E+04  0.16098572982E+04 0.  0.
        2    1    3    3  502    0  0.54007645371E+03 -0.37201557208E+03 -0.35638630441E+03  0.74638419041E+03  0.25500000920E-02 0. -1.
       -2    1    3    3    0  502 -0.54007645371E+03  0.37201557208E+03  0.58655559117E+03  0.87984409031E+03  0.25500000920E-02 0.  1.
</event>
<event>
 5   0  0.1736537E-04  0.1609010E+04  0.7818609E-02  0.8815032E-01
        1   -1    0    0  501    0  0.00000000000E+00  0.00000000000E+00  0.11960268131E+04  0.11960268131E+04  0.50400001928E-02 0. -1.
       -1   -1    0    0    0  501  0.00000000000E+00  0.00000000000E+00 -0.54114866817E+03  0.54114866819E+03  0.50400001928E-02 0.  1.
    10030    2    1    2    0    0  0.00000000000E+00  0.00000000000E+00  0.65487814497E+03  0.17371754813E+04  0.16090100274E+04 0.  0.
        3    1    3    3  502    0  0.23427298988E+03 -0.50238970384E+03  0.95693345921E+03  0.11058937127E+04  0.10100000352E+00 0. -1.
       -3    1    3    3    0  502 -0.23427298988E+03  0.50238970384E+03 -0.30205531424E+03  0.63128176860E+03  0.10100000352E+00 0.  1.
</event>
<event>
 5   0  0.3274900E-04  0.1594985E+04  0.7818609E-02  0.8823635E-01
       -2   -1    0    0    0  501  0.00000000000E+00  0.00000000000E+00  0.51234817735E+03  0.51234817736E+03  0.25500000920E-02 0.  1.
        2   -1    0    0  501    0  0.00000000000E+00  0.00000000000E+00 -0.12413321250E+04  0.12413321250E+04  0.25500000920E-02 0. -1.
    10030    2    1    2    0    0  0.00000000000E+00  0.00000000000E+00 -0.72898394763E+03  0.17536803023E+04  0.15949849551E+04 0.  0.
        3    1    3    3  502    0 -0.91181503170E+02 -0.18953997411E+02 -0.12353326749E+04  0.12388382253E+04  0.10100000352E+00 0. -1.
       -3    1    3    3    0  502  0.91181503170E+02  0.18953997411E+02  0.50634872725E+03  0.51484207708E+03  0.10100000352E+00 0.  1.
</event>
<event>
 5   0  0.1761255E-04  0.1593031E+04  0.7818609E-02  0.8824841E-01
       -1   -1    0    0    0  501  0.00000000000E+00  0.00000000000E+00  0.50691658514E+03  0.50691658516E+03  0.50400001928E-02 0. -1.
        1   -1    0    0  501    0  0.00000000000E+00  0.00000000000E+00 -0.12515606848E+04  0.12515606848E+04  0.50400001928E-02 0.  1.
    10030    2    1    2    0    0  0.00000000000E+00  0.00000000000E+00 -0.74464409964E+03  0.17584772700E+04  0.15930309080E+04 0.  0.
        2    1    3    3  502    0 -0.36860920514E+03 -0.31735847387E+03 -0.10685813263E+04  0.11740763169E+04  0.25500000920E-02 0.  1.
       -2    1    3    3    0  502  0.36860920514E+03  0.31735847387E+03  0.32393722667E+03  0.58440095301E+03  0.25500000920E-02 0. -1.
</event>
<event>
 5   0  0.1761255E-04  0.1597049E+04  0.7818609E-02  0.8822363E-01
        1   -1    0    0  501    0  0.00000000000E+00  0.00000000000E+00  0.10866582675E+04  0.10866582675E+04  0.50400001928E-02 0.  1.
       -1   -1    0    0    0  501  0.00000000000E+00  0.00000000000E+00 -0.58679124258E+03  0.58679124260E+03  0.50400001928E-02 0. -1.
    10030    2    1    2    0    0  0.00000000000E+00  0.00000000000E+00  0.49986702490E+03  0.16734495101E+04  0.15970492229E+04 0.  0.
        2    1    3    3  502    0  0.76879638475E+03  0.21399901107E+03  0.22033143548E+03  0.82788247923E+03  0.25500000920E-02 0. -1.
       -2    1    3    3    0  502 -0.76879638475E+03 -0.21399901107E+03  0.27953558942E+03  0.84556703087E+03  0.25500000920E-02 0.  1.
</event>
<event>
 5   0  0.3380454E-04  0.1589063E+04  0.7818609E-02  0.8827295E-01
       -2   -1    0    0    0  501  0.00000000000E+00  0.00000000000E+00  0.41349797214E+03  0.41349797215E+03  0.25500000920E-02 0. -1.
        2   -1    0    0  501    0  0.00000000000E+00  0.00000000000E+00 -0.15266824129E+04  0.15266824129E+04  0.25500000920E-02 0.  1.
    10030    2    1    2    0    0  0.00000000000E+00  0.00000000000E+00 -0.11131844408E+04  0.19401803851E+04  0.15890627198E+04 0.  0.
        5    1    3    3  502    0  0.59080747422E+03 -0.32905207824E+03 -0.10657910337E+04  0.12622445719E+04  0.46999998093E+01 0.  1.
       -5    1    3    3    0  502 -0.59080747422E+03  0.32905207824E+03 -0.47393407129E+02  0.67793581321E+03  0.46999998093E+01 0. -1.
</event>
<event>
 5   0  0.3263294E-04  0.1585065E+04  0.7818609E-02  0.8829776E-01
       -2   -1    0    0    0  501  0.00000000000E+00  0.00000000000E+00  0.50036794886E+03  0.50036794886E+03  0.25500000920E-02 0. -1.
        2   -1    0    0  501    0  0.00000000000E+00  0.00000000000E+00 -0.12552914798E+04  0.12552914798E+04  0.25500000920E-02 0.  1.
    10030    2    1    2    0    0  0.00000000000E+00  0.00000000000E+00 -0.75492353091E+03  0.17556594286E+04  0.15850648226E+04 0.  0.
        4    1    3    3  502    0  0.40338690958E+03  0.37426355937E+03  0.25428518376E+03  0.60618213292E+03  0.12699999809E+01 0. -1.
       -4    1    3    3    0  502 -0.40338690958E+03 -0.37426355937E+03 -0.10092087147E+04  0.11494772957E+04  0.12699999809E+01 0.  1.
</event>
<event>
 5   0  0.1761255E-04  0.1603787E+04  0.7818609E-02  0.8818225E-01
        1   -1    0    0  501    0  0.00000000000E+00  0.00000000000E+00  0.12315530299E+04  0.12315530299E+04  0.50400001928E-02 0.  1.
       -1   -1    0    0    0  501  0.00000000000E+00  0.00000000000E+00 -0.52213223695E+03  0.52213223698E+03  0.50400001928E-02 0. -1.
    10030    2    1    2    0    0  0.00000000000E+00  0.00000000000E+00  0.70942079298E+03  0.17536852669E+04  0.16037874404E+04 0.  0.
        2    1    3    3  502    0  0.11167407626E+03  0.73446332681E+03  0.68479566586E+03  0.10103724965E+04  0.25500000920E-02 0.  1.
       -2    1    3    3    0  502 -0.11167407626E+03 -0.73446332681E+03  0.24625127115E+02  0.74331277040E+03  0.25500000920E-02 0. -1.
</event>
<event>
 5   0  0.1736537E-04  0.1604829E+04  0.7818609E-02  0.8817587E-01
        1   -1    0    0  501    0  0.00000000000E+00  0.00000000000E+00  0.15420872569E+04  0.15420872569E+04  0.50400001928E-02 0. -1.
       -1   -1    0    0    0  501  0.00000000000E+00  0.00000000000E+00 -0.41753105755E+03  0.41753105758E+03  0.50400001928E-02 0.  1.
    10030    2    1    2    0    0  0.00000000000E+00  0.00000000000E+00  0.11245561993E+04  0.19596183145E+04  0.16048293657E+04 0.  0.
        3    1    3    3  502    0  0.10876204120E+03 -0.52720153141E+03 -0.16433760290E+03  0.56282989815E+03  0.10100000352E+00 0.  1.
       -3    1    3    3    0  502 -0.10876204120E+03  0.52720153141E+03  0.12888938022E+04  0.13967884163E+04  0.10100000352E+00 0. -1.
</event>
<event>
 5   0  0.1736537E-04  0.1619300E+04  0.7818609E-02  0.8808778E-01
        1   -1    0    0  501    0  0.00000000000E+00  0.00000000000E+00  0.84007475575E+03  0.84007475577E+03  0.50400001928E-02 0.  1.
       -1   -1    0    0    0  501  0.00000000000E+00  0.00000000000E+00 -0.78032755261E+03  0.78032755263E+03  0.50400001928E-02 0. -1.
    10030    2    1    2    0    0  0.00000000000E+00  0.00000000000E+00  0.59747203144E+02  0.16204023084E+04  0.16193004393E+04 0.  0.
        3    1    3    3  502    0  0.33303020461E+03  0.72318193484E+03 -0.11730550596E+03  0.80477439074E+03  0.10100000352E+00 0. -1.
       -3    1    3    3    0  502 -0.33303020461E+03 -0.72318193484E+03  0.17705270911E+03  0.81562791766E+03  0.10100000352E+00 0.  1.
</event>
<event>
 5   0  0.3210612E-04  0.1590147E+04  0.7818609E-02  0.8826624E-01
        2   -1    0    0  501    0  0.00000000000E+00  0.00000000000E+00  0.12734433509E+04  0.12734433509E+04  0.25500000920E-02 0.  1.
       -2   -1    0    0    0  501  0.00000000000E+00  0.00000000000E+00 -0.49640388742E+03  0.49640388743E+03  0.25500000920E-02 0. -1.
    10030    2    1    2    0    0  0.00000000000E+00  0.00000000000E+00  0.77703946352E+03  0.17698472384E+04  0.15901474521E+04 0.  0.
        2    1    3    3  502    0 -0.50330861855E+03  0.38423893841E+03 -0.14663137596E+03  0.64996914367E+03  0.25500000920E-02 0. -1.
       -2    1    3    3    0  502  0.50330861855E+03 -0.38423893841E+03  0.92367083948E+03  0.11198780947E+04  0.25500000920E-02 0.  1.
</event>
<event>
 5   0  0.1819811E-04  0.1610011E+04  0.7818609E-02  0.8814421E-01
       -1   -1    0    0    0  501  0.00000000000E+00  0.00000000000E+00  0.12479375537E+04  0.12479375537E+04  0.50400001928E-02 0. -1.
        1   -1    0    0  501    0  0.00000000000E+00  0.00000000000E+00 -0.51928408026E+03  0.51928408028E+03  0.50400001928E-02 0.  1.
    10030    2    1    2    0    0  0.00000000000E+00  0.00000000000E+00  0.72865347344E+03  0.17672216340E+04  0.16100113103E+04 0.  0.
        1    1    3    3  502    0 -0.11433099712E+03  0.11336768721E+03  0.12300832884E+04  0.12405759573E+04  0.50400001928E-02 0. -1.
       -1    1    3    3    0  502  0.11433099712E+03 -0.11336768721E+03 -0.50142981497E+03  0.52664567668E+03  0.50400001928E-02 0.  1.
</event>
<event>
 5   0  0.3380454E-04  0.1591882E+04  0.7818609E-02  0.8825551E-01
        2   -1    0    0  501    0  0.00000000000E+00  0.00000000000E+00  0.16462216281E+04  0.16462216281E+04  0.25500000920E-02 0. -1.
       -2   -1    0    0    0  501  0.00000000000E+00  0.00000000000E+00 -0.38483382154E+03  0.38483382155E+03  0.25500000920E-02 0.  1.
    10030    2    1    2    0    0  0.00000000000E+00  0.00000000000E+00  0.12613878066E+04  0.20310554497E+04  0.15918816040E+04 0.  0.
        5    1    3    3  502    0  0.26662548455E+03  0.56004804711E+03  0.12670473709E+04  0.14107353027E+04  0.46999998093E+01 0. -1.
       -5    1    3    3    0  502 -0.26662548455E+03 -0.56004804711E+03 -0.56595643422E+01  0.62032014698E+03  0.46999998093E+01 0.  1.
</event>
<event>
 5   0  0.1736537E-04  0.1667996E+04  0.7818609E-02  0.8779831E-01
        1   -1    0    0  501    0  0.00000000000E+00  0.00000000000E+00  0.26116064186E+04  0.26116064186E+04  0.50400001928E-02 0.  1.
       -1   -1    0    0    0  501  0.00000000000E+00  0.00000000000E+00 -0.26633138230E+03  0.26633138234E+03  0.50400001928E-02 0. -1.
    10030    2    1    2    0    0  0.00000000000E+00  0.00000000000E+00  0.23452750363E+04  0.28779378010E+04  0.16679961002E+04 0.  0.
        3    1    3    3  502    0 -0.10512853627E+03 -0.55659623836E+03  0.11647924618E+03  0.57828955264E+03  0.10100000352E+00 0. -1.
       -3    1    3    3    0  502  0.10512853627E+03  0.55659623836E+03  0.22287957901E+04  0.22996482483E+04  0.10100000352E+00 0.  1.
</event>
<event>
 5   0  0.3210612E-04  0.1458841E+04  0.7818609E-02  0.8912294E-01
        2   -1    0    0  501    0  0.00000000000E+00  0.00000000000E+00  0.22221275003E+04  0.22221275003E+04  0.25500000920E-02 0. -1.
       -2   -1    0    0    0  501  0.00000000000E+00  0.00000000000E+00 -0.23943473759E+03  0.23943473761E+03  0.25500000920E-02 0.  1.
    10030    2    1    2    0    0  0.00000000000E+00  0.00000000000E+00  0.19826927627E+04  0.24615622379E+04  0.14588413415E+04 0.  0.
        2    1    3    3  502    0 -0.26558501515E+03  0.56750375048E+03  0.36122325140E+03  0.72324141505E+03  0.25500000920E-02 0.  1.
       -2    1    3    3    0  502  0.26558501515E+03 -0.56750375048E+03  0.16214695113E+04  0.17383208228E+04  0.25500000920E-02 0. -1.
</event>
<event>
 5   0  0.1219463E-04  0.1728542E+04  0.7818609E-02  0.8745251E-01
        3   -1    0    0  501    0  0.00000000000E+00  0.00000000000E+00  0.16607307473E+04  0.16607307504E+04  0.10100000352E+00 0. -1.
       -3   -1    0    0    0  501  0.00000000000E+00  0.00000000000E+00 -0.44978074877E+03  0.44978076011E+03  0.10100000352E+00 0.  1.
    10030    2    1    2    0    0  0.00000000000E+00  0.00000000000E+00  0.12109499985E+04  0.21105115105E+04  0.17285424313E+04 0.  0.
        3    1    3    3  502    0 -0.34455433088E+03 -0.40899233576E+03 -0.22350699546E+03  0.57961004551E+03  0.10100000352E+00 0.  1.
       -3    1    3    3    0  502  0.34455433088E+03  0.40899233576E+03  0.14344569940E+04  0.15309014650E+04  0.10100000352E+00 0. -1.
</event>
<event>
 5   0  0.3380454E-04  0.1607568E+04  0.7818609E-02  0.8815912E-01
       -2   -1    0    0    0  501  0.00000000000E+00  0.00000000000E+00  0.28256027989E+03  0.28256027990E+03  0.25500000920E-02 0. -1.
        2   -1    0    0  501    0  0.00000000000E+00  0.00000000000E+00 -0.22864808371E+04  0.22864808371E+04  0.25500000920E-02 0.  1.
    10030    2    1    2    0    0  0.00000000000E+00  0.00000000000E+00 -0.20039205572E+04  0.25690411170E+04  0.16075679336E+04 0.  0.
        5    1    3    3  502    0  0.17022795303E+03  0.87131432434E+02 -0.22495748211E+04  0.22576931608E+04  0.46999998093E+01 0.  1.
       -5    1    3    3    0  502 -0.17022795303E+03 -0.87131432434E+02  0.24565426386E+03  0.31134795625E+03  0.46999998093E+01 0. -1.
</event>
<event>
 5   0  0.1819811E-04  0.1523867E+04  0.7818609E-02  0.8868735E-01
       -1   -1    0    0    0  501  0.00000000000E+00  0.00000000000E+00  0.28557021830E+03  0.28557021835E+03  0.50400001928E-02 0. -1.
        1   -1    0    0  501    0  0.00000000000E+00  0.00000000000E+00 -0.20329256126E+04  0.20329256126E+04  0.50400001928E-02 0.  1.
    10030    2    1    2    0    0  0.00000000000E+00  0.00000000000E+00 -0.17473553943E+04  0.23184958309E+04  0.15238674628E+04 0.  0.
        1    1    3    3  502    0 -0.34784536726E+03 -0.52238306016E+03 -0.21634123928E+03  0.66384033691E+03  0.50400001928E-02 0. -1.
       -1    1    3    3    0  502  0.34784536726E+03  0.52238306016E+03 -0.15310141550E+04  0.16546554940E+04  0.50400001928E-02 0.  1.
</event>
<event>
 5   0  0.1761255E-04  0.1596548E+04  0.7818609E-02  0.8822671E-01
        1   -1    0    0  501    0  0.00000000000E+00  0.00000000000E+00  0.65796421561E+03  0.65796421562E+03  0.50400001928E-02 0.  1.
       -1   -1    0    0    0  501  0.00000000000E+00  0.00000000000E+00 -0.96850483766E+03  0.96850483767E+03  0.50400001928E-02 0. -1.
    10030    2    1    2    0    0  0.00000000000E+00  0.00000000000E+00 -0.31054062205E+03  0.16264690533E+04  0.15965481839E+04 0.  0.
        2    1    3    3  502    0  0.48526920585E+03 -0.55720508934E+03 -0.46305455599E+03  0.87199956167E+03  0.25500000920E-02 0. -1.
       -2    1    3    3    0  502 -0.48526920585E+03  0.55720508934E+03  0.15251393394E+03  0.75446949162E+03  0.25500000920E-02 0.  1.
</event>
<event>
 5   0  0.3274900E-04  0.1601326E+04  0.7818609E-02  0.8819734E-01
        2   -1    0    0  501    0  0.00000000000E+00  0.00000000000E+00  0.19903207429E+04  0.19903207429E+04  0.25500000920E-02 0. -1.
       -2   -1    0    0    0  501  0.00000000000E+00  0.00000000000E+00 -0.32208929057E+03  0.32208929059E+03  0.25500000920E-02 0.  1.
    10030    2    1    2    0    0  0.00000000000E+00  0.00000000000E+00  0.16682314523E+04  0.23124100335E+04  0.16013256959E+04 0.  0.
        3    1    3    3  502    0  0.68834983144E+03 -0.25375772099E+03  0.37101920798E+03  0.82211540205E+03  0.10100000352E+00 0.  1.
       -3    1    3    3    0  502 -0.68834983144E+03  0.25375772099E+03  0.12972122444E+04  0.14902946314E+04  0.10100000352E+00 0. -1.
</event>
<event>
 5   0  0.1764099E-04  0.1585582E+04  0.7818609E-02  0.8829455E-01
       -1   -1    0    0    0  501  0.00000000000E+00  0.00000000000E+00  0.88375327287E+03  0.88375327288E+03  0.50400001928E-02 0. -1.
        1   -1    0    0  501    0  0.00000000000E+00  0.00000000000E+00 -0.71119148274E+03  0.71119148276E+03  0.50400001928E-02 0.  1.
    10030    2    1    2    0    0  0.00000000000E+00  0.00000000000E+00  0.17256179013E+03  0.15949447556E+04  0.15855822912E+04 0.  0.
        5    1    3    3  502    0 -0.62180835078E+02  0.57966990715E+03  0.62667933963E+03  0.85593968375E+03  0.46999998093E+01 0. -1.
       -5    1    3    3    0  502  0.62180835078E+02 -0.57966990715E+03 -0.45411754950E+03  0.73900507188E+03  0.46999998093E+01 0.  1.
</event>
<event>
 5   0  0.3228393E-04  0.1598159E+04  0.7818609E-02  0.8821680E-01
        2   -1    0    0  501    0  0.00000000000E+00  0.00000000000E+00  0.12056224570E+04  0.12056224570E+04  0.25500000920E-02 0. -1.
       -2   -1    0    0    0  501  0.00000000000E+00  0.00000000000E+00 -0.52962550018E+03  0.52962550019E+03  0.25500000920E-02 0.  1.
    10030    2    1    2    0    0  0.00000000000E+00  0.00000000000E+00  0.67599695685E+03  0.17352479572E+04  0.15981594374E+04 0.  0.
        1    1    3    3  502    0 -0.47884528752E+03 -0.51088977737E+03  0.75602652815E+03  0.10304743011E+04  0.50400001928E-02 0. -1.
       -1    1    3    3    0  502  0.47884528752E+03  0.51088977737E+03 -0.80029571302E+02  0.70477365608E+03  0.50400001928E-02 0.  1.
</event>
<event>
 5   0  0.1819811E-04  0.1602869E+04  0.7818609E-02  0.8818787E-01
        1   -1    0    0  501    0  0.00000000000E+00  0.00000000000E+00  0.69103290482E+03  0.69103290484E+03  0.50400001928E-02 0.  1.
       -1   -1    0    0    0  501  0.00000000000E+00  0.00000000000E+00 -0.92947446663E+03  0.92947446664E+03  0.50400001928E-02 0. -1.
    10030    2    1    2    0    0  0.00000000000E+00  0.00000000000E+00 -0.23844156181E+03  0.16205073715E+04  0.16028692282E+04 0.  0.
        1    1    3    3  502    0 -0.51267644837E+03  0.43215201204E+03  0.32459152667E+03  0.74495111345E+03  0.50400001928E-02 0.  1.
       -1    1    3    3    0  502  0.51267644837E+03 -0.43215201204E+03 -0.56303308849E+03  0.87555625803E+03  0.50400001928E-02 0. -1.
</event>
<event>
 5   0  0.3210612E-04  0.1595117E+04  0.7818609E-02  0.8823554E-01
       -2   -1    0    0    0  501  0.00000000000E+00  0.00000000000E+00  0.26333868988E+03  0.26333868989E+03  0.25500000920E-02 0.  1.
        2   -1    0    0  501    0  0.00000000000E+00  0.00000000000E+00 -0.24155176492E+04  0.24155176492E+04  0.25500000920E-02 0. -1.
    10030    2    1    2    0    0  0.00000000000E+00  0.00000000000E+00 -0.21521789593E+04  0.26788563391E+04  0.15951166141E+04 0.  0.
        2    1    3    3  502    0 -0.70440740318E+03 -0.18046370159E+03 -0.16263171996E+04  0.17814781983E+04  0.25500000920E-02 0. -1.
       -2    1    3    3    0  502  0.70440740318E+03  0.18046370159E+03 -0.52586175971E+03  0.89737814079E+03  0.25500000920E-02 0.  1.
</event>
<event>
 5   0  0.1736537E-04  0.1536329E+04  0.7818609E-02  0.8860647E-01
       -1   -1    0    0    0  501  0.00000000000E+00  0.00000000000E+00  0.74284069696E+03  0.74284069698E+03  0.50400001928E-02 0.  1.
        1   -1    0    0  501    0  0.00000000000E+00  0.00000000000E+00 -0.79435179437E+03  0.79435179439E+03  0.50400001928E-02 0. -1.
    10030    2    1    2    0    0  0.00000000000E+00  0.00000000000E+00 -0.51511097411E+02  0.15371924914E+04  0.15363291842E+04 0.  0.
        3    1    3    3  502    0  0.58469675029E+03 -0.37047557283E+03 -0.35904089556E+03  0.77976458931E+03  0.10100000352E+00 0. -1.
       -3    1    3    3    0  502 -0.58469675029E+03  0.37047557283E+03  0.30752979815E+03  0.75742790205E+03  0.10100000352E+00 0.  1.
</event>
<event>
 5   0  0.3263294E-04  0.1615530E+04  0.7818609E-02  0.8811064E-01
        2   -1    0    0  501    0  0.00000000000E+00  0.00000000000E+00  0.14401389237E+04  0.14401389237E+04  0.25500000920E-02 0. -1.
       -2   -1    0    0    0  501  0.00000000000E+00  0.00000000000E+00 -0.45307055005E+03  0.45307055006E+03  0.25500000920E-02 0.  1.
    10030    2    1    2    0    0  0.00000000000E+00  0.00000000000E+00  0.98706837369E+03  0.18932094738E+04  0.16155302960E+04 0.  0.
        4    1    3    3  502    0  0.58778131611E+03  0.33693797212E+03  0.10089872040E+04  0.12153480421E+04  0.12699999809E+01 0. -1.
       -4    1    3    3    0  502 -0.58778131611E+03 -0.33693797212E+03 -0.21918830301E+02  0.67786143175E+03  0.12699999809E+01 0.  1.
</event>
<event>
 5   0  0.3228393E-04  0.1609547E+04  0.7818609E-02  0.8814704E-01
       -2   -1    0    0    0  501  0.00000000000E+00  0.00000000000E+00  0.11157420803E+04  0.11157420803E+04  0.25500000920E-02 0. -1.
        2   -1    0    0  501    0  0.00000000000E+00  0.00000000000E+00 -0.58047507287E+03  0.58047507287E+03  0.25500000920E-02 0.  1.
    10030    2    1    2    0    0  0.00000000000E+00  0.00000000000E+00  0.53526700739E+03  0.16962171531E+04  0.16095470982E+04 0.  0.
        1    1    3    3  502    0 -0.52523490472E+01  0.71259161806E+03  0.66173028248E+03  0.97247178266E+03  0.50400001928E-02 0. -1.
       -1    1    3    3    0  502  0.52523490472E+01 -0.71259161806E+03 -0.12646327509E+03  0.72374537047E+03  0.50400001928E-02 0.  1.
</event>
<event>
 5   0  0.1736537E-04  0.1603032E+04  0.7818609E-02  0.8818687E-01
       -1   -1    0    0    0  501  0.00000000000E+00  0.00000000000E+00  0.78384164728E+03  0.78384164730E+03  0.50400001928E-02 0. -1.
        1   -1    0    0  501    0  0.00000000000E+00  0.00000000000E+00 -0.81958919041E+03  0.81958919043E+03  0.50400001928E-02 0.  1.
    10030    2    1    2    0    0  0.00000000000E+00  0.00000000000E+00 -0.35747543130E+02  0.16034308377E+04  0.16030323030E+04 0.  0.
        3    1    3    3  502    0  0.39395782637E+03  0.21644487031E+03  0.64590026695E+03  0.78691696887E+03  0.10100000352E+00 0. -1.
       -3    1    3    3    0  502 -0.39395782637E+03 -0.21644487031E+03 -0.68164781008E+03  0.81651386886E+03  0.10100000352E+00 0.  1.
</event>
<event>
 5   0  0.1764099E-04  0.1590375E+04  0.7818609E-02  0.8826483E-01
       -1   -1    0    0    0  501  0.00000000000E+00  0.00000000000E+00  0.53078619312E+03  0.53078619315E+03  0.50400001928E-02 0.  1.
        1   -1    0    0  501    0  0.00000000000E+00  0.00000000000E+00 -0.11912952573E+04  0.11912952573E+04  0.50400001928E-02 0. -1.
    10030    2    1    2    0    0  0.00000000000E+00  0.00000000000E+00 -0.66050906418E+03  0.17220814505E+04  0.15903748923E+04 0.  0.
        5    1    3    3  502    0  0.15814773579E+03 -0.19440588519E+03 -0.11474007166E+04  0.11744593858E+04  0.46999998093E+01 0. -1.
       -5    1    3    3    0  502 -0.15814773579E+03  0.19440588519E+03  0.48689165239E+03  0.54762206465E+03  0.46999998093E+01 0.  1.
</event>
<event>
 5   0  0.1736537E-04  0.1600145E+04  0.7818609E-02  0.8820459E-01
       -1   -1    0    0    0  501  0.00000000000E+00  0.00000000000E+00  0.63984349542E+03  0.63984349544E+03  0.50400001928E-02 0.  1.
        1   -1    0    0  501    0  0.00000000000E+00  0.00000000000E+00 -0.10004257506E+04  0.10004257506E+04  0.50400001928E-02 0. -1.
    10030    2    1    2    0    0  0.00000000000E+00  0.00000000000E+00 -0.36058225519E+03  0.16402692461E+04  0.16001448799E+04 0.  0.
        3    1    3    3  502    0  0.57313004771E+03 -0.46125036954E+03 -0.50263774553E+03  0.89099644692E+03  0.10100000352E+00 0. -1.
       -3    1    3    3    0  502 -0.57313004771E+03  0.46125036954E+03  0.14205549034E+03  0.74927279914E+03  0.10100000352E+00 0.  1.
</event>
<event>
 5   0  0.1764099E-04  0.1601150E+04  0.7818609E-02  0.8819842E-01
        1   -1    0    0  501    0  0.00000000000E+00  0.00000000000E+00  0.91792761529E+03  0.91792761530E+03  0.50400001928E-02 0.  1.
       -1   -1    0    0    0  501  0.00000000000E+00  0.00000000000E+00 -0.69822508943E+03  0.69822508944E+03  0.50400001928E-02 0. -1.
    10030    2    1    2    0    0  0.00000000000E+00  0.00000000000E+00  0.21970252586E+03  0.16161527047E+04  0.16011497011E+04 0.  0.
        5    1    3    3  502    0 -0.45700062283E+03 -0.12232619023E+03  0.76172367635E+03  0.89669298826E+03  0.46999998093E+01 0.  1.
       -5    1    3    3    0  502  0.45700062283E+03  0.12232619023E+03 -0.54202115048E+03  0.71945971649E+03  0.46999998093E+01 0. -1.
</event>
<event>
 5   0  0.3210612E-04  0.1609943E+04  0.7818609E-02  0.8814463E-01
       -2   -1    0    0    0  501  0.00000000000E+00  0.00000000000E+00  0.50583556279E+03  0.50583556279E+03  0.25500000920E-02 0.  1.
        2   -1    0    0  501    0  0.00000000000E+00  0.00000000000E+00 -0.12810067513E+04  0.12810067513E+04  0.25500000920E-02 0. -1.
    10030    2    1    2    0    0  0.00000000000E+00  0.00000000000E+00 -0.77517118850E+03  0.17868423141E+04  0.16099425716E+04 0.  0.
        2    1    3    3  502    0  0.19825465694E+02 -0.34832820491E+03  0.41755775879E+03  0.54413240058E+03  0.25500000920E-02 0.  1.
       -2    1    3    3    0  502 -0.19825465694E+02  0.34832820491E+03 -0.11927289473E+04  0.12427099135E+04  0.25500000920E-02 0. -1.
</event>
<event>
 5   0  0.1736537E-04  0.1600916E+04  0.7818609E-02  0.8819985E-01
        1   -1    0    0  501    0  0.00000000000E+00  0.00000000000E+00  0.18376273267E+04  0.18376273267E+04  0.50400001928E-02 0. -1.
       -1   -1    0    0    0  501  0.00000000000E+00  0.00000000000E+00 -0.34867407678E+03  0.34867407682E+03  0.50400001928E-02 0.  1.
    10030    2    1    2    0    0  0.00000000000E+00  0.00000000000E+00  0.14889532499E+04  0.21863014035E+04  0.16009160024E+04 0.  0.
        3    1    3    3  502    0 -0.67650534182E+01  0.67462272515E+03  0.13327741571E+04  0.14938033844E+04  0.10100000352E+00 0. -1.
       -3    1    3    3    0  502  0.67650534182E+01 -0.67462272515E+03  0.15617909280E+03  0.69249801910E+03  0.10100000352E+00 0.  1.
</event>
<event>
 5   0  0.3228393E-04  0.1605978E+04  0.7818609E-02  0.8816884E-01
       -2   -1    0    0    0  501  0.00000000000E+00  0.00000000000E+00  0.32915586163E+03  0.32915586164E+03  0.25500000920E-02 0.  1.
        2   -1    0    0  501    0  0.00000000000E+00  0.00000000000E+00 -0.19589244319E+04  0.19589244319E+04  0.25500000920E-02 0. -1.
    10030    2    1    2    0    0  0.00000000000E+00  0.00000000000E+00 -0.16297685702E+04  0.22880802935E+04  0.16059781558E+04 0.  0.
        1    1    3    3  502    0  0.75163271688E+03  0.48189954715E+02 -0.41821245880E+03  0.86149618312E+03  0.50400001928E-02 0.  1.
       -1    1    3    3    0  502 -0.75163271688E+03 -0.48189954715E+02 -0.12115561114E+04  0.14265841104E+04  0.50400001928E-02 0. -1.
</event>
<event>
 5   0  0.3263294E-04  0.1588921E+04  0.7818609E-02  0.8827384E-01
        2   -1    0    0  501    0  0.00000000000E+00  0.00000000000E+00  0.13589006323E+04  0.13589006323E+04  0.25500000920E-02 0. -1.
       -2   -1    0    0    0  501  0.00000000000E+00  0.00000000000E+00 -0.46446896494E+03  0.46446896495E+03  0.25500000920E-02 0.  1.
    10030    2    1    2    0    0  0.00000000000E+00  0.00000000000E+00  0.89443166739E+03  0.18233695973E+04  0.15889206024E+04 0.  0.
        4    1    3    3  502    0 -0.92558958753E+02  0.57703707790E+03  0.10647937264E+04  0.12146300847E+04  0.12699999809E+01 0.  1.
       -4    1    3    3    0  502  0.92558958753E+02 -0.57703707790E+03 -0.17036205897E+03  0.60873951256E+03  0.12699999809E+01 0. -1.
</event>
<event>
 5   0  0.1764099E-04  0.1595064E+04  0.7818609E-02  0.8823586E-01
       -1   -1    0    0    0  501  0.00000000000E+00  0.00000000000E+00  0.37104465240E+03  0.37104465243E+03  0.50400001928E-02 0. -1.
        1   -1    0    0  501    0  0.00000000000E+00  0.00000000000E+00 -0.17142336106E+04  0.17142336106E+04  0.50400001928E-02 0.  1.
    10030    2    1    2    0    0  0.00000000000E+00  0.00000000000E+00 -0.13431889582E+04  0.20852782630E+04  0.15950639037E+04 0.  0.
        5    1    3    3  502    0  0.18578590380E+03  0.67347039984E+03 -0.16872795806E+03  0.71872803990E+03  0.46999998093E+01 0. -1.
       -5    1    3    3    0  502 -0.18578590380E+03 -0.67347039984E+03 -0.11744610001E+04  0.13665502231E+04  0.46999998093E+01 0.  1.
</event>
<event>
 5   0  0.3274900E-04  0.1586119E+04  0.7818609E-02  0.8829121E-01
        2   -1    0    0  501    0  0.00000000000E+00  0.00000000000E+00  0.15300330366E+04  0.15300330366E+04  0.25500000920E-02 0. -1.
       -2   -1    0    0    0  501  0.00000000000E+00  0.00000000000E+00 -0.41106505778E+03  0.41106505779E+03  0.25500000920E-02 0.  1.
    10030    2    1    2    0    0  0.00000000000E+00  0.00000000000E+00  0.11189679788E+04  0.19410980944E+04  0.15861186823E+04 0.  0.
        3    1    3    3  502    0  0.62582254669E+03 -0.16627492508E+03  0.11198229805E+04  0.12935628043E+04  0.10100000352E+00 0. -1.
       -3    1    3    3    0  502 -0.62582254669E+03  0.16627492508E+03 -0.85500176567E+00  0.64753529007E+03  0.10100000352E+00 0.  1.
</event>
<event>
 5   0  0.3228393E-04  0.1591538E+04  0.7818609E-02  0.8825764E-01
        2   -1    0    0  501    0  0.00000000000E+00  0.00000000000E+00  0.77080121465E+03  0.77080121466E+03  0.25500000920E-02 0.  1.
       -2   -1    0    0    0  501  0.00000000000E+00  0.00000000000E+00 -0.82154522014E+03  0.82154522015E+03  0.25500000920E-02 0. -1.
    10030    2    1    2    0    0  0.00000000000E+00  0.00000000000E+00 -0.50744005490E+02  0.15923464348E+04  0.15915376886E+04 0.  0.
        1    1    3    3  502    0  0.17852312973E+03  0.39966233780E+00  0.75050732155E+03  0.77144792909E+03  0.50400001928E-02 0.  1.
       -1    1    3    3    0  502 -0.17852312973E+03 -0.39966233780E+00 -0.80125132704E+03  0.82089850571E+03  0.50400001928E-02 0. -1.
</event>
<event>
 5   0  0.1761255E-04  0.1610883E+04  0.7818609E-02  0.8813890E-01
        1   -1    0    0  501    0  0.00000000000E+00  0.00000000000E+00  0.18790616818E+04  0.18790616818E+04  0.50400001928E-02 0.  1.
       -1   -1    0    0    0  501  0.00000000000E+00  0.00000000000E+00 -0.34524449600E+03  0.34524449603E+03  0.50400001928E-02 0. -1.
    10030    2    1    2    0    0  0.00000000000E+00  0.00000000000E+00  0.15338171858E+04  0.22243061778E+04  0.16108826193E+04 0.  0.
        2    1    3    3  502    0 -0.56535079445E+03  0.13428718062E+03  0.15370447441E+04  0.16432166969E+04  0.25500000920E-02 0.  1.
       -2    1    3    3    0  502  0.56535079445E+03 -0.13428718062E+03 -0.32275583295E+01  0.58108948089E+03  0.25500000920E-02 0. -1.
</event>
<event>
 5   0  0.1764099E-04  0.1488435E+04  0.7818609E-02  0.8892180E-01
       -1   -1    0    0    0  501  0.00000000000E+00  0.00000000000E+00  0.52832615145E+03  0.52832615147E+03  0.50400001928E-02 0. -1.
        1   -1    0    0  501    0  0.00000000000E+00  0.00000000000E+00 -0.10483288563E+04  0.10483288564E+04  0.50400001928E-02 0.  1.
    10030    2    1    2    0    0  0.00000000000E+00  0.00000000000E+00 -0.52000270490E+03  0.15766550078E+04  0.14884348157E+04 0.  0.
        5    1    3    3  502    0  0.55295009979E+03  0.13413531970E+03 -0.76811049956E+03  0.95590895298E+03  0.46999998093E+01 0.  1.
       -5    1    3    3    0  502 -0.55295009979E+03 -0.13413531970E+03  0.24810779466E+03  0.62074605485E+03  0.46999998093E+01 0. -1.
</event>
<event>
 5   0  0.1819811E-04  0.1589479E+04  0.7818609E-02  0.8827038E-01
        1   -1    0    0  501    0  0.00000000000E+00  0.00000000000E+00  0.13666207882E+04  0.13666207882E+04  0.50400001928E-02 0. -1.
       -1   -1    0    0    0  501  0.00000000000E+00  0.00000000000E+00 -0.46216967995E+03  0.46216967998E+03  0.50400001928E-02 0.  1.
    10030    2    1    2    0    0  0.00000000000E+00  0.00000000000E+00  0.90445110821E+03  0.18287904681E+04  0.15894787728E+04 0.  0.
        1    1    3    3  502    0  0.48060327441E+00  0.16700030385E+03  0.13462049056E+04  0.13565238591E+04  0.50400001928E-02 0. -1.
       -1    1    3    3    0  502 -0.48060327441E+00 -0.16700030385E+03 -0.44175379739E+03  0.47226660903E+03  0.50400001928E-02 0.  1.
</event>
<event>
 5   0  0.3380454E-04  0.1603571E+04  0.7818609E-02  0.8818357E-01
        2   -1    0    0  501    0  0.00000000000E+00  0.00000000000E+00  0.83489580201E+03  0.83489580201E+03  0.25500000920E-02 0. -1.
       -2   -1    0    0    0  501  0.00000000000E+00  0.00000000000E+00 -0.76998827731E+03  0.76998827731E+03  0.25500000920E-02 0.  1.
    10030    2    1    2    0    0  0.00000000000E+00  0.00000000000E+00  0.64907524700E+02  0.16048840793E+04  0.16035709904E+04 0.  0.
        5    1    3    3  502    0 -0.41363275568E+03 -0.10614595479E+03  0.71159535864E+03  0.82990907015E+03  0.46999998093E+01 0. -1.
       -5    1    3    3    0  502  0.41363275568E+03  0.10614595479E+03 -0.64668783394E+03  0.77497500918E+03  0.46999998093E+01 0.  1.
</event>
<event>
 5   0  0.3274900E-04  0.1579453E+04  0.7818609E-02  0.8833271E-01
       -2   -1    0    0    0  501  0.00000000000E+00  0.00000000000E+00  0.15840026951E+04  0.15840026951E+04  0.25500000920E-02 0.  1.
        2   -1    0    0  501    0  0.00000000000E+00  0.00000000000E+00 -0.39372906831E+03  0.39372906832E+03  0.25500000920E-02 0. -1.
    10030    2    1    2    0    0  0.00000000000E+00  0.00000000000E+00  0.11902736268E+04  0.19777317634E+04  0.15794529500E+04 0.  0.
        3    1    3    3  502    0 -0.14328404060E+03 -0.45745109501E+03  0.13809883302E+04  0.14618209873E+04  0.10100000352E+00 0.  1.
       -3    1    3    3    0  502  0.14328404060E+03  0.45745109501E+03 -0.19071470339E+03  0.51591077611E+03  0.10100000352E+00 0. -1.
</event>
<event>
 5   0  0.3263294E-04  0.1578780E+04  0.7818609E-02  0.8833691E-01
        2   -1    0    0  501    0  0.00000000000E+00  0.00000000000E+00  0.21915378967E+04  0.21915378967E+04  0.25500000920E-02 0. -1.
       -2   -1    0    0    0  501  0.00000000000E+00  0.00000000000E+00 -0.28433755737E+03  0.28433755738E+03  0.25500000920E-02 0.  1.
    10030    2    1    2    0    0  0.00000000000E+00  0.00000000000E+00  0.19072003393E+04  0.24758754541E+04  0.15787799498E+04 0.  0.
        4    1    3    3  502    0 -0.67063590659E+03 -0.34398129692E+03  0.13215786380E+04  0.15213965168E+04  0.12699999809E+01 0. -1.
       -4    1    3    3    0  502  0.67063590659E+03  0.34398129692E+03  0.58562170132E+03  0.95447893733E+03  0.12699999809E+01 0.  1.
</event>
<event>
 5   0  0.3274900E-04  0.1591616E+04  0.7818609E-02  0.8825715E-01
       -2   -1    0    0    0  501  0.00000000000E+00  0.00000000000E+00  0.80835825167E+03  0.80835825167E+03  0.25500000920E-02 0.  1.
        2   -1    0    0  501    0  0.00000000000E+00  0.00000000000E+00 -0.78345266197E+03  0.78345266197E+03  0.25500000920E-02 0. -1.
    10030    2    1    2    0    0  0.00000000000E+00  0.00000000000E+00  0.24905589702E+02  0.15918109136E+04  0.15916160644E+04 0.  0.
        3    1    3    3  502    0 -0.58293154349E+03  0.51894087200E+03  0.16804047709E+03  0.79833979305E+03  0.10100000352E+00 0. -1.
       -3    1    3    3    0  502  0.58293154349E+03 -0.51894087200E+03 -0.14313488738E+03  0.79347112059E+03  0.10100000352E+00 0.  1.
</event>
<event>
 5   0  0.1764099E-04  0.1618177E+04  0.7818609E-02  0.8809458E-01
       -1   -1    0    0    0  501  0.00000000000E+00  0.00000000000E+00  0.73229637413E+03  0.73229637415E+03  0.50400001928E-02 0. -1.
        1   -1    0    0  501    0  0.00000000000E+00  0.00000000000E+00 -0.89393359132E+03  0.89393359133E+03  0.50400001928E-02 0.  1.
    10030    2    1    2    0    0  0.00000000000E+00  0.00000000000E+00 -0.16163721719E+03  0.16262299655E+04  0.16181771568E+04 0.  0.
        5    1    3    3  502    0  0.64104810655E+03 -0.40420577216E+03  0.20392379986E+03  0.78481334552E+03  0.46999998093E+01 0. -1.
       -5    1    3    3    0  502 -0.64104810655E+03  0.40420577216E+03 -0.36556101705E+03  0.84141661996E+03  0.46999998093E+01 0.  1.
</event>
<event>
 5   0  0.1787688E-04  0.1596306E+04  0.7818609E-02  0.8822821E-01
       -1   -1    0    0    0  501  0.00000000000E+00  0.00000000000E+00  0.51599492619E+03  0.51599492622E+03  0.50400001928E-02 0.  1.
        1   -1    0    0  501    0  0.00000000000E+00  0.00000000000E+00 -0.12346018500E+04  0.12346018500E+04  0.50400001928E-02 0. -1.
    10030    2    1    2    0    0  0.00000000000E+00  0.00000000000E+00 -0.71860692380E+03  0.17505967762E+04  0.15963060991E+04 0.  0.
        4    1    3    3  502    0 -0.19854728804E+03  0.44478053937E+03 -0.10527119160E+04  0.11599373883E+04  0.12699999809E+01 0. -1.
       -4    1    3    3    0  502  0.19854728804E+03 -0.44478053937E+03  0.33410499222E+03  0.59065938790E+03  0.12699999809E+01 0.  1.
</event>
<event>
 5   0  0.1764099E-04  0.1594512E+04  0.7818609E-02  0.8823926E-01
        1   -1    0    0  501    0  0.00000000000E+00  0.00000000000E+00  0.10595169756E+04  0.10595169756E+04  0.50400001928E-02 0. -1.
       -1   -1    0    0    0  501  0.00000000000E+00  0.00000000000E+00 -0.59991241650E+03  0.59991241653E+03  0.50400001928E-02 0.  1.
    10030    2    1    2    0    0  0.00000000000E+00  0.00000000000E+00  0.45960455913E+03  0.16594293922E+04  0.15945123257E+04 0.  0.
        5    1    3    3  502    0  0.46359813296E+03 -0.60817837768E+03  0.46434655651E+03  0.89467535034E+03  0.46999998093E+01 0. -1.
       -5    1    3    3    0  502 -0.46359813296E+03  0.60817837768E+03 -0.47419973755E+01  0.76475404184E+03  0.46999998093E+01 0.  1.
</event>
<event>
 5   0  0.1787688E-04  0.1599290E+04  0.7818609E-02  0.8820984E-01
       -1   -1    0    0    0  501  0.00000000000E+00  0.00000000000E+00  0.82461075536E+03  0.82461075538E+03  0.50400001928E-02 0. -1.
        1   -1    0    0  501    0  0.00000000000E+00  0.00000000000E+00 -0.77543515903E+03  0.77543515905E+03  0.50400001928E-02 0.  1.
    10030    2    1    2    0    0  0.00000000000E+00  0.00000000000E+00  0.49175596330E+02  0.16000459144E+04  0.15992900578E+04 0.  0.
        4    1    3    3  502    0  0.69318467191E+03 -0.61354840959E+02 -0.36950337490E+03  0.78791101201E+03  0.12699999809E+01 0.  1.
       -4    1    3    3    0  502 -0.69318467191E+03  0.61354840959E+02  0.41867897123E+03  0.81213490242E+03  0.12699999809E+01 0. -1.
</event>
<event>
 5   0  0.3274900E-04  0.1687482E+04  0.7818609E-02  0.8768536E-01
        2   -1    0    0  501    0  0.00000000000E+00  0.00000000000E+00  0.10868393456E+04  0.10868393456E+04  0.25500000920E-02 0. -1.
       -2   -1    0    0    0  501  0.00000000000E+00  0.00000000000E+00 -0.65501763040E+03  0.65501763040E+03  0.25500000920E-02 0.  1.
    10030    2    1    2    0    0  0.00000000000E+00  0.00000000000E+00  0.43182171523E+03  0.17418569760E+04  0.16874820684E+04 0.  0.
        3    1    3    3  502    0  0.65702548192E+03  0.52837171655E+03  0.18262639721E+03  0.86267697657E+03  0.10100000352E+00 0.  1.
       -3    1    3    3    0  502 -0.65702548192E+03 -0.52837171655E+03  0.24919531802E+03  0.87917999947E+03  0.10100000352E+00 0. -1.
</event>
<event>
 5   0  0.1736537E-04  0.1608135E+04  0.7818609E-02  0.8815566E-01
        1   -1    0    0  501    0  0.00000000000E+00  0.00000000000E+00  0.59106859290E+03  0.59106859293E+03  0.50400001928E-02 0.  1.
       -1   -1    0    0    0  501  0.00000000000E+00  0.00000000000E+00 -0.10938228053E+04  0.10938228053E+04  0.50400001928E-02 0. -1.
    10030    2    1    2    0    0  0.00000000000E+00  0.00000000000E+00 -0.50275421241E+03  0.16848913983E+04  0.16081347039E+04 0.  0.
        3    1    3    3  502    0 -0.79032270546E+03  0.13142291613E+03 -0.32276387231E+03  0.86374677373E+03  0.10100000352E+00 0.  1.
       -3    1    3    3    0  502  0.79032270546E+03 -0.13142291613E+03 -0.17999034010E+03  0.82114462453E+03  0.10100000352E+00 0. -1.
</event>
<event>
 5   0  0.3380454E-04  0.1655497E+04  0.7818609E-02  0.8787161E-01
       -2   -1    0    0    0  501  0.00000000000E+00  0.00000000000E+00  0.97546006129E+03  0.97546006130E+03  0.25500000920E-02 0.  1.
        2   -1    0    0  501    0  0.00000000000E+00  0.00000000000E+00 -0.70240482676E+03  0.70240482677E+03  0.25500000920E-02 0. -1.
    10030    2    1    2    0    0  0.00000000000E+00  0.00000000000E+00  0.27305523453E+03  0.16778648881E+04  0.16554973336E+04 0.  0.
        5    1    3    3  502    0  0.13541114777E+03  0.47451570462E+03  0.81006992446E+03  0.94854451945E+03  0.46999998093E+01 0.  1.
       -5    1    3    3    0  502 -0.13541114777E+03 -0.47451570462E+03 -0.53701468993E+03  0.72932036861E+03  0.46999998093E+01 0. -1.
</event>
<event>
 5   0  0.3274900E-04  0.1588303E+04  0.7818609E-02  0.8827766E-01
        2   -1    0    0  501    0  0.00000000000E+00  0.00000000000E+00  0.10491282435E+04  0.10491282435E+04  0.25500000920E-02 0.  1.
       -2   -1    0    0    0  501  0.00000000000E+00  0.00000000000E+00 -0.60114368907E+03  0.60114368908E+03  0.25500000920E-02 0. -1.
    10030    2    1    2    0    0  0.00000000000E+00  0.00000000000E+00  0.44798455440E+03  0.16502719326E+04  0.15883032741E+04 0.  0.
        3    1    3    3  502    0 -0.14148436770E+03  0.89773020153E+02 -0.58256751936E+03  0.60618639565E+03  0.10100000352E+00 0. -1.
       -3    1    3    3    0  502  0.14148436770E+03 -0.89773020153E+02  0.10305520738E+04  0.10440855369E+04  0.10100000352E+00 0.  1.
</event>
<event>
 5   0  0.1736537E-04  0.1599484E+04  0.7818609E-02  0.8820865E-01
       -1   -1    0    0    0  501  0.00000000000E+00  0.00000000000E+00  0.11006463828E+04  0.11006463828E+04  0.50400001928E-02 0. -1.
        1   -1    0    0  501    0  0.00000000000E+00  0.00000000000E+00 -0.58110151988E+03  0.58110151990E+03  0.50400001928E-02 0.  1.
    10030    2    1    2    0    0  0.00000000000E+00  0.00000000000E+00  0.51954486289E+03  0.16817479027E+04  0.15994840242E+04 0.  0.
        3    1    3    3  502    0  0.56118943629E+03 -0.46825402990E+03 -0.81565469888E+02  0.73542392945E+03  0.10100000352E+00 0.  1.
       -3    1    3    3    0  502 -0.56118943629E+03  0.46825402990E+03  0.60111033278E+03  0.94632397322E+03  0.10100000352E+00 0. -1.
</event>
<event>
 5   0  0.3263294E-04  0.1598300E+04  0.7818609E-02  0.8821593E-01
       -2   -1    0    0    0  501  0.00000000000E+00  0.00000000000E+00  0.80460350636E+03  0.80460350637E+03  0.25500000920E-02 0.  1.
        2   -1    0    0  501    0  0.00000000000E+00  0.00000000000E+00 -0.79373304160E+03  0.79373304160E+03  0.25500000920E-02 0. -1.
    10030    2    1    2    0    0  0.00000000000E+00  0.00000000000E+00  0.10870464768E+02  0.15983365480E+04  0.15982995819E+04 0.  0.
        4    1    3    3  502    0  0.64558711957E+03 -0.44875894263E+03  0.14851704431E+03  0.80014138931E+03  0.12699999809E+01 0. -1.
       -4    1    3    3    0  502 -0.64558711957E+03  0.44875894263E+03 -0.13764657955E+03  0.79819515866E+03  0.12699999809E+01 0.  1.
</event>
<event>
 5   0  0.3380454E-04  0.1591490E+04  0.7818609E-02  0.8825793E-01
       -2   -1    0    0    0  501  0.00000000000E+00  0.00000000000E+00  0.63564375335E+03  0.63564375336E+03  0.25500000920E-02 0. -1.
        2   -1    0    0  501    0  0.00000000000E+00  0.00000000000E+00 -0.99617135958E+03  0.99617135959E+03  0.25500000920E-02 0.  1.
    10030    2    1    2    0    0  0.00000000000E+00  0.00000000000E+00 -0.36052760623E+03  0.16318151129E+04  0.15914899962E+04 0.  0.
        5    1    3    3  502    0  0.24005940448E+02 -0.71421113671E+03  0.17862525278E+03  0.73661584554E+03  0.46999998093E+01 0. -1.
       -5    1    3    3    0  502 -0.24005940448E+02  0.71421113671E+03 -0.53915285901E+03  0.89519926740E+03  0.46999998093E+01 0.  1.
</event>
<event>
 5   0  0.1761255E-04  0.1593414E+04  0.7818609E-02  0.8824604E-01
       -1   -1    0    0    0  501  0.00000000000E+00  0.00000000000E+00  0.51763691611E+03  0.51763691613E+03  0.50400001928E-02 0. -1.
        1   -1    0    0  501    0  0.00000000000E+00  0.00000000000E+00 -0.12262306316E+04  0.12262306316E+04  0.50400001928E-02 0.  1.
    10030    2    1    2    0    0  0.00000000000E+00  0.00000000000E+00 -0.70859371549E+03  0.17438675477E+04  0.15934142495E+04 0.  0.
        2    1    3    3  502    0  0.42112784828E+03 -0.44808211870E+03  0.20010752997E+03  0.64666009097E+03  0.25500000920E-02 0. -1.
       -2    1    3    3    0  502 -0.42112784828E+03  0.44808211870E+03 -0.90870124547E+03  0.10972074568E+04  0.25500000920E-02 0.  1.
</event>
<event>
 5   0  0.1787688E-04  0.1588792E+04  0.7818609E-02  0.8827463E-01
        1   -1    0    0  501    0  0.00000000000E+00  0.00000000000E+00  0.99415638988E+03  0.99415638989E+03  0.50400001928E-02 0.  1.
       -1   -1    0    0    0  501  0.00000000000E+00  0.00000000000E+00 -0.63477476176E+03  0.63477476178E+03  0.50400001928E-02 0. -1.
    10030    2    1    2    0    0  0.00000000000E+00  0.00000000000E+00  0.35938162812E+03  0.16289311517E+04  0.15887924793E+04 0.  0.
        4    1    3    3  502    0  0.53096671735E+03 -0.25111461397E+03 -0.36868586149E+03  0.69348041186E+03  0.12699999809E+01 0. -1.
       -4    1    3    3    0  502 -0.53096671735E+03  0.25111461397E+03  0.72806748961E+03  0.93545073981E+03  0.12699999809E+01 0.  1.
</event>
<event>
 5   0  0.1736537E-04  0.1675353E+04  0.7818609E-02  0.8775548E-01
       -1   -1    0    0    0  501  0.00000000000E+00  0.00000000000E+00  0.10000076733E+04  0.10000076733E+04  0.50400001928E-02 0. -1.
        1   -1    0    0  501    0  0.00000000000E+00  0.00000000000E+00 -0.70169666496E+03  0.70169666498E+03  0.50400001928E-02 0.  1.
    10030    2    1    2    0    0  0.00000000000E+00  0.00000000000E+00  0.29831100834E+03  0.17017043383E+04  0.16753531560E+04 0.  0.
        3    1    3    3  502    0 -0.36299562556E+03  0.55452475067E+03 -0.37118966197E+03  0.75963497724E+03  0.10100000352E+00 0.  1.
       -3    1    3    3    0  502  0.36299562556E+03 -0.55452475067E+03  0.66950067031E+03  0.94206936105E+03  0.10100000352E+00 0. -1.
</event>
<event>
 5   0  0.1764099E-04  0.1598196E+04  0.7818609E-02  0.8821657E-01
        1   -1    0    0  501    0  0.00000000000E+00  0.00000000000E+00  0.14408990996E+04  0.14408990996E+04  0.50400001928E-02 0. -1.
       -1   -1    0    0    0  501  0.00000000000E+00  0.00000000000E+00 -0.44316628262E+03  0.44316628265E+03  0.50400001928E-02 0.  1.
    10030    2    1    2    0    0  0.00000000000E+00  0.00000000000E+00  0.99773281694E+03  0.18840653822E+04  0.15981963554E+04 0.  0.
        5    1    3    3  502    0 -0.64402867607E+03 -0.29379809320E+03  0.61816353095E+02  0.71058680446E+03  0.46999998093E+01 0.  1.
       -5    1    3    3    0  502  0.64402867607E+03  0.29379809320E+03  0.93591646385E+03  0.11734785778E+04  0.46999998093E+01 0. -1.
</event>
<event>
 5   0  0.3228393E-04  0.1600315E+04  0.7818609E-02  0.8820355E-01
        2   -1    0    0  501    0  0.00000000000E+00  0.00000000000E+00  0.90603461713E+03  0.90603461713E+03  0.25500000920E-02 0. -1.
       -2   -1    0    0    0  501  0.00000000000E+00  0.00000000000E+00 -0.70665292710E+03  0.70665292710E+03  0.25500000920E-02 0.  1.
    10030    2    1    2    0    0  0.00000000000E+00  0.00000000000E+00  0.19938169003E+03  0.16126875442E+04  0.16003149868E+04 0.  0.
        1    1    3    3  502    0  0.47283398215E+03 -0.64038713380E+03  0.18146225584E+03  0.81645343170E+03  0.50400001928E-02 0. -1.
       -1    1    3    3    0  502 -0.47283398215E+03  0.64038713380E+03  0.17919434187E+02  0.79623411253E+03  0.50400001928E-02 0.  1.
</event>
<event>
 5   0  0.1819811E-04  0.1611552E+04  0.7818609E-02  0.8813482E-01
       -1   -1    0    0    0  501  0.00000000000E+00  0.00000000000E+00  0.78393292128E+03  0.78393292130E+03  0.50400001928E-02 0. -1.
        1   -1    0    0  501    0  0.00000000000E+00  0.00000000000E+00 -0.82822786953E+03  0.82822786955E+03  0.50400001928E-02 0.  1.
    10030    2    1    2    0    0  0.00000000000E+00  0.00000000000E+00 -0.44294948253E+02  0.16121607908E+04  0.16115521627E+04 0.  0.
        1    1    3    3  502    0  0.67620638451E+03  0.21418991929E+03 -0.40457799633E+03  0.81658787103E+03  0.50400001928E-02 0.  1.
       -1    1    3    3    0  502 -0.67620638451E+03 -0.21418991929E+03  0.36028304807E+03  0.79557291981E+03  0.50400001928E-02 0. -1.
</event>
<event>
 5   0  0.3228393E-04  0.1593941E+04  0.7818609E-02  0.8824279E-01
        2   -1    0    0  501    0  0.00000000000E+00  0.00000000000E+00  0.39943437561E+03  0.39943437561E+03  0.25500000920E-02 0.  1.
       -2   -1    0    0    0  501  0.00000000000E+00  0.00000000000E+00 -0.15901526489E+04  0.15901526489E+04  0.25500000920E-02 0. -1.
    10030    2    1    2    0    0  0.00000000000E+00  0.00000000000E+00 -0.11907182733E+04  0.19895870245E+04  0.15939405641E+04 0.  0.
        1    1    3    3  502    0 -0.39972143786E+03 -0.47871285326E+03  0.24012160017E+02  0.62411521983E+03  0.50400001928E-02 0.  1.
       -1    1    3    3    0  502  0.39972143786E+03  0.47871285326E+03 -0.12147304333E+04  0.13654718047E+04  0.50400001928E-02 0. -1.
</event>
<event>
 5   0  0.1736537E-04  0.1600137E+04  0.7818609E-02  0.8820464E-01
       -1   -1    0    0    0  501  0.00000000000E+00  0.00000000000E+00  0.10086268928E+04  0.10086268929E+04  0.50400001928E-02 0. -1.
        1   -1    0    0  501    0  0.00000000000E+00  0.00000000000E+00 -0.63463452772E+03  0.63463452774E+03  0.50400001928E-02 0.  1.
    10030    2    1    2    0    0  0.00000000000E+00  0.00000000000E+00  0.37399236512E+03  0.16432614206E+04  0.16001368089E+04 0.  0.
        3    1    3    3  502    0 -0.74394880814E+02  0.73214210314E+03 -0.13537926474E+03  0.74826079210E+03  0.10100000352E+00 0.  1.
       -3    1    3    3    0  502  0.74394880814E+02 -0.73214210314E+03  0.50937162986E+03  0.89500062848E+03  0.10100000352E+00 0. -1.
</event>
<event>
 5   0  0.1761255E-04  0.1596146E+04  0.7818609E-02  0.8822919E-01
       -1   -1    0    0    0  501  0.00000000000E+00  0.00000000000E+00  0.27754368917E+03  0.27754368921E+03  0.50400001928E-02 0.  1.
        1   -1    0    0  501    0  0.00000000000E+00  0.00000000000E+00 -0.22948487310E+04  0.22948487310E+04  0.50400001928E-02 0. -1.
    10030    2    1    2    0    0  0.00000000000E+00  0.00000000000E+00 -0.20173050418E+04  0.25723924202E+04  0.15961463378E+04 0.  0.
        2    1    3    3  502    0  0.15170591063E+03  0.16754954303E+03 -0.22421876559E+04  0.22535512013E+04  0.25500000920E-02 0. -1.
       -2    1    3    3    0  502 -0.15170591063E+03 -0.16754954303E+03  0.22488261412E+03  0.31884121884E+03  0.25500000920E-02 0.  1.
</event>
<event>
 5   0  0.1764099E-04  0.1602909E+04  0.7818609E-02  0.8818763E-01
       -1   -1    0    0    0  501  0.00000000000E+00  0.00000000000E+00  0.57884782330E+03  0.57884782332E+03  0.50400001928E-02 0. -1.
        1   -1    0    0  501    0  0.00000000000E+00  0.00000000000E+00 -0.11096682383E+04  0.11096682383E+04  0.50400001928E-02 0.  1.
    10030    2    1    2    0    0  0.00000000000E+00  0.00000000000E+00 -0.53082041502E+03  0.16885160616E+04  0.16029086616E+04 0.  0.
        5    1    3    3  502    0 -0.16222304171E+03 -0.68318091254E+03 -0.67237806336E+03  0.97219690629E+03  0.46999998093E+01 0.  1.
       -5    1    3    3    0  502  0.16222304171E+03  0.68318091254E+03  0.14155764834E+03  0.71631915535E+03  0.46999998093E+01 0. -1.
</event>
<event>
 5   0  0.3380454E-04  0.1612637E+04  0.7818609E-02  0.8812822E-01
        2   -1    0    0  501    0  0.00000000000E+00  0.00000000000E+00  0.12673366315E+04  0.12673366315E+04  0.25500000920E-02 0.  1.
       -2   -1    0    0    0  501  0.00000000000E+00  0.00000000000E+00 -0.51300444437E+03  0.51300444438E+03  0.25500000920E-02 0. -1.
    10030    2    1    2    0    0  0.00000000000E+00  0.00000000000E+00  0.75433218715E+03  0.17803410759E+04  0.16126367533E+04 0.  0.
        5    1    3    3  502    0  0.78577294999E+03  0.18079588559E+03  0.37608818165E+03  0.88971382565E+03  0.46999998093E+01 0. -1.
       -5    1    3    3    0  502 -0.78577294999E+03 -0.18079588559E+03  0.37824400549E+03  0.89062725024E+03  0.46999998093E+01 0.  1.
</event>
<event>
 5   0  0.3380454E-04  0.1568252E+04  0.7818609E-02  0.8840293E-01
        2   -1    0    0  501    0  0.00000000000E+00  0.00000000000E+00  0.28536906034E+04  0.28536906034E+04  0.25500000920E-02 0. -1.
       -2   -1    0    0    0  501  0.00000000000E+00  0.00000000000E+00 -0.21545895722E+03  0.21545895723E+03  0.25500000920E-02 0.  1.
    10030    2    1    2    0    0  0.00000000000E+00  0.00000000000E+00  0.26382316461E+04  0.30691495606E+04  0.15682515125E+04 0.  0.
        5    1    3    3  502    0 -0.53919778378E+02 -0.56091502337E+03  0.23861993319E+04  0.24518365255E+04  0.46999998093E+01 0. -1.
       -5    1    3    3    0  502  0.53919778378E+02  0.56091502337E+03  0.25203231423E+03  0.61731303514E+03  0.46999998093E+01 0.  1.
</event>
<event>
 5   0  0.3380454E-04  0.1597337E+04  0.7818609E-02  0.8822185E-01
       -2   -1    0    0    0  501  0.00000000000E+00  0.00000000000E+00  0.46019251405E+03  0.46019251406E+03  0.25500000920E-02 0. -1.
        2   -1    0    0  501    0  0.00000000000E+00  0.00000000000E+00 -0.13860976620E+04  0.13860976620E+04  0.25500000920E-02 0.  1.
    10030    2    1    2    0    0  0.00000000000E+00  0.00000000000E+00 -0.92590514799E+03  0.18462901761E+04  0.15973374945E+04 0.  0.
        5    1    3    3  502    0  0.30164689737E+03 -0.67008343683E+03 -0.82450981449E+03  0.11044642082E+04  0.46999998093E+01 0.  1.
       -5    1    3    3    0  502 -0.30164689737E+03  0.67008343683E+03 -0.10139533351E+03  0.74182596791E+03  0.46999998093E+01 0. -1.
</event>
<event>
 5   0  0.1787688E-04  0.1601627E+04  0.7818609E-02  0.8819549E-01
        1   -1    0    0  501    0  0.00000000000E+00  0.00000000000E+00  0.12721034351E+04  0.12721034351E+04  0.50400001928E-02 0. -1.
       -1   -1    0    0    0  501  0.00000000000E+00  0.00000000000E+00 -0.50412774902E+03  0.50412774904E+03  0.50400001928E-02 0.  1.
    10030    2    1    2    0    0  0.00000000000E+00  0.00000000000E+00  0.76797568605E+03  0.17762311841E+04  0.16016274739E+04 0.  0.
        4    1    3    3  502    0 -0.27891823465E+02  0.26909851914E+03  0.12198869066E+04  0.12495269683E+04  0.12699999809E+01 0. -1.
       -4    1    3    3    0  502  0.27891823465E+02 -0.26909851914E+03 -0.45191122052E+03  0.52670421581E+03  0.12699999809E+01 0.  1.
</event>
<event>
 5   0  0.3210612E-04  0.1607213E+04  0.7818609E-02  0.8816129E-01
       -2   -1    0    0    0  501  0.00000000000E+00  0.00000000000E+00  0.14217859249E+04  0.14217859249E+04  0.25500000920E-02 0. -1.
        2   -1    0    0  501    0  0.00000000000E+00  0.00000000000E+00 -0.45420583967E+03  0.45420583968E+03  0.25500000920E-02 0.  1.
    10030    2    1    2    0    0  0.00000000000E+00  0.00000000000E+00  0.96758008527E+03  0.18759917646E+04  0.16072130784E+04 0.  0.
        2    1    3    3  502    0 -0.15556925692E+03 -0.37027149219E+03 -0.32865821099E+03  0.51895952760E+03  0.25500000920E-02 0.  1.
       -2    1    3    3    0  502  0.15556925692E+03  0.37027149219E+03  0.12962382963E+04  0.13570322370E+04  0.25500000920E-02 0. -1.
</event>
<event>
 5   0  0.3274900E-04  0.1611795E+04  0.7818609E-02  0.8813335E-01
       -2   -1    0    0    0  501  0.00000000000E+00  0.00000000000E+00  0.10170244081E+04  0.10170244081E+04  0.25500000920E-02 0. -1.
        2   -1    0    0  501    0  0.00000000000E+00  0.00000000000E+00 -0.63859867833E+03  0.63859867834E+03  0.25500000920E-02 0.  1.
    10030    2    1    2    0    0  0.00000000000E+00  0.00000000000E+00  0.37842572980E+03  0.16556230865E+04  0.16117945810E+04 0.  0.
        3    1    3    3  502    0 -0.48906819690E+03 -0.60209375306E+03 -0.35284118770E+02  0.77649827297E+03  0.10100000352E+00 0.  1.
       -3    1    3    3    0  502  0.48906819690E+03  0.60209375306E+03  0.41370984857E+03  0.87912481349E+03  0.10100000352E+00 0. -1.
</event>
<event>
 5   0  0.1736537E-04  0.1602840E+04  0.7818609E-02  0.8818805E-01
       -1   -1    0    0    0  501  0.00000000000E+00  0.00000000000E+00  0.56153129141E+03  0.56153129143E+03  0.50400001928E-02 0.  1.
        1   -1    0    0  501    0  0.00000000000E+00  0.00000000000E+00 -0.11437901229E+04  0.11437901229E+04  0.50400001928E-02 0. -1.
    10030    2    1    2    0    0  0.00000000000E+00  0.00000000000E+00 -0.58225883151E+03  0.17053214144E+04  0.16028399107E+04 0.  0.
        3    1    3    3  502    0 -0.33744862563E+03  0.79400436483E+02  0.47763289531E+03  0.59017725908E+03  0.10100000352E+00 0.  1.
       -3    1    3    3    0  502  0.33744862563E+03 -0.79400436483E+02 -0.10598917268E+04  0.11151441553E+04  0.10100000352E+00 0. -1.
</event>
<event>
 5   0  0.3274900E-04  0.1590469E+04  0.7818609E-02  0.8826425E-01
        2   -1    0    0  501    0  0.00000000000E+00  0.00000000000E+00  0.10916994093E+04  0.10916994094E+04  0.25500000920E-02 0.  1.
       -2   -1    0    0    0  501  0.00000000000E+00  0.00000000000E+00 -0.57927848770E+03  0.57927848770E+03  0.25500000920E-02 0. -1.
    10030    2    1    2    0    0  0.00000000000E+00  0.00000000000E+00  0.51242092165E+03  0.16709778971E+04  0.15904690916E+04 0.  0.
        3    1    3    3  502    0  0.74290197077E+03 -0.68706691012E+02 -0.32994441468E+02  0.74680157400E+03  0.10100000352E+00 0. -1.
       -3    1    3    3    0  502 -0.74290197077E+03  0.68706691012E+02  0.54541536312E+03  0.92417632305E+03  0.10100000352E+00 0.  1.
</event>
<event>
 5   0  0.1787688E-04  0.1602230E+04  0.7818609E-02  0.8819179E-01
        1   -1    0    0  501    0  0.00000000000E+00  0.00000000000E+00  0.16462111103E+04  0.16462111103E+04  0.50400001928E-02 0. -1.
       -1   -1    0    0    0  501  0.00000000000E+00  0.00000000000E+00 -0.38985583201E+03  0.38985583204E+03  0.50400001928E-02 0.  1.
    10030    2    1    2    0    0  0.00000000000E+00  0.00000000000E+00  0.12563552783E+04  0.20360669423E+04  0.16022296990E+04 0.  0.
        4    1    3    3  502    0  0.43022209052E+03  0.33589610321E+03 -0.11700372995E+03  0.55821924460E+03  0.12699999809E+01 0.  1.
       -4    1    3    3    0  502 -0.43022209052E+03 -0.33589610321E+03  0.13733590082E+04  0.14778476977E+04  0.12699999809E+01 0. -1.
</event>
<event>
 5   0  0.3380454E-04  0.1596301E+04  0.7818609E-02  0.8822824E-01
        2   -1    0    0  501    0  0.00000000000E+00  0.00000000000E+00  0.12345484321E+04  0.12345484321E+04  0.25500000920E-02 0. -1.
       -2   -1    0    0    0  501  0.00000000000E+00  0.00000000000E+00 -0.51601363397E+03  0.51601363398E+03  0.25500000920E-02 0.  1.
    10030    2    1    2    0    0  0.00000000000E+00  0.00000000000E+00  0.71853479815E+03  0.17505620661E+04  0.15963005015E+04 0.  0.
        5    1    3    3  502    0  0.38473340560E+03 -0.27774810944E+03  0.10630468431E+04  0.11641539788E+04  0.46999998093E+01 0. -1.
       -5    1    3    3    0  502 -0.38473340560E+03  0.27774810944E+03 -0.34451204500E+03  0.58640808728E+03  0.46999998093E+01 0.  1.
</event>
<event>
 5   0  0.1736537E-04  0.1598947E+04  0.7818609E-02  0.8821195E-01
       -1   -1    0    0    0  501  0.00000000000E+00  0.00000000000E+00  0.30741667076E+03  0.30741667080E+03  0.50400001928E-02 0.  1.
        1   -1    0    0  501    0  0.00000000000E+00  0.00000000000E+00 -0.20791264341E+04  0.20791264341E+04  0.50400001928E-02 0. -1.
    10030    2    1    2    0    0  0.00000000000E+00  0.00000000000E+00 -0.17717097633E+04  0.23865431049E+04  0.15989473119E+04 0.  0.
        3    1    3    3  502    0 -0.72573850753E+03  0.87971853367E+02 -0.40284555125E+03  0.83469753603E+03  0.10100000352E+00 0.  1.
       -3    1    3    3    0  502  0.72573850753E+03 -0.87971853367E+02 -0.13688642121E+04  0.15518455689E+04  0.10100000352E+00 0. -1.
</event>
<event>
 5   0  0.3210612E-04  0.1599899E+04  0.7818609E-02  0.8820610E-01
       -2   -1    0    0    0  501  0.00000000000E+00  0.00000000000E+00  0.12774950474E+04  0.12774950474E+04  0.25500000920E-02 0.  1.
        2   -1    0    0  501    0  0.00000000000E+00  0.00000000000E+00 -0.50091730385E+03  0.50091730386E+03  0.25500000920E-02 0. -1.
    10030    2    1    2    0    0  0.00000000000E+00  0.00000000000E+00  0.77657774351E+03  0.17784123512E+04  0.15998992154E+04 0.  0.
        2    1    3    3  502    0 -0.64708036150E+03 -0.25362299776E+03 -0.51988191358E+02  0.69695078110E+03  0.25500000920E-02 0. -1.
       -2    1    3    3    0  502  0.64708036150E+03  0.25362299776E+03  0.82856593486E+03  0.10814615701E+04  0.25500000920E-02 0.  1.
</event>
<event>
 5   0  0.1764099E-04  0.1581025E+04  0.7818609E-02  0.8832290E-01
        1   -1    0    0  501    0  0.00000000000E+00  0.00000000000E+00  0.12071403894E+04  0.12071403894E+04  0.50400001928E-02 0. -1.
       -1   -1    0    0    0  501  0.00000000000E+00  0.00000000000E+00 -0.51767816402E+03  0.51767816404E+03  0.50400001928E-02 0.  1.
    10030    2    1    2    0    0  0.00000000000E+00  0.00000000000E+00  0.68946222542E+03  0.17248185535E+04  0.15810252630E+04 0.  0.
        5    1    3    3  502    0  0.24459609215E+03  0.73698369080E+03  0.50623555640E+03  0.92696749531E+03  0.46999998093E+01 0. -1.
       -5    1    3    3    0  502 -0.24459609215E+03 -0.73698369080E+03  0.18322666902E+03  0.79785105818E+03  0.46999998093E+01 0.  1.
</event>
<event>
 5   0  0.1761255E-04  0.1615194E+04  0.7818609E-02  0.8811268E-01
       -1   -1    0    0    0  501  0.00000000000E+00  0.00000000000E+00  0.47010638877E+03  0.47010638880E+03  0.50400001928E-02 0.  1.
        1   -1    0    0  501    0  0.00000000000E+00  0.00000000000E+00 -0.13873722792E+04  0.13873722792E+04  0.50400001928E-02 0. -1.
    10030    2    1    2    0    0  0.00000000000E+00  0.00000000000E+00 -0.91726589047E+03  0.18574786680E+04  0.16151935762E+04 0.  0.
        2    1    3    3  502    0 -0.86757604661E+01  0.61889655485E+03  0.13793459786E+03  0.63414049526E+03  0.25500000920E-02 0.  1.
       -2    1    3    3    0  502  0.86757604661E+01 -0.61889655485E+03 -0.10552004883E+04  0.12233381728E+04  0.25500000920E-02 0. -1.
</event>
<event>
 5   0  0.1764099E-04  0.1546821E+04  0.7818609E-02  0.8853901E-01
       -1   -1    0    0    0  501  0.00000000000E+00  0.00000000000E+00  0.10737139907E+04  0.10737139907E+04  0.50400001928E-02 0. -1.
        1   -1    0    0  501    0  0.00000000000E+00  0.00000000000E+00 -0.55709771507E+03  0.55709771510E+03  0.50400001928E-02 0.  1.
    10030    2    1    2    0    0  0.00000000000E+00  0.00000000000E+00  0.51661627558E+03  0.16308117058E+04  0.15468207535E+04 0.  0.
        5    1    3    3  502    0 -0.37914693095E+03  0.54116922047E+03 -0.16541648840E+03  0.68117635387E+03  0.46999998093E+01 0.  1.
       -5    1    3    3    0  502  0.37914693095E+03 -0.54116922047E+03  0.68203276398E+03  0.94963535190E+03  0.46999998093E+01 0. -1.
</event>
<event>
 5   0  0.3380454E-04  0.1599383E+04  0.7818609E-02  0.8820927E-01
        2   -1    0    0  501    0  0.00000000000E+00  0.00000000000E+00  0.20008021120E+04  0.20008021120E+04  0.25500000920E-02 0. -1.
       -2   -1    0    0    0  501  0.00000000000E+00  0.00000000000E+00 -0.31962512194E+03  0.31962512195E+03  0.25500000920E-02 0.  1.
    10030    2    1    2    0    0  0.00000000000E+00  0.00000000000E+00  0.16811769901E+04  0.23204272340E+04  0.15993831549E+04 0.  0.
        5    1    3    3  502    0  0.42247231079E+03 -0.17679323212E+03 -0.11050075147E+03  0.47113820306E+03  0.46999998093E+01 0.  1.
       -5    1    3    3    0  502 -0.42247231079E+03  0.17679323212E+03  0.17916777416E+04  0.18492890309E+04  0.46999998093E+01 0. -1.
</event>
<event>
 5   0  0.1764099E-04  0.1591673E+04  0.7818609E-02  0.8825680E-01
        1   -1    0    0  501    0  0.00000000000E+00  0.00000000000E+00  0.10000909630E+04  0.10000909630E+04  0.50400001928E-02 0. -1.
       -1   -1    0    0    0  501  0.00000000000E+00  0.00000000000E+00 -0.63329781474E+03  0.63329781476E+03  0.50400001928E-02 0.  1.
    10030    2    1    2    0    0  0.00000000000E+00  0.00000000000E+00  0.36679314826E+03  0.16333887778E+04  0.15916726063E+04 0.  0.
        5    1    3    3  502    0 -0.30693438646E+03  0.37380923077E+03 -0.46514095256E+03  0.67105905429E+03  0.46999998093E+01 0.  1.
       -5    1    3    3    0  502  0.30693438646E+03 -0.37380923077E+03  0.83193410082E+03  0.96232972348E+03  0.46999998093E+01 0. -1.
</event>
<event>
 5   0  0.3228393E-04  0.1594017E+04  0.7818609E-02  0.8824232E-01
        2   -1    0    0  501    0  0.00000000000E+00  0.00000000000E+00  0.11966876850E+04  0.11966876850E+04  0.25500000920E-02 0.  1.
       -2   -1    0    0    0  501  0.00000000000E+00  0.00000000000E+00 -0.53081733393E+03  0.53081733394E+03  0.25500000920E-02 0. -1.
    10030    2    1    2    0    0  0.00000000000E+00  0.00000000000E+00  0.66587035104E+03  0.17275050189E+04  0.15940170219E+04 0.  0.
        1    1    3    3  502    0 -0.24637005924E+03  0.74783309401E+03  0.46685541617E+03  0.91537234076E+03  0.50400001928E-02 0. -1.
       -1    1    3    3    0  502  0.24637005924E+03 -0.74783309401E+03  0.19901493487E+03  0.81213267815E+03  0.50400001928E-02 0.  1.
</event>
<event>
 5   0  0.3380454E-04  0.1618808E+04  0.7818609E-02  0.8809076E-01
        2   -1    0    0  501    0  0.00000000000E+00  0.00000000000E+00  0.13236159054E+04  0.13236159054E+04  0.25500000920E-02 0.  1.
       -2   -1    0    0    0  501  0.00000000000E+00  0.00000000000E+00 -0.49495862184E+03  0.49495862184E+03  0.25500000920E-02 0. -1.
    10030    2    1    2    0    0  0.00000000000E+00  0.00000000000E+00  0.82865728355E+03  0.18185745272E+04  0.16188083325E+04 0.  0.
        5    1    3    3  502    0  0.79002572991E+03  0.14544160646E+03  0.30300907575E+03  0.85856304649E+03  0.46999998093E+01 0.  1.
       -5    1    3    3    0  502 -0.79002572991E+03 -0.14544160646E+03  0.52564820780E+03  0.96001148075E+03  0.46999998093E+01 0. -1.
</event>
<event>
 5   0  0.3380454E-04  0.1622849E+04  0.7818609E-02  0.8806633E-01
        2   -1    0    0  501    0  0.00000000000E+00  0.00000000000E+00  0.23718206161E+04  0.23718206161E+04  0.25500000920E-02 0. -1.
       -2   -1    0    0    0  501  0.00000000000E+00  0.00000000000E+00 -0.27759684605E+03  0.27759684606E+03  0.25500000920E-02 0.  1.
    10030    2    1    2    0    0  0.00000000000E+00  0.00000000000E+00  0.20942237701E+04  0.26494174622E+04  0.16228492505E+04 0.  0.
        5    1    3    3  502    0  0.33306699880E+02 -0.73161878589E+03  0.47685007784E+03  0.87394706410E+03  0.46999998093E+01 0. -1.
       -5    1    3    3    0  502 -0.33306699880E+02  0.73161878589E+03  0.16173736922E+04  0.17754703981E+04  0.46999998093E+01 0.  1.
</event>
<event>
 5   0  0.1764099E-04  0.1578404E+04  0.7818609E-02  0.8833926E-01
        1   -1    0    0  501    0  0.00000000000E+00  0.00000000000E+00  0.78216880987E+03  0.78216880989E+03  0.50400001928E-02 0.  1.
       -1   -1    0    0    0  501  0.00000000000E+00  0.00000000000E+00 -0.79629823406E+03  0.79629823407E+03  0.50400001928E-02 0. -1.
    10030    2    1    2    0    0  0.00000000000E+00  0.00000000000E+00 -0.14129424184E+02  0.15784670440E+04  0.15784038039E+04 0.  0.
        5    1    3    3  502    0  0.36560026607E+03  0.50012574393E+03  0.48186001818E+03  0.78485698150E+03  0.46999998093E+01 0.  1.
       -5    1    3    3    0  502 -0.36560026607E+03 -0.50012574393E+03 -0.49598944237E+03  0.79361006246E+03  0.46999998093E+01 0. -1.
</event>
<event>
 5   0  0.1764099E-04  0.1573263E+04  0.7818609E-02  0.8837144E-01
        1   -1    0    0  501    0  0.00000000000E+00  0.00000000000E+00  0.79666839687E+03  0.79666839689E+03  0.50400001928E-02 0.  1.
       -1   -1    0    0    0  501  0.00000000000E+00  0.00000000000E+00 -0.77672117408E+03  0.77672117410E+03  0.50400001928E-02 0. -1.
    10030    2    1    2    0    0  0.00000000000E+00  0.00000000000E+00  0.19947222795E+02  0.15733895710E+04  0.15732631218E+04 0.  0.
        5    1    3    3  502    0 -0.12286916343E+03 -0.40311165983E+03 -0.65428703104E+03  0.77827337781E+03  0.46999998093E+01 0. -1.
       -5    1    3    3    0  502  0.12286916343E+03  0.40311165983E+03  0.67423425384E+03  0.79511619318E+03  0.46999998093E+01 0.  1.
</event>
<event>
 5   0  0.3380454E-04  0.1605379E+04  0.7818609E-02  0.8817250E-01
       -2   -1    0    0    0  501  0.00000000000E+00  0.00000000000E+00  0.52984641300E+03  0.52984641301E+03  0.25500000920E-02 0.  1.
        2   -1    0    0  501    0  0.00000000000E+00  0.00000000000E+00 -0.12160320392E+04  0.12160320392E+04  0.25500000920E-02 0. -1.
    10030    2    1    2    0    0  0.00000000000E+00  0.00000000000E+00 -0.68618562617E+03  0.17458784522E+04  0.16053787267E+04 0.  0.
        5    1    3    3  502    0 -0.27392640186E+02 -0.76579707642E+03 -0.60294503283E+03  0.97506939322E+03  0.46999998093E+01 0. -1.
       -5    1    3    3    0  502  0.27392640186E+02  0.76579707642E+03 -0.83240593345E+02  0.77080905896E+03  0.46999998093E+01 0.  1.
</event>
<event>
 5   0  0.1787688E-04  0.1595601E+04  0.7818609E-02  0.8823255E-01
        1   -1    0    0  501    0  0.00000000000E+00  0.00000000000E+00  0.21857226898E+04  0.21857226898E+04  0.50400001928E-02 0. -1.
       -1   -1    0    0    0  501  0.00000000000E+00  0.00000000000E+00 -0.29120145809E+03  0.29120145813E+03  0.50400001928E-02 0.  1.
    10030    2    1    2    0    0  0.00000000000E+00  0.00000000000E+00  0.18945212317E+04  0.24769241480E+04  0.15956009956E+04 0.  0.
        4    1    3    3  502    0 -0.57101987962E+03  0.19016519343E+03  0.17602178107E+04  0.18602674156E+04  0.12699999809E+01 0. -1.
       -4    1    3    3    0  502  0.57101987962E+03 -0.19016519343E+03  0.13430342106E+03  0.61665673233E+03  0.12699999809E+01 0.  1.
</event>
<event>
 5   0  0.3228393E-04  0.1620717E+04  0.7818609E-02  0.8807921E-01
       -2   -1    0    0    0  501  0.00000000000E+00  0.00000000000E+00  0.13423153895E+04  0.13423153895E+04  0.25500000920E-02 0.  1.
        2   -1    0    0  501    0  0.00000000000E+00  0.00000000000E+00 -0.48921515025E+03  0.48921515026E+03  0.25500000920E-02 0. -1.
    10030    2    1    2    0    0  0.00000000000E+00  0.00000000000E+00  0.85310023921E+03  0.18315305397E+04  0.16207171560E+04 0.  0.
        1    1    3    3  502    0 -0.32771601809E+03 -0.50141649504E+03  0.10433105172E+04  0.12030432766E+04  0.50400001928E-02 0. -1.
       -1    1    3    3    0  502  0.32771601809E+03  0.50141649504E+03 -0.19021027801E+03  0.62848726312E+03  0.50400001928E-02 0.  1.
</event>
<event>
 5   0  0.1764099E-04  0.1596406E+04  0.7818609E-02  0.8822759E-01
       -1   -1    0    0    0  501  0.00000000000E+00  0.00000000000E+00  0.30611019918E+03  0.30611019922E+03  0.50400001928E-02 0. -1.
        1   -1    0    0  501    0  0.00000000000E+00  0.00000000000E+00 -0.20813682067E+04  0.20813682067E+04  0.50400001928E-02 0.  1.
    10030    2    1    2    0    0  0.00000000000E+00  0.00000000000E+00 -0.17752580075E+04  0.23874784059E+04  0.15964060090E+04 0.  0.
        5    1    3    3  502    0  0.51894910402E+03 -0.11418943667E+03 -0.17783927472E+04  0.18560846568E+04  0.46999998093E+01 0.  1.
       -5    1    3    3    0  502 -0.51894910402E+03  0.11418943667E+03  0.31347396688E+01  0.53139374912E+03  0.46999998093E+01 0. -1.
</event>
<event>
 5   0  0.1819811E-04  0.1536669E+04  0.7818609E-02  0.8860428E-01
       -1   -1    0    0    0  501  0.00000000000E+00  0.00000000000E+00  0.60339277245E+03  0.60339277248E+03  0.50400001928E-02 0. -1.
        1   -1    0    0  501    0  0.00000000000E+00  0.00000000000E+00 -0.97836483982E+03  0.97836483984E+03  0.50400001928E-02 0.  1.
    10030    2    1    2    0    0  0.00000000000E+00  0.00000000000E+00 -0.37497206737E+03  0.15817576123E+04  0.15366694807E+04 0.  0.
        1    1    3    3  502    0 -0.57503969775E+02  0.41234633759E+03  0.47721839112E+03  0.63330371980E+03  0.50400001928E-02 0. -1.
       -1    1    3    3    0  502  0.57503969775E+02 -0.41234633759E+03 -0.85219045849E+03  0.94845389251E+03  0.50400001928E-02 0.  1.
</event>
<event>
 5   0  0.1819811E-04  0.1597745E+04  0.7818609E-02  0.8821935E-01
        1   -1    0    0  501    0  0.00000000000E+00  0.00000000000E+00  0.56433511824E+03  0.56433511826E+03  0.50400001928E-02 0. -1.
       -1   -1    0    0    0  501  0.00000000000E+00  0.00000000000E+00 -0.11308831908E+04  0.11308831908E+04  0.50400001928E-02 0.  1.
    10030    2    1    2    0    0  0.00000000000E+00  0.00000000000E+00 -0.56654807258E+03  0.16952183091E+04  0.15977447847E+04 0.  0.
        1    1    3    3  502    0  0.55801254702E+03 -0.36561281600E+03 -0.74956982764E+03  0.10034468897E+04  0.50400001928E-02 0.  1.
       -1    1    3    3    0  502 -0.55801254702E+03  0.36561281600E+03  0.18302175507E+03  0.69177141941E+03  0.50400001928E-02 0. -1.
</event>
<event>
 5   0  0.1787688E-04  0.1617048E+04  0.7818609E-02  0.8810143E-01
        1   -1    0    0  501    0  0.00000000000E+00  0.00000000000E+00  0.43736555087E+03  0.43736555090E+03  0.50400001928E-02 0. -1.
       -1   -1    0    0    0  501  0.00000000000E+00  0.00000000000E+00 -0.14946556167E+04  0.14946556168E+04  0.50400001928E-02 0.  1.
    10030    2    1    2    0    0  0.00000000000E+00  0.00000000000E+00 -0.10572900659E+04  0.19320211677E+04  0.16170477757E+04 0.  0.
        4    1    3    3  502    0  0.94088981668E+02 -0.25655200342E+02 -0.14876013606E+04  0.14907952062E+04  0.12699999809E+01 0.  1.
       -4    1    3    3    0  502 -0.94088981668E+02  0.25655200342E+02  0.43031129475E+03  0.44122596146E+03  0.12699999809E+01 0. -1.
</event>
<event>
 5   0  0.3263294E-04  0.1591119E+04  0.7818609E-02  0.8826023E-01
        2   -1    0    0  501    0  0.00000000000E+00  0.00000000000E+00  0.11045262926E+04  0.11045262926E+04  0.25500000920E-02 0. -1.
       -2   -1    0    0    0  501  0.00000000000E+00  0.00000000000E+00 -0.57301927538E+03  0.57301927539E+03  0.25500000920E-02 0.  1.
    10030    2    1    2    0    0  0.00000000000E+00  0.00000000000E+00  0.53150701722E+03  0.16775455680E+04  0.15911189218E+04 0.  0.
        4    1    3    3  502    0  0.25195709388E+03  0.49712556919E+03  0.86430268849E+03  0.10284147796E+04  0.12699999809E+01 0. -1.
       -4    1    3    3    0  502 -0.25195709388E+03 -0.49712556919E+03 -0.33279567127E+03  0.64913078838E+03  0.12699999809E+01 0.  1.
</event>
<event>
 5   0  0.3228393E-04  0.1594311E+04  0.7818609E-02  0.8824051E-01
        2   -1    0    0  501    0  0.00000000000E+00  0.00000000000E+00  0.11923236865E+04  0.11923236866E+04  0.25500000920E-02 0. -1.
       -2   -1    0    0    0  501  0.00000000000E+00  0.00000000000E+00 -0.53295662259E+03  0.53295662260E+03  0.25500000920E-02 0.  1.
    10030    2    1    2    0    0  0.00000000000E+00  0.00000000000E+00  0.65936706396E+03  0.17252803091E+04  0.15943108919E+04 0.  0.
        1    1    3    3  502    0  0.70617467471E+02  0.58533118891E+03 -0.25091419986E+03  0.64074750342E+03  0.50400001928E-02 0.  1.
       -1    1    3    3    0  502 -0.70617467471E+02 -0.58533118891E+03  0.91028126382E+03  0.10845328057E+04  0.50400001928E-02 0. -1.
</event>
<event>
 5   0  0.1787688E-04  0.1600974E+04  0.7818609E-02  0.8819950E-01
       -1   -1    0    0    0  501  0.00000000000E+00  0.00000000000E+00  0.59106373247E+03  0.59106373249E+03  0.50400001928E-02 0.  1.
        1   -1    0    0  501    0  0.00000000000E+00  0.00000000000E+00 -0.10841122495E+04  0.10841122495E+04  0.50400001928E-02 0. -1.
    10030    2    1    2    0    0  0.00000000000E+00  0.00000000000E+00 -0.49304851704E+03  0.16751759820E+04  0.16009739943E+04 0.  0.
        4    1    3    3  502    0 -0.18094655202E+03 -0.77395938555E+03 -0.14713202022E+03  0.80833423127E+03  0.12699999809E+01 0.  1.
       -4    1    3    3    0  502  0.18094655202E+03  0.77395938555E+03 -0.34591649682E+03  0.86684175074E+03  0.12699999809E+01 0. -1.
</event>
<event>
 5   0  0.3380454E-04  0.1592474E+04  0.7818609E-02  0.8825185E-01
       -2   -1    0    0    0  501  0.00000000000E+00  0.00000000000E+00  0.70343187092E+03  0.70343187092E+03  0.25500000920E-02 0. -1.
        2   -1    0    0  501    0  0.00000000000E+00  0.00000000000E+00 -0.90128658083E+03  0.90128658084E+03  0.25500000920E-02 0.  1.
    10030    2    1    2    0    0  0.00000000000E+00  0.00000000000E+00 -0.19785470992E+03  0.16047184518E+04  0.15924744341E+04 0.  0.
        5    1    3    3  502    0 -0.17329358779E+02 -0.76631354850E+01  0.70319066870E+03  0.70346161009E+03  0.46999998093E+01 0. -1.
       -5    1    3    3    0  502  0.17329358779E+02  0.76631354850E+01 -0.90104537862E+03  0.90125684167E+03  0.46999998093E+01 0.  1.
</event>
<event>
 5   0  0.3274900E-04  0.1626814E+04  0.7818609E-02  0.8804242E-01
        2   -1    0    0  501    0  0.00000000000E+00  0.00000000000E+00  0.25828027160E+04  0.25828027160E+04  0.25500000920E-02 0.  1.
       -2   -1    0    0    0  501  0.00000000000E+00  0.00000000000E+00 -0.25616789433E+03  0.25616789435E+03  0.25500000920E-02 0. -1.
    10030    2    1    2    0    0  0.00000000000E+00  0.00000000000E+00  0.23266348217E+04  0.28389706103E+04  0.16268142282E+04 0.  0.
        3    1    3    3  502    0 -0.68692905985E+03 -0.10145729706E+01  0.19235099851E+04  0.20424894702E+04  0.10100000352E+00 0.  1.
       -3    1    3    3    0  502  0.68692905985E+03  0.10145729706E+01  0.40312483652E+03  0.79648114017E+03  0.10100000352E+00 0. -1.
</event>
<event>
 5   0  0.3263294E-04  0.1595377E+04  0.7818609E-02  0.8823393E-01
        2   -1    0    0  501    0  0.00000000000E+00  0.00000000000E+00  0.14072980191E+04  0.14072980191E+04  0.25500000920E-02 0. -1.
       -2   -1    0    0    0  501  0.00000000000E+00  0.00000000000E+00 -0.45214784269E+03  0.45214784270E+03  0.25500000920E-02 0.  1.
    10030    2    1    2    0    0  0.00000000000E+00  0.00000000000E+00  0.95515017640E+03  0.18594458618E+04  0.15953767748E+04 0.  0.
        4    1    3    3  502    0  0.90621456809E+01 -0.94378751930E+02 -0.44555593036E+03  0.45553394087E+03  0.12699999809E+01 0.  1.
       -4    1    3    3    0  502 -0.90621456809E+01  0.94378751930E+02  0.14007061068E+04  0.14039119209E+04  0.12699999809E+01 0. -1.
</event>
<event>
 5   0  0.3210612E-04  0.1610203E+04  0.7818609E-02  0.8814304E-01
       -2   -1    0    0    0  501  0.00000000000E+00  0.00000000000E+00  0.45516790768E+03  0.45516790769E+03  0.25500000920E-02 0.  1.
        2   -1    0    0  501    0  0.00000000000E+00  0.00000000000E+00 -0.14240642752E+04  0.14240642752E+04  0.25500000920E-02 0. -1.
    10030    2    1    2    0    0  0.00000000000E+00  0.00000000000E+00 -0.96889636753E+03  0.18792321829E+04  0.16102029146E+04 0.  0.
        2    1    3    3  502    0 -0.56409902452E+03 -0.45827189139E+03 -0.80215267575E+02  0.73120128902E+03  0.25500000920E-02 0.  1.
       -2    1    3    3    0  502  0.56409902452E+03  0.45827189139E+03 -0.88868109995E+03  0.11480308939E+04  0.25500000920E-02 0. -1.
</event>
<event>
 5   0  0.3210612E-04  0.1583994E+04  0.7818609E-02  0.8830442E-01
       -2   -1    0    0    0  501  0.00000000000E+00  0.00000000000E+00  0.60763693009E+03  0.60763693009E+03  0.25500000920E-02 0.  1.
        2   -1    0    0  501    0  0.00000000000E+00  0.00000000000E+00 -0.10322928970E+04  0.10322928970E+04  0.25500000920E-02 0. -1.
    10030    2    1    2    0    0  0.00000000000E+00  0.00000000000E+00 -0.42465596692E+03  0.16399298271E+04  0.15839940491E+04 0.  0.
        2    1    3    3  502    0  0.37955859795E+03 -0.17853816153E+02 -0.93175946652E+03  0.10062600019E+04  0.25500000920E-02 0. -1.
       -2    1    3    3    0  502 -0.37955859795E+03  0.17853816153E+02  0.50710349960E+03  0.63366982518E+03  0.25500000920E-02 0.  1.
</event>
<event>
 5   0  0.3210612E-04  0.1604084E+04  0.7818609E-02  0.8818043E-01
        2   -1    0    0  501    0  0.00000000000E+00  0.00000000000E+00  0.17498524437E+04  0.17498524437E+04  0.25500000920E-02 0.  1.
       -2   -1    0    0    0  501  0.00000000000E+00  0.00000000000E+00 -0.36761465673E+03  0.36761465674E+03  0.25500000920E-02 0. -1.
    10030    2    1    2    0    0  0.00000000000E+00  0.00000000000E+00  0.13822377870E+04  0.21174671004E+04  0.16040840445E+04 0.  0.
        2    1    3    3  502    0  0.24739424684E+03 -0.11457922748E+03 -0.30456719718E+03  0.40877070632E+03  0.25500000920E-02 0. -1.
       -2    1    3    3    0  502 -0.24739424684E+03  0.11457922748E+03  0.16868049841E+04  0.17086963941E+04  0.25500000920E-02 0.  1.
</event>
<event>
 5   0  0.3274900E-04  0.1608836E+04  0.7818609E-02  0.8815138E-01
       -2   -1    0    0    0  501  0.00000000000E+00  0.00000000000E+00  0.25739760565E+03  0.25739760566E+03  0.25500000920E-02 0. -1.
        2   -1    0    0  501    0  0.00000000000E+00  0.00000000000E+00 -0.25139652179E+04  0.25139652179E+04  0.25500000920E-02 0.  1.
    10030    2    1    2    0    0  0.00000000000E+00  0.00000000000E+00 -0.22565676122E+04  0.27713628235E+04  0.16088363842E+04 0.  0.
        3    1    3    3  502    0  0.19099102145E+03 -0.74069459137E+03 -0.69942306088E+03  0.10364838041E+04  0.10100000352E+00 0. -1.
       -3    1    3    3    0  502 -0.19099102145E+03  0.74069459137E+03 -0.15571445513E+04  0.17348790194E+04  0.10100000352E+00 0.  1.
</event>
<event>
 5   0  0.3263294E-04  0.1595985E+04  0.7818609E-02  0.8823018E-01
       -2   -1    0    0    0  501  0.00000000000E+00  0.00000000000E+00  0.41224862188E+03  0.41224862189E+03  0.25500000920E-02 0.  1.
        2   -1    0    0  501    0  0.00000000000E+00  0.00000000000E+00 -0.15446803271E+04  0.15446803271E+04  0.25500000920E-02 0. -1.
    10030    2    1    2    0    0  0.00000000000E+00  0.00000000000E+00 -0.11324317052E+04  0.19569289490E+04  0.15959853835E+04 0.  0.
        4    1    3    3  502    0 -0.11989190935E+03 -0.70011431163E+03 -0.10121336761E+04  0.12365073030E+04  0.12699999809E+01 0. -1.
       -4    1    3    3    0  502  0.11989190935E+03  0.70011431163E+03 -0.12029802915E+03  0.72042164598E+03  0.12699999809E+01 0.  1.
</event>
<event>
 5   0  0.3228393E-04  0.1447169E+04  0.7818609E-02  0.8920366E-01
       -2   -1    0    0    0  501  0.00000000000E+00  0.00000000000E+00  0.43921073786E+03  0.43921073787E+03  0.25500000920E-02 0.  1.
        2   -1    0    0  501    0  0.00000000000E+00  0.00000000000E+00 -0.11920799469E+04  0.11920799469E+04  0.25500000920E-02 0. -1.
    10030    2    1    2    0    0  0.00000000000E+00  0.00000000000E+00 -0.75286920902E+03  0.16312906848E+04  0.14471687021E+04 0.  0.
        1    1    3    3  502    0  0.46004877486E+03  0.99509550729E+02 -0.99592601005E+03  0.11015514711E+04  0.50400001928E-02 0. -1.
       -1    1    3    3    0  502 -0.46004877486E+03 -0.99509550729E+02  0.24305680104E+03  0.52973921366E+03  0.50400001928E-02 0.  1.
</event>
<event>
 5   0  0.1819811E-04  0.1589484E+04  0.7818609E-02  0.8827035E-01
        1   -1    0    0  501    0  0.00000000000E+00  0.00000000000E+00  0.78755390664E+03  0.78755390665E+03  0.50400001928E-02 0. -1.
       -1   -1    0    0    0  501  0.00000000000E+00  0.00000000000E+00 -0.80199554244E+03  0.80199554245E+03  0.50400001928E-02 0.  1.
    10030    2    1    2    0    0  0.00000000000E+00  0.00000000000E+00 -0.14441635799E+02  0.15895494491E+04  0.15894838440E+04 0.  0.
        1    1    3    3  502    0 -0.63229482284E+03 -0.14526339262E+03  0.45183682675E+03  0.79060401862E+03  0.50400001928E-02 0. -1.
       -1    1    3    3    0  502  0.63229482284E+03  0.14526339262E+03 -0.46627846255E+03  0.79894543048E+03  0.50400001928E-02 0.  1.
</event>
<event>
 5   0  0.1736537E-04  0.1622012E+04  0.7818609E-02  0.8807138E-01
        1   -1    0    0  501    0  0.00000000000E+00  0.00000000000E+00  0.16795762710E+04  0.16795762710E+04  0.50400001928E-02 0.  1.
       -1   -1    0    0    0  501  0.00000000000E+00  0.00000000000E+00 -0.39160535051E+03  0.39160535054E+03  0.50400001928E-02 0. -1.
    10030    2    1    2    0    0  0.00000000000E+00  0.00000000000E+00  0.12879709205E+04  0.20711816215E+04  0.16220123974E+04 0.  0.
        3    1    3    3  502    0 -0.30783202229E+03 -0.74207030619E+03  0.50235569390E+03  0.94751788725E+03  0.10100000352E+00 0. -1.
       -3    1    3    3    0  502  0.30783202229E+03  0.74207030619E+03  0.78561522656E+03  0.11236637343E+04  0.10100000352E+00 0.  1.
</event>
<event>
 5   0  0.1819811E-04  0.1595226E+04  0.7818609E-02  0.8823486E-01
       -1   -1    0    0    0  501  0.00000000000E+00  0.00000000000E+00  0.10217818051E+04  0.10217818051E+04  0.50400001928E-02 0.  1.
        1   -1    0    0  501    0  0.00000000000E+00  0.00000000000E+00 -0.62262468323E+03  0.62262468325E+03  0.50400001928E-02 0. -1.
    10030    2    1    2    0    0  0.00000000000E+00  0.00000000000E+00  0.39915712187E+03  0.16444064884E+04  0.15952260940E+04 0.  0.
        1    1    3    3  502    0  0.65586125713E+03  0.36012933646E+03  0.48439262852E+03  0.89133795284E+03  0.50400001928E-02 0.  1.
       -1    1    3    3    0  502 -0.65586125713E+03 -0.36012933646E+03 -0.85235506649E+02  0.75306853553E+03  0.50400001928E-02 0. -1.
</event>
<event>
 5   0  0.3263294E-04  0.1617241E+04  0.7818609E-02  0.8810026E-01
        2   -1    0    0  501    0  0.00000000000E+00  0.00000000000E+00  0.13108073378E+04  0.13108073378E+04  0.25500000920E-02 0.  1.
       -2   -1    0    0    0  501  0.00000000000E+00  0.00000000000E+00 -0.49882781831E+03  0.49882781832E+03  0.25500000920E-02 0. -1.
    10030    2    1    2    0    0  0.00000000000E+00  0.00000000000E+00  0.81197951953E+03  0.18096351562E+04  0.16172410638E+04 0.  0.
        4    1    3    3  502    0 -0.22902488203E+03 -0.50725054070E+03  0.10623842687E+04  0.11993404250E+04  0.12699999809E+01 0.  1.
       -4    1    3    3    0  502  0.22902488203E+03  0.50725054070E+03 -0.25040474918E+03  0.61029473121E+03  0.12699999809E+01 0. -1.
</event>
<event>
 5   0  0.3210612E-04  0.1583720E+04  0.7818609E-02  0.8830612E-01
        2   -1    0    0  501    0  0.00000000000E+00  0.00000000000E+00  0.52103620578E+03  0.52103620579E+03  0.25500000920E-02 0. -1.
       -2   -1    0    0    0  501  0.00000000000E+00  0.00000000000E+00 -0.12034525127E+04  0.12034525127E+04  0.25500000920E-02 0.  1.
    10030    2    1    2    0    0  0.00000000000E+00  0.00000000000E+00 -0.68241630693E+03  0.17244887185E+04  0.15837200903E+04 0.  0.
        2    1    3    3  502    0 -0.74299646875E+03 -0.29872753497E+02 -0.63762930847E+03  0.97954441910E+03  0.25500000920E-02 0. -1.
       -2    1    3    3    0  502  0.74299646875E+03  0.29872753497E+02 -0.44786998462E+02  0.74494429940E+03  0.25500000920E-02 0.  1.
</event>
<event>
 5   0  0.3210612E-04  0.1592152E+04  0.7818609E-02  0.8825384E-01
        2   -1    0    0  501    0  0.00000000000E+00  0.00000000000E+00  0.57272458939E+03  0.57272458940E+03  0.25500000920E-02 0. -1.
       -2   -1    0    0    0  501  0.00000000000E+00  0.00000000000E+00 -0.11065304985E+04  0.11065304985E+04  0.25500000920E-02 0.  1.
    10030    2    1    2    0    0  0.00000000000E+00  0.00000000000E+00 -0.53380590907E+03  0.16792550879E+04  0.15921522859E+04 0.  0.
        2    1    3    3  502    0 -0.29002308607E+02 -0.41424397292E+03 -0.98324899462E+03  0.10673414582E+04  0.25500000920E-02 0.  1.
       -2    1    3    3    0  502  0.29002308607E+02  0.41424397292E+03  0.44944308554E+03  0.61191362965E+03  0.25500000920E-02 0. -1.
</event>
<event>
 5   0  0.3228393E-04  0.1599199E+04  0.7818609E-02  0.8821040E-01
       -2   -1    0    0    0  501  0.00000000000E+00  0.00000000000E+00  0.29842342303E+03  0.29842342304E+03  0.25500000920E-02 0. -1.
        2   -1    0    0  501    0  0.00000000000E+00  0.00000000000E+00 -0.21424559824E+04  0.21424559824E+04  0.25500000920E-02 0.  1.
    10030    2    1    2    0    0  0.00000000000E+00  0.00000000000E+00 -0.18440325593E+04  0.24408794054E+04  0.15991986093E+04 0.  0.
        1    1    3    3  502    0 -0.76181152613E+02 -0.52794027574E+03 -0.18312109198E+04  0.19073169468E+04  0.50400001928E-02 0.  1.
       -1    1    3    3    0  502  0.76181152613E+02  0.52794027574E+03 -0.12821639531E+02  0.53356245860E+03  0.50400001928E-02 0. -1.
</event>
<event>
 5   0  0.3380454E-04  0.1607392E+04  0.7818609E-02  0.8816020E-01
       -2   -1    0    0    0  501  0.00000000000E+00  0.00000000000E+00  0.60132544781E+03  0.60132544782E+03  0.25500000920E-02 0.  1.
        2   -1    0    0  501    0  0.00000000000E+00  0.00000000000E+00 -0.10741723686E+04  0.10741723686E+04  0.25500000920E-02 0. -1.
    10030    2    1    2    0    0  0.00000000000E+00  0.00000000000E+00 -0.47284692076E+03  0.16754978164E+04  0.16073919006E+04 0.  0.
        5    1    3    3  502    0 -0.34020139784E+03  0.55855397871E+03 -0.72331820304E+03  0.97515683410E+03  0.46999998093E+01 0. -1.
       -5    1    3    3    0  502  0.34020139784E+03 -0.55855397871E+03  0.25047128229E+03  0.70034098229E+03  0.46999998093E+01 0.  1.
</event>
<event>
 5   0  0.1761255E-04  0.1606436E+04  0.7818609E-02  0.8816604E-01
        1   -1    0    0  501    0  0.00000000000E+00  0.00000000000E+00  0.18077332657E+04  0.18077332657E+04  0.50400001928E-02 0.  1.
       -1   -1    0    0    0  501  0.00000000000E+00  0.00000000000E+00 -0.35688828875E+03  0.35688828879E+03  0.50400001928E-02 0. -1.
    10030    2    1    2    0    0  0.00000000000E+00  0.00000000000E+00  0.14508449769E+04  0.21646215544E+04  0.16064355969E+04 0.  0.
        2    1    3    3  502    0  0.77229316815E+03 -0.20488657314E+03  0.61476925225E+03  0.10081450684E+04  0.25500000920E-02 0. -1.
       -2    1    3    3    0  502 -0.77229316815E+03  0.20488657314E+03  0.83607572465E+03  0.11564764860E+04  0.25500000920E-02 0.  1.
</event>
<event>
 5   0  0.1736537E-04  0.1593024E+04  0.7818609E-02  0.8824845E-01
       -1   -1    0    0    0  501  0.00000000000E+00  0.00000000000E+00  0.53651166068E+03  0.53651166071E+03  0.50400001928E-02 0. -1.
        1   -1    0    0  501    0  0.00000000000E+00  0.00000000000E+00 -0.11825111783E+04  0.11825111784E+04  0.50400001928E-02 0.  1.
    10030    2    1    2    0    0  0.00000000000E+00  0.00000000000E+00 -0.64599951766E+03  0.17190228391E+04  0.15930235856E+04 0.  0.
        3    1    3    3  502    0  0.14182914682E+01  0.52543486386E+03  0.32296891832E+03  0.61675987233E+03  0.10100000352E+00 0. -1.
       -3    1    3    3    0  502 -0.14182914682E+01 -0.52543486386E+03 -0.96896843597E+03  0.11022629667E+04  0.10100000352E+00 0.  1.
</event>
<event>
 5   0  0.1819811E-04  0.1600226E+04  0.7818609E-02  0.8820409E-01
       -1   -1    0    0    0  501  0.00000000000E+00  0.00000000000E+00  0.13746331998E+04  0.13746331998E+04  0.50400001928E-02 0.  1.
        1   -1    0    0  501    0  0.00000000000E+00  0.00000000000E+00 -0.46571054467E+03  0.46571054470E+03  0.50400001928E-02 0. -1.
    10030    2    1    2    0    0  0.00000000000E+00  0.00000000000E+00  0.90892265514E+03  0.18403437445E+04  0.16002264543E+04 0.  0.
        1    1    3    3  502    0 -0.72321067253E+03 -0.19530450854E+02  0.61476468425E+02  0.72608158740E+03  0.50400001928E-02 0. -1.
       -1    1    3    3    0  502  0.72321067253E+03  0.19530450854E+02  0.84744618671E+03  0.11142621571E+04  0.50400001928E-02 0.  1.
</event>
<event>
 5   0  0.1761255E-04  0.1607935E+04  0.7818609E-02  0.8815688E-01
       -1   -1    0    0    0  501  0.00000000000E+00  0.00000000000E+00  0.34835918178E+03  0.34835918182E+03  0.50400001928E-02 0. -1.
        1   -1    0    0  501    0  0.00000000000E+00  0.00000000000E+00 -0.18554524375E+04  0.18554524376E+04  0.50400001928E-02 0.  1.
    10030    2    1    2    0    0  0.00000000000E+00  0.00000000000E+00 -0.15070932558E+04  0.22038116194E+04  0.16079351890E+04 0.  0.
        2    1    3    3  502    0  0.30119755940E+03  0.36004772308E+03  0.14102599189E+03  0.49014555295E+03  0.25500000920E-02 0. -1.
       -2    1    3    3    0  502 -0.30119755940E+03 -0.36004772308E+03 -0.16481192477E+04  0.17136660664E+04  0.25500000920E-02 0.  1.
</event>
<event>
 5   0  0.3274900E-04  0.1607224E+04  0.7818609E-02  0.8816122E-01
        2   -1    0    0  501    0  0.00000000000E+00  0.00000000000E+00  0.58333891389E+03  0.58333891389E+03  0.25500000920E-02 0. -1.
       -2   -1    0    0    0  501  0.00000000000E+00  0.00000000000E+00 -0.11070618694E+04  0.11070618694E+04  0.25500000920E-02 0.  1.
    10030    2    1    2    0    0  0.00000000000E+00  0.00000000000E+00 -0.52372295548E+03  0.16904007833E+04  0.16072240273E+04 0.  0.
        3    1    3    3  502    0 -0.75100709595E+03 -0.75641340469E+02  0.28198987712E+02  0.75533334605E+03  0.10100000352E+00 0. -1.
       -3    1    3    3    0  502  0.75100709595E+03  0.75641340469E+02 -0.55192194319E+03  0.93506743721E+03  0.10100000352E+00 0.  1.
</event>
<event>
 5   0  0.1761255E-04  0.1596786E+04  0.7818609E-02  0.8822525E-01
        1   -1    0    0  501    0  0.00000000000E+00  0.00000000000E+00  0.10921439636E+04  0.10921439636E+04  0.50400001928E-02 0. -1.
       -1   -1    0    0    0  501  0.00000000000E+00  0.00000000000E+00 -0.58365166880E+03  0.58365166882E+03  0.50400001928E-02 0.  1.
    10030    2    1    2    0    0  0.00000000000E+00  0.00000000000E+00  0.50849229481E+03  0.16757956324E+04  0.15967863313E+04 0.  0.
        2    1    3    3  502    0  0.10226363690E+03  0.11794946337E+03  0.10759708585E+04  0.10872365040E+04  0.25500000920E-02 0. -1.
       -2    1    3    3    0  502 -0.10226363690E+03 -0.11794946337E+03 -0.56747856371E+03  0.58855912840E+03  0.25500000920E-02 0.  1.
</event>
<event>
 5   0  0.3380454E-04  0.1595879E+04  0.7818609E-02  0.8823084E-01
        2   -1    0    0  501    0  0.00000000000E+00  0.00000000000E+00  0.10946802345E+04  0.10946802345E+04  0.25500000920E-02 0.  1.
       -2   -1    0    0    0  501  0.00000000000E+00  0.00000000000E+00 -0.58163768738E+03  0.58163768739E+03  0.25500000920E-02 0. -1.
    10030    2    1    2    0    0  0.00000000000E+00  0.00000000000E+00  0.51304254714E+03  0.16763179219E+04  0.15958787924E+04 0.  0.
        5    1    3    3  502    0  0.51529351733E+03 -0.55166469578E+03  0.52805402078E+03  0.92126244058E+03  0.46999998093E+01 0.  1.
       -5    1    3    3    0  502 -0.51529351733E+03  0.55166469578E+03 -0.15011473631E+02  0.75505548134E+03  0.46999998093E+01 0. -1.
</event>
<event>
 5   0  0.3263294E-04  0.1602883E+04  0.7818609E-02  0.8818779E-01
        2   -1    0    0  501    0  0.00000000000E+00  0.00000000000E+00  0.17077307179E+04  0.17077307179E+04  0.25500000920E-02 0. -1.
       -2   -1    0    0    0  501  0.00000000000E+00  0.00000000000E+00 -0.37611809520E+03  0.37611809520E+03  0.25500000920E-02 0.  1.
    10030    2    1    2    0    0  0.00000000000E+00  0.00000000000E+00  0.13316126227E+04  0.20838488131E+04  0.16028829337E+04 0.  0.
        4    1    3    3  502    0 -0.18429103862E+03 -0.13903986068E+03 -0.33195418369E+03  0.40433953894E+03  0.12699999809E+01 0.  1.
       -4    1    3    3    0  502  0.18429103862E+03  0.13903986068E+03  0.16635668064E+04  0.16795092742E+04  0.12699999809E+01 0. -1.
</event>
<event>
 5   0  0.1764099E-04  0.1600751E+04  0.7818609E-02  0.8820087E-01
        1   -1    0    0  501    0  0.00000000000E+00  0.00000000000E+00  0.12319457994E+04  0.12319457994E+04  0.50400001928E-02 0.  1.
       -1   -1    0    0    0  501  0.00000000000E+00  0.00000000000E+00 -0.51999128010E+03  0.51999128012E+03  0.50400001928E-02 0. -1.
    10030    2    1    2    0    0  0.00000000000E+00  0.00000000000E+00  0.71195451931E+03  0.17519370795E+04  0.16007511653E+04 0.  0.
        5    1    3    3  502    0  0.12474095255E+03  0.31560675233E+03  0.11492897305E+04  0.11983559163E+04  0.46999998093E+01 0.  1.
       -5    1    3    3    0  502 -0.12474095255E+03 -0.31560675233E+03 -0.43733521122E+03  0.55358116327E+03  0.46999998093E+01 0. -1.
</event>
<event>
 5   0  0.1736537E-04  0.1631372E+04  0.7818609E-02  0.8801503E-01
        1   -1    0    0  501    0  0.00000000000E+00  0.00000000000E+00  0.95244237469E+03  0.95244237471E+03  0.50400001928E-02 0. -1.
       -1   -1    0    0    0  501  0.00000000000E+00  0.00000000000E+00 -0.69856588258E+03  0.69856588260E+03  0.50400001928E-02 0.  1.
    10030    2    1    2    0    0  0.00000000000E+00  0.00000000000E+00  0.25387649211E+03  0.16510082573E+04  0.16313721196E+04 0.  0.
        3    1    3    3  502    0  0.22170570999E+03  0.24444056868E+03  0.88186538609E+03  0.94158971046E+03  0.10100000352E+00 0. -1.
       -3    1    3    3    0  502 -0.22170570999E+03 -0.24444056868E+03 -0.62798889398E+03  0.70941854685E+03  0.10100000352E+00 0.  1.
</event>
<event>
 5   0  0.1787688E-04  0.1604586E+04  0.7818609E-02  0.8817736E-01
       -1   -1    0    0    0  501  0.00000000000E+00  0.00000000000E+00  0.31104400296E+03  0.31104400300E+03  0.50400001928E-02 0.  1.
        1   -1    0    0  501    0  0.00000000000E+00  0.00000000000E+00 -0.20693974508E+04  0.20693974508E+04  0.50400001928E-02 0. -1.
    10030    2    1    2    0    0  0.00000000000E+00  0.00000000000E+00 -0.17583534479E+04  0.23804414538E+04  0.16045855127E+04 0.  0.
        4    1    3    3  502    0 -0.32746671880E+03  0.42656196176E+03 -0.17624437843E+04  0.18426609197E+04  0.12699999809E+01 0. -1.
       -4    1    3    3    0  502  0.32746671880E+03 -0.42656196176E+03  0.40903364737E+01  0.53778053413E+03  0.12699999809E+01 0.  1.
</event>
<event>
 5   0  0.1764099E-04  0.1608069E+04  0.7818609E-02  0.8815606E-01
       -1   -1    0    0    0  501  0.00000000000E+00  0.00000000000E+00  0.42672074737E+03  0.42672074740E+03  0.50400001928E-02 0. -1.
        1   -1    0    0  501    0  0.00000000000E+00  0.00000000000E+00 -0.15149758142E+04  0.15149758142E+04  0.50400001928E-02 0.  1.
    10030    2    1    2    0    0  0.00000000000E+00  0.00000000000E+00 -0.10882550669E+04  0.19416965616E+04  0.16080691673E+04 0.  0.
        5    1    3    3  502    0  0.28394054436E+03  0.69299856173E+03 -0.19089272410E+03  0.77287215075E+03  0.46999998093E+01 0.  1.
       -5    1    3    3    0  502 -0.28394054436E+03 -0.69299856173E+03 -0.89736234276E+03  0.11688244109E+04  0.46999998093E+01 0. -1.
</event>
<event>
 5   0  0.3210612E-04  0.1592125E+04  0.7818609E-02  0.8825401E-01
       -2   -1    0    0    0  501  0.00000000000E+00  0.00000000000E+00  0.56418797942E+03  0.56418797943E+03  0.25500000920E-02 0.  1.
        2   -1    0    0  501    0  0.00000000000E+00  0.00000000000E+00 -0.11232346404E+04  0.11232346404E+04  0.25500000920E-02 0. -1.
    10030    2    1    2    0    0  0.00000000000E+00  0.00000000000E+00 -0.55904666101E+03  0.16874226199E+04  0.15921249727E+04 0.  0.
        2    1    3    3  502    0 -0.31038283679E+03 -0.45455374992E+03  0.33001701769E+03  0.64176931129E+03  0.25500000920E-02 0.  1.
       -2    1    3    3    0  502  0.31038283679E+03  0.45455374992E+03 -0.88906367870E+03  0.10456533086E+04  0.25500000920E-02 0. -1.
</event>
<event>
 5   0  0.1761255E-04  0.1607417E+04  0.7818609E-02  0.8816004E-01
        1   -1    0    0  501    0  0.00000000000E+00  0.00000000000E+00  0.73107179191E+03  0.73107179193E+03  0.50400001928E-02 0. -1.
       -1   -1    0    0    0  501  0.00000000000E+00  0.00000000000E+00 -0.88356224739E+03  0.88356224741E+03  0.50400001928E-02 0.  1.
    10030    2    1    2    0    0  0.00000000000E+00  0.00000000000E+00 -0.15249045548E+03  0.16146340393E+04  0.16074171027E+04 0.  0.
        2    1    3    3  502    0 -0.77294325953E+03  0.22004809684E+03 -0.66984937129E+02  0.80644245249E+03  0.25500000920E-02 0. -1.
       -2    1    3    3    0  502  0.77294325953E+03 -0.22004809684E+03 -0.85505518352E+02  0.80819158684E+03  0.25500000920E-02 0.  1.
</event>
<event>
 5   0  0.3380454E-04  0.1660614E+04  0.7818609E-02  0.8784152E-01
       -2   -1    0    0    0  501  0.00000000000E+00  0.00000000000E+00  0.77327038592E+03  0.77327038593E+03  0.25500000920E-02 0. -1.
        2   -1    0    0  501    0  0.00000000000E+00  0.00000000000E+00 -0.89155115381E+03  0.89155115381E+03  0.25500000920E-02 0.  1.
    10030    2    1    2    0    0  0.00000000000E+00  0.00000000000E+00 -0.11828076788E+03  0.16648215397E+04  0.16606144703E+04 0.  0.
        5    1    3    3  502    0 -0.41006941046E+03  0.45188823133E+03  0.50533857834E+03  0.79230616795E+03  0.46999998093E+01 0. -1.
       -5    1    3    3    0  502  0.41006941046E+03 -0.45188823133E+03 -0.62361934623E+03  0.87251537178E+03  0.46999998093E+01 0.  1.
</event>
<event>
 5   0  0.1819811E-04  0.1598343E+04  0.7818609E-02  0.8821567E-01
       -1   -1    0    0    0  501  0.00000000000E+00  0.00000000000E+00  0.81065270977E+03  0.81065270978E+03  0.50400001928E-02 0.  1.
        1   -1    0    0  501    0  0.00000000000E+00  0.00000000000E+00 -0.78785270688E+03  0.78785270689E+03  0.50400001928E-02 0. -1.
    10030    2    1    2    0    0  0.00000000000E+00  0.00000000000E+00  0.22800002889E+02  0.15985054167E+04  0.15983428065E+04 0.  0.
        1    1    3    3  502    0 -0.52161188261E+03  0.14224789958E+03 -0.57718473305E+03  0.79085753275E+03  0.50400001928E-02 0. -1.
       -1    1    3    3    0  502  0.52161188261E+03 -0.14224789958E+03  0.59998473594E+03  0.80764788392E+03  0.50400001928E-02 0.  1.
</event>
<event>
 5   0  0.3274900E-04  0.1593898E+04  0.7818609E-02  0.8824305E-01
        2   -1    0    0  501    0  0.00000000000E+00  0.00000000000E+00  0.11278156830E+04  0.11278156830E+04  0.25500000920E-02 0. -1.
       -2   -1    0    0    0  501  0.00000000000E+00  0.00000000000E+00 -0.56314872007E+03  0.56314872008E+03  0.25500000920E-02 0.  1.
    10030    2    1    2    0    0  0.00000000000E+00  0.00000000000E+00  0.56466696289E+03  0.16909644030E+04  0.15938983134E+04 0.  0.
        3    1    3    3  502    0 -0.17892583663E+03 -0.24041779576E+03  0.10657571547E+04  0.11070923605E+04  0.10100000352E+00 0. -1.
       -3    1    3    3    0  502  0.17892583663E+03  0.24041779576E+03 -0.50109019185E+03  0.58387204257E+03  0.10100000352E+00 0.  1.
</event>
<event>
 5   0  0.3380454E-04  0.1608707E+04  0.7818609E-02  0.8815217E-01
       -2   -1    0    0    0  501  0.00000000000E+00  0.00000000000E+00  0.78534852322E+03  0.78534852323E+03  0.25500000920E-02 0. -1.
        2   -1    0    0  501    0  0.00000000000E+00  0.00000000000E+00 -0.82381849762E+03  0.82381849763E+03  0.25500000920E-02 0.  1.
    10030    2    1    2    0    0  0.00000000000E+00  0.00000000000E+00 -0.38469974397E+02  0.16091670209E+04  0.16087071089E+04 0.  0.
        5    1    3    3  502    0 -0.60184134014E+02 -0.61250567337E+03 -0.53724133899E+03  0.81696736545E+03  0.46999998093E+01 0.  1.
       -5    1    3    3    0  502  0.60184134014E+02  0.61250567337E+03  0.49877136459E+03  0.79219965541E+03  0.46999998093E+01 0. -1.
</event>
<event>
 5   0  0.3380454E-04  0.1597784E+04  0.7818609E-02  0.8821911E-01
       -2   -1    0    0    0  501  0.00000000000E+00  0.00000000000E+00  0.64389807226E+03  0.64389807227E+03  0.25500000920E-02 0.  1.
        2   -1    0    0  501    0  0.00000000000E+00  0.00000000000E+00 -0.99119426984E+03  0.99119426984E+03  0.25500000920E-02 0. -1.
    10030    2    1    2    0    0  0.00000000000E+00  0.00000000000E+00 -0.34729619757E+03  0.16350923421E+04  0.15977835643E+04 0.  0.
        5    1    3    3  502    0 -0.64836712361E+03 -0.34453237912E+03  0.14854234455E+03  0.74911241170E+03  0.46999998093E+01 0.  1.
       -5    1    3    3    0  502  0.64836712361E+03  0.34453237912E+03 -0.49583854212E+03  0.88597993041E+03  0.46999998093E+01 0. -1.
</event>
<event>
 5   0  0.3274900E-04  0.1605554E+04  0.7818609E-02  0.8817143E-01
       -2   -1    0    0    0  501  0.00000000000E+00  0.00000000000E+00  0.74625568707E+03  0.74625568708E+03  0.25500000920E-02 0. -1.
        2   -1    0    0  501    0  0.00000000000E+00  0.00000000000E+00 -0.86357889438E+03  0.86357889438E+03  0.25500000920E-02 0.  1.
    10030    2    1    2    0    0  0.00000000000E+00  0.00000000000E+00 -0.11732320730E+03  0.16098345815E+04  0.16055536879E+04 0.  0.
        3    1    3    3  502    0 -0.36083042166E+03 -0.14970954497E+03  0.64452072780E+03  0.75367003378E+03  0.10100000352E+00 0. -1.
       -3    1    3    3    0  502  0.36083042166E+03  0.14970954497E+03 -0.76184393510E+03  0.85616454768E+03  0.10100000352E+00 0.  1.
</event>
<event>
 5   0  0.1819811E-04  0.1439029E+04  0.7818609E-02  0.8926042E-01
        1   -1    0    0  501    0  0.00000000000E+00  0.00000000000E+00  0.10382467918E+04  0.10382467918E+04  0.50400001928E-02 0. -1.
       -1   -1    0    0    0  501  0.00000000000E+00  0.00000000000E+00 -0.49863020306E+03  0.49863020309E+03  0.50400001928E-02 0.  1.
    10030    2    1    2    0    0  0.00000000000E+00  0.00000000000E+00  0.53961658871E+03  0.15368769949E+04  0.14390291292E+04 0.  0.
        1    1    3    3  502    0  0.45810610043E+03 -0.32714849518E+03  0.74840133503E+03  0.93647845434E+03  0.50400001928E-02 0. -1.
       -1    1    3    3    0  502 -0.45810610043E+03  0.32714849518E+03 -0.20878474632E+03  0.60039854053E+03  0.50400001928E-02 0.  1.
</event>
<event>
 5   0  0.1761255E-04  0.1604035E+04  0.7818609E-02  0.8818073E-01
        1   -1    0    0  501    0  0.00000000000E+00  0.00000000000E+00  0.73665004549E+03  0.73665004551E+03  0.50400001928E-02 0.  1.
       -1   -1    0    0    0  501  0.00000000000E+00  0.00000000000E+00 -0.87318501973E+03  0.87318501974E+03  0.50400001928E-02 0. -1.
    10030    2    1    2    0    0  0.00000000000E+00  0.00000000000E+00 -0.13653497424E+03  0.16098350653E+04  0.16040346437E+04 0.  0.
        2    1    3    3  502    0  0.67323551154E+03  0.43034181831E+03  0.12045734839E+01  0.79902539733E+03  0.25500000920E-02 0.  1.
       -2    1    3    3    0  502 -0.67323551154E+03 -0.43034181831E+03 -0.13773954772E+03  0.81080966792E+03  0.25500000920E-02 0. -1.
</event>
<event>
 5   0  0.1764099E-04  0.1569571E+04  0.7818609E-02  0.8839463E-01
        1   -1    0    0  501    0  0.00000000000E+00  0.00000000000E+00  0.13301536457E+04  0.13301536457E+04  0.50400001928E-02 0.  1.
       -1   -1    0    0    0  501  0.00000000000E+00  0.00000000000E+00 -0.46302046731E+03  0.46302046733E+03  0.50400001928E-02 0. -1.
    10030    2    1    2    0    0  0.00000000000E+00  0.00000000000E+00  0.86713317841E+03  0.17931741131E+04  0.15695711040E+04 0.  0.
        5    1    3    3  502    0 -0.26320444081E+03  0.73710741331E+03  0.36831258629E+03  0.86503188822E+03  0.46999998093E+01 0.  1.
       -5    1    3    3    0  502  0.26320444081E+03 -0.73710741331E+03  0.49882059212E+03  0.92814222484E+03  0.46999998093E+01 0. -1.
</event>
<event>
 5   0  0.3210612E-04  0.1585849E+04  0.7818609E-02  0.8829289E-01
        2   -1    0    0  501    0  0.00000000000E+00  0.00000000000E+00  0.13827414030E+04  0.13827414030E+04  0.25500000920E-02 0.  1.
       -2   -1    0    0    0  501  0.00000000000E+00  0.00000000000E+00 -0.45469764747E+03  0.45469764748E+03  0.25500000920E-02 0. -1.
    10030    2    1    2    0    0  0.00000000000E+00  0.00000000000E+00  0.92804375558E+03  0.18374390505E+04  0.15858490004E+04 0.  0.
        2    1    3    3  502    0 -0.41976358886E+03  0.39491729885E+03 -0.16695484925E+03  0.60002922026E+03  0.25500000920E-02 0. -1.
       -2    1    3    3    0  502  0.41976358886E+03 -0.39491729885E+03  0.10949986048E+04  0.12374098303E+04  0.25500000920E-02 0.  1.
</event>
<event>
 5   0  0.1736537E-04  0.1603280E+04  0.7818609E-02  0.8818535E-01
        1   -1    0    0  501    0  0.00000000000E+00  0.00000000000E+00  0.48092609848E+03  0.48092609851E+03  0.50400001928E-02 0.  1.
       -1   -1    0    0    0  501  0.00000000000E+00  0.00000000000E+00 -0.13362277169E+04  0.13362277169E+04  0.50400001928E-02 0. -1.
    10030    2    1    2    0    0  0.00000000000E+00  0.00000000000E+00 -0.85530161838E+03  0.18171538154E+04  0.16032801160E+04 0.  0.
        3    1    3    3  502    0  0.67970952761E+03 -0.14442647192E+03  0.25371941936E+02  0.69534724660E+03  0.10100000352E+00 0.  1.
       -3    1    3    3    0  502 -0.67970952761E+03  0.14442647192E+03 -0.88067356032E+03  0.11218065688E+04  0.10100000352E+00 0. -1.
</event>
<event>
 5   0  0.1787688E-04  0.1586455E+04  0.7818609E-02  0.8828912E-01
        1   -1    0    0  501    0  0.00000000000E+00  0.00000000000E+00  0.72426617951E+03  0.72426617953E+03  0.50400001928E-02 0.  1.
       -1   -1    0    0    0  501  0.00000000000E+00  0.00000000000E+00 -0.86875551114E+03  0.86875551116E+03  0.50400001928E-02 0. -1.
    10030    2    1    2    0    0  0.00000000000E+00  0.00000000000E+00 -0.14448933163E+03  0.15930216907E+04  0.15864554643E+04 0.  0.
        4    1    3    3  502    0 -0.39129900569E+03 -0.17430442562E+03  0.59813496601E+03  0.73570645988E+03  0.12699999809E+01 0.  1.
       -4    1    3    3    0  502  0.39129900569E+03  0.17430442562E+03 -0.74262429764E+03  0.85731523081E+03  0.12699999809E+01 0. -1.
</event>
<event>
 5   0  0.3263294E-04  0.1592074E+04  0.7818609E-02  0.8825432E-01
       -2   -1    0    0    0  501  0.00000000000E+00  0.00000000000E+00  0.56612640314E+03  0.56612640315E+03  0.25500000920E-02 0.  1.
        2   -1    0    0  501    0  0.00000000000E+00  0.00000000000E+00 -0.11193165331E+04  0.11193165332E+04  0.25500000920E-02 0. -1.
    10030    2    1    2    0    0  0.00000000000E+00  0.00000000000E+00 -0.55319013000E+03  0.16854429363E+04  0.15920736703E+04 0.  0.
        4    1    3    3  502    0 -0.28815412343E+03 -0.52855546176E+03 -0.82797538438E+03  0.10236935699E+04  0.12699999809E+01 0. -1.
       -4    1    3    3    0  502  0.28815412343E+03  0.52855546176E+03  0.27478525438E+03  0.66174936640E+03  0.12699999809E+01 0.  1.
</event>
<event>
 5   0  0.1787688E-04  0.1591832E+04  0.7818609E-02  0.8825582E-01
       -1   -1    0    0    0  501  0.00000000000E+00  0.00000000000E+00  0.50126876557E+03  0.50126876560E+03  0.50400001928E-02 0.  1.
        1   -1    0    0  501    0  0.00000000000E+00  0.00000000000E+00 -0.12637573416E+04  0.12637573416E+04  0.50400001928E-02 0. -1.
    10030    2    1    2    0    0  0.00000000000E+00  0.00000000000E+00 -0.76248857604E+03  0.17650261072E+04  0.15918317532E+04 0.  0.
        4    1    3    3  502    0  0.26413105793E+03 -0.29133998621E+03  0.38602442261E+03  0.55105414532E+03  0.12699999809E+01 0.  1.
       -4    1    3    3    0  502 -0.26413105793E+03  0.29133998621E+03 -0.11485129986E+04  0.12139719619E+04  0.12699999809E+01 0. -1.
</event>
<event>
 5   0  0.1787688E-04  0.1612361E+04  0.7818609E-02  0.8812990E-01
       -1   -1    0    0    0  501  0.00000000000E+00  0.00000000000E+00  0.39007727419E+03  0.39007727422E+03  0.50400001928E-02 0. -1.
        1   -1    0    0  501    0  0.00000000000E+00  0.00000000000E+00 -0.16661485329E+04  0.16661485329E+04  0.50400001928E-02 0.  1.
    10030    2    1    2    0    0  0.00000000000E+00  0.00000000000E+00 -0.12760712587E+04  0.20562258071E+04  0.16123606025E+04 0.  0.
        4    1    3    3  502    0  0.49356947029E+03 -0.26046937607E+03  0.10390419813E+03  0.56767315699E+03  0.12699999809E+01 0. -1.
       -4    1    3    3    0  502 -0.49356947029E+03  0.26046937607E+03 -0.13799754568E+04  0.14885526501E+04  0.12699999809E+01 0.  1.
</event>
<event>
 5   0  0.1819811E-04  0.1603214E+04  0.7818609E-02  0.8818576E-01
       -1   -1    0    0    0  501  0.00000000000E+00  0.00000000000E+00  0.54889552121E+03  0.54889552124E+03  0.50400001928E-02 0.  1.
        1   -1    0    0  501    0  0.00000000000E+00  0.00000000000E+00 -0.11706674935E+04  0.11706674935E+04  0.50400001928E-02 0. -1.
    10030    2    1    2    0    0  0.00000000000E+00  0.00000000000E+00 -0.62177197230E+03  0.17195630148E+04  0.16032144511E+04 0.  0.
        1    1    3    3  502    0 -0.13718793754E+03  0.48152584149E+02  0.53463484413E+03  0.55405199950E+03  0.50400001928E-02 0.  1.
       -1    1    3    3    0  502  0.13718793754E+03 -0.48152584149E+02 -0.11564068164E+04  0.11655110153E+04  0.50400001928E-02 0. -1.
</event>
<event>
 5   0  0.3228393E-04  0.1598257E+04  0.7818609E-02  0.8821620E-01
        2   -1    0    0  501    0  0.00000000000E+00  0.00000000000E+00  0.94008780473E+03  0.94008780473E+03  0.25500000920E-02 0. -1.
       -2   -1    0    0    0  501  0.00000000000E+00  0.00000000000E+00 -0.67930487644E+03  0.67930487645E+03  0.25500000920E-02 0.  1.
    10030    2    1    2    0    0  0.00000000000E+00  0.00000000000E+00  0.26078292828E+03  0.16193926812E+04  0.15982568380E+04 0.  0.
        1    1    3    3  502    0 -0.92105988886E+02  0.47500518208E+03  0.77479957112E+03  0.91347020291E+03  0.50400001928E-02 0. -1.
       -1    1    3    3    0  502  0.92105988886E+02 -0.47500518208E+03 -0.51401664283E+03  0.70592247827E+03  0.50400001928E-02 0.  1.
</event>
<event>
 5   0  0.1736537E-04  0.1599056E+04  0.7818609E-02  0.8821128E-01
       -1   -1    0    0    0  501  0.00000000000E+00  0.00000000000E+00  0.64713506784E+03  0.64713506786E+03  0.50400001928E-02 0. -1.
        1   -1    0    0  501    0  0.00000000000E+00  0.00000000000E+00 -0.98780798867E+03  0.98780798868E+03  0.50400001928E-02 0.  1.
    10030    2    1    2    0    0  0.00000000000E+00  0.00000000000E+00 -0.34067292083E+03  0.16349430565E+04  0.15990562089E+04 0.  0.
        3    1    3    3  502    0  0.46216242719E+03 -0.87346115635E+02  0.49071965699E+03  0.67972733134E+03  0.10100000352E+00 0. -1.
       -3    1    3    3    0  502 -0.46216242719E+03  0.87346115635E+02 -0.83139257782E+03  0.95521572520E+03  0.10100000352E+00 0.  1.
</event>
<event>
 5   0  0.3210612E-04  0.1596888E+04  0.7818609E-02  0.8822462E-01
        2   -1    0    0  501    0  0.00000000000E+00  0.00000000000E+00  0.23401595734E+04  0.23401595734E+04  0.25500000920E-02 0.  1.
       -2   -1    0    0    0  501  0.00000000000E+00  0.00000000000E+00 -0.27242277438E+03  0.27242277440E+03  0.25500000920E-02 0. -1.
    10030    2    1    2    0    0  0.00000000000E+00  0.00000000000E+00  0.20677367990E+04  0.26125823478E+04  0.15968879278E+04 0.  0.
        2    1    3    3  502    0 -0.27069998688E+03  0.62959099219E+03  0.17041472693E+04  0.18367855661E+04  0.25500000920E-02 0.  1.
       -2    1    3    3    0  502  0.27069998688E+03 -0.62959099219E+03  0.36358952968E+03  0.77579678167E+03  0.25500000920E-02 0. -1.
</event>
<event>
 5   0  0.3274900E-04  0.1597596E+04  0.7818609E-02  0.8822027E-01
       -2   -1    0    0    0  501  0.00000000000E+00  0.00000000000E+00  0.97377593828E+03  0.97377593829E+03  0.25500000920E-02 0. -1.
        2   -1    0    0  501    0  0.00000000000E+00  0.00000000000E+00 -0.65526148305E+03  0.65526148305E+03  0.25500000920E-02 0.  1.
    10030    2    1    2    0    0  0.00000000000E+00  0.00000000000E+00  0.31851445523E+03  0.16290374213E+04  0.15975955251E+04 0.  0.
        3    1    3    3  502    0  0.29211222704E+03 -0.35606282401E+03  0.82476401986E+03  0.94464066527E+03  0.10100000352E+00 0. -1.
       -3    1    3    3    0  502 -0.29211222704E+03  0.35606282401E+03 -0.50624956463E+03  0.68439675607E+03  0.10100000352E+00 0.  1.
</event>
<event>
 5   0  0.1219463E-04  0.1601287E+04  0.7818609E-02  0.8819758E-01
       -3   -1    0    0    0  501  0.00000000000E+00  0.00000000000E+00  0.17362230428E+04  0.17362230458E+04  0.10100000352E+00 0.  1.
        3   -1    0    0  501    0  0.00000000000E+00  0.00000000000E+00 -0.36920924891E+03  0.36920926272E+03  0.10100000352E+00 0. -1.
    10030    2    1    2    0    0  0.00000000000E+00  0.00000000000E+00  0.13670137939E+04  0.21054323085E+04  0.16012865118E+04 0.  0.
        5    1    3    3  502    0 -0.45329103214E+03  0.12069591232E+03 -0.16958615164E+03  0.49882042450E+03  0.46999998093E+01 0. -1.
       -5    1    3    3    0  502  0.45329103214E+03 -0.12069591232E+03  0.15365999456E+04  0.16066118840E+04  0.46999998093E+01 0.  1.
</event>
<event>
 5   0  0.1764099E-04  0.1605181E+04  0.7818609E-02  0.8817371E-01
       -1   -1    0    0    0  501  0.00000000000E+00  0.00000000000E+00  0.10633027501E+04  0.10633027502E+04  0.50400001928E-02 0. -1.
        1   -1    0    0  501    0  0.00000000000E+00  0.00000000000E+00 -0.60580285664E+03  0.60580285666E+03  0.50400001928E-02 0.  1.
    10030    2    1    2    0    0  0.00000000000E+00  0.00000000000E+00  0.45749989351E+03  0.16691056068E+04  0.16051814147E+04 0.  0.
        5    1    3    3  502    0  0.38280531463E+03  0.45717836642E+03  0.78733735534E+03  0.98766095840E+03  0.46999998093E+01 0. -1.
       -5    1    3    3    0  502 -0.38280531463E+03 -0.45717836642E+03 -0.32983746184E+03  0.68144464842E+03  0.46999998093E+01 0.  1.
</event>
<event>
 5   0  0.3263294E-04  0.1609779E+04  0.7818609E-02  0.8814563E-01
        2   -1    0    0  501    0  0.00000000000E+00  0.00000000000E+00  0.18341073542E+04  0.18341073542E+04  0.25500000920E-02 0.  1.
       -2   -1    0    0    0  501  0.00000000000E+00  0.00000000000E+00 -0.35322218111E+03  0.35322218112E+03  0.25500000920E-02 0. -1.
    10030    2    1    2    0    0  0.00000000000E+00  0.00000000000E+00  0.14808851731E+04  0.21873295353E+04  0.16097793638E+04 0.  0.
        4    1    3    3  502    0 -0.79466720908E+03  0.59738644825E+02  0.89405705365E+03  0.11976661918E+04  0.12699999809E+01 0.  1.
       -4    1    3    3    0  502  0.79466720908E+03 -0.59738644825E+02  0.58682811944E+03  0.98966334353E+03  0.12699999809E+01 0. -1.
</event>
<event>
 5   0  0.3263294E-04  0.1604097E+04  0.7818609E-02  0.8818035E-01
       -2   -1    0    0    0  501  0.00000000000E+00  0.00000000000E+00  0.54962440832E+03  0.54962440833E+03  0.25500000920E-02 0. -1.
        2   -1    0    0  501    0  0.00000000000E+00  0.00000000000E+00 -0.11704031243E+04  0.11704031243E+04  0.25500000920E-02 0.  1.
    10030    2    1    2    0    0  0.00000000000E+00  0.00000000000E+00 -0.62077871593E+03  0.17200275326E+04  0.16040974094E+04 0.  0.
        4    1    3    3  502    0  0.30178609983E+03  0.56440694787E+03  0.20791872360E+03  0.67295011805E+03  0.12699999809E+01 0. -1.
       -4    1    3    3    0  502 -0.30178609983E+03 -0.56440694787E+03 -0.82869743953E+03  0.10470774145E+04  0.12699999809E+01 0.  1.
</event>
<event>
 5   0  0.3210612E-04  0.1595630E+04  0.7818609E-02  0.8823237E-01
       -2   -1    0    0    0  501  0.00000000000E+00  0.00000000000E+00  0.60674995987E+03  0.60674995988E+03  0.25500000920E-02 0. -1.
        2   -1    0    0  501    0  0.00000000000E+00  0.00000000000E+00 -0.10490462592E+04  0.10490462592E+04  0.25500000920E-02 0.  1.
    10030    2    1    2    0    0  0.00000000000E+00  0.00000000000E+00 -0.44229629932E+03  0.16557962191E+04  0.15956300018E+04 0.  0.
        2    1    3    3  502    0  0.55762885370E+03  0.56979337657E+03 -0.19011489780E+03  0.81960850705E+03  0.25500000920E-02 0. -1.
       -2    1    3    3    0  502 -0.55762885370E+03 -0.56979337657E+03 -0.25218140152E+03  0.83618771203E+03  0.25500000920E-02 0.  1.
</event>
<event>
 5   0  0.1764099E-04  0.1604208E+04  0.7818609E-02  0.8817967E-01
        1   -1    0    0  501    0  0.00000000000E+00  0.00000000000E+00  0.90715380886E+03  0.90715380887E+03  0.50400001928E-02 0.  1.
       -1   -1    0    0    0  501  0.00000000000E+00  0.00000000000E+00 -0.70921874378E+03  0.70921874379E+03  0.50400001928E-02 0. -1.
    10030    2    1    2    0    0  0.00000000000E+00  0.00000000000E+00  0.19793506508E+03  0.16163725527E+04  0.16042075735E+04 0.  0.
        5    1    3    3  502    0  0.45382774291E+03  0.25855685112E+03  0.71230115225E+03  0.88329286592E+03  0.46999998093E+01 0.  1.
       -5    1    3    3    0  502 -0.45382774291E+03 -0.25855685112E+03 -0.51436608717E+03  0.73307968675E+03  0.46999998093E+01 0. -1.
</event>
<event>
 5   0  0.3274900E-04  0.1597951E+04  0.7818609E-02  0.8821808E-01
       -2   -1    0    0    0  501  0.00000000000E+00  0.00000000000E+00  0.12524984481E+04  0.12524984481E+04  0.25500000920E-02 0. -1.
        2   -1    0    0  501    0  0.00000000000E+00  0.00000000000E+00 -0.50967047153E+03  0.50967047153E+03  0.25500000920E-02 0.  1.
    10030    2    1    2    0    0  0.00000000000E+00  0.00000000000E+00  0.74282797659E+03  0.17621689197E+04  0.15979505307E+04 0.  0.
        3    1    3    3  502    0  0.46608087508E+03  0.25012551486E+03 -0.28892897272E+03  0.60272225509E+03  0.10100000352E+00 0.  1.
       -3    1    3    3    0  502 -0.46608087508E+03 -0.25012551486E+03  0.10317569493E+04  0.11594466646E+04  0.10100000352E+00 0. -1.
</event>
<event>
 5   0  0.1219463E-04  0.1601534E+04  0.7818609E-02  0.8819606E-01
       -3   -1    0    0    0  501  0.00000000000E+00  0.00000000000E+00  0.13257315472E+04  0.13257315511E+04  0.10100000352E+00 0. -1.
        3   -1    0    0  501    0  0.00000000000E+00  0.00000000000E+00 -0.48367844890E+03  0.48367845944E+03  0.10100000352E+00 0.  1.
    10030    2    1    2    0    0  0.00000000000E+00  0.00000000000E+00  0.84205309834E+03  0.18094100105E+04  0.16015340039E+04 0.  0.
        1    1    3    3  502    0 -0.12060470050E+03 -0.55149713286E+03 -0.22060844825E+03  0.60610450320E+03  0.50400001928E-02 0.  1.
       -1    1    3    3    0  502  0.12060470050E+03  0.55149713286E+03  0.10626615466E+04  0.12033055073E+04  0.50400001928E-02 0. -1.
</event>
<event>
 5   0  0.1736537E-04  0.1607758E+04  0.7818609E-02  0.8815796E-01
        1   -1    0    0  501    0  0.00000000000E+00  0.00000000000E+00  0.65356929337E+03  0.65356929339E+03  0.50400001928E-02 0. -1.
       -1   -1    0    0    0  501  0.00000000000E+00  0.00000000000E+00 -0.98875716307E+03  0.98875716309E+03  0.50400001928E-02 0.  1.
    10030    2    1    2    0    0  0.00000000000E+00  0.00000000000E+00 -0.33518786971E+03  0.16423264565E+04  0.16077578430E+04 0.  0.
        3    1    3    3  502    0  0.24532308896E+03  0.22729311848E+03  0.57913368475E+03  0.66876110436E+03  0.10100000352E+00 0. -1.
       -3    1    3    3    0  502 -0.24532308896E+03 -0.22729311848E+03 -0.91432155446E+03  0.97356535211E+03  0.10100000352E+00 0.  1.
</event>
<event>
 5   0  0.1219463E-04  0.1613725E+04  0.7818609E-02  0.8812160E-01
        3   -1    0    0  501    0  0.00000000000E+00  0.00000000000E+00  0.27548366679E+03  0.27548368530E+03  0.10100000352E+00 0. -1.
       -3   -1    0    0    0  501  0.00000000000E+00  0.00000000000E+00 -0.23632157327E+04  0.23632157348E+04  0.10100000352E+00 0.  1.
    10030    2    1    2    0    0  0.00000000000E+00  0.00000000000E+00 -0.20877320659E+04  0.26386994201E+04  0.16137253332E+04 0.  0.
        1    1    3    3  502    0 -0.72961414163E+03 -0.85329067598E+02 -0.49808121474E+03  0.88752619226E+03  0.50400001928E-02 0.  1.
       -1    1    3    3    0  502  0.72961414163E+03  0.85329067598E+02 -0.15896508512E+04  0.17511732279E+04  0.50400001928E-02 0. -1.
</event>
<event>
 5   0  0.3263294E-04  0.1589459E+04  0.7818609E-02  0.8827050E-01
       -2   -1    0    0    0  501  0.00000000000E+00  0.00000000000E+00  0.31809956386E+03  0.31809956387E+03  0.25500000920E-02 0.  1.
        2   -1    0    0  501    0  0.00000000000E+00  0.00000000000E+00 -0.19855255461E+04  0.19855255461E+04  0.25500000920E-02 0. -1.
    10030    2    1    2    0    0  0.00000000000E+00  0.00000000000E+00 -0.16674259823E+04  0.23036251100E+04  0.15894587887E+04 0.  0.
        4    1    3    3  502    0 -0.38903337650E+03 -0.20690007027E+03 -0.17922769113E+04  0.18456469724E+04  0.12699999809E+01 0. -1.
       -4    1    3    3    0  502  0.38903337650E+03  0.20690007027E+03  0.12485092904E+03  0.45797813757E+03  0.12699999809E+01 0.  1.
</event>
<event>
 5   0  0.1787688E-04  0.1588708E+04  0.7818609E-02  0.8827516E-01
       -1   -1    0    0    0  501  0.00000000000E+00  0.00000000000E+00  0.12479732512E+04  0.12479732512E+04  0.50400001928E-02 0. -1.
        1   -1    0    0  501    0  0.00000000000E+00  0.00000000000E+00 -0.50561812528E+03  0.50561812530E+03  0.50400001928E-02 0.  1.
    10030    2    1    2    0    0  0.00000000000E+00  0.00000000000E+00  0.74235512588E+03  0.17535913765E+04  0.15887075196E+04 0.  0.
        4    1    3    3  502    0 -0.25252762665E+03 -0.40546197193E+03 -0.32937956790E+03  0.58022592630E+03  0.12699999809E+01 0.  1.
       -4    1    3    3    0  502  0.25252762665E+03  0.40546197193E+03  0.10717346938E+04  0.11733654502E+04  0.12699999809E+01 0. -1.
</event>
<event>
 5   0  0.1736537E-04  0.1609501E+04  0.7818609E-02  0.8814732E-01
       -1   -1    0    0    0  501  0.00000000000E+00  0.00000000000E+00  0.49795307090E+03  0.49795307093E+03  0.50400001928E-02 0.  1.
        1   -1    0    0  501    0  0.00000000000E+00  0.00000000000E+00 -0.13005711020E+04  0.13005711020E+04  0.50400001928E-02 0. -1.
    10030    2    1    2    0    0  0.00000000000E+00  0.00000000000E+00 -0.80261803112E+03  0.17985241730E+04  0.16095010087E+04 0.  0.
        3    1    3    3  502    0  0.29813244590E+03 -0.42168000010E+03 -0.10909857162E+04  0.12070405216E+04  0.10100000352E+00 0. -1.
       -3    1    3    3    0  502 -0.29813244590E+03  0.42168000010E+03  0.28836768507E+03  0.59148365131E+03  0.10100000352E+00 0.  1.
</event>
<event>
 5   0  0.3210612E-04  0.1755314E+04  0.7818609E-02  0.8730431E-01
        2   -1    0    0  501    0  0.00000000000E+00  0.00000000000E+00  0.13450178117E+04  0.13450178117E+04  0.25500000920E-02 0. -1.
       -2   -1    0    0    0  501  0.00000000000E+00  0.00000000000E+00 -0.57269253544E+03  0.57269253545E+03  0.25500000920E-02 0.  1.
    10030    2    1    2    0    0  0.00000000000E+00  0.00000000000E+00  0.77232527626E+03  0.19177103472E+04  0.17553138304E+04 0.  0.
        2    1    3    3  502    0  0.27559137519E+03  0.12061931337E+03 -0.51460562998E+03  0.59608605021E+03  0.25500000920E-02 0.  1.
       -2    1    3    3    0  502 -0.27559137519E+03 -0.12061931337E+03  0.12869309062E+04  0.13216242969E+04  0.25500000920E-02 0. -1.
</event>
<event>
 5   0  0.1736537E-04  0.1597841E+04  0.7818609E-02  0.8821875E-01
        1   -1    0    0  501    0  0.00000000000E+00  0.00000000000E+00  0.21431532839E+04  0.21431532839E+04  0.50400001928E-02 0. -1.
       -1   -1    0    0    0  501  0.00000000000E+00  0.00000000000E+00 -0.29782015644E+03  0.29782015649E+03  0.50400001928E-02 0.  1.
    10030    2    1    2    0    0  0.00000000000E+00  0.00000000000E+00  0.18453331274E+04  0.24409734404E+04  0.15978413518E+04 0.  0.
        3    1    3    3  502    0 -0.64861975432E+00 -0.62441457053E+03  0.16840228464E+04  0.17960587223E+04  0.10100000352E+00 0. -1.
       -3    1    3    3    0  502  0.64861975432E+00  0.62441457053E+03  0.16131028103E+03  0.64491471805E+03  0.10100000352E+00 0.  1.
</event>
<event>
 5   0  0.3263294E-04  0.1597906E+04  0.7818609E-02  0.8821836E-01
        2   -1    0    0  501    0  0.00000000000E+00  0.00000000000E+00  0.27566737012E+04  0.27566737012E+04  0.25500000920E-02 0. -1.
       -2   -1    0    0    0  501  0.00000000000E+00  0.00000000000E+00 -0.23155645181E+03  0.23155645183E+03  0.25500000920E-02 0.  1.
    10030    2    1    2    0    0  0.00000000000E+00  0.00000000000E+00  0.25251172494E+04  0.29882301531E+04  0.15979056056E+04 0.  0.
        4    1    3    3  502    0  0.34297176674E+03 -0.19610444351E+03  0.25612123336E+04  0.25915047398E+04  0.12699999809E+01 0. -1.
       -4    1    3    3    0  502 -0.34297176674E+03  0.19610444351E+03 -0.36095084183E+02  0.39672541329E+03  0.12699999809E+01 0.  1.
</event>
<event>
 5   0  0.3228393E-04  0.1632125E+04  0.7818609E-02  0.8801052E-01
       -2   -1    0    0    0  501  0.00000000000E+00  0.00000000000E+00  0.12965217606E+04  0.12965217606E+04  0.25500000920E-02 0.  1.
        2   -1    0    0  501    0  0.00000000000E+00  0.00000000000E+00 -0.51364991985E+03  0.51364991986E+03  0.25500000920E-02 0. -1.
    10030    2    1    2    0    0  0.00000000000E+00  0.00000000000E+00  0.78287184072E+03  0.18101716804E+04  0.16321253609E+04 0.  0.
        1    1    3    3  502    0  0.58034936311E+03 -0.34357368819E+03 -0.11815384013E+03  0.68469598542E+03  0.50400001928E-02 0. -1.
       -1    1    3    3    0  502 -0.58034936311E+03  0.34357368819E+03  0.90102568085E+03  0.11254756950E+04  0.50400001928E-02 0.  1.
</event>
<event>
 5   0  0.3228393E-04  0.1607771E+04  0.7818609E-02  0.8815788E-01
       -2   -1    0    0    0  501  0.00000000000E+00  0.00000000000E+00  0.10037313071E+04  0.10037313071E+04  0.25500000920E-02 0.  1.
        2   -1    0    0  501    0  0.00000000000E+00  0.00000000000E+00 -0.64382997005E+03  0.64382997005E+03  0.25500000920E-02 0. -1.
    10030    2    1    2    0    0  0.00000000000E+00  0.00000000000E+00  0.35990133703E+03  0.16475612771E+04  0.16077714979E+04 0.  0.
        1    1    3    3  502    0 -0.77684231074E+03 -0.12399208871E+03  0.34949709142E+03  0.86081718776E+03  0.50400001928E-02 0.  1.
       -1    1    3    3    0  502  0.77684231074E+03  0.12399208871E+03  0.10404245616E+02  0.78674408937E+03  0.50400001928E-02 0. -1.
</event>
<event>
 5   0  0.3274900E-04  0.1598974E+04  0.7818609E-02  0.8821178E-01
        2   -1    0    0  501    0  0.00000000000E+00  0.00000000000E+00  0.16029879448E+04  0.16029879448E+04  0.25500000920E-02 0. -1.
       -2   -1    0    0    0  501  0.00000000000E+00  0.00000000000E+00 -0.39874272355E+03  0.39874272356E+03  0.25500000920E-02 0.  1.
    10030    2    1    2    0    0  0.00000000000E+00  0.00000000000E+00  0.12042452213E+04  0.20017306684E+04  0.15989743950E+04 0.  0.
        3    1    3    3  502    0 -0.46541698442E+03  0.16427546563E+03  0.13894973912E+04  0.14745515957E+04  0.10100000352E+00 0. -1.
       -3    1    3    3    0  502  0.46541698442E+03 -0.16427546563E+03 -0.18525216994E+03  0.52717907268E+03  0.10100000352E+00 0.  1.
</event>
<event>
 5   0  0.3380454E-04  0.1602695E+04  0.7818609E-02  0.8818894E-01
        2   -1    0    0  501    0  0.00000000000E+00  0.00000000000E+00  0.13797146997E+04  0.13797146997E+04  0.25500000920E-02 0.  1.
       -2   -1    0    0    0  501  0.00000000000E+00  0.00000000000E+00 -0.46542773697E+03  0.46542773698E+03  0.25500000920E-02 0. -1.
    10030    2    1    2    0    0  0.00000000000E+00  0.00000000000E+00  0.91428696271E+03  0.18451424367E+04  0.16026945939E+04 0.  0.
        5    1    3    3  502    0 -0.30238773294E+03 -0.51164439785E+03 -0.16167849132E+03  0.61593859713E+03  0.46999998093E+01 0. -1.
       -5    1    3    3    0  502  0.30238773294E+03  0.51164439785E+03  0.10759654540E+04  0.12292038395E+04  0.46999998093E+01 0.  1.
</event>
<event>
 5   0  0.1736537E-04  0.1598162E+04  0.7818609E-02  0.8821678E-01
       -1   -1    0    0    0  501  0.00000000000E+00  0.00000000000E+00  0.11692820804E+04  0.11692820804E+04  0.50400001928E-02 0. -1.
        1   -1    0    0  501    0  0.00000000000E+00  0.00000000000E+00 -0.54608744483E+03  0.54608744486E+03  0.50400001928E-02 0.  1.
    10030    2    1    2    0    0  0.00000000000E+00  0.00000000000E+00  0.62319463559E+03  0.17153695253E+04  0.15981617736E+04 0.  0.
        3    1    3    3  502    0 -0.51189129586E+03  0.60947538212E+03  0.23541811381E+03  0.83000881844E+03  0.10100000352E+00 0.  1.
       -3    1    3    3    0  502  0.51189129586E+03 -0.60947538212E+03  0.38777652178E+03  0.88536070685E+03  0.10100000352E+00 0. -1.
</event>
<event>
 5   0  0.1787688E-04  0.1616474E+04  0.7818609E-02  0.8810491E-01
       -1   -1    0    0    0  501  0.00000000000E+00  0.00000000000E+00  0.54260886100E+03  0.54260886102E+03  0.50400001928E-02 0.  1.
        1   -1    0    0  501    0  0.00000000000E+00  0.00000000000E+00 -0.12039002529E+04  0.12039002529E+04  0.50400001928E-02 0. -1.
    10030    2    1    2    0    0  0.00000000000E+00  0.00000000000E+00 -0.66129139190E+03  0.17465091139E+04  0.16164738724E+04 0.  0.
        4    1    3    3  502    0  0.66530993857E+03 -0.45872034995E+03 -0.34528793337E+03  0.87879863657E+03  0.12699999809E+01 0.  1.
       -4    1    3    3    0  502 -0.66530993857E+03  0.45872034995E+03 -0.31600345853E+03  0.86771047736E+03  0.12699999809E+01 0. -1.
</event>
<event>
 5   0  0.3263294E-04  0.1610035E+04  0.7818609E-02  0.8814407E-01
        2   -1    0    0  501    0  0.00000000000E+00  0.00000000000E+00  0.15294044084E+04  0.15294044084E+04  0.25500000920E-02 0. -1.
       -2   -1    0    0    0  501  0.00000000000E+00  0.00000000000E+00 -0.42372893844E+03  0.42372893845E+03  0.25500000920E-02 0.  1.
    10030    2    1    2    0    0  0.00000000000E+00  0.00000000000E+00  0.11056754700E+04  0.19531333469E+04  0.16100346660E+04 0.  0.
        4    1    3    3  502    0  0.89449209140E+02  0.61028773546E+03  0.11803741339E+04  0.13318171759E+04  0.12699999809E+01 0. -1.
       -4    1    3    3    0  502 -0.89449209140E+02 -0.61028773546E+03 -0.74698663901E+02  0.62131617101E+03  0.12699999809E+01 0.  1.
</event>
<event>
 5   0  0.1736537E-04  0.1590301E+04  0.7818609E-02  0.8826529E-01
       -1   -1    0    0    0  501  0.00000000000E+00  0.00000000000E+00  0.70334320286E+03  0.70334320288E+03  0.50400001928E-02 0.  1.
        1   -1    0    0  501    0  0.00000000000E+00  0.00000000000E+00 -0.89894148127E+03  0.89894148129E+03  0.50400001928E-02 0. -1.
    10030    2    1    2    0    0  0.00000000000E+00  0.00000000000E+00 -0.19559827841E+03  0.16022846842E+04  0.15903010792E+04 0.  0.
        3    1    3    3  502    0  0.26833308714E+03 -0.15472361663E+03  0.64005966942E+03  0.71106851556E+03  0.10100000352E+00 0.  1.
       -3    1    3    3    0  502 -0.26833308714E+03  0.15472361663E+03 -0.83565794783E+03  0.89121616860E+03  0.10100000352E+00 0. -1.
</event>
<event>
 5   0  0.1761255E-04  0.1615304E+04  0.7818609E-02  0.8811201E-01
       -1   -1    0    0    0  501  0.00000000000E+00  0.00000000000E+00  0.49436219869E+03  0.49436219872E+03  0.50400001928E-02 0.  1.
        1   -1    0    0  501    0  0.00000000000E+00  0.00000000000E+00 -0.13194811457E+04  0.13194811458E+04  0.50400001928E-02 0. -1.
    10030    2    1    2    0    0  0.00000000000E+00  0.00000000000E+00 -0.82511894705E+03  0.18138433445E+04  0.16153038109E+04 0.  0.
        2    1    3    3  502    0 -0.29313981673E+03 -0.26444537292E+03  0.37862659658E+03  0.54701042682E+03  0.25500000920E-02 0.  1.
       -2    1    3    3    0  502  0.29313981673E+03  0.26444537292E+03 -0.12037455436E+04  0.12668329176E+04  0.25500000920E-02 0. -1.
</event>
<event>
 5   0  0.1736537E-04  0.1602844E+04  0.7818609E-02  0.8818803E-01
        1   -1    0    0  501    0  0.00000000000E+00  0.00000000000E+00  0.10548204473E+04  0.10548204473E+04  0.50400001928E-02 0. -1.
       -1   -1    0    0    0  501  0.00000000000E+00  0.00000000000E+00 -0.60889714454E+03  0.60889714456E+03  0.50400001928E-02 0.  1.
    10030    2    1    2    0    0  0.00000000000E+00  0.00000000000E+00  0.44592330274E+03  0.16637175918E+04  0.16028439205E+04 0.  0.
        3    1    3    3  502    0  0.82814264207E+02 -0.29216344269E+03 -0.54686545143E+03  0.62552339026E+03  0.10100000352E+00 0.  1.
       -3    1    3    3    0  502 -0.82814264207E+02  0.29216344269E+03  0.99278875417E+03  0.10381942016E+04  0.10100000352E+00 0. -1.
</event>
<event>
 5   0  0.1736537E-04  0.1595377E+04  0.7818609E-02  0.8823393E-01
       -1   -1    0    0    0  501  0.00000000000E+00  0.00000000000E+00  0.67082481116E+03  0.67082481118E+03  0.50400001928E-02 0. -1.
        1   -1    0    0  501    0  0.00000000000E+00  0.00000000000E+00 -0.94854358841E+03  0.94854358842E+03  0.50400001928E-02 0.  1.
    10030    2    1    2    0    0  0.00000000000E+00  0.00000000000E+00 -0.27771877725E+03  0.16193683996E+04  0.15953765369E+04 0.  0.
        3    1    3    3  502    0 -0.75273524525E+03 -0.11890755868E+03 -0.37810978153E+03  0.85071521324E+03  0.10100000352E+00 0.  1.
       -3    1    3    3    0  502  0.75273524525E+03  0.11890755868E+03  0.10039100428E+03  0.76865318636E+03  0.10100000352E+00 0. -1.
</event>
<event>
 5   0  0.1764099E-04  0.1599845E+04  0.7818609E-02  0.8820643E-01
       -1   -1    0    0    0  501  0.00000000000E+00  0.00000000000E+00  0.59447398464E+03  0.59447398466E+03  0.50400001928E-02 0.  1.
        1   -1    0    0  501    0  0.00000000000E+00  0.00000000000E+00 -0.10763737481E+04  0.10763737481E+04  0.50400001928E-02 0. -1.
    10030    2    1    2    0    0  0.00000000000E+00  0.00000000000E+00 -0.48189976345E+03  0.16708477328E+04  0.15998452313E+04 0.  0.
        5    1    3    3  502    0 -0.21911447806E+03  0.57148404276E+03 -0.77883029181E+03  0.99055735779E+03  0.46999998093E+01 0. -1.
       -5    1    3    3    0  502  0.21911447806E+03 -0.57148404276E+03  0.29693052836E+03  0.68029037498E+03  0.46999998093E+01 0.  1.
</event>
<event>
 5   0  0.1761255E-04  0.1618718E+04  0.7818609E-02  0.8809131E-01
        1   -1    0    0  501    0  0.00000000000E+00  0.00000000000E+00  0.73882301691E+03  0.73882301692E+03  0.50400001928E-02 0. -1.
       -1   -1    0    0    0  501  0.00000000000E+00  0.00000000000E+00 -0.88662914980E+03  0.88662914982E+03  0.50400001928E-02 0.  1.
    10030    2    1    2    0    0  0.00000000000E+00  0.00000000000E+00 -0.14780613289E+03  0.16254521667E+04  0.16187180401E+04 0.  0.
        2    1    3    3  502    0 -0.14885157121E+03 -0.32043924694E+02 -0.87211781636E+03  0.88530960063E+03  0.25500000920E-02 0.  1.
       -2    1    3    3    0  502  0.14885157121E+03  0.32043924694E+02  0.72431168346E+03  0.74014256611E+03  0.25500000920E-02 0. -1.
</event>
<event>
 5   0  0.1761255E-04  0.1596950E+04  0.7818609E-02  0.8822424E-01
        1   -1    0    0  501    0  0.00000000000E+00  0.00000000000E+00  0.15983405830E+04  0.15983405830E+04  0.50400001928E-02 0.  1.
       -1   -1    0    0    0  501  0.00000000000E+00  0.00000000000E+00 -0.39889003553E+03  0.39889003556E+03  0.50400001928E-02 0. -1.
    10030    2    1    2    0    0  0.00000000000E+00  0.00000000000E+00  0.11994505474E+04  0.19972306185E+04  0.15969497575E+04 0.  0.
        2    1    3    3  502    0 -0.24338334603E+03  0.17441957065E+03 -0.32601550172E+03  0.44265533671E+03  0.25500000920E-02 0. -1.
       -2    1    3    3    0  502  0.24338334603E+03 -0.17441957065E+03  0.15254660492E+04  0.15545752818E+04  0.25500000920E-02 0.  1.
</event>
<event>
 5   0  0.3380454E-04  0.1606616E+04  0.7818609E-02  0.8816494E-01
       -2   -1    0    0    0  501  0.00000000000E+00  0.00000000000E+00  0.82114274565E+03  0.82114274565E+03  0.25500000920E-02 0. -1.
        2   -1    0    0  501    0  0.00000000000E+00  0.00000000000E+00 -0.78586084051E+03  0.78586084051E+03  0.25500000920E-02 0.  1.
    10030    2    1    2    0    0  0.00000000000E+00  0.00000000000E+00  0.35281905142E+02  0.16070035862E+04  0.16066162308E+04 0.  0.
        5    1    3    3  502    0  0.59042209854E+03 -0.70267824679E+02  0.55790636290E+03  0.81536336771E+03  0.46999998093E+01 0. -1.
       -5    1    3    3    0  502 -0.59042209854E+03  0.70267824679E+02 -0.52262445776E+03  0.79164021846E+03  0.46999998093E+01 0.  1.
</event>
<event>
 5   0  0.1736537E-04  0.1607014E+04  0.7818609E-02  0.8816251E-01
       -1   -1    0    0    0  501  0.00000000000E+00  0.00000000000E+00  0.67742461002E+03  0.67742461003E+03  0.50400001928E-02 0.  1.
        1   -1    0    0  501    0  0.00000000000E+00  0.00000000000E+00 -0.95305573762E+03  0.95305573763E+03  0.50400001928E-02 0. -1.
    10030    2    1    2    0    0  0.00000000000E+00  0.00000000000E+00 -0.27563112760E+03  0.16304803477E+04  0.16070138909E+04 0.  0.
        3    1    3    3  502    0 -0.66937523795E+03 -0.19720390485E+03 -0.54196731024E+03  0.88356163613E+03  0.10100000352E+00 0. -1.
       -3    1    3    3    0  502  0.66937523795E+03  0.19720390485E+03  0.26633618264E+03  0.74691871154E+03  0.10100000352E+00 0.  1.
</event>
<event>
 5   0  0.3380454E-04  0.1599228E+04  0.7818609E-02  0.8821022E-01
        2   -1    0    0  501    0  0.00000000000E+00  0.00000000000E+00  0.74896017012E+03  0.74896017012E+03  0.25500000920E-02 0. -1.
       -2   -1    0    0    0  501  0.00000000000E+00  0.00000000000E+00 -0.85369370371E+03  0.85369370371E+03  0.25500000920E-02 0.  1.
    10030    2    1    2    0    0  0.00000000000E+00  0.00000000000E+00 -0.10473353359E+03  0.16026538738E+04  0.15992280407E+04 0.  0.
        5    1    3    3  502    0 -0.15305259724E+03 -0.52009756502E+03  0.53662853438E+03  0.76283605615E+03  0.46999998093E+01 0. -1.
       -5    1    3    3    0  502  0.15305259724E+03  0.52009756502E+03 -0.64136206797E+03  0.83981781768E+03  0.46999998093E+01 0.  1.
</event>
<event>
 5   0  0.1736537E-04  0.1590745E+04  0.7818609E-02  0.8826254E-01
        1   -1    0    0  501    0  0.00000000000E+00  0.00000000000E+00  0.10486294489E+04  0.10486294489E+04  0.50400001928E-02 0.  1.
       -1   -1    0    0    0  501  0.00000000000E+00  0.00000000000E+00 -0.60328057721E+03  0.60328057723E+03  0.50400001928E-02 0. -1.
    10030    2    1    2    0    0  0.00000000000E+00  0.00000000000E+00  0.44534887169E+03  0.16519100261E+04  0.15907454595E+04 0.  0.
        3    1    3    3  502    0  0.56791245477E+03  0.16325778242E+03  0.77553593894E+03  0.97500444234E+03  0.10100000352E+00 0.  1.
       -3    1    3    3    0  502 -0.56791245477E+03 -0.16325778242E+03 -0.33018706725E+03  0.67690558380E+03  0.10100000352E+00 0. -1.
</event>
<event>
 5   0  0.3263294E-04  0.1590332E+04  0.7818609E-02  0.8826510E-01
        2   -1    0    0  501    0  0.00000000000E+00  0.00000000000E+00  0.75680326169E+03  0.75680326169E+03  0.25500000920E-02 0.  1.
       -2   -1    0    0    0  501  0.00000000000E+00  0.00000000000E+00 -0.83547296013E+03  0.83547296013E+03  0.25500000920E-02 0. -1.
    10030    2    1    2    0    0  0.00000000000E+00  0.00000000000E+00 -0.78669698443E+02  0.15922762218E+04  0.15903316148E+04 0.  0.
        4    1    3    3  502    0 -0.50562653060E+03 -0.91082938110E+02  0.56831149549E+03  0.76611608707E+03  0.12699999809E+01 0.  1.
       -4    1    3    3    0  502  0.50562653060E+03  0.91082938110E+02 -0.64698119393E+03  0.82616013476E+03  0.12699999809E+01 0. -1.
</event>
<event>
 5   0  0.1787688E-04  0.1597422E+04  0.7818609E-02  0.8822133E-01
        1   -1    0    0  501    0  0.00000000000E+00  0.00000000000E+00  0.10092422323E+04  0.10092422323E+04  0.50400001928E-02 0. -1.
       -1   -1    0    0    0  501  0.00000000000E+00  0.00000000000E+00 -0.63209733763E+03  0.63209733765E+03  0.50400001928E-02 0.  1.
    10030    2    1    2    0    0  0.00000000000E+00  0.00000000000E+00  0.37714489463E+03  0.16413395699E+04  0.15974220833E+04 0.  0.
        4    1    3    3  502    0 -0.66038014109E+03  0.38495014874E+03  0.42656329121E+03  0.87535501487E+03  0.12699999809E+01 0.  1.
       -4    1    3    3    0  502  0.66038014109E+03 -0.38495014874E+03 -0.49418396574E+02  0.76598455505E+03  0.12699999809E+01 0. -1.
</event>
<event>
 5   0  0.3263294E-04  0.1622947E+04  0.7818609E-02  0.8806574E-01
       -2   -1    0    0    0  501  0.00000000000E+00  0.00000000000E+00  0.65178253189E+03  0.65178253190E+03  0.25500000920E-02 0.  1.
        2   -1    0    0  501    0  0.00000000000E+00  0.00000000000E+00 -0.10102894577E+04  0.10102894577E+04  0.25500000920E-02 0. -1.
    10030    2    1    2    0    0  0.00000000000E+00  0.00000000000E+00 -0.35850692585E+03  0.16620719896E+04  0.16229467283E+04 0.  0.
        4    1    3    3  502    0  0.26609093535E+03 -0.64900360413E+03  0.23859916200E+03  0.74090568701E+03  0.12699999809E+01 0.  1.
       -4    1    3    3    0  502 -0.26609093535E+03  0.64900360413E+03 -0.59710608786E+03  0.92116630263E+03  0.12699999809E+01 0. -1.
</event>
<event>
 5   0  0.3210612E-04  0.1585436E+04  0.7818609E-02  0.8829546E-01
        2   -1    0    0  501    0  0.00000000000E+00  0.00000000000E+00  0.12158744934E+04  0.12158744934E+04  0.25500000920E-02 0.  1.
       -2   -1    0    0    0  501  0.00000000000E+00  0.00000000000E+00 -0.51683098231E+03  0.51683098232E+03  0.25500000920E-02 0. -1.
    10030    2    1    2    0    0  0.00000000000E+00  0.00000000000E+00  0.69904351110E+03  0.17327054757E+04  0.15854357241E+04 0.  0.
        2    1    3    3  502    0 -0.49858871283E+03  0.23552737482E+03  0.97192932332E+03  0.11174571394E+04  0.25500000920E-02 0.  1.
       -2    1    3    3    0  502  0.49858871283E+03 -0.23552737482E+03 -0.27288581222E+03  0.61524833634E+03  0.25500000920E-02 0. -1.
</event>
<event>
 5   0  0.1819811E-04  0.1594371E+04  0.7818609E-02  0.8824014E-01
       -1   -1    0    0    0  501  0.00000000000E+00  0.00000000000E+00  0.83987859398E+03  0.83987859399E+03  0.50400001928E-02 0.  1.
        1   -1    0    0  501    0  0.00000000000E+00  0.00000000000E+00 -0.75666265153E+03  0.75666265154E+03  0.50400001928E-02 0. -1.
    10030    2    1    2    0    0  0.00000000000E+00  0.00000000000E+00  0.83215942450E+02  0.15965412455E+04  0.15943710533E+04 0.  0.
        1    1    3    3  502    0 -0.20739943183E+03  0.51881950769E+03 -0.52777531567E+03  0.76859286345E+03  0.50400001928E-02 0. -1.
       -1    1    3    3    0  502  0.20739943183E+03 -0.51881950769E+03  0.61099125812E+03  0.82794838209E+03  0.50400001928E-02 0.  1.
</event>
<event>
 5   0  0.1219463E-04  0.1442314E+04  0.7818609E-02  0.8923746E-01
       -3   -1    0    0    0  501  0.00000000000E+00  0.00000000000E+00  0.11795782187E+04  0.11795782231E+04  0.10100000352E+00 0.  1.
        3   -1    0    0  501    0  0.00000000000E+00  0.00000000000E+00 -0.44089288307E+03  0.44089289464E+03  0.10100000352E+00 0. -1.
    10030    2    1    2    0    0  0.00000000000E+00  0.00000000000E+00  0.73868533567E+03  0.16204711177E+04  0.14423143271E+04 0.  0.
        3    1    3    3  502    0 -0.50486295011E+02  0.20585599455E+03  0.11437922114E+04  0.11632653135E+04  0.10100000352E+00 0.  1.
       -3    1    3    3    0  502  0.50486295011E+02 -0.20585599455E+03 -0.40510687572E+03  0.45720580424E+03  0.10100000352E+00 0. -1.
</event>
<event>
 5   0  0.1819811E-04  0.1517610E+04  0.7818609E-02  0.8872826E-01
       -1   -1    0    0    0  501  0.00000000000E+00  0.00000000000E+00  0.10847366488E+04  0.10847366488E+04  0.50400001928E-02 0. -1.
        1   -1    0    0  501    0  0.00000000000E+00  0.00000000000E+00 -0.53080608916E+03  0.53080608918E+03  0.50400001928E-02 0.  1.
    10030    2    1    2    0    0  0.00000000000E+00  0.00000000000E+00  0.55393055962E+03  0.16155427380E+04  0.15176097237E+04 0.  0.
        1    1    3    3  502    0  0.32979564796E+03 -0.25316808332E+03 -0.39876093183E+03  0.57608118230E+03  0.50400001928E-02 0.  1.
       -1    1    3    3    0  502 -0.32979564796E+03  0.25316808332E+03  0.95269149145E+03  0.10394615557E+04  0.50400001928E-02 0. -1.
</event>
<event>
 5   0  0.3380454E-04  0.1596191E+04  0.7818609E-02  0.8822892E-01
       -2   -1    0    0    0  501  0.00000000000E+00  0.00000000000E+00  0.33601300866E+03  0.33601300867E+03  0.25500000920E-02 0.  1.
        2   -1    0    0  501    0  0.00000000000E+00  0.00000000000E+00 -0.18956295889E+04  0.18956295889E+04  0.25500000920E-02 0. -1.
    10030    2    1    2    0    0  0.00000000000E+00  0.00000000000E+00 -0.15596165803E+04  0.22316425976E+04  0.15961907173E+04 0.  0.
        5    1    3    3  502    0  0.36028671517E+03  0.17562955459E+02  0.21552003704E+03  0.42022131181E+03  0.46999998093E+01 0.  1.
       -5    1    3    3    0  502 -0.36028671517E+03 -0.17562955459E+02 -0.17751366173E+04  0.18114212858E+04  0.46999998093E+01 0. -1.
</event>
<event>
 5   0  0.3274900E-04  0.1619031E+04  0.7818609E-02  0.8808941E-01
        2   -1    0    0  501    0  0.00000000000E+00  0.00000000000E+00  0.11814627356E+04  0.11814627356E+04  0.25500000920E-02 0.  1.
       -2   -1    0    0    0  501  0.00000000000E+00  0.00000000000E+00 -0.55466456979E+03  0.55466456980E+03  0.25500000920E-02 0. -1.
    10030    2    1    2    0    0  0.00000000000E+00  0.00000000000E+00  0.62679816581E+03  0.17361273054E+04  0.16190312165E+04 0.  0.
        3    1    3    3  502    0 -0.53255764254E+03  0.60481368607E+03  0.23104431380E+03  0.83833091475E+03  0.10100000352E+00 0. -1.
       -3    1    3    3    0  502  0.53255764254E+03 -0.60481368607E+03  0.39575385201E+03  0.89779639065E+03  0.10100000352E+00 0.  1.
</event>
<event>
 5   0  0.3274900E-04  0.1594749E+04  0.7818609E-02  0.8823781E-01
       -2   -1    0    0    0  501  0.00000000000E+00  0.00000000000E+00  0.37736628579E+03  0.37736628580E+03  0.25500000920E-02 0. -1.
        2   -1    0    0  501    0  0.00000000000E+00  0.00000000000E+00 -0.16848505758E+04  0.16848505758E+04  0.25500000920E-02 0.  1.
    10030    2    1    2    0    0  0.00000000000E+00  0.00000000000E+00 -0.13074842900E+04  0.20622168616E+04  0.15947486371E+04 0.  0.
        3    1    3    3  502    0 -0.24063323049E+03  0.43389318787E+03  0.15344237889E+03  0.51933825580E+03  0.10100000352E+00 0. -1.
       -3    1    3    3    0  502  0.24063323049E+03 -0.43389318787E+03 -0.14609266689E+04  0.15428786058E+04  0.10100000352E+00 0.  1.
</event>
<event>
 5   0  0.1761255E-04  0.1596915E+04  0.7818609E-02  0.8822446E-01
       -1   -1    0    0    0  501  0.00000000000E+00  0.00000000000E+00  0.76384086809E+03  0.76384086811E+03  0.50400001928E-02 0.  1.
        1   -1    0    0  501    0  0.00000000000E+00  0.00000000000E+00 -0.83464283801E+03  0.83464283802E+03  0.50400001928E-02 0. -1.
    10030    2    1    2    0    0  0.00000000000E+00  0.00000000000E+00 -0.70801969918E+02  0.15984837061E+04  0.15969149131E+04 0.  0.
        2    1    3    3  502    0 -0.78861011364E+02  0.77473788590E+03 -0.21191610240E+03  0.80706027373E+03  0.25500000920E-02 0. -1.
       -2    1    3    3    0  502  0.78861011364E+02 -0.77473788590E+03  0.14111413249E+03  0.79142343240E+03  0.25500000920E-02 0.  1.
</event>
<event>
 5   0  0.3263294E-04  0.1602866E+04  0.7818609E-02  0.8818789E-01
        2   -1    0    0  501    0  0.00000000000E+00  0.00000000000E+00  0.83687599396E+03  0.83687599396E+03  0.25500000920E-02 0. -1.
       -2   -1    0    0    0  501  0.00000000000E+00  0.00000000000E+00 -0.76749092466E+03  0.76749092466E+03  0.25500000920E-02 0.  1.
    10030    2    1    2    0    0  0.00000000000E+00  0.00000000000E+00  0.69385069301E+02  0.16043669186E+04  0.16028658465E+04 0.  0.
        4    1    3    3  502    0  0.93942050647E+02 -0.62941486110E+03  0.52228828739E+03  0.82327082075E+03  0.12699999809E+01 0. -1.
       -4    1    3    3    0  502 -0.93942050647E+02  0.62941486110E+03 -0.45290321809E+03  0.78109609787E+03  0.12699999809E+01 0.  1.
</event>
<event>
 5   0  0.1819811E-04  0.1604109E+04  0.7818609E-02  0.8818027E-01
       -1   -1    0    0    0  501  0.00000000000E+00  0.00000000000E+00  0.96816532600E+03  0.96816532601E+03  0.50400001928E-02 0.  1.
        1   -1    0    0  501    0  0.00000000000E+00  0.00000000000E+00 -0.66444402624E+03  0.66444402626E+03  0.50400001928E-02 0. -1.
    10030    2    1    2    0    0  0.00000000000E+00  0.00000000000E+00  0.30372129976E+03  0.16326093523E+04  0.16041093071E+04 0.  0.
        1    1    3    3  502    0  0.16481541440E+02 -0.44995606265E+03  0.82739998185E+03  0.94197814705E+03  0.50400001928E-02 0.  1.
       -1    1    3    3    0  502 -0.16481541440E+02  0.44995606265E+03 -0.52367868209E+03  0.69063120522E+03  0.50400001928E-02 0. -1.
</event>
<event>
 5   0  0.3274900E-04  0.1589961E+04  0.7818609E-02  0.8826739E-01
        2   -1    0    0  501    0  0.00000000000E+00  0.00000000000E+00  0.15755818193E+04  0.15755818193E+04  0.25500000920E-02 0.  1.
       -2   -1    0    0    0  501  0.00000000000E+00  0.00000000000E+00 -0.40111776889E+03  0.40111776889E+03  0.25500000920E-02 0. -1.
    10030    2    1    2    0    0  0.00000000000E+00  0.00000000000E+00  0.11744640504E+04  0.19766995882E+04  0.15899608348E+04 0.  0.
        3    1    3    3  502    0 -0.39584556718E+03  0.41795181055E+03  0.12688807051E+04  0.13933541126E+04  0.10100000352E+00 0.  1.
       -3    1    3    3    0  502  0.39584556718E+03 -0.41795181055E+03 -0.94416654740E+02  0.58334547559E+03  0.10100000352E+00 0. -1.
</event>
<event>
 5   0  0.1819811E-04  0.1606067E+04  0.7818609E-02  0.8816829E-01
        1   -1    0    0  501    0  0.00000000000E+00  0.00000000000E+00  0.40760404981E+03  0.40760404985E+03  0.50400001928E-02 0. -1.
       -1   -1    0    0    0  501  0.00000000000E+00  0.00000000000E+00 -0.15820817633E+04  0.15820817633E+04  0.50400001928E-02 0.  1.
    10030    2    1    2    0    0  0.00000000000E+00  0.00000000000E+00 -0.11744777135E+04  0.19896858132E+04  0.16060671641E+04 0.  0.
        1    1    3    3  502    0  0.44822683638E+03  0.66317072776E+03 -0.50733291049E+03  0.94767578481E+03  0.50400001928E-02 0. -1.
       -1    1    3    3    0  502 -0.44822683638E+03 -0.66317072776E+03 -0.66714480303E+03  0.10420100284E+04  0.50400001928E-02 0.  1.
</event>
<event>
 5   0  0.3380454E-04  0.1583288E+04  0.7818609E-02  0.8830881E-01
        2   -1    0    0  501    0  0.00000000000E+00  0.00000000000E+00  0.10534838978E+04  0.10534838978E+04  0.25500000920E-02 0.  1.
       -2   -1    0    0    0  501  0.00000000000E+00  0.00000000000E+00 -0.59488375304E+03  0.59488375305E+03  0.25500000920E-02 0. -1.
    10030    2    1    2    0    0  0.00000000000E+00  0.00000000000E+00  0.45860014473E+03  0.16483676508E+04  0.15832882932E+04 0.  0.
        5    1    3    3  502    0  0.15079952793E+03  0.23634706042E+03  0.10000531031E+04  0.10386186642E+04  0.46999998093E+01 0.  1.
       -5    1    3    3    0  502 -0.15079952793E+03 -0.23634706042E+03 -0.54145295836E+03  0.60974898664E+03  0.46999998093E+01 0. -1.
</event>
<event>
 5   0  0.1219463E-04  0.1651855E+04  0.7818609E-02  0.8789310E-01
        3   -1    0    0  501    0  0.00000000000E+00  0.00000000000E+00  0.81030493980E+03  0.81030494609E+03  0.10100000352E+00 0. -1.
       -3   -1    0    0    0  501  0.00000000000E+00  0.00000000000E+00 -0.84185164842E+03  0.84185165448E+03  0.10100000352E+00 0.  1.
    10030    2    1    2    0    0  0.00000000000E+00  0.00000000000E+00 -0.31546708617E+02  0.16521566006E+04  0.16518553926E+04 0.  0.
        5    1    3    3  502    0 -0.78906799532E+03  0.10313717020E+03 -0.23687676004E+03  0.83030010632E+03  0.46999998093E+01 0. -1.
       -5    1    3    3    0  502  0.78906799532E+03 -0.10313717020E+03  0.20533005142E+03  0.82185649424E+03  0.46999998093E+01 0.  1.
</event>
<event>
 5   0  0.1787688E-04  0.1600073E+04  0.7818609E-02  0.8820503E-01
       -1   -1    0    0    0  501  0.00000000000E+00  0.00000000000E+00  0.56618679125E+03  0.56618679127E+03  0.50400001928E-02 0. -1.
        1   -1    0    0  501    0  0.00000000000E+00  0.00000000000E+00 -0.11304727472E+04  0.11304727472E+04  0.50400001928E-02 0.  1.
    10030    2    1    2    0    0  0.00000000000E+00  0.00000000000E+00 -0.56428595594E+03  0.16966595385E+04  0.16000734200E+04 0.  0.
        4    1    3    3  502    0  0.37260978093E+03 -0.52788782155E+03  0.21808966601E+03  0.68195917495E+03  0.12699999809E+01 0. -1.
       -4    1    3    3    0  502 -0.37260978093E+03  0.52788782155E+03 -0.78237562196E+03  0.10147003635E+04  0.12699999809E+01 0.  1.
</event>
<event>
 5   0  0.3210612E-04  0.1607137E+04  0.7818609E-02  0.8816175E-01
       -2   -1    0    0    0  501  0.00000000000E+00  0.00000000000E+00  0.89007281639E+03  0.89007281640E+03  0.25500000920E-02 0.  1.
        2   -1    0    0  501    0  0.00000000000E+00  0.00000000000E+00 -0.72547147020E+03  0.72547147020E+03  0.25500000920E-02 0. -1.
    10030    2    1    2    0    0  0.00000000000E+00  0.00000000000E+00  0.16460134620E+03  0.16155442866E+04  0.16071371251E+04 0.  0.
        2    1    3    3  502    0  0.11058806883E+02 -0.61224691194E+03  0.60536278112E+03  0.86106484956E+03  0.25500000920E-02 0. -1.
       -2    1    3    3    0  502 -0.11058806883E+02  0.61224691194E+03 -0.44076143492E+03  0.75447943703E+03  0.25500000920E-02 0.  1.
</event>
<event>
 5   0  0.3274900E-04  0.1602122E+04  0.7818609E-02  0.8819246E-01
       -2   -1    0    0    0  501  0.00000000000E+00  0.00000000000E+00  0.69529162996E+03  0.69529162996E+03  0.25500000920E-02 0.  1.
        2   -1    0    0  501    0  0.00000000000E+00  0.00000000000E+00 -0.92291974172E+03  0.92291974173E+03  0.25500000920E-02 0. -1.
    10030    2    1    2    0    0  0.00000000000E+00  0.00000000000E+00 -0.22762811177E+03  0.16182113717E+04  0.16021215579E+04 0.  0.
        3    1    3    3  502    0  0.34104132556E+03  0.42902481558E+03  0.47628515253E+03  0.72609850216E+03  0.10100000352E+00 0.  1.
       -3    1    3    3    0  502 -0.34104132556E+03 -0.42902481558E+03 -0.70391326430E+03  0.89211286953E+03  0.10100000352E+00 0. -1.
</event>
<event>
 5   0  0.1764099E-04  0.1591760E+04  0.7818609E-02  0.8825626E-01
        1   -1    0    0  501    0  0.00000000000E+00  0.00000000000E+00  0.62015627072E+03  0.62015627074E+03  0.50400001928E-02 0. -1.
       -1   -1    0    0    0  501  0.00000000000E+00  0.00000000000E+00 -0.10213960506E+04  0.10213960506E+04  0.50400001928E-02 0.  1.
    10030    2    1    2    0    0  0.00000000000E+00  0.00000000000E+00 -0.40123977988E+03  0.16415523214E+04  0.15917602404E+04 0.  0.
        5    1    3    3  502    0  0.67405766357E+03 -0.12919549405E+03  0.21492097991E+03  0.71920673461E+03  0.46999998093E+01 0. -1.
       -5    1    3    3    0  502 -0.67405766357E+03  0.12919549405E+03 -0.61616075979E+03  0.92234558675E+03  0.46999998093E+01 0.  1.
</event>
<event>
 5   0  0.1219463E-04  0.1606223E+04  0.7818609E-02  0.8816734E-01
       -4   -1    0    0    0  501  0.00000000000E+00  0.00000000000E+00  0.99839847216E+03  0.99839927990E+03  0.12699999809E+01 0.  1.
        4   -1    0    0  501    0  0.00000000000E+00  0.00000000000E+00 -0.64602137578E+03  0.64602262411E+03  0.12699999809E+01 0. -1.
    10030    2    1    2    0    0  0.00000000000E+00  0.00000000000E+00  0.35237709639E+03  0.16444219040E+04  0.16062234528E+04 0.  0.
        2    1    3    3  502    0  0.12193270807E+03  0.62453719803E+03 -0.32543739390E+03  0.71471938156E+03  0.25500000920E-02 0. -1.
       -2    1    3    3    0  502 -0.12193270807E+03 -0.62453719803E+03  0.67781449028E+03  0.92970252246E+03  0.25500000920E-02 0.  1.
</event>
<event>
 5   0  0.3263294E-04  0.1768051E+04  0.7818609E-02  0.8723476E-01
       -2   -1    0    0    0  501  0.00000000000E+00  0.00000000000E+00  0.36030110071E+03  0.36030110072E+03  0.25500000920E-02 0.  1.
        2   -1    0    0  501    0  0.00000000000E+00  0.00000000000E+00 -0.21690225719E+04  0.21690225719E+04  0.25500000920E-02 0. -1.
    10030    2    1    2    0    0  0.00000000000E+00  0.00000000000E+00 -0.18087214712E+04  0.25293236727E+04  0.17680511533E+04 0.  0.
        4    1    3    3  502    0  0.64292050930E+02 -0.71296324405E+03 -0.16232346463E+03  0.73403036398E+03  0.12699999809E+01 0.  1.
       -4    1    3    3    0  502 -0.64292050930E+02  0.71296324405E+03 -0.16463980066E+04  0.17952933087E+04  0.12699999809E+01 0. -1.
</event>
<event>
 5   0  0.3210612E-04  0.1601569E+04  0.7818609E-02  0.8819585E-01
        2   -1    0    0  501    0  0.00000000000E+00  0.00000000000E+00  0.15401402164E+04  0.15401402164E+04  0.25500000920E-02 0. -1.
       -2   -1    0    0    0  501  0.00000000000E+00  0.00000000000E+00 -0.41636184962E+03  0.41636184963E+03  0.25500000920E-02 0.  1.
    10030    2    1    2    0    0  0.00000000000E+00  0.00000000000E+00  0.11237783668E+04  0.19565020660E+04  0.16015687674E+04 0.  0.
        2    1    3    3  502    0 -0.53642535802E+03  0.22197461226E+03 -0.11191897325E+03  0.59122817067E+03  0.25500000920E-02 0.  1.
       -2    1    3    3    0  502  0.53642535802E+03 -0.22197461226E+03  0.12356973400E+04  0.13652738954E+04  0.25500000920E-02 0. -1.
</event>
<event>
 5   0  0.1761255E-04  0.1573045E+04  0.7818609E-02  0.8837281E-01
        1   -1    0    0  501    0  0.00000000000E+00  0.00000000000E+00  0.56434533610E+03  0.56434533613E+03  0.50400001928E-02 0.  1.
       -1   -1    0    0    0  501  0.00000000000E+00  0.00000000000E+00 -0.10961684406E+04  0.10961684406E+04  0.50400001928E-02 0. -1.
    10030    2    1    2    0    0  0.00000000000E+00  0.00000000000E+00 -0.53182310446E+03  0.16605137767E+04  0.15730448780E+04 0.  0.
        2    1    3    3  502    0  0.44473424170E+03 -0.42267062220E+03 -0.78539199770E+03  0.99663413080E+03  0.25500000920E-02 0. -1.
       -2    1    3    3    0  502 -0.44473424170E+03  0.42267062220E+03  0.25356889325E+03  0.66387964590E+03  0.25500000920E-02 0.  1.
</event>
<event>
 5   0  0.3210612E-04  0.1602055E+04  0.7818609E-02  0.8819287E-01
       -2   -1    0    0    0  501  0.00000000000E+00  0.00000000000E+00  0.61968993653E+03  0.61968993654E+03  0.25500000920E-02 0. -1.
        2   -1    0    0  501    0  0.00000000000E+00  0.00000000000E+00 -0.10354289126E+04  0.10354289126E+04  0.25500000920E-02 0.  1.
    10030    2    1    2    0    0  0.00000000000E+00  0.00000000000E+00 -0.41573897608E+03  0.16551188491E+04  0.16020547770E+04 0.  0.
        2    1    3    3  502    0 -0.75032719771E+03  0.95081770559E+02  0.64713244651E+02  0.75909106882E+03  0.25500000920E-02 0. -1.
       -2    1    3    3    0  502  0.75032719771E+03 -0.95081770559E+02 -0.48045222073E+03  0.89602778033E+03  0.25500000920E-02 0.  1.
</event>
<event>
 5   0  0.3380454E-04  0.1590185E+04  0.7818609E-02  0.8826600E-01
       -2   -1    0    0    0  501  0.00000000000E+00  0.00000000000E+00  0.42559411536E+03  0.42559411537E+03  0.25500000920E-02 0.  1.
        2   -1    0    0  501    0  0.00000000000E+00  0.00000000000E+00 -0.14853875170E+04  0.14853875170E+04  0.25500000920E-02 0. -1.
    10030    2    1    2    0    0  0.00000000000E+00  0.00000000000E+00 -0.10597934017E+04  0.19109816324E+04  0.15901851292E+04 0.  0.
        5    1    3    3  502    0 -0.55822745739E+03  0.47521652626E+03 -0.89971393943E+03  0.11605842941E+04  0.46999998093E+01 0. -1.
       -5    1    3    3    0  502  0.55822745739E+03 -0.47521652626E+03 -0.16007946222E+03  0.75039733824E+03  0.46999998093E+01 0.  1.
</event>
<event>
 5   0  0.3263294E-04  0.1608326E+04  0.7818609E-02  0.8815449E-01
       -2   -1    0    0    0  501  0.00000000000E+00  0.00000000000E+00  0.52270300468E+03  0.52270300469E+03  0.25500000920E-02 0. -1.
        2   -1    0    0  501    0  0.00000000000E+00  0.00000000000E+00 -0.12371813456E+04  0.12371813456E+04  0.25500000920E-02 0.  1.
    10030    2    1    2    0    0  0.00000000000E+00  0.00000000000E+00 -0.71447834096E+03  0.17598843503E+04  0.16083263434E+04 0.  0.
        4    1    3    3  502    0 -0.72531962944E+03  0.31897090882E+03 -0.20702285414E+03  0.81895731303E+03  0.12699999809E+01 0. -1.
       -4    1    3    3    0  502  0.72531962944E+03 -0.31897090882E+03 -0.50745548682E+03  0.94092703731E+03  0.12699999809E+01 0.  1.
</event>
<event>
 5   0  0.3210612E-04  0.1603827E+04  0.7818609E-02  0.8818200E-01
        2   -1    0    0  501    0  0.00000000000E+00  0.00000000000E+00  0.80969258396E+03  0.80969258397E+03  0.25500000920E-02 0. -1.
       -2   -1    0    0    0  501  0.00000000000E+00  0.00000000000E+00 -0.79420913152E+03  0.79420913152E+03  0.25500000920E-02 0.  1.
    10030    2    1    2    0    0  0.00000000000E+00  0.00000000000E+00  0.15483452443E+02  0.16039017155E+04  0.16038269781E+04 0.  0.
        2    1    3    3  502    0  0.22025110957E+03  0.21024608978E+03 -0.73414948390E+03  0.79478892434E+03  0.25500000920E-02 0.  1.
       -2    1    3    3    0  502 -0.22025110957E+03 -0.21024608978E+03  0.74963293635E+03  0.80911279115E+03  0.25500000920E-02 0. -1.
</event>
<event>
 5   0  0.3380454E-04  0.1598930E+04  0.7818609E-02  0.8821206E-01
        2   -1    0    0  501    0  0.00000000000E+00  0.00000000000E+00  0.14614815880E+04  0.14614815880E+04  0.25500000920E-02 0. -1.
       -2   -1    0    0    0  501  0.00000000000E+00  0.00000000000E+00 -0.43732620511E+03  0.43732620512E+03  0.25500000920E-02 0.  1.
    10030    2    1    2    0    0  0.00000000000E+00  0.00000000000E+00  0.10241553829E+04  0.18988077931E+04  0.15989298881E+04 0.  0.
        5    1    3    3  502    0 -0.33678461803E+03  0.42038037255E+03 -0.18945992732E+03  0.57101724197E+03  0.46999998093E+01 0.  1.
       -5    1    3    3    0  502  0.33678461803E+03 -0.42038037255E+03  0.12136153102E+04  0.13277905511E+04  0.46999998093E+01 0. -1.
</event>
<event>
 5   0  0.1819811E-04  0.1604821E+04  0.7818609E-02  0.8817591E-01
       -1   -1    0    0    0  501  0.00000000000E+00  0.00000000000E+00  0.69770848137E+03  0.69770848139E+03  0.50400001928E-02 0. -1.
        1   -1    0    0  501    0  0.00000000000E+00  0.00000000000E+00 -0.92282523876E+03  0.92282523877E+03  0.50400001928E-02 0.  1.
    10030    2    1    2    0    0  0.00000000000E+00  0.00000000000E+00 -0.22511675739E+03  0.16205337202E+04  0.16048214803E+04 0.  0.
        1    1    3    3  502    0 -0.30381310132E+03 -0.73396918117E+03 -0.22702533735E+03  0.82616805994E+03  0.50400001928E-02 0.  1.
       -1    1    3    3    0  502  0.30381310132E+03  0.73396918117E+03  0.19085799591E+01  0.79436566022E+03  0.50400001928E-02 0. -1.
</event>
<event>
 5   0  0.3274900E-04  0.1595338E+04  0.7818609E-02  0.8823417E-01
        2   -1    0    0  501    0  0.00000000000E+00  0.00000000000E+00  0.11122237119E+04  0.11122237120E+04  0.25500000920E-02 0.  1.
       -2   -1    0    0    0  501  0.00000000000E+00  0.00000000000E+00 -0.57207558338E+03  0.57207558339E+03  0.25500000920E-02 0. -1.
    10030    2    1    2    0    0  0.00000000000E+00  0.00000000000E+00  0.54014812857E+03  0.16842992953E+04  0.15953382449E+04 0.  0.
        3    1    3    3  502    0 -0.73085919184E+03 -0.13984771938E+03  0.57343557201E+03  0.93943648448E+03  0.10100000352E+00 0.  1.
       -3    1    3    3    0  502  0.73085919184E+03  0.13984771938E+03 -0.33287443446E+02  0.74486281086E+03  0.10100000352E+00 0. -1.
</event>
<event>
 5   0  0.1819811E-04  0.1514008E+04  0.7818609E-02  0.8875191E-01
       -1   -1    0    0    0  501  0.00000000000E+00  0.00000000000E+00  0.22452159272E+03  0.22452159278E+03  0.50400001928E-02 0.  1.
        1   -1    0    0  501    0  0.00000000000E+00  0.00000000000E+00 -0.25523382057E+04  0.25523382057E+04  0.50400001928E-02 0. -1.
    10030    2    1    2    0    0  0.00000000000E+00  0.00000000000E+00 -0.23278166130E+04  0.27768597985E+04  0.15140079778E+04 0.  0.
        1    1    3    3  502    0  0.73342000770E+03 -0.11500460087E+03 -0.14354811951E+04  0.16160870111E+04  0.50400001928E-02 0.  1.
       -1    1    3    3    0  502 -0.73342000770E+03  0.11500460087E+03 -0.89233541785E+03  0.11607727874E+04  0.50400001928E-02 0. -1.
</event>
<event>
 5   0  0.3210612E-04  0.1606353E+04  0.7818609E-02  0.8816654E-01
       -2   -1    0    0    0  501  0.00000000000E+00  0.00000000000E+00  0.65218347566E+03  0.65218347566E+03  0.25500000920E-02 0.  1.
        2   -1    0    0  501    0  0.00000000000E+00  0.00000000000E+00 -0.98912765372E+03  0.98912765372E+03  0.25500000920E-02 0. -1.
    10030    2    1    2    0    0  0.00000000000E+00  0.00000000000E+00 -0.33694417806E+03  0.16413111294E+04  0.16063532751E+04 0.  0.
        2    1    3    3  502    0  0.13532159819E+03 -0.98364919037E+02 -0.97112803221E+03  0.98543251783E+03  0.25500000920E-02 0. -1.
       -2    1    3    3    0  502 -0.13532159819E+03  0.98364919037E+02  0.63418385415E+03  0.65587861156E+03  0.25500000920E-02 0.  1.
</event>
<event>
 5   0  0.3380454E-04  0.1588406E+04  0.7818609E-02  0.8827703E-01
        2   -1    0    0  501    0  0.00000000000E+00  0.00000000000E+00  0.10273474585E+04  0.10273474585E+04  0.25500000920E-02 0. -1.
       -2   -1    0    0    0  501  0.00000000000E+00  0.00000000000E+00 -0.61396782476E+03  0.61396782476E+03  0.25500000920E-02 0.  1.
    10030    2    1    2    0    0  0.00000000000E+00  0.00000000000E+00  0.41337963370E+03  0.16413152832E+04  0.15884058478E+04 0.  0.
        5    1    3    3  502    0 -0.29356695518E+03  0.70680853850E+03 -0.12450623258E+02  0.76546520188E+03  0.46999998093E+01 0.  1.
       -5    1    3    3    0  502  0.29356695518E+03 -0.70680853850E+03  0.42583025696E+03  0.87585008135E+03  0.46999998093E+01 0. -1.
</event>
<event>
 5   0  0.1736537E-04  0.1595343E+04  0.7818609E-02  0.8823414E-01
        1   -1    0    0  501    0  0.00000000000E+00  0.00000000000E+00  0.58652946023E+03  0.58652946025E+03  0.50400001928E-02 0. -1.
       -1   -1    0    0    0  501  0.00000000000E+00  0.00000000000E+00 -0.10848219100E+04  0.10848219100E+04  0.50400001928E-02 0.  1.
    10030    2    1    2    0    0  0.00000000000E+00  0.00000000000E+00 -0.49829244976E+03  0.16713513702E+04  0.15953432350E+04 0.  0.
        3    1    3    3  502    0  0.25462771052E+03 -0.65338228736E+03 -0.64743871274E+03  0.95442159519E+03  0.10100000352E+00 0.  1.
       -3    1    3    3    0  502 -0.25462771052E+03  0.65338228736E+03  0.14914626299E+03  0.71692977506E+03  0.10100000352E+00 0. -1.
</event>
<event>
 5   0  0.1787688E-04  0.1580814E+04  0.7818609E-02  0.8832422E-01
        1   -1    0    0  501    0  0.00000000000E+00  0.00000000000E+00  0.62143057166E+03  0.62143057168E+03  0.50400001928E-02 0.  1.
       -1   -1    0    0    0  501  0.00000000000E+00  0.00000000000E+00 -0.10053309566E+04  0.10053309566E+04  0.50400001928E-02 0. -1.
    10030    2    1    2    0    0  0.00000000000E+00  0.00000000000E+00 -0.38390038496E+03  0.16267615283E+04  0.15808142093E+04 0.  0.
        4    1    3    3  502    0  0.25167283174E+03 -0.48298985493E+03 -0.78142010084E+03  0.95249010551E+03  0.12699999809E+01 0. -1.
       -4    1    3    3    0  502 -0.25167283174E+03  0.48298985493E+03  0.39751971588E+03  0.67427142281E+03  0.12699999809E+01 0.  1.
</event>
<event>
 5   0  0.1764099E-04  0.1611377E+04  0.7818609E-02  0.8813589E-01
       -1   -1    0    0    0  501  0.00000000000E+00  0.00000000000E+00  0.41348315897E+03  0.41348315900E+03  0.50400001928E-02 0. -1.
        1   -1    0    0  501    0  0.00000000000E+00  0.00000000000E+00 -0.15699154834E+04  0.15699154834E+04  0.50400001928E-02 0.  1.
    10030    2    1    2    0    0  0.00000000000E+00  0.00000000000E+00 -0.11564323244E+04  0.19833986424E+04  0.16113765710E+04 0.  0.
        5    1    3    3  502    0 -0.11465226200E+03 -0.13052201472E+03 -0.15465695339E+04  0.15563034893E+04  0.46999998093E+01 0.  1.
       -5    1    3    3    0  502  0.11465226200E+03  0.13052201472E+03  0.39013720954E+03  0.42709515307E+03  0.46999998093E+01 0. -1.
</event>
<event>
 5   0  0.1219463E-04  0.1599144E+04  0.7818609E-02  0.8821074E-01
        3   -1    0    0  501    0  0.00000000000E+00  0.00000000000E+00  0.10229393417E+04  0.10229393467E+04  0.10100000352E+00 0. -1.
       -3   -1    0    0    0  501  0.00000000000E+00  0.00000000000E+00 -0.62497902285E+03  0.62497903101E+03  0.10100000352E+00 0.  1.
    10030    2    1    2    0    0  0.00000000000E+00  0.00000000000E+00  0.39796031890E+03  0.16479183777E+04  0.15991443225E+04 0.  0.
        5    1    3    3  502    0 -0.26421672893E+03  0.17985353551E+03 -0.55626869763E+03  0.64157207549E+03  0.46999998093E+01 0.  1.
       -5    1    3    3    0  502  0.26421672893E+03 -0.17985353551E+03  0.95422901653E+03  0.10063463023E+04  0.46999998093E+01 0. -1.
</event>
<event>
 5   0  0.1219463E-04  0.1594576E+04  0.7818609E-02  0.8823887E-01
       -3   -1    0    0    0  501  0.00000000000E+00  0.00000000000E+00  0.43074581064E+03  0.43074582248E+03  0.10100000352E+00 0. -1.
        3   -1    0    0  501    0  0.00000000000E+00  0.00000000000E+00 -0.14757391644E+04  0.14757391678E+04  0.10100000352E+00 0.  1.
    10030    2    1    2    0    0  0.00000000000E+00  0.00000000000E+00 -0.10449933537E+04  0.19064849903E+04  0.15945764042E+04 0.  0.
        4    1    3    3  502    0  0.51171950258E+03  0.51783321961E+03 -0.91113071562E+03  0.11662627862E+04  0.12699999809E+01 0.  1.
       -4    1    3    3    0  502 -0.51171950258E+03 -0.51783321961E+03 -0.13386263810E+03  0.74022220409E+03  0.12699999809E+01 0. -1.
</event>
<event>
 5   0  0.1736537E-04  0.1689757E+04  0.7818609E-02  0.8767228E-01
       -1   -1    0    0    0  501  0.00000000000E+00  0.00000000000E+00  0.58240952551E+03  0.58240952553E+03  0.50400001928E-02 0.  1.
        1   -1    0    0  501    0  0.00000000000E+00  0.00000000000E+00 -0.12256325090E+04  0.12256325090E+04  0.50400001928E-02 0. -1.
    10030    2    1    2    0    0  0.00000000000E+00  0.00000000000E+00 -0.64322298350E+03  0.18080420346E+04  0.16897574359E+04 0.  0.
        3    1    3    3  502    0 -0.30287594175E+03 -0.54366654553E+03  0.28980101976E+03  0.68650694830E+03  0.10100000352E+00 0.  1.
       -3    1    3    3    0  502  0.30287594175E+03  0.54366654553E+03 -0.93302400327E+03  0.11215350862E+04  0.10100000352E+00 0. -1.
</event>
<event>
 5   0  0.3380454E-04  0.1578114E+04  0.7818609E-02  0.8834107E-01
       -2   -1    0    0    0  501  0.00000000000E+00  0.00000000000E+00  0.36830007443E+03  0.36830007443E+03  0.25500000920E-02 0. -1.
        2   -1    0    0  501    0  0.00000000000E+00  0.00000000000E+00 -0.16904987722E+04  0.16904987722E+04  0.25500000920E-02 0.  1.
    10030    2    1    2    0    0  0.00000000000E+00  0.00000000000E+00 -0.13221986977E+04  0.20587988466E+04  0.15781138408E+04 0.  0.
        5    1    3    3  502    0 -0.44088143748E+03 -0.33597017363E+03  0.71493364547E+02  0.55891483310E+03  0.46999998093E+01 0. -1.
       -5    1    3    3    0  502  0.44088143748E+03  0.33597017363E+03 -0.13936920623E+04  0.14998840135E+04  0.46999998093E+01 0.  1.
</event>
<event>
 5   0  0.1219463E-04  0.1605118E+04  0.7818609E-02  0.8817410E-01
        3   -1    0    0  501    0  0.00000000000E+00  0.00000000000E+00  0.19987350661E+04  0.19987350686E+04  0.10100000352E+00 0. -1.
       -3   -1    0    0    0  501  0.00000000000E+00  0.00000000000E+00 -0.32225426431E+03  0.32225428014E+03  0.10100000352E+00 0.  1.
    10030    2    1    2    0    0  0.00000000000E+00  0.00000000000E+00  0.16764808018E+04  0.23209893488E+04  0.16051179640E+04 0.  0.
        4    1    3    3  502    0  0.24824614133E+03  0.59164607570E+03  0.14111566884E+03  0.65695241111E+03  0.12699999809E+01 0.  1.
       -4    1    3    3    0  502 -0.24824614133E+03 -0.59164607570E+03  0.15353651329E+04  0.16640369376E+04  0.12699999809E+01 0. -1.
</event>
<event>
 5   0  0.3380454E-04  0.1582704E+04  0.7818609E-02  0.8831244E-01
        2   -1    0    0  501    0  0.00000000000E+00  0.00000000000E+00  0.18014515867E+04  0.18014515867E+04  0.25500000920E-02 0.  1.
       -2   -1    0    0    0  501  0.00000000000E+00  0.00000000000E+00 -0.34762976332E+03  0.34762976333E+03  0.25500000920E-02 0. -1.
    10030    2    1    2    0    0  0.00000000000E+00  0.00000000000E+00  0.14538218233E+04  0.21490813500E+04  0.15827042538E+04 0.  0.
        5    1    3    3  502    0  0.76404072134E+03 -0.47741609501E+02  0.45473445305E+03  0.89041731673E+03  0.46999998093E+01 0. -1.
       -5    1    3    3    0  502 -0.76404072134E+03  0.47741609501E+02  0.99908737029E+03  0.12586640333E+04  0.46999998093E+01 0.  1.
</event>
<event>
 5   0  0.1787688E-04  0.1601937E+04  0.7818609E-02  0.8819359E-01
        1   -1    0    0  501    0  0.00000000000E+00  0.00000000000E+00  0.15689125768E+04  0.15689125768E+04  0.50400001928E-02 0. -1.
       -1   -1    0    0    0  501  0.00000000000E+00  0.00000000000E+00 -0.40891438782E+03  0.40891438785E+03  0.50400001928E-02 0.  1.
    10030    2    1    2    0    0  0.00000000000E+00  0.00000000000E+00  0.11599981890E+04  0.19778269647E+04  0.16019374843E+04 0.  0.
        4    1    3    3  502    0 -0.56507656526E+03 -0.19044920611E+02 -0.12046585186E+03  0.57808984420E+03  0.12699999809E+01 0.  1.
       -4    1    3    3    0  502  0.56507656526E+03  0.19044920611E+02  0.12804640409E+04  0.13997371205E+04  0.12699999809E+01 0. -1.
</event>
<event>
 5   0  0.1764099E-04  0.1576689E+04  0.7818609E-02  0.8834998E-01
       -1   -1    0    0    0  501  0.00000000000E+00  0.00000000000E+00  0.21370010851E+03  0.21370010857E+03  0.50400001928E-02 0. -1.
        1   -1    0    0  501    0  0.00000000000E+00  0.00000000000E+00 -0.29082219919E+04  0.29082219919E+04  0.50400001928E-02 0.  1.
    10030    2    1    2    0    0  0.00000000000E+00  0.00000000000E+00 -0.26945218834E+04  0.31219221004E+04  0.15766893864E+04 0.  0.
        5    1    3    3  502    0  0.34088051860E+03  0.16335900864E+03 -0.27170478033E+04  0.27432201058E+04  0.46999998093E+01 0.  1.
       -5    1    3    3    0  502 -0.34088051860E+03 -0.16335900864E+03  0.22525919919E+02  0.37870199462E+03  0.46999998093E+01 0. -1.
</event>
<event>
 5   0  0.3274900E-04  0.1603506E+04  0.7818609E-02  0.8818397E-01
        2   -1    0    0  501    0  0.00000000000E+00  0.00000000000E+00  0.11070476607E+04  0.11070476607E+04  0.25500000920E-02 0.  1.
       -2   -1    0    0    0  501  0.00000000000E+00  0.00000000000E+00 -0.58065066045E+03  0.58065066045E+03  0.25500000920E-02 0. -1.
    10030    2    1    2    0    0  0.00000000000E+00  0.00000000000E+00  0.52639700027E+03  0.16876983212E+04  0.16035061027E+04 0.  0.
        3    1    3    3  502    0  0.28026586203E+03  0.71040625157E+03  0.52010882344E+03  0.92398008318E+03  0.10100000352E+00 0.  1.
       -3    1    3    3    0  502 -0.28026586203E+03 -0.71040625157E+03  0.62881768311E+01  0.76371823800E+03  0.10100000352E+00 0. -1.
</event>
<event>
 5   0  0.3380454E-04  0.1574769E+04  0.7818609E-02  0.8836200E-01
       -2   -1    0    0    0  501  0.00000000000E+00  0.00000000000E+00  0.27689669458E+03  0.27689669459E+03  0.25500000920E-02 0.  1.
        2   -1    0    0  501    0  0.00000000000E+00  0.00000000000E+00 -0.22390091384E+04  0.22390091384E+04  0.25500000920E-02 0. -1.
    10030    2    1    2    0    0  0.00000000000E+00  0.00000000000E+00 -0.19621124439E+04  0.25159058330E+04  0.15747688460E+04 0.  0.
        5    1    3    3  502    0  0.14309895022E+03 -0.54730125375E+03 -0.10608859130E+03  0.57558044712E+03  0.46999998093E+01 0.  1.
       -5    1    3    3    0  502 -0.14309895022E+03  0.54730125375E+03 -0.18560238526E+04  0.19403253859E+04  0.46999998093E+01 0. -1.
</event>
<event>
 5   0  0.1219463E-04  0.1582670E+04  0.7818609E-02  0.8831265E-01
       -3   -1    0    0    0  501  0.00000000000E+00  0.00000000000E+00  0.97761422026E+03  0.97761422547E+03  0.10100000352E+00 0. -1.
        3   -1    0    0  501    0  0.00000000000E+00  0.00000000000E+00 -0.64055068896E+03  0.64055069692E+03  0.10100000352E+00 0.  1.
    10030    2    1    2    0    0  0.00000000000E+00  0.00000000000E+00  0.33706353130E+03  0.16181649224E+04  0.15826704938E+04 0.  0.
        1    1    3    3  502    0  0.20018131018E+02 -0.62240775873E+03 -0.33070091552E+03  0.70509236221E+03  0.50400001928E-02 0.  1.
       -1    1    3    3    0  502 -0.20018131018E+02  0.62240775873E+03  0.66776444682E+03  0.91307256018E+03  0.50400001928E-02 0. -1.
</event>
<event>
 5   0  0.3263294E-04  0.1603317E+04  0.7818609E-02  0.8818513E-01
       -2   -1    0    0    0  501  0.00000000000E+00  0.00000000000E+00  0.11742836472E+04  0.11742836472E+04  0.25500000920E-02 0.  1.
        2   -1    0    0  501    0  0.00000000000E+00  0.00000000000E+00 -0.54727523377E+03  0.54727523377E+03  0.25500000920E-02 0. -1.
    10030    2    1    2    0    0  0.00000000000E+00  0.00000000000E+00  0.62700841347E+03  0.17215588810E+04  0.16033170086E+04 0.  0.
        4    1    3    3  502    0  0.70367005683E+03 -0.34276986191E+03  0.49952011074E+03  0.92852823384E+03  0.12699999809E+01 0.  1.
       -4    1    3    3    0  502 -0.70367005683E+03  0.34276986191E+03  0.12748830273E+03  0.79303064717E+03  0.12699999809E+01 0. -1.
</event>
<event>
 5   0  0.1736537E-04  0.1602739E+04  0.7818609E-02  0.8818867E-01
        1   -1    0    0  501    0  0.00000000000E+00  0.00000000000E+00  0.94153946052E+03  0.94153946054E+03  0.50400001928E-02 0. -1.
       -1   -1    0    0    0  501  0.00000000000E+00  0.00000000000E+00 -0.68206732029E+03  0.68206732030E+03  0.50400001928E-02 0.  1.
    10030    2    1    2    0    0  0.00000000000E+00  0.00000000000E+00  0.25947214024E+03  0.16236067808E+04  0.16027392761E+04 0.  0.
        3    1    3    3  502    0 -0.11014471179E+03  0.68918840311E+01  0.93380457841E+03  0.94030333216E+03  0.10100000352E+00 0. -1.
       -3    1    3    3    0  502  0.11014471179E+03 -0.68918840311E+01 -0.67433243818E+03  0.68330344868E+03  0.10100000352E+00 0.  1.
</event>
<event>
 5   0  0.1761255E-04  0.1602288E+04  0.7818609E-02  0.8819143E-01
        1   -1    0    0  501    0  0.00000000000E+00  0.00000000000E+00  0.66869366196E+03  0.66869366197E+03  0.50400001928E-02 0. -1.
       -1   -1    0    0    0  501  0.00000000000E+00  0.00000000000E+00 -0.95982965765E+03  0.95982965766E+03  0.50400001928E-02 0.  1.
    10030    2    1    2    0    0  0.00000000000E+00  0.00000000000E+00 -0.29113599569E+03  0.16285233196E+04  0.16022883744E+04 0.  0.
        2    1    3    3  502    0  0.76666071945E+03  0.14192208886E+03  0.41625446851E+02  0.78079652656E+03  0.25500000920E-02 0. -1.
       -2    1    3    3    0  502 -0.76666071945E+03 -0.14192208886E+03 -0.33276144254E+03  0.84772679308E+03  0.25500000920E-02 0.  1.
</event>
<event>
 5   0  0.1787688E-04  0.1436379E+04  0.7818609E-02  0.8927899E-01
       -1   -1    0    0    0  501  0.00000000000E+00  0.00000000000E+00  0.24022677638E+03  0.24022677643E+03  0.50400001928E-02 0.  1.
        1   -1    0    0  501    0  0.00000000000E+00  0.00000000000E+00 -0.21471204691E+04  0.21471204691E+04  0.50400001928E-02 0. -1.
    10030    2    1    2    0    0  0.00000000000E+00  0.00000000000E+00 -0.19068936927E+04  0.23873472455E+04  0.14363785418E+04 0.  0.
        4    1    3    3  502    0  0.40285504543E+03  0.93790672415E+02  0.22375341545E+02  0.41423561734E+03  0.12699999809E+01 0.  1.
       -4    1    3    3    0  502 -0.40285504543E+03 -0.93790672415E+02 -0.19292690343E+04  0.19731116282E+04  0.12699999809E+01 0. -1.
</event>
<event>
 5   0  0.1787688E-04  0.1618171E+04  0.7818609E-02  0.8809462E-01
       -1   -1    0    0    0  501  0.00000000000E+00  0.00000000000E+00  0.40423964090E+03  0.40423964093E+03  0.50400001928E-02 0.  1.
        1   -1    0    0  501    0  0.00000000000E+00  0.00000000000E+00 -0.16193852304E+04  0.16193852305E+04  0.50400001928E-02 0. -1.
    10030    2    1    2    0    0  0.00000000000E+00  0.00000000000E+00 -0.12151455896E+04  0.20236248714E+04  0.16181714422E+04 0.  0.
        4    1    3    3  502    0 -0.21436466978E+03 -0.66232146158E+03 -0.11231871892E+04  0.13214283957E+04  0.12699999809E+01 0. -1.
       -4    1    3    3    0  502  0.21436466978E+03  0.66232146158E+03 -0.91958400325E+02  0.70219647565E+03  0.12699999809E+01 0.  1.
</event>
<event>
 5   0  0.1819811E-04  0.1607429E+04  0.7818609E-02  0.8815997E-01
       -1   -1    0    0    0  501  0.00000000000E+00  0.00000000000E+00  0.30880573344E+03  0.30880573349E+03  0.50400001928E-02 0.  1.
        1   -1    0    0  501    0  0.00000000000E+00  0.00000000000E+00 -0.20917920455E+04  0.20917920455E+04  0.50400001928E-02 0. -1.
    10030    2    1    2    0    0  0.00000000000E+00  0.00000000000E+00 -0.17829863121E+04  0.24005977790E+04  0.16074294720E+04 0.  0.
        1    1    3    3  502    0 -0.21552961215E+03  0.71852586417E+03 -0.13223313863E+04  0.15202936317E+04  0.50400001928E-02 0. -1.
       -1    1    3    3    0  502  0.21552961215E+03 -0.71852586417E+03 -0.46065492574E+03  0.88030414734E+03  0.50400001928E-02 0.  1.
</event>
<event>
 5   0  0.1764099E-04  0.1616503E+04  0.7818609E-02  0.8810473E-01
        1   -1    0    0  501    0  0.00000000000E+00  0.00000000000E+00  0.67830909002E+03  0.67830909004E+03  0.50400001928E-02 0.  1.
       -1   -1    0    0    0  501  0.00000000000E+00  0.00000000000E+00 -0.96308650143E+03  0.96308650144E+03  0.50400001928E-02 0. -1.
    10030    2    1    2    0    0  0.00000000000E+00  0.00000000000E+00 -0.28477741141E+03  0.16413955915E+04  0.16165028035E+04 0.  0.
        5    1    3    3  502    0 -0.52684460959E+03  0.60829903701E+03 -0.66029086434E+02  0.80744962155E+03  0.46999998093E+01 0.  1.
       -5    1    3    3    0  502  0.52684460959E+03 -0.60829903701E+03 -0.21874832497E+03  0.83394596993E+03  0.46999998093E+01 0. -1.
</event>
<event>
 5   0  0.3263294E-04  0.1525180E+04  0.7818609E-02  0.8867879E-01
        2   -1    0    0  501    0  0.00000000000E+00  0.00000000000E+00  0.10486213031E+04  0.10486213031E+04  0.25500000920E-02 0. -1.
       -2   -1    0    0    0  501  0.00000000000E+00  0.00000000000E+00 -0.55457945714E+03  0.55457945715E+03  0.25500000920E-02 0.  1.
    10030    2    1    2    0    0  0.00000000000E+00  0.00000000000E+00  0.49404184599E+03  0.16032007603E+04  0.15251804261E+04 0.  0.
        4    1    3    3  502    0 -0.40004810603E+03  0.44932438088E+03  0.73962053102E+03  0.95339972163E+03  0.12699999809E+01 0. -1.
       -4    1    3    3    0  502  0.40004810603E+03 -0.44932438088E+03 -0.24557868503E+03  0.64980103865E+03  0.12699999809E+01 0.  1.
</event>
<event>
 5   0  0.1764099E-04  0.1604585E+04  0.7818609E-02  0.8817736E-01
       -1   -1    0    0    0  501  0.00000000000E+00  0.00000000000E+00  0.94981895395E+03  0.94981895396E+03  0.50400001928E-02 0. -1.
        1   -1    0    0  501    0  0.00000000000E+00  0.00000000000E+00 -0.67768027920E+03  0.67768027922E+03  0.50400001928E-02 0.  1.
    10030    2    1    2    0    0  0.00000000000E+00  0.00000000000E+00  0.27213867475E+03  0.16274992332E+04  0.16045853968E+04 0.  0.
        5    1    3    3  502    0  0.89150165279E+02 -0.70412917479E+03 -0.24331192253E+03  0.75031222062E+03  0.46999998093E+01 0.  1.
       -5    1    3    3    0  502 -0.89150165279E+02  0.70412917479E+03  0.51545059728E+03  0.87718701256E+03  0.46999998093E+01 0. -1.
</event>
<event>
 5   0  0.3263294E-04  0.1598628E+04  0.7818609E-02  0.8821391E-01
        2   -1    0    0  501    0  0.00000000000E+00  0.00000000000E+00  0.13254770371E+04  0.13254770371E+04  0.25500000920E-02 0. -1.
       -2   -1    0    0    0  501  0.00000000000E+00  0.00000000000E+00 -0.48201720763E+03  0.48201720764E+03  0.25500000920E-02 0.  1.
    10030    2    1    2    0    0  0.00000000000E+00  0.00000000000E+00  0.84345982948E+03  0.18074942448E+04  0.15986278369E+04 0.  0.
        4    1    3    3  502    0 -0.87855072036E+02 -0.42773938814E+03 -0.33523536021E+03  0.55051235907E+03  0.12699999809E+01 0.  1.
       -4    1    3    3    0  502  0.87855072036E+02  0.42773938814E+03  0.11786951897E+04  0.12569818857E+04  0.12699999809E+01 0. -1.
</event>
<event>
 5   0  0.1819811E-04  0.1594484E+04  0.7818609E-02  0.8823944E-01
       -1   -1    0    0    0  501  0.00000000000E+00  0.00000000000E+00  0.54026939664E+03  0.54026939666E+03  0.50400001928E-02 0.  1.
        1   -1    0    0  501    0  0.00000000000E+00  0.00000000000E+00 -0.11764407440E+04  0.11764407440E+04  0.50400001928E-02 0. -1.
    10030    2    1    2    0    0  0.00000000000E+00  0.00000000000E+00 -0.63617134734E+03  0.17167101406E+04  0.15944841560E+04 0.  0.
        1    1    3    3  502    0  0.54976608167E+03 -0.19614582216E+03  0.26656800823E+03  0.64169652574E+03  0.50400001928E-02 0.  1.
       -1    1    3    3    0  502 -0.54976608167E+03  0.19614582216E+03 -0.90273935557E+03  0.10750136149E+04  0.50400001928E-02 0. -1.
</event>
<event>
 5   0  0.3228393E-04  0.1601461E+04  0.7818609E-02  0.8819651E-01
        2   -1    0    0  501    0  0.00000000000E+00  0.00000000000E+00  0.12229540009E+04  0.12229540009E+04  0.25500000920E-02 0.  1.
       -2   -1    0    0    0  501  0.00000000000E+00  0.00000000000E+00 -0.52427930168E+03  0.52427930169E+03  0.25500000920E-02 0. -1.
    10030    2    1    2    0    0  0.00000000000E+00  0.00000000000E+00  0.69867469922E+03  0.17472333026E+04  0.16014611698E+04 0.  0.
        1    1    3    3  502    0  0.47246655089E+03  0.62583170640E+03  0.17247187630E+03  0.80289259219E+03  0.50400001928E-02 0. -1.
       -1    1    3    3    0  502 -0.47246655089E+03 -0.62583170640E+03  0.52620282292E+03  0.94434071040E+03  0.50400001928E-02 0.  1.
</event>
<event>
 5   0  0.1736537E-04  0.1618582E+04  0.7818609E-02  0.8809213E-01
        1   -1    0    0  501    0  0.00000000000E+00  0.00000000000E+00  0.17701278148E+04  0.17701278148E+04  0.50400001928E-02 0.  1.
       -1   -1    0    0    0  501  0.00000000000E+00  0.00000000000E+00 -0.37000280136E+03  0.37000280139E+03  0.50400001928E-02 0. -1.
    10030    2    1    2    0    0  0.00000000000E+00  0.00000000000E+00  0.14001250135E+04  0.21401306162E+04  0.16185824048E+04 0.  0.
        3    1    3    3  502    0 -0.26147677141E+03  0.26027190719E+03  0.16524692722E+04  0.16931527613E+04  0.10100000352E+00 0.  1.
       -3    1    3    3    0  502  0.26147677141E+03 -0.26027190719E+03 -0.25234425868E+03  0.44697785488E+03  0.10100000352E+00 0. -1.
</event>
<event>
 5   0  0.3210612E-04  0.1572919E+04  0.7818609E-02  0.8837360E-01
        2   -1    0    0  501    0  0.00000000000E+00  0.00000000000E+00  0.10993522387E+04  0.10993522387E+04  0.25500000920E-02 0. -1.
       -2   -1    0    0    0  501  0.00000000000E+00  0.00000000000E+00 -0.56262072466E+03  0.56262072466E+03  0.25500000920E-02 0.  1.
    10030    2    1    2    0    0  0.00000000000E+00  0.00000000000E+00  0.53673151403E+03  0.16619729634E+04  0.15729187559E+04 0.  0.
        2    1    3    3  502    0 -0.72129000251E+03  0.20502294870E+03  0.17823408523E+02  0.75007423040E+03  0.25500000920E-02 0.  1.
       -2    1    3    3    0  502  0.72129000251E+03 -0.20502294870E+03  0.51890810551E+03  0.91189873296E+03  0.25500000920E-02 0. -1.
</event>
<event>
 5   0  0.1819811E-04  0.1600608E+04  0.7818609E-02  0.8820174E-01
        1   -1    0    0  501    0  0.00000000000E+00  0.00000000000E+00  0.11215714126E+04  0.11215714126E+04  0.50400001928E-02 0. -1.
       -1   -1    0    0    0  501  0.00000000000E+00  0.00000000000E+00 -0.57106204366E+03  0.57106204368E+03  0.50400001928E-02 0.  1.
    10030    2    1    2    0    0  0.00000000000E+00  0.00000000000E+00  0.55050936892E+03  0.16926334563E+04  0.16006084631E+04 0.  0.
        1    1    3    3  502    0  0.58340338591E+03 -0.54691598988E+03  0.30886655916E+03  0.85724859992E+03  0.50400001928E-02 0.  1.
       -1    1    3    3    0  502 -0.58340338591E+03  0.54691598988E+03  0.24164280976E+03  0.83538485635E+03  0.50400001928E-02 0. -1.
</event>
<event>
 5   0  0.1736537E-04  0.1656927E+04  0.7818609E-02  0.8786319E-01
        1   -1    0    0  501    0  0.00000000000E+00  0.00000000000E+00  0.15860012807E+04  0.15860012807E+04  0.50400001928E-02 0. -1.
       -1   -1    0    0    0  501  0.00000000000E+00  0.00000000000E+00 -0.43275590615E+03  0.43275590618E+03  0.50400001928E-02 0.  1.
    10030    2    1    2    0    0  0.00000000000E+00  0.00000000000E+00  0.11532453745E+04  0.20187571868E+04  0.16569265782E+04 0.  0.
        3    1    3    3  502    0 -0.21963543330E+03  0.46696082010E+03  0.13662753666E+04  0.14604795509E+04  0.10100000352E+00 0. -1.
       -3    1    3    3    0  502  0.21963543330E+03 -0.46696082010E+03 -0.21302999208E+03  0.55827763594E+03  0.10100000352E+00 0.  1.
</event>
<event>
 5   0  0.1819811E-04  0.1633935E+04  0.7818609E-02  0.8799968E-01
       -1   -1    0    0    0  501  0.00000000000E+00  0.00000000000E+00  0.81601554302E+03  0.81601554304E+03  0.50400001928E-02 0. -1.
        1   -1    0    0  501    0  0.00000000000E+00  0.00000000000E+00 -0.81792008117E+03  0.81792008118E+03  0.50400001928E-02 0.  1.
    10030    2    1    2    0    0  0.00000000000E+00  0.00000000000E+00 -0.19045381420E+01  0.16339356242E+04  0.16339345142E+04 0.  0.
        1    1    3    3  502    0  0.80663314233E+03 -0.86047746884E+02 -0.97773087410E+02  0.81708066781E+03  0.50400001928E-02 0.  1.
       -1    1    3    3    0  502 -0.80663314233E+03  0.86047746884E+02  0.95868549268E+02  0.81685495641E+03  0.50400001928E-02 0. -1.
</event>
<event>
 5   0  0.3380454E-04  0.1602582E+04  0.7818609E-02  0.8818963E-01
       -2   -1    0    0    0  501  0.00000000000E+00  0.00000000000E+00  0.41450116911E+03  0.41450116911E+03  0.25500000920E-02 0. -1.
        2   -1    0    0  501    0  0.00000000000E+00  0.00000000000E+00 -0.15490118097E+04  0.15490118097E+04  0.25500000920E-02 0.  1.
    10030    2    1    2    0    0  0.00000000000E+00  0.00000000000E+00 -0.11345106406E+04  0.19635129788E+04  0.16025819244E+04 0.  0.
        5    1    3    3  502    0  0.48066413470E+02 -0.69150652400E+03 -0.10597161274E+04  0.12662985483E+04  0.46999998093E+01 0. -1.
       -5    1    3    3    0  502 -0.48066413470E+02  0.69150652400E+03 -0.74794513164E+02  0.69721443046E+03  0.46999998093E+01 0.  1.
</event>
<event>
 5   0  0.3274900E-04  0.1604950E+04  0.7818609E-02  0.8817513E-01
       -2   -1    0    0    0  501  0.00000000000E+00  0.00000000000E+00  0.42373285450E+03  0.42373285451E+03  0.25500000920E-02 0. -1.
        2   -1    0    0  501    0  0.00000000000E+00  0.00000000000E+00 -0.15197446426E+04  0.15197446426E+04  0.25500000920E-02 0.  1.
    10030    2    1    2    0    0  0.00000000000E+00  0.00000000000E+00 -0.10960117881E+04  0.19434774972E+04  0.16049495139E+04 0.  0.
        3    1    3    3  502    0  0.35023135678E+03 -0.34308662218E+03  0.22128605338E+03  0.53790144191E+03  0.10100000352E+00 0. -1.
       -3    1    3    3    0  502 -0.35023135678E+03  0.34308662218E+03 -0.13172978415E+04  0.14055760552E+04  0.10100000352E+00 0.  1.
</event>
<event>
 5   0  0.3228393E-04  0.1621755E+04  0.7818609E-02  0.8807294E-01
       -2   -1    0    0    0  501  0.00000000000E+00  0.00000000000E+00  0.29147690520E+03  0.29147690521E+03  0.25500000920E-02 0.  1.
        2   -1    0    0  501    0  0.00000000000E+00  0.00000000000E+00 -0.22558295681E+04  0.22558295681E+04  0.25500000920E-02 0. -1.
    10030    2    1    2    0    0  0.00000000000E+00  0.00000000000E+00 -0.19643526629E+04  0.25473064733E+04  0.16217548781E+04 0.  0.
        1    1    3    3  502    0 -0.10656627008E+03 -0.10376595342E+03 -0.22342188327E+04  0.22391644726E+04  0.50400001928E-02 0. -1.
       -1    1    3    3    0  502  0.10656627008E+03  0.10376595342E+03  0.26986616977E+03  0.30814200074E+03  0.50400001928E-02 0.  1.
</event>
<event>
 5   0  0.1761255E-04  0.1546432E+04  0.7818609E-02  0.8854150E-01
        1   -1    0    0  501    0  0.00000000000E+00  0.00000000000E+00  0.85505870097E+03  0.85505870098E+03  0.50400001928E-02 0. -1.
       -1   -1    0    0    0  501  0.00000000000E+00  0.00000000000E+00 -0.69920697646E+03  0.69920697648E+03  0.50400001928E-02 0.  1.
    10030    2    1    2    0    0  0.00000000000E+00  0.00000000000E+00  0.15585172451E+03  0.15542656775E+04  0.15464320341E+04 0.  0.
        2    1    3    3  502    0  0.28589395235E+03 -0.62722143104E+03 -0.27416418132E+03  0.74182752300E+03  0.25500000920E-02 0.  1.
       -2    1    3    3    0  502 -0.28589395235E+03  0.62722143104E+03  0.43001590583E+03  0.81243815446E+03  0.25500000920E-02 0. -1.
</event>
<event>
 5   0  0.1819811E-04  0.1599531E+04  0.7818609E-02  0.8820836E-01
       -1   -1    0    0    0  501  0.00000000000E+00  0.00000000000E+00  0.10613771621E+04  0.10613771621E+04  0.50400001928E-02 0.  1.
        1   -1    0    0  501    0  0.00000000000E+00  0.00000000000E+00 -0.60263673662E+03  0.60263673664E+03  0.50400001928E-02 0. -1.
    10030    2    1    2    0    0  0.00000000000E+00  0.00000000000E+00  0.45874042545E+03  0.16640138987E+04  0.15995310179E+04 0.  0.
        1    1    3    3  502    0 -0.26652407201E+03  0.44484790544E+03 -0.40402627662E+03  0.65739027385E+03  0.50400001928E-02 0. -1.
       -1    1    3    3    0  502  0.26652407201E+03 -0.44484790544E+03  0.86276670208E+03  0.10066236249E+04  0.50400001928E-02 0.  1.
</event>
<event>
 5   0  0.3380454E-04  0.1592374E+04  0.7818609E-02  0.8825247E-01
       -2   -1    0    0    0  501  0.00000000000E+00  0.00000000000E+00  0.91864534406E+03  0.91864534406E+03  0.25500000920E-02 0. -1.
        2   -1    0    0  501    0  0.00000000000E+00  0.00000000000E+00 -0.69005297572E+03  0.69005297572E+03  0.25500000920E-02 0.  1.
    10030    2    1    2    0    0  0.00000000000E+00  0.00000000000E+00  0.22859236834E+03  0.16086983198E+04  0.15923742692E+04 0.  0.
        5    1    3    3  502    0 -0.47739513367E+03  0.44628257190E+03 -0.34513790975E+03  0.73906462125E+03  0.46999998093E+01 0.  1.
       -5    1    3    3    0  502  0.47739513367E+03 -0.44628257190E+03  0.57373027809E+03  0.86963369854E+03  0.46999998093E+01 0. -1.
</event>
<event>
 5   0  0.1764099E-04  0.1421971E+04  0.7818609E-02  0.8938067E-01
        1   -1    0    0  501    0  0.00000000000E+00  0.00000000000E+00  0.10803404718E+04  0.10803404719E+04  0.50400001928E-02 0.  1.
       -1   -1    0    0    0  501  0.00000000000E+00  0.00000000000E+00 -0.46790843528E+03  0.46790843531E+03  0.50400001928E-02 0. -1.
    10030    2    1    2    0    0  0.00000000000E+00  0.00000000000E+00  0.61243203657E+03  0.15482489072E+04  0.14219710543E+04 0.  0.
        5    1    3    3  502    0 -0.19620185597E+03  0.32348271741E+03  0.96162052069E+03  0.10333790943E+04  0.46999998093E+01 0.  1.
       -5    1    3    3    0  502  0.19620185597E+03 -0.32348271741E+03 -0.34918848413E+03  0.51486981286E+03  0.46999998093E+01 0. -1.
</event>
<event>
 5   0  0.1787688E-04  0.1582736E+04  0.7818609E-02  0.8831224E-01
       -1   -1    0    0    0  501  0.00000000000E+00  0.00000000000E+00  0.14032080404E+04  0.14032080404E+04  0.50400001928E-02 0.  1.
        1   -1    0    0  501    0  0.00000000000E+00  0.00000000000E+00 -0.44630847729E+03  0.44630847732E+03  0.50400001928E-02 0. -1.
    10030    2    1    2    0    0  0.00000000000E+00  0.00000000000E+00  0.95689956310E+03  0.18495165177E+04  0.15827364201E+04 0.  0.
        4    1    3    3  502    0  0.53505419845E+03 -0.55347544722E+03  0.26410979229E+03  0.81386341682E+03  0.12699999809E+01 0. -1.
       -4    1    3    3    0  502 -0.53505419845E+03  0.55347544722E+03  0.69278977081E+03  0.10356531009E+04  0.12699999809E+01 0.  1.
</event>
<event>
 5   0  0.3274900E-04  0.1596363E+04  0.7818609E-02  0.8822785E-01
       -2   -1    0    0    0  501  0.00000000000E+00  0.00000000000E+00  0.56647085469E+03  0.56647085470E+03  0.25500000920E-02 0.  1.
        2   -1    0    0  501    0  0.00000000000E+00  0.00000000000E+00 -0.11246717861E+04  0.11246717861E+04  0.25500000920E-02 0. -1.
    10030    2    1    2    0    0  0.00000000000E+00  0.00000000000E+00 -0.55820093141E+03  0.16911426408E+04  0.15963631015E+04 0.  0.
        3    1    3    3  502    0 -0.51373220649E+03  0.43849038441E+03  0.17147429313E+03  0.69684864971E+03  0.10100000352E+00 0.  1.
       -3    1    3    3    0  502  0.51373220649E+03 -0.43849038441E+03 -0.72967522454E+03  0.99429399109E+03  0.10100000352E+00 0. -1.
</event>
<event>
 5   0  0.1219463E-04  0.1573503E+04  0.7818609E-02  0.8836993E-01
       -3   -1    0    0    0  501  0.00000000000E+00  0.00000000000E+00  0.48963726370E+03  0.48963727412E+03  0.10100000352E+00 0. -1.
        3   -1    0    0  501    0  0.00000000000E+00  0.00000000000E+00 -0.12641566369E+04  0.12641566410E+04  0.10100000352E+00 0.  1.
    10030    2    1    2    0    0  0.00000000000E+00  0.00000000000E+00 -0.77451937324E+03  0.17537939151E+04  0.15735033642E+04 0.  0.
        2    1    3    3  502    0  0.75209309257E+03 -0.19682520486E+03 -0.52190724177E+03  0.93636069449E+03  0.25500000920E-02 0.  1.
       -2    1    3    3    0  502 -0.75209309257E+03  0.19682520486E+03 -0.25261213147E+03  0.81743322060E+03  0.25500000920E-02 0. -1.
</event>
<event>
 5   0  0.3380454E-04  0.1600918E+04  0.7818609E-02  0.8819984E-01
       -2   -1    0    0    0  501  0.00000000000E+00  0.00000000000E+00  0.54039449651E+03  0.54039449652E+03  0.25500000920E-02 0.  1.
        2   -1    0    0  501    0  0.00000000000E+00  0.00000000000E+00 -0.11856790785E+04  0.11856790785E+04  0.25500000920E-02 0. -1.
    10030    2    1    2    0    0  0.00000000000E+00  0.00000000000E+00 -0.64528458194E+03  0.17260735750E+04  0.16009177976E+04 0.  0.
        5    1    3    3  502    0  0.56346609811E+03  0.19959625176E+03  0.25130842478E+03  0.64846798055E+03  0.46999998093E+01 0.  1.
       -5    1    3    3    0  502 -0.56346609811E+03 -0.19959625176E+03 -0.89659300672E+03  0.10776055944E+04  0.46999998093E+01 0. -1.
</event>
<event>
 5   0  0.3263294E-04  0.1572979E+04  0.7818609E-02  0.8837322E-01
       -2   -1    0    0    0  501  0.00000000000E+00  0.00000000000E+00  0.18696988786E+04  0.18696988786E+04  0.25500000920E-02 0. -1.
        2   -1    0    0  501    0  0.00000000000E+00  0.00000000000E+00 -0.33083708967E+03  0.33083708968E+03  0.25500000920E-02 0.  1.
    10030    2    1    2    0    0  0.00000000000E+00  0.00000000000E+00  0.15388617890E+04  0.22005359683E+04  0.15729790025E+04 0.  0.
        4    1    3    3  502    0 -0.75367037130E+03  0.15886361687E+03  0.99198197135E+03  0.12559006815E+04  0.12699999809E+01 0. -1.
       -4    1    3    3    0  502  0.75367037130E+03 -0.15886361687E+03  0.54687981763E+03  0.94463528685E+03  0.12699999809E+01 0.  1.
</event>
<event>
 5   0  0.3228393E-04  0.1614851E+04  0.7818609E-02  0.8811476E-01
        2   -1    0    0  501    0  0.00000000000E+00  0.00000000000E+00  0.11442744998E+04  0.11442744998E+04  0.25500000920E-02 0.  1.
       -2   -1    0    0    0  501  0.00000000000E+00  0.00000000000E+00 -0.56973735058E+03  0.56973735059E+03  0.25500000920E-02 0. -1.
    10030    2    1    2    0    0  0.00000000000E+00  0.00000000000E+00  0.57453714925E+03  0.17140118504E+04  0.16148509800E+04 0.  0.
        1    1    3    3  502    0 -0.18655103541E+03 -0.41801223505E+03 -0.41870610743E+03  0.62036305651E+03  0.50400001928E-02 0. -1.
       -1    1    3    3    0  502  0.18655103541E+03  0.41801223505E+03  0.99324325668E+03  0.10936487939E+04  0.50400001928E-02 0.  1.
</event>
<event>
 5   0  0.3228393E-04  0.1601595E+04  0.7818609E-02  0.8819569E-01
       -2   -1    0    0    0  501  0.00000000000E+00  0.00000000000E+00  0.98300518918E+03  0.98300518919E+03  0.25500000920E-02 0.  1.
        2   -1    0    0  501    0  0.00000000000E+00  0.00000000000E+00 -0.65236366330E+03  0.65236366331E+03  0.25500000920E-02 0. -1.
    10030    2    1    2    0    0  0.00000000000E+00  0.00000000000E+00  0.33064152588E+03  0.16353688525E+04  0.16015952875E+04 0.  0.
        1    1    3    3  502    0  0.77653736949E+03 -0.95567635294E+02 -0.89636622421E+01  0.78244731861E+03  0.50400001928E-02 0. -1.
       -1    1    3    3    0  502 -0.77653736949E+03  0.95567635294E+02  0.33960518813E+03  0.85292153388E+03  0.50400001928E-02 0.  1.
</event>
<event>
 5   0  0.1761255E-04  0.1598731E+04  0.7818609E-02  0.8821328E-01
       -1   -1    0    0    0  501  0.00000000000E+00  0.00000000000E+00  0.99224485912E+03  0.99224485913E+03  0.50400001928E-02 0. -1.
        1   -1    0    0  501    0  0.00000000000E+00  0.00000000000E+00 -0.64397965397E+03  0.64397965399E+03  0.50400001928E-02 0.  1.
    10030    2    1    2    0    0  0.00000000000E+00  0.00000000000E+00  0.34826520515E+03  0.16362245131E+04  0.15987313734E+04 0.  0.
        2    1    3    3  502    0 -0.70901354413E+03 -0.27991270208E+03 -0.72207324615E+02  0.76567958330E+03  0.25500000920E-02 0.  1.
       -2    1    3    3    0  502  0.70901354413E+03  0.27991270208E+03  0.42047252976E+03  0.87054492982E+03  0.25500000920E-02 0. -1.
</event>
<event>
 5   0  0.3228393E-04  0.1598686E+04  0.7818609E-02  0.8821355E-01
       -2   -1    0    0    0  501  0.00000000000E+00  0.00000000000E+00  0.39783985818E+03  0.39783985818E+03  0.25500000920E-02 0. -1.
        2   -1    0    0  501    0  0.00000000000E+00  0.00000000000E+00 -0.16060471761E+04  0.16060471761E+04  0.25500000920E-02 0.  1.
    10030    2    1    2    0    0  0.00000000000E+00  0.00000000000E+00 -0.12082073179E+04  0.20038870343E+04  0.15986864368E+04 0.  0.
        1    1    3    3  502    0  0.53545571255E+03  0.40100338310E+03 -0.11525301204E+04  0.13326072985E+04  0.50400001928E-02 0.  1.
       -1    1    3    3    0  502 -0.53545571255E+03 -0.40100338310E+03 -0.55677197470E+02  0.67127973581E+03  0.50400001928E-02 0. -1.
</event>
<event>
 5   0  0.1764099E-04  0.1605134E+04  0.7818609E-02  0.8817400E-01
       -1   -1    0    0    0  501  0.00000000000E+00  0.00000000000E+00  0.68494533244E+03  0.68494533246E+03  0.50400001928E-02 0.  1.
        1   -1    0    0  501    0  0.00000000000E+00  0.00000000000E+00 -0.94038716400E+03  0.94038716402E+03  0.50400001928E-02 0. -1.
    10030    2    1    2    0    0  0.00000000000E+00  0.00000000000E+00 -0.25544183156E+03  0.16253324965E+04  0.16051340115E+04 0.  0.
        5    1    3    3  502    0 -0.40114228195E+03  0.42099050792E+03  0.43236104735E+03  0.72464218990E+03  0.46999998093E+01 0.  1.
       -5    1    3    3    0  502  0.40114228195E+03 -0.42099050792E+03 -0.68780287891E+03  0.90069030657E+03  0.46999998093E+01 0. -1.
</event>
<event>
 5   0  0.1736537E-04  0.1605149E+04  0.7818609E-02  0.8817391E-01
        1   -1    0    0  501    0  0.00000000000E+00  0.00000000000E+00  0.73412730655E+03  0.73412730657E+03  0.50400001928E-02 0.  1.
       -1   -1    0    0    0  501  0.00000000000E+00  0.00000000000E+00 -0.87740350778E+03  0.87740350779E+03  0.50400001928E-02 0. -1.
    10030    2    1    2    0    0  0.00000000000E+00  0.00000000000E+00 -0.14327620123E+03  0.16115308144E+04  0.16051490572E+04 0.  0.
        3    1    3    3  502    0  0.67029883991E+03 -0.15618314665E+03 -0.48611374185E+03  0.84261514958E+03  0.10100000352E+00 0. -1.
       -3    1    3    3    0  502 -0.67029883991E+03  0.15618314665E+03  0.34283754063E+03  0.76891566478E+03  0.10100000352E+00 0.  1.
</event>
<event>
 5   0  0.3263294E-04  0.1612937E+04  0.7818609E-02  0.8812639E-01
        2   -1    0    0  501    0  0.00000000000E+00  0.00000000000E+00  0.57529136037E+03  0.57529136038E+03  0.25500000920E-02 0. -1.
       -2   -1    0    0    0  501  0.00000000000E+00  0.00000000000E+00 -0.11305428792E+04  0.11305428792E+04  0.25500000920E-02 0.  1.
    10030    2    1    2    0    0  0.00000000000E+00  0.00000000000E+00 -0.55525151879E+03  0.17058342395E+04  0.16129371357E+04 0.  0.
        4    1    3    3  502    0  0.11847411683E+03 -0.67053547472E+03 -0.73464387020E+03  0.10016771776E+04  0.12699999809E+01 0.  1.
       -4    1    3    3    0  502 -0.11847411683E+03  0.67053547472E+03  0.17939235142E+03  0.70415706193E+03  0.12699999809E+01 0. -1.
</event>
<event>
 5   0  0.1787688E-04  0.1594574E+04  0.7818609E-02  0.8823888E-01
       -1   -1    0    0    0  501  0.00000000000E+00  0.00000000000E+00  0.50391936384E+03  0.50391936386E+03  0.50400001928E-02 0. -1.
        1   -1    0    0  501    0  0.00000000000E+00  0.00000000000E+00 -0.12614456846E+04  0.12614456846E+04  0.50400001928E-02 0.  1.
    10030    2    1    2    0    0  0.00000000000E+00  0.00000000000E+00 -0.75752632075E+03  0.17653650485E+04  0.15945744347E+04 0.  0.
        4    1    3    3  502    0 -0.10491226883E+03  0.75323557422E+03 -0.11376208724E+03  0.76896933607E+03  0.12699999809E+01 0.  1.
       -4    1    3    3    0  502  0.10491226883E+03 -0.75323557422E+03 -0.64376423351E+03  0.99639571239E+03  0.12699999809E+01 0. -1.
</event>
<event>
 5   0  0.3274900E-04  0.1622199E+04  0.7818609E-02  0.8807025E-01
       -2   -1    0    0    0  501  0.00000000000E+00  0.00000000000E+00  0.35472781809E+03  0.35472781810E+03  0.25500000920E-02 0.  1.
        2   -1    0    0  501    0  0.00000000000E+00  0.00000000000E+00 -0.18546124860E+04  0.18546124860E+04  0.25500000920E-02 0. -1.
    10030    2    1    2    0    0  0.00000000000E+00  0.00000000000E+00 -0.14998846679E+04  0.22093403041E+04  0.16221992979E+04 0.  0.
        3    1    3    3  502    0 -0.34767987614E+03  0.71043525311E+03 -0.50523559890E+03  0.93854278844E+03  0.10100000352E+00 0.  1.
       -3    1    3    3    0  502  0.34767987614E+03 -0.71043525311E+03 -0.99464906896E+03  0.12707975156E+04  0.10100000352E+00 0. -1.
</event>
<event>
 5   0  0.3274900E-04  0.1622254E+04  0.7818609E-02  0.8806992E-01
        2   -1    0    0  501    0  0.00000000000E+00  0.00000000000E+00  0.82117055876E+03  0.82117055877E+03  0.25500000920E-02 0. -1.
       -2   -1    0    0    0  501  0.00000000000E+00  0.00000000000E+00 -0.80120654876E+03  0.80120654877E+03  0.25500000920E-02 0.  1.
    10030    2    1    2    0    0  0.00000000000E+00  0.00000000000E+00  0.19964009998E+02  0.16223771075E+04  0.16222542703E+04 0.  0.
        3    1    3    3  502    0  0.32881567762E+03 -0.37312150263E+03 -0.63083777890E+03  0.80330300576E+03  0.10100000352E+00 0.  1.
       -3    1    3    3    0  502 -0.32881567762E+03  0.37312150263E+03  0.65080178889E+03  0.81907410178E+03  0.10100000352E+00 0. -1.
</event>
<event>
 5   0  0.3274900E-04  0.1610922E+04  0.7818609E-02  0.8813866E-01
       -2   -1    0    0    0  501  0.00000000000E+00  0.00000000000E+00  0.35892573350E+03  0.35892573351E+03  0.25500000920E-02 0.  1.
        2   -1    0    0  501    0  0.00000000000E+00  0.00000000000E+00 -0.18075254860E+04  0.18075254860E+04  0.25500000920E-02 0. -1.
    10030    2    1    2    0    0  0.00000000000E+00  0.00000000000E+00 -0.14485997525E+04  0.21664512195E+04  0.16109219856E+04 0.  0.
        3    1    3    3  502    0  0.26636794653E+03 -0.22457041456E+03 -0.17009471351E+04  0.17362617662E+04  0.10100000352E+00 0. -1.
       -3    1    3    3    0  502 -0.26636794653E+03  0.22457041456E+03  0.25234738262E+03  0.43018945332E+03  0.10100000352E+00 0.  1.
</event>
<event>
 5   0  0.1761255E-04  0.1603433E+04  0.7818609E-02  0.8818442E-01
       -1   -1    0    0    0  501  0.00000000000E+00  0.00000000000E+00  0.39474593090E+03  0.39474593093E+03  0.50400001928E-02 0.  1.
        1   -1    0    0  501    0  0.00000000000E+00  0.00000000000E+00 -0.16282609537E+04  0.16282609537E+04  0.50400001928E-02 0. -1.
    10030    2    1    2    0    0  0.00000000000E+00  0.00000000000E+00 -0.12335150228E+04  0.20230068847E+04  0.16034330494E+04 0.  0.
        2    1    3    3  502    0  0.57382545375E+03 -0.10369267700E+03  0.77416273321E+02  0.58823558377E+03  0.25500000920E-02 0.  1.
       -2    1    3    3    0  502 -0.57382545375E+03  0.10369267700E+03 -0.13109312962E+04  0.14347713009E+04  0.25500000920E-02 0. -1.
</event>
<event>
 5   0  0.3380454E-04  0.1618330E+04  0.7818609E-02  0.8809366E-01
        2   -1    0    0  501    0  0.00000000000E+00  0.00000000000E+00  0.14498299669E+04  0.14498299669E+04  0.25500000920E-02 0.  1.
       -2   -1    0    0    0  501  0.00000000000E+00  0.00000000000E+00 -0.45160340333E+03  0.45160340333E+03  0.25500000920E-02 0. -1.
    10030    2    1    2    0    0  0.00000000000E+00  0.00000000000E+00  0.99822656360E+03  0.19014333703E+04  0.16183301855E+04 0.  0.
        5    1    3    3  502    0 -0.78263187235E+03  0.13802678067E+03  0.32029901360E+03  0.85684163526E+03  0.46999998093E+01 0. -1.
       -5    1    3    3    0  502  0.78263187235E+03 -0.13802678067E+03  0.67792755000E+03  0.10445917350E+04  0.46999998093E+01 0.  1.
</event>
<event>
 5   0  0.3380454E-04  0.1607513E+04  0.7818609E-02  0.8815946E-01
       -2   -1    0    0    0  501  0.00000000000E+00  0.00000000000E+00  0.31532076159E+03  0.31532076160E+03  0.25500000920E-02 0.  1.
        2   -1    0    0  501    0  0.00000000000E+00  0.00000000000E+00 -0.20487845940E+04  0.20487845940E+04  0.25500000920E-02 0. -1.
    10030    2    1    2    0    0  0.00000000000E+00  0.00000000000E+00 -0.17334638324E+04  0.23641053556E+04  0.16075127602E+04 0.  0.
        5    1    3    3  502    0 -0.75380135695E+02  0.67933646617E+03 -0.14886352823E+04  0.16380590017E+04  0.46999998093E+01 0. -1.
       -5    1    3    3    0  502  0.75380135695E+02 -0.67933646617E+03 -0.24482855006E+03  0.72604635392E+03  0.46999998093E+01 0.  1.
</event>
<event>
 5   0  0.3263294E-04  0.1612217E+04  0.7818609E-02  0.8813077E-01
        2   -1    0    0  501    0  0.00000000000E+00  0.00000000000E+00  0.12060737014E+04  0.12060737014E+04  0.25500000920E-02 0.  1.
       -2   -1    0    0    0  501  0.00000000000E+00  0.00000000000E+00 -0.53878233780E+03  0.53878233781E+03  0.25500000920E-02 0. -1.
    10030    2    1    2    0    0  0.00000000000E+00  0.00000000000E+00  0.66729136358E+03  0.17448560392E+04  0.16122173655E+04 0.  0.
        4    1    3    3  502    0 -0.77112245336E+03  0.17087381011E+03  0.15919549184E+03  0.80571242672E+03  0.12699999809E+01 0. -1.
       -4    1    3    3    0  502  0.77112245336E+03 -0.17087381011E+03  0.50809587174E+03  0.93914361247E+03  0.12699999809E+01 0.  1.
</event>
<event>
 5   0  0.3263294E-04  0.1637178E+04  0.7818609E-02  0.8798028E-01
        2   -1    0    0  501    0  0.00000000000E+00  0.00000000000E+00  0.23890882030E+04  0.23890882030E+04  0.25500000920E-02 0. -1.
       -2   -1    0    0    0  501  0.00000000000E+00  0.00000000000E+00 -0.28047857873E+03  0.28047857874E+03  0.25500000920E-02 0.  1.
    10030    2    1    2    0    0  0.00000000000E+00  0.00000000000E+00  0.21086096243E+04  0.26695667818E+04  0.16371781377E+04 0.  0.
        4    1    3    3  502    0 -0.41903937625E+03  0.67725722107E+03  0.74571755509E+03  0.10910397001E+04  0.12699999809E+01 0. -1.
       -4    1    3    3    0  502  0.41903937625E+03 -0.67725722107E+03  0.13628920692E+04  0.15785270817E+04  0.12699999809E+01 0.  1.
</event>
<event>
 5   0  0.1761255E-04  0.1597646E+04  0.7818609E-02  0.8821996E-01
       -1   -1    0    0    0  501  0.00000000000E+00  0.00000000000E+00  0.68090234322E+03  0.68090234323E+03  0.50400001928E-02 0.  1.
        1   -1    0    0  501    0  0.00000000000E+00  0.00000000000E+00 -0.93716507645E+03  0.93716507647E+03  0.50400001928E-02 0. -1.
    10030    2    1    2    0    0  0.00000000000E+00  0.00000000000E+00 -0.25626273324E+03  0.16180674197E+04  0.15976456385E+04 0.  0.
        2    1    3    3  502    0  0.60400517207E+03 -0.13393068436E+03 -0.63992051922E+03  0.89008872986E+03  0.25500000920E-02 0. -1.
       -2    1    3    3    0  502 -0.60400517207E+03  0.13393068436E+03  0.38365778599E+03  0.72797868984E+03  0.25500000920E-02 0.  1.
</event>
<event>
 5   0  0.3274900E-04  0.1574527E+04  0.7818609E-02  0.8836352E-01
        2   -1    0    0  501    0  0.00000000000E+00  0.00000000000E+00  0.82646204314E+03  0.82646204315E+03  0.25500000920E-02 0. -1.
       -2   -1    0    0    0  501  0.00000000000E+00  0.00000000000E+00 -0.74992432685E+03  0.74992432685E+03  0.25500000920E-02 0.  1.
    10030    2    1    2    0    0  0.00000000000E+00  0.00000000000E+00  0.76537716292E+02  0.15763863700E+04  0.15745272197E+04 0.  0.
        3    1    3    3  502    0  0.40547270323E+03 -0.58047520804E+03 -0.30626594329E+03  0.77146511161E+03  0.10100000352E+00 0.  1.
       -3    1    3    3    0  502 -0.40547270323E+03  0.58047520804E+03  0.38280365958E+03  0.80492125839E+03  0.10100000352E+00 0. -1.
</event>
<event>
 5   0  0.1787688E-04  0.1591769E+04  0.7818609E-02  0.8825621E-01
        1   -1    0    0  501    0  0.00000000000E+00  0.00000000000E+00  0.18666941088E+04  0.18666941088E+04  0.50400001928E-02 0. -1.
       -1   -1    0    0    0  501  0.00000000000E+00  0.00000000000E+00 -0.33933349276E+03  0.33933349279E+03  0.50400001928E-02 0.  1.
    10030    2    1    2    0    0  0.00000000000E+00  0.00000000000E+00  0.15273606161E+04  0.22060276016E+04  0.15917686162E+04 0.  0.
        4    1    3    3  502    0 -0.94200356764E+02  0.48115113825E+03  0.16325506163E+04  0.17045830143E+04  0.12699999809E+01 0. -1.
       -4    1    3    3    0  502  0.94200356764E+02 -0.48115113825E+03 -0.10519000025E+03  0.50144458728E+03  0.12699999809E+01 0.  1.
</event>
<event>
 5   0  0.3228393E-04  0.1604252E+04  0.7818609E-02  0.8817940E-01
        2   -1    0    0  501    0  0.00000000000E+00  0.00000000000E+00  0.52558149421E+03  0.52558149422E+03  0.25500000920E-02 0. -1.
       -2   -1    0    0    0  501  0.00000000000E+00  0.00000000000E+00 -0.12241792627E+04  0.12241792627E+04  0.25500000920E-02 0.  1.
    10030    2    1    2    0    0  0.00000000000E+00  0.00000000000E+00 -0.69859776844E+03  0.17497607569E+04  0.16042518082E+04 0.  0.
        1    1    3    3  502    0  0.67496787540E+02  0.79072373067E+03 -0.22207358942E+03  0.82408525877E+03  0.50400001928E-02 0.  1.
       -1    1    3    3    0  502 -0.67496787540E+02 -0.79072373067E+03 -0.47652417902E+03  0.92567549811E+03  0.50400001928E-02 0. -1.
</event>
<event>
 5   0  0.3210612E-04  0.1649646E+04  0.7818609E-02  0.8790616E-01
        2   -1    0    0  501    0  0.00000000000E+00  0.00000000000E+00  0.10084082804E+04  0.10084082804E+04  0.25500000920E-02 0. -1.
       -2   -1    0    0    0  501  0.00000000000E+00  0.00000000000E+00 -0.67466047834E+03  0.67466047835E+03  0.25500000920E-02 0.  1.
    10030    2    1    2    0    0  0.00000000000E+00  0.00000000000E+00  0.33374780205E+03  0.16830687587E+04  0.16496462806E+04 0.  0.
        2    1    3    3  502    0 -0.73829539678E+03 -0.69905527988E+02 -0.20150416038E+03  0.76848604568E+03  0.25500000920E-02 0.  1.
       -2    1    3    3    0  502  0.73829539678E+03  0.69905527988E+02  0.53525196242E+03  0.91458271306E+03  0.25500000920E-02 0. -1.
</event>
<event>
 5   0  0.1787688E-04  0.1618713E+04  0.7818609E-02  0.8809134E-01
        1   -1    0    0  501    0  0.00000000000E+00  0.00000000000E+00  0.16225843171E+04  0.16225843171E+04  0.50400001928E-02 0.  1.
       -1   -1    0    0    0  501  0.00000000000E+00  0.00000000000E+00 -0.40371259590E+03  0.40371259593E+03  0.50400001928E-02 0. -1.
    10030    2    1    2    0    0  0.00000000000E+00  0.00000000000E+00  0.12188717212E+04  0.20262969130E+04  0.16187127314E+04 0.  0.
        4    1    3    3  502    0  0.32656100938E+03  0.70514548976E+03  0.32623157921E+03  0.84279351608E+03  0.12699999809E+01 0. -1.
       -4    1    3    3    0  502 -0.32656100938E+03 -0.70514548976E+03  0.89264014196E+03  0.11835033969E+04  0.12699999809E+01 0.  1.
</event>
<event>
 5   0  0.1761255E-04  0.1601418E+04  0.7818609E-02  0.8819677E-01
        1   -1    0    0  501    0  0.00000000000E+00  0.00000000000E+00  0.67169690710E+03  0.67169690712E+03  0.50400001928E-02 0.  1.
       -1   -1    0    0    0  501  0.00000000000E+00  0.00000000000E+00 -0.95450007991E+03  0.95450007992E+03  0.50400001928E-02 0. -1.
    10030    2    1    2    0    0  0.00000000000E+00  0.00000000000E+00 -0.28280317281E+03  0.16261969870E+04  0.16014178112E+04 0.  0.
        2    1    3    3  502    0  0.64798343897E+03 -0.98640042209E+02  0.32563041048E+03  0.73187947050E+03  0.25500000920E-02 0.  1.
       -2    1    3    3    0  502 -0.64798343897E+03  0.98640042209E+02 -0.60843358329E+03  0.89431751654E+03  0.25500000920E-02 0. -1.
</event>
<event>
 5   0  0.3263294E-04  0.1600959E+04  0.7818609E-02  0.8819959E-01
       -2   -1    0    0    0  501  0.00000000000E+00  0.00000000000E+00  0.53439035471E+03  0.53439035472E+03  0.25500000920E-02 0.  1.
        2   -1    0    0  501    0  0.00000000000E+00  0.00000000000E+00 -0.11990619226E+04  0.11990619226E+04  0.25500000920E-02 0. -1.
    10030    2    1    2    0    0  0.00000000000E+00  0.00000000000E+00 -0.66467156789E+03  0.17334522773E+04  0.16009586205E+04 0.  0.
        4    1    3    3  502    0 -0.40547532489E+02  0.30286417344E+02 -0.11973267918E+04  0.11983966074E+04  0.12699999809E+01 0. -1.
       -4    1    3    3    0  502  0.40547532489E+02 -0.30286417344E+02  0.53265522389E+03  0.53505566991E+03  0.12699999809E+01 0.  1.
</event>
<event>
 5   0  0.3263294E-04  0.1619002E+04  0.7818609E-02  0.8808959E-01
        2   -1    0    0  501    0  0.00000000000E+00  0.00000000000E+00  0.68463924208E+03  0.68463924208E+03  0.25500000920E-02 0.  1.
       -2   -1    0    0    0  501  0.00000000000E+00  0.00000000000E+00 -0.95713428300E+03  0.95713428300E+03  0.25500000920E-02 0. -1.
    10030    2    1    2    0    0  0.00000000000E+00  0.00000000000E+00 -0.27249504092E+03  0.16417735251E+04  0.16190017790E+04 0.  0.
        4    1    3    3  502    0 -0.27428213410E+03 -0.73126674090E+03 -0.35209898809E+03  0.85671293077E+03  0.12699999809E+01 0. -1.
       -4    1    3    3    0  502  0.27428213410E+03  0.73126674090E+03  0.79603947173E+02  0.78506059431E+03  0.12699999809E+01 0.  1.
</event>
<event>
 5   0  0.1787688E-04  0.1592448E+04  0.7818609E-02  0.8825201E-01
        1   -1    0    0  501    0  0.00000000000E+00  0.00000000000E+00  0.82451715886E+03  0.82451715888E+03  0.50400001928E-02 0. -1.
       -1   -1    0    0    0  501  0.00000000000E+00  0.00000000000E+00 -0.76890180768E+03  0.76890180770E+03  0.50400001928E-02 0.  1.
    10030    2    1    2    0    0  0.00000000000E+00  0.00000000000E+00  0.55615351180E+02  0.15934189666E+04  0.15924480951E+04 0.  0.
        4    1    3    3  502    0  0.43093928549E+03  0.56186757321E+03  0.39212755960E+03  0.80942539713E+03  0.12699999809E+01 0. -1.
       -4    1    3    3    0  502 -0.43093928549E+03 -0.56186757321E+03 -0.33651220842E+03  0.78399356945E+03  0.12699999809E+01 0.  1.
</event>
<event>
 5   0  0.1761255E-04  0.1509197E+04  0.7818609E-02  0.8878360E-01
        1   -1    0    0  501    0  0.00000000000E+00  0.00000000000E+00  0.16716017977E+04  0.16716017977E+04  0.50400001928E-02 0. -1.
       -1   -1    0    0    0  501  0.00000000000E+00  0.00000000000E+00 -0.34064268914E+03  0.34064268917E+03  0.50400001928E-02 0.  1.
    10030    2    1    2    0    0  0.00000000000E+00  0.00000000000E+00  0.13309591086E+04  0.20122444869E+04  0.15091970469E+04 0.  0.
        2    1    3    3  502    0 -0.92841912355E+02 -0.60965505718E+03  0.85645718773E+02  0.62260268115E+03  0.25500000920E-02 0.  1.
       -2    1    3    3    0  502  0.92841912355E+02  0.60965505718E+03  0.12453133898E+04  0.13896418057E+04  0.25500000920E-02 0. -1.
</event>
<event>
 5   0  0.3380454E-04  0.1601303E+04  0.7818609E-02  0.8819748E-01
        2   -1    0    0  501    0  0.00000000000E+00  0.00000000000E+00  0.16430450332E+04  0.16430450332E+04  0.25500000920E-02 0. -1.
       -2   -1    0    0    0  501  0.00000000000E+00  0.00000000000E+00 -0.39015559976E+03  0.39015559976E+03  0.25500000920E-02 0.  1.
    10030    2    1    2    0    0  0.00000000000E+00  0.00000000000E+00  0.12528894334E+04  0.20332006329E+04  0.16013034945E+04 0.  0.
        5    1    3    3  502    0  0.20052956789E+03  0.55001107428E+03 -0.67030447158E+02  0.58927027778E+03  0.46999998093E+01 0.  1.
       -5    1    3    3    0  502 -0.20052956789E+03 -0.55001107428E+03  0.13199198806E+04  0.14439303551E+04  0.46999998093E+01 0. -1.
</event>
<event>
 5   0  0.3380454E-04  0.1600546E+04  0.7818609E-02  0.8820212E-01
        2   -1    0    0  501    0  0.00000000000E+00  0.00000000000E+00  0.12314503853E+04  0.12314503853E+04  0.25500000920E-02 0. -1.
       -2   -1    0    0    0  501  0.00000000000E+00  0.00000000000E+00 -0.52006735016E+03  0.52006735016E+03  0.25500000920E-02 0.  1.
    10030    2    1    2    0    0  0.00000000000E+00  0.00000000000E+00  0.71138303513E+03  0.17515177355E+04  0.16005463301E+04 0.  0.
        5    1    3    3  502    0 -0.37231816089E+03 -0.70714375244E+03  0.31001804513E+03  0.85720847981E+03  0.46999998093E+01 0.  1.
       -5    1    3    3    0  502  0.37231816089E+03  0.70714375244E+03  0.40136499000E+03  0.89430925565E+03  0.46999998093E+01 0. -1.
</event>
<event>
 5   0  0.1764099E-04  0.1601366E+04  0.7818609E-02  0.8819710E-01
        1   -1    0    0  501    0  0.00000000000E+00  0.00000000000E+00  0.76202777848E+03  0.76202777850E+03  0.50400001928E-02 0. -1.
       -1   -1    0    0    0  501  0.00000000000E+00  0.00000000000E+00 -0.84129863041E+03  0.84129863042E+03  0.50400001928E-02 0.  1.
    10030    2    1    2    0    0  0.00000000000E+00  0.00000000000E+00 -0.79270851926E+02  0.16033264089E+04  0.16013655752E+04 0.  0.
        5    1    3    3  502    0  0.66557910907E+03  0.31095150613E+03 -0.35843455464E+03  0.81742510945E+03  0.46999998093E+01 0.  1.
       -5    1    3    3    0  502 -0.66557910907E+03 -0.31095150613E+03  0.27916370271E+03  0.78590129947E+03  0.46999998093E+01 0. -1.
</event>
<event>
 5   0  0.3210612E-04  0.1578251E+04  0.7818609E-02  0.8834022E-01
       -2   -1    0    0    0  501  0.00000000000E+00  0.00000000000E+00  0.76775117166E+03  0.76775117166E+03  0.25500000920E-02 0.  1.
        2   -1    0    0  501    0  0.00000000000E+00  0.00000000000E+00 -0.81109530671E+03  0.81109530672E+03  0.25500000920E-02 0. -1.
    10030    2    1    2    0    0  0.00000000000E+00  0.00000000000E+00 -0.43344135053E+02  0.15788464784E+04  0.15782514021E+04 0.  0.
        2    1    3    3  502    0  0.22900622882E+03 -0.53198480875E+03  0.51450360390E+03  0.77470358720E+03  0.25500000920E-02 0.  1.
       -2    1    3    3    0  502 -0.22900622882E+03  0.53198480875E+03 -0.55784773896E+03  0.80414289119E+03  0.25500000920E-02 0. -1.
</event>
<event>
 5   0  0.1787688E-04  0.1602883E+04  0.7818609E-02  0.8818779E-01
       -1   -1    0    0    0  501  0.00000000000E+00  0.00000000000E+00  0.98143506048E+03  0.98143506049E+03  0.50400001928E-02 0.  1.
        1   -1    0    0  501    0  0.00000000000E+00  0.00000000000E+00 -0.65445839753E+03  0.65445839755E+03  0.50400001928E-02 0. -1.
    10030    2    1    2    0    0  0.00000000000E+00  0.00000000000E+00  0.32697666294E+03  0.16358934580E+04  0.16028829240E+04 0.  0.
        4    1    3    3  502    0 -0.15260844032E+03 -0.23230663010E+03 -0.60369131946E+03  0.66460554356E+03  0.12699999809E+01 0. -1.
       -4    1    3    3    0  502  0.15260844032E+03  0.23230663010E+03  0.93066798240E+03  0.97128791448E+03  0.12699999809E+01 0.  1.
</event>
<event>
 5   0  0.3274900E-04  0.1536667E+04  0.7818609E-02  0.8860429E-01
        2   -1    0    0  501    0  0.00000000000E+00  0.00000000000E+00  0.39927815797E+03  0.39927815798E+03  0.25500000920E-02 0. -1.
       -2   -1    0    0    0  501  0.00000000000E+00  0.00000000000E+00 -0.14785099102E+04  0.14785099102E+04  0.25500000920E-02 0.  1.
    10030    2    1    2    0    0  0.00000000000E+00  0.00000000000E+00 -0.10792317522E+04  0.18777880682E+04  0.15366674507E+04 0.  0.
        3    1    3    3  502    0 -0.12894815523E+03 -0.71419897238E+03 -0.23137239153E+03  0.76173551358E+03  0.10100000352E+00 0. -1.
       -3    1    3    3    0  502  0.12894815523E+03  0.71419897238E+03 -0.84785936071E+03  0.11160525546E+04  0.10100000352E+00 0.  1.
</event>
<event>
 5   0  0.1219463E-04  0.1598399E+04  0.7818609E-02  0.8821532E-01
        4   -1    0    0  501    0  0.00000000000E+00  0.00000000000E+00  0.51176547126E+03  0.51176704708E+03  0.12699999809E+01 0. -1.
       -4   -1    0    0    0  501  0.00000000000E+00  0.00000000000E+00 -0.12480675057E+04  0.12480681518E+04  0.12699999809E+01 0.  1.
    10030    2    1    2    0    0  0.00000000000E+00  0.00000000000E+00 -0.73630203443E+03  0.17598351989E+04  0.15983989619E+04 0.  0.
        2    1    3    3  502    0 -0.64503281431E+03  0.39880419198E+03 -0.64582912490E+03  0.99609606648E+03  0.25500000920E-02 0. -1.
       -2    1    3    3    0  502  0.64503281431E+03 -0.39880419198E+03 -0.90472909531E+02  0.76373913245E+03  0.25500000920E-02 0.  1.
</event>
<event>
 5   0  0.3210612E-04  0.1602570E+04  0.7818609E-02  0.8818971E-01
        2   -1    0    0  501    0  0.00000000000E+00  0.00000000000E+00  0.16435973527E+04  0.16435973527E+04  0.25500000920E-02 0. -1.
       -2   -1    0    0    0  501  0.00000000000E+00  0.00000000000E+00 -0.39064151628E+03  0.39064151629E+03  0.25500000920E-02 0.  1.
    10030    2    1    2    0    0  0.00000000000E+00  0.00000000000E+00  0.12529558364E+04  0.20342388689E+04  0.16025696391E+04 0.  0.
        2    1    3    3  502    0 -0.73950268762E+03  0.23022708494E+03  0.36575288569E+03  0.85653015652E+03  0.25500000920E-02 0.  1.
       -2    1    3    3    0  502  0.73950268762E+03 -0.23022708494E+03  0.88720295068E+03  0.11777087124E+04  0.25500000920E-02 0. -1.
</event>
<event>
 5   0  0.1736537E-04  0.1608684E+04  0.7818609E-02  0.8815231E-01
       -1   -1    0    0    0  501  0.00000000000E+00  0.00000000000E+00  0.10010597702E+04  0.10010597702E+04  0.50400001928E-02 0. -1.
        1   -1    0    0  501    0  0.00000000000E+00  0.00000000000E+00 -0.64628077953E+03  0.64628077955E+03  0.50400001928E-02 0.  1.
    10030    2    1    2    0    0  0.00000000000E+00  0.00000000000E+00  0.35477899069E+03  0.16473405498E+04  0.16086835471E+04 0.  0.
        3    1    3    3  502    0  0.47321950418E+02 -0.59875496354E+03  0.72523972868E+03  0.94165787185E+03  0.10100000352E+00 0. -1.
       -3    1    3    3    0  502 -0.47321950418E+02  0.59875496354E+03 -0.37046073799E+03  0.70568267794E+03  0.10100000352E+00 0.  1.
</event>
<event>
 5   0  0.3210612E-04  0.1602373E+04  0.7818609E-02  0.8819091E-01
       -2   -1    0    0    0  501  0.00000000000E+00  0.00000000000E+00  0.62553362601E+03  0.62553362602E+03  0.25500000920E-02 0.  1.
        2   -1    0    0  501    0  0.00000000000E+00  0.00000000000E+00 -0.10261635964E+04  0.10261635964E+04  0.25500000920E-02 0. -1.
    10030    2    1    2    0    0  0.00000000000E+00  0.00000000000E+00 -0.40062997036E+03  0.16516972224E+04  0.16023730344E+04 0.  0.
        2    1    3    3  502    0 -0.48965499623E+03  0.44765588701E+03  0.26266796768E+03  0.71354906612E+03  0.25500000920E-02 0.  1.
       -2    1    3    3    0  502  0.48965499623E+03 -0.44765588701E+03 -0.66329793804E+03  0.93814815628E+03  0.25500000920E-02 0. -1.
</event>
<event>
 5   0  0.1764099E-04  0.1588529E+04  0.7818609E-02  0.8827626E-01
       -1   -1    0    0    0  501  0.00000000000E+00  0.00000000000E+00  0.42745379450E+03  0.42745379453E+03  0.50400001928E-02 0.  1.
        1   -1    0    0  501    0  0.00000000000E+00  0.00000000000E+00 -0.14758468192E+04  0.14758468192E+04  0.50400001928E-02 0. -1.
    10030    2    1    2    0    0  0.00000000000E+00  0.00000000000E+00 -0.10483930247E+04  0.19033006137E+04  0.15885292858E+04 0.  0.
        5    1    3    3  502    0  0.30832537143E+03  0.51701085909E+03 -0.11450078140E+04  0.12936111267E+04  0.46999998093E+01 0. -1.
       -5    1    3    3    0  502 -0.30832537143E+03 -0.51701085909E+03  0.96614789271E+02  0.60968948703E+03  0.46999998093E+01 0.  1.
</event>
<event>
 5   0  0.1787688E-04  0.1608744E+04  0.7818609E-02  0.8815194E-01
       -1   -1    0    0    0  501  0.00000000000E+00  0.00000000000E+00  0.72392269838E+03  0.72392269840E+03  0.50400001928E-02 0. -1.
        1   -1    0    0  501    0  0.00000000000E+00  0.00000000000E+00 -0.89376195949E+03  0.89376195950E+03  0.50400001928E-02 0.  1.
    10030    2    1    2    0    0  0.00000000000E+00  0.00000000000E+00 -0.16983926110E+03  0.16176846579E+04  0.16087443171E+04 0.  0.
        4    1    3    3  502    0 -0.18376345945E+03 -0.54773475686E+03  0.47786071365E+03  0.74975652545E+03  0.12699999809E+01 0. -1.
       -4    1    3    3    0  502  0.18376345945E+03  0.54773475686E+03 -0.64769997475E+03  0.86792813245E+03  0.12699999809E+01 0.  1.
</event>
<event>
 5   0  0.3274900E-04  0.1583034E+04  0.7818609E-02  0.8831039E-01
       -2   -1    0    0    0  501  0.00000000000E+00  0.00000000000E+00  0.46470489503E+03  0.46470489504E+03  0.25500000920E-02 0. -1.
        2   -1    0    0  501    0  0.00000000000E+00  0.00000000000E+00 -0.13481654808E+04  0.13481654808E+04  0.25500000920E-02 0.  1.
    10030    2    1    2    0    0  0.00000000000E+00  0.00000000000E+00 -0.88346058575E+03  0.18128703758E+04  0.15830339203E+04 0.  0.
        3    1    3    3  502    0 -0.20435113245E+03 -0.17550568560E+03 -0.12940585718E+04  0.13217977260E+04  0.10100000352E+00 0.  1.
       -3    1    3    3    0  502  0.20435113245E+03  0.17550568560E+03  0.41059798608E+03  0.49107264980E+03  0.10100000352E+00 0. -1.
</event>
<event>
 5   0  0.1736537E-04  0.1592691E+04  0.7818609E-02  0.8825051E-01
        1   -1    0    0  501    0  0.00000000000E+00  0.00000000000E+00  0.54787699760E+03  0.54787699763E+03  0.50400001928E-02 0. -1.
       -1   -1    0    0    0  501  0.00000000000E+00  0.00000000000E+00 -0.11574968272E+04  0.11574968272E+04  0.50400001928E-02 0.  1.
    10030    2    1    2    0    0  0.00000000000E+00  0.00000000000E+00 -0.60961982961E+03  0.17053738249E+04  0.15926906623E+04 0.  0.
        3    1    3    3  502    0 -0.34063242645E+03  0.53158051587E+02  0.46382887181E+03  0.57792167369E+03  0.10100000352E+00 0. -1.
       -3    1    3    3    0  502  0.34063242645E+03 -0.53158051587E+02 -0.10734487014E+04  0.11274521512E+04  0.10100000352E+00 0.  1.
</event>
<event>
 5   0  0.1761255E-04  0.1598567E+04  0.7818609E-02  0.8821429E-01
        1   -1    0    0  501    0  0.00000000000E+00  0.00000000000E+00  0.13697355671E+04  0.13697355671E+04  0.50400001928E-02 0.  1.
       -1   -1    0    0    0  501  0.00000000000E+00  0.00000000000E+00 -0.46640705430E+03  0.46640705433E+03  0.50400001928E-02 0. -1.
    10030    2    1    2    0    0  0.00000000000E+00  0.00000000000E+00  0.90332851279E+03  0.18361426214E+04  0.15985672723E+04 0.  0.
        2    1    3    3  502    0 -0.78458026105E+03  0.14298704409E+03  0.39042181652E+03  0.88794181996E+03  0.25500000920E-02 0. -1.
       -2    1    3    3    0  502  0.78458026105E+03 -0.14298704409E+03  0.51290669627E+03  0.94820080147E+03  0.25500000920E-02 0.  1.
</event>
<event>
 5   0  0.1761255E-04  0.1600503E+04  0.7818609E-02  0.8820239E-01
        1   -1    0    0  501    0  0.00000000000E+00  0.00000000000E+00  0.13734742241E+04  0.13734742241E+04  0.50400001928E-02 0. -1.
       -1   -1    0    0    0  501  0.00000000000E+00  0.00000000000E+00 -0.46626459686E+03  0.46626459689E+03  0.50400001928E-02 0.  1.
    10030    2    1    2    0    0  0.00000000000E+00  0.00000000000E+00  0.90720962722E+03  0.18397388210E+04  0.16005029277E+04 0.  0.
        2    1    3    3  502    0  0.49984827456E+03 -0.54177974532E+03  0.95549548471E+02  0.74330566138E+03  0.25500000920E-02 0.  1.
       -2    1    3    3    0  502 -0.49984827456E+03  0.54177974532E+03  0.81166007875E+03  0.10964331596E+04  0.25500000920E-02 0. -1.
</event>
<event>
 5   0  0.3263294E-04  0.1600646E+04  0.7818609E-02  0.8820152E-01
       -2   -1    0    0    0  501  0.00000000000E+00  0.00000000000E+00  0.77171014076E+03  0.77171014076E+03  0.25500000920E-02 0.  1.
        2   -1    0    0  501    0  0.00000000000E+00  0.00000000000E+00 -0.82999625445E+03  0.82999625445E+03  0.25500000920E-02 0. -1.
    10030    2    1    2    0    0  0.00000000000E+00  0.00000000000E+00 -0.58286113692E+02  0.16017063952E+04  0.16006455277E+04 0.  0.
        4    1    3    3  502    0 -0.53535978906E+02 -0.43911662652E+03 -0.69653741871E+03  0.82513968592E+03  0.12699999809E+01 0. -1.
       -4    1    3    3    0  502  0.53535978906E+02  0.43911662652E+03  0.63825130502E+03  0.77656670929E+03  0.12699999809E+01 0.  1.
</event>
<event>
 5   0  0.1819811E-04  0.1597009E+04  0.7818609E-02  0.8822387E-01
       -1   -1    0    0    0  501  0.00000000000E+00  0.00000000000E+00  0.12178026162E+04  0.12178026162E+04  0.50400001928E-02 0.  1.
        1   -1    0    0  501    0  0.00000000000E+00  0.00000000000E+00 -0.52357386316E+03  0.52357386319E+03  0.50400001928E-02 0. -1.
    10030    2    1    2    0    0  0.00000000000E+00  0.00000000000E+00  0.69422875305E+03  0.17413764794E+04  0.15970092302E+04 0.  0.
        1    1    3    3  502    0 -0.57393586682E+03 -0.54479446413E+03  0.46356890114E+03  0.91711477662E+03  0.50400001928E-02 0. -1.
       -1    1    3    3    0  502  0.57393586682E+03  0.54479446413E+03  0.23065985191E+03  0.82426170278E+03  0.50400001928E-02 0.  1.
</event>
<event>
 5   0  0.1819811E-04  0.1610936E+04  0.7818609E-02  0.8813857E-01
       -1   -1    0    0    0  501  0.00000000000E+00  0.00000000000E+00  0.73251631450E+03  0.73251631451E+03  0.50400001928E-02 0. -1.
        1   -1    0    0  501    0  0.00000000000E+00  0.00000000000E+00 -0.88568540211E+03  0.88568540213E+03  0.50400001928E-02 0.  1.
    10030    2    1    2    0    0  0.00000000000E+00  0.00000000000E+00 -0.15316908762E+03  0.16182017166E+04  0.16109363818E+04 0.  0.
        1    1    3    3  502    0  0.14522267422E+03 -0.34457373556E+03 -0.79321519204E+03  0.87693273702E+03  0.50400001928E-02 0.  1.
       -1    1    3    3    0  502 -0.14522267422E+03  0.34457373556E+03  0.64004610442E+03  0.74126897963E+03  0.50400001928E-02 0. -1.
</event>
<event>
 5   0  0.3380454E-04  0.1597172E+04  0.7818609E-02  0.8822287E-01
       -2   -1    0    0    0  501  0.00000000000E+00  0.00000000000E+00  0.18005146670E+04  0.18005146670E+04  0.25500000920E-02 0. -1.
        2   -1    0    0  501    0  0.00000000000E+00  0.00000000000E+00 -0.35419844335E+03  0.35419844336E+03  0.25500000920E-02 0.  1.
    10030    2    1    2    0    0  0.00000000000E+00  0.00000000000E+00  0.14463162236E+04  0.21547131104E+04  0.15971718659E+04 0.  0.
        5    1    3    3  502    0  0.76797355528E+03  0.30606997455E+02  0.43069308217E+03  0.88104414811E+03  0.46999998093E+01 0.  1.
       -5    1    3    3    0  502 -0.76797355528E+03 -0.30606997455E+02  0.10156231415E+04  0.12736689622E+04  0.46999998093E+01 0. -1.
</event>
<event>
 5   0  0.3228393E-04  0.1411612E+04  0.7818609E-02  0.8945456E-01
        2   -1    0    0  501    0  0.00000000000E+00  0.00000000000E+00  0.14642832073E+04  0.14642832073E+04  0.25500000920E-02 0.  1.
       -2   -1    0    0    0  501  0.00000000000E+00  0.00000000000E+00 -0.34020905931E+03  0.34020905932E+03  0.25500000920E-02 0. -1.
    10030    2    1    2    0    0  0.00000000000E+00  0.00000000000E+00  0.11240741479E+04  0.18044922666E+04  0.14116124291E+04 0.  0.
        1    1    3    3  502    0  0.23060388082E+03 -0.64270284610E+03  0.79041426207E+03  0.10445093604E+04  0.50400001928E-02 0.  1.
       -1    1    3    3    0  502 -0.23060388082E+03  0.64270284610E+03  0.33365988587E+03  0.75998290619E+03  0.50400001928E-02 0. -1.
</event>
<event>
 5   0  0.3228393E-04  0.1591651E+04  0.7818609E-02  0.8825693E-01
        2   -1    0    0  501    0  0.00000000000E+00  0.00000000000E+00  0.15830381711E+04  0.15830381711E+04  0.25500000920E-02 0. -1.
       -2   -1    0    0    0  501  0.00000000000E+00  0.00000000000E+00 -0.40007780434E+03  0.40007780435E+03  0.25500000920E-02 0.  1.
    10030    2    1    2    0    0  0.00000000000E+00  0.00000000000E+00  0.11829603667E+04  0.19831159754E+04  0.15916512629E+04 0.  0.
        1    1    3    3  502    0  0.56430831333E+03 -0.37106330847E+03  0.11159736975E+04  0.13044267496E+04  0.50400001928E-02 0. -1.
       -1    1    3    3    0  502 -0.56430831333E+03  0.37106330847E+03  0.66986669175E+02  0.67868922583E+03  0.50400001928E-02 0.  1.
</event>
<event>
 5   0  0.1736537E-04  0.1618036E+04  0.7818609E-02  0.8809544E-01
        1   -1    0    0  501    0  0.00000000000E+00  0.00000000000E+00  0.69980977029E+03  0.69980977031E+03  0.50400001928E-02 0.  1.
       -1   -1    0    0    0  501  0.00000000000E+00  0.00000000000E+00 -0.93526849704E+03  0.93526849706E+03  0.50400001928E-02 0. -1.
    10030    2    1    2    0    0  0.00000000000E+00  0.00000000000E+00 -0.23545872675E+03  0.16350782674E+04  0.16180358860E+04 0.  0.
        3    1    3    3  502    0 -0.13091946726E+03  0.45440675572E+03 -0.78106127466E+03  0.91306195382E+03  0.10100000352E+00 0. -1.
       -3    1    3    3    0  502  0.13091946726E+03 -0.45440675572E+03  0.54560254790E+03  0.72201631355E+03  0.10100000352E+00 0.  1.
</event>
<event>
 5   0  0.3380454E-04  0.1596843E+04  0.7818609E-02  0.8822490E-01
       -2   -1    0    0    0  501  0.00000000000E+00  0.00000000000E+00  0.45169367721E+03  0.45169367722E+03  0.25500000920E-02 0.  1.
        2   -1    0    0  501    0  0.00000000000E+00  0.00000000000E+00 -0.14113031438E+04  0.14113031439E+04  0.25500000920E-02 0. -1.
    10030    2    1    2    0    0  0.00000000000E+00  0.00000000000E+00 -0.95960946664E+03  0.18629968211E+04  0.15968427684E+04 0.  0.
        5    1    3    3  502    0 -0.68975014987E+03  0.39551953712E+03 -0.39516131767E+03  0.88789950471E+03  0.46999998093E+01 0. -1.
       -5    1    3    3    0  502  0.68975014987E+03 -0.39551953712E+03 -0.56444814897E+03  0.97509731635E+03  0.46999998093E+01 0.  1.
</event>
<event>
 5   0  0.3210612E-04  0.1607485E+04  0.7818609E-02  0.8815963E-01
       -2   -1    0    0    0  501  0.00000000000E+00  0.00000000000E+00  0.36993868123E+03  0.36993868124E+03  0.25500000920E-02 0.  1.
        2   -1    0    0  501    0  0.00000000000E+00  0.00000000000E+00 -0.17462406626E+04  0.17462406626E+04  0.25500000920E-02 0. -1.
    10030    2    1    2    0    0  0.00000000000E+00  0.00000000000E+00 -0.13763019814E+04  0.21161793439E+04  0.16074849522E+04 0.  0.
        2    1    3    3  502    0  0.42488905668E+03  0.68113051143E+03 -0.63661584649E+03  0.10245727012E+04  0.25500000920E-02 0. -1.
       -2    1    3    3    0  502 -0.42488905668E+03 -0.68113051143E+03 -0.73968613492E+03  0.10916066426E+04  0.25500000920E-02 0.  1.
</event>
<event>
 5   0  0.1764099E-04  0.1586139E+04  0.7818609E-02  0.8829109E-01
       -1   -1    0    0    0  501  0.00000000000E+00  0.00000000000E+00  0.41192982956E+03  0.41192982959E+03  0.50400001928E-02 0. -1.
        1   -1    0    0  501    0  0.00000000000E+00  0.00000000000E+00 -0.15268607328E+04  0.15268607328E+04  0.50400001928E-02 0.  1.
    10030    2    1    2    0    0  0.00000000000E+00  0.00000000000E+00 -0.11149309033E+04  0.19387905624E+04  0.15861393148E+04 0.  0.
        5    1    3    3  502    0  0.12106991826E+02  0.31231425185E+03  0.33345574603E+03  0.45705754093E+03  0.46999998093E+01 0. -1.
       -5    1    3    3    0  502 -0.12106991826E+02 -0.31231425185E+03 -0.14483866493E+04  0.14817330215E+04  0.46999998093E+01 0.  1.
</event>
<event>
 5   0  0.3228393E-04  0.1626304E+04  0.7818609E-02  0.8804550E-01
        2   -1    0    0  501    0  0.00000000000E+00  0.00000000000E+00  0.25513377480E+04  0.25513377480E+04  0.25500000920E-02 0.  1.
       -2   -1    0    0    0  501  0.00000000000E+00  0.00000000000E+00 -0.25916445308E+03  0.25916445309E+03  0.25500000920E-02 0. -1.
    10030    2    1    2    0    0  0.00000000000E+00  0.00000000000E+00  0.22921732949E+04  0.28105022011E+04  0.16263038487E+04 0.  0.
        1    1    3    3  502    0 -0.97899721590E+02  0.75695537050E+03  0.16307412389E+04  0.18005229175E+04  0.50400001928E-02 0.  1.
       -1    1    3    3    0  502  0.97899721590E+02 -0.75695537050E+03  0.66143205604E+03  0.10099792835E+04  0.50400001928E-02 0. -1.
</event>
<event>
 5   0  0.3263294E-04  0.1616269E+04  0.7818609E-02  0.8810615E-01
        2   -1    0    0  501    0  0.00000000000E+00  0.00000000000E+00  0.68029636721E+03  0.68029636721E+03  0.25500000920E-02 0. -1.
       -2   -1    0    0    0  501  0.00000000000E+00  0.00000000000E+00 -0.95999490578E+03  0.95999490579E+03  0.25500000920E-02 0.  1.
    10030    2    1    2    0    0  0.00000000000E+00  0.00000000000E+00 -0.27969853857E+03  0.16402912730E+04  0.16162686001E+04 0.  0.
        4    1    3    3  502    0 -0.54045435937E+03 -0.25743012312E+02  0.46934404489E+03  0.71626745188E+03  0.12699999809E+01 0. -1.
       -4    1    3    3    0  502  0.54045435937E+03  0.25743012312E+02 -0.74904258347E+03  0.92402382112E+03  0.12699999809E+01 0.  1.
</event>
<event>
 5   0  0.3228393E-04  0.1597312E+04  0.7818609E-02  0.8822201E-01
       -2   -1    0    0    0  501  0.00000000000E+00  0.00000000000E+00  0.22623218431E+04  0.22623218431E+04  0.25500000920E-02 0.  1.
        2   -1    0    0  501    0  0.00000000000E+00  0.00000000000E+00 -0.28194562477E+03  0.28194562478E+03  0.25500000920E-02 0. -1.
    10030    2    1    2    0    0  0.00000000000E+00  0.00000000000E+00  0.19803762183E+04  0.25442674679E+04  0.15973124247E+04 0.  0.
        1    1    3    3  502    0  0.40311021315E+02  0.17834716185E+03 -0.24815778770E+03  0.30824499379E+03  0.50400001928E-02 0. -1.
       -1    1    3    3    0  502 -0.40311021315E+02 -0.17834716185E+03  0.22285340060E+04  0.22360224741E+04  0.50400001928E-02 0.  1.
</event>
<event>
 5   0  0.3210612E-04  0.1600329E+04  0.7818609E-02  0.8820346E-01
        2   -1    0    0  501    0  0.00000000000E+00  0.00000000000E+00  0.25017619935E+04  0.25017619935E+04  0.25500000920E-02 0. -1.
       -2   -1    0    0    0  501  0.00000000000E+00  0.00000000000E+00 -0.25592482758E+03  0.25592482760E+03  0.25500000920E-02 0.  1.
    10030    2    1    2    0    0  0.00000000000E+00  0.00000000000E+00  0.22458371659E+04  0.27576868211E+04  0.16003287248E+04 0.  0.
        2    1    3    3  502    0 -0.55909906407E+03 -0.44354162639E+03  0.17464744108E+04  0.18866620803E+04  0.25500000920E-02 0. -1.
       -2    1    3    3    0  502  0.55909906407E+03  0.44354162639E+03  0.49936275507E+03  0.87102474072E+03  0.25500000920E-02 0.  1.
</event>
<event>
 5   0  0.1761255E-04  0.1611423E+04  0.7818609E-02  0.8813561E-01
        1   -1    0    0  501    0  0.00000000000E+00  0.00000000000E+00  0.13138667934E+04  0.13138667934E+04  0.50400001928E-02 0.  1.
       -1   -1    0    0    0  501  0.00000000000E+00  0.00000000000E+00 -0.49409172691E+03  0.49409172694E+03  0.50400001928E-02 0. -1.
    10030    2    1    2    0    0  0.00000000000E+00  0.00000000000E+00  0.81977506652E+03  0.18079585204E+04  0.16114226174E+04 0.  0.
        2    1    3    3  502    0 -0.70340605910E+03 -0.17621516083E+03  0.80391722398E+03  0.10826424940E+04  0.25500000920E-02 0. -1.
       -2    1    3    3    0  502  0.70340605910E+03  0.17621516083E+03  0.15857842540E+02  0.72531602634E+03  0.25500000920E-02 0.  1.
</event>
<event>
 5   0  0.1761255E-04  0.1595026E+04  0.7818609E-02  0.8823610E-01
       -1   -1    0    0    0  501  0.00000000000E+00  0.00000000000E+00  0.44289458503E+03  0.44289458505E+03  0.50400001928E-02 0.  1.
        1   -1    0    0  501    0  0.00000000000E+00  0.00000000000E+00 -0.14360676571E+04  0.14360676571E+04  0.50400001928E-02 0. -1.
    10030    2    1    2    0    0  0.00000000000E+00  0.00000000000E+00 -0.99317307207E+03  0.18789622422E+04  0.15950255034E+04 0.  0.
        2    1    3    3  502    0  0.62333993969E+03  0.41905785273E+03 -0.81238309846E+03  0.11064033907E+04  0.25500000920E-02 0. -1.
       -2    1    3    3    0  502 -0.62333993969E+03 -0.41905785273E+03 -0.18078997361E+03  0.77255885143E+03  0.25500000920E-02 0.  1.
</event>
<event>
 5   0  0.3228393E-04  0.1585678E+04  0.7818609E-02  0.8829395E-01
        2   -1    0    0  501    0  0.00000000000E+00  0.00000000000E+00  0.13901454020E+04  0.13901454020E+04  0.25500000920E-02 0.  1.
       -2   -1    0    0    0  501  0.00000000000E+00  0.00000000000E+00 -0.45217815769E+03  0.45217815770E+03  0.25500000920E-02 0. -1.
    10030    2    1    2    0    0  0.00000000000E+00  0.00000000000E+00  0.93796724428E+03  0.18423235597E+04  0.15856776303E+04 0.  0.
        1    1    3    3  502    0  0.59151058022E+03 -0.36113741659E+03  0.91639247829E+03  0.11489474202E+04  0.50400001928E-02 0.  1.
       -1    1    3    3    0  502 -0.59151058022E+03  0.36113741659E+03  0.21574765989E+02  0.69337613943E+03  0.50400001928E-02 0. -1.
</event>
<event>
 5   0  0.1819811E-04  0.1599289E+04  0.7818609E-02  0.8820985E-01
       -1   -1    0    0    0  501  0.00000000000E+00  0.00000000000E+00  0.28431440248E+03  0.28431440253E+03  0.50400001928E-02 0. -1.
        1   -1    0    0  501    0  0.00000000000E+00  0.00000000000E+00 -0.22490301433E+04  0.22490301433E+04  0.50400001928E-02 0.  1.
    10030    2    1    2    0    0  0.00000000000E+00  0.00000000000E+00 -0.19647157408E+04  0.25333445458E+04  0.15992894190E+04 0.  0.
        1    1    3    3  502    0 -0.76998214050E+03  0.18299618388E+03 -0.11634630742E+04  0.14071270110E+04  0.50400001928E-02 0. -1.
       -1    1    3    3    0  502  0.76998214050E+03 -0.18299618388E+03 -0.80125266663E+03  0.11262175348E+04  0.50400001928E-02 0.  1.
</event>
<event>
 5   0  0.1764099E-04  0.1550410E+04  0.7818609E-02  0.8851606E-01
       -1   -1    0    0    0  501  0.00000000000E+00  0.00000000000E+00  0.41659901755E+03  0.41659901758E+03  0.50400001928E-02 0.  1.
        1   -1    0    0  501    0  0.00000000000E+00  0.00000000000E+00 -0.14424964940E+04  0.14424964940E+04  0.50400001928E-02 0. -1.
    10030    2    1    2    0    0  0.00000000000E+00  0.00000000000E+00 -0.10258974765E+04  0.18590955116E+04  0.15504097810E+04 0.  0.
        5    1    3    3  502    0 -0.57594374335E+03 -0.36745905341E+03 -0.95219112642E+03  0.11719331818E+04  0.46999998093E+01 0. -1.
       -5    1    3    3    0  502  0.57594374335E+03  0.36745905341E+03 -0.73706350046E+02  0.68716232978E+03  0.46999998093E+01 0.  1.
</event>
<event>
 5   0  0.3228393E-04  0.1592104E+04  0.7818609E-02  0.8825413E-01
        2   -1    0    0  501    0  0.00000000000E+00  0.00000000000E+00  0.39292254134E+03  0.39292254134E+03  0.25500000920E-02 0.  1.
       -2   -1    0    0    0  501  0.00000000000E+00  0.00000000000E+00 -0.16127834935E+04  0.16127834935E+04  0.25500000920E-02 0. -1.
    10030    2    1    2    0    0  0.00000000000E+00  0.00000000000E+00 -0.12198609521E+04  0.20057060348E+04  0.15921042540E+04 0.  0.
        1    1    3    3  502    0 -0.20093725142E+03  0.36005467742E+02  0.35938794864E+03  0.41331812248E+03  0.50400001928E-02 0.  1.
       -1    1    3    3    0  502  0.20093725142E+03 -0.36005467742E+02 -0.15792489008E+04  0.15923879123E+04  0.50400001928E-02 0. -1.
</event>
<event>
 5   0  0.1787688E-04  0.1582116E+04  0.7818609E-02  0.8831611E-01
       -1   -1    0    0    0  501  0.00000000000E+00  0.00000000000E+00  0.13246358382E+04  0.13246358382E+04  0.50400001928E-02 0.  1.
        1   -1    0    0  501    0  0.00000000000E+00  0.00000000000E+00 -0.47241133827E+03  0.47241133830E+03  0.50400001928E-02 0. -1.
    10030    2    1    2    0    0  0.00000000000E+00  0.00000000000E+00  0.85222449990E+03  0.17970471765E+04  0.15821162904E+04 0.  0.
        4    1    3    3  502    0  0.62801047679E+02 -0.13285195857E+03  0.13089958387E+04  0.13172187871E+04  0.12699999809E+01 0.  1.
       -4    1    3    3    0  502 -0.62801047679E+02  0.13285195857E+03 -0.45677133875E+03  0.47982838942E+03  0.12699999809E+01 0. -1.
</event>
<event>
 5   0  0.3210612E-04  0.1456012E+04  0.7818609E-02  0.8914243E-01
       -2   -1    0    0    0  501  0.00000000000E+00  0.00000000000E+00  0.57913327500E+03  0.57913327501E+03  0.25500000920E-02 0. -1.
        2   -1    0    0  501    0  0.00000000000E+00  0.00000000000E+00 -0.91514782568E+03  0.91514782568E+03  0.25500000920E-02 0.  1.
    10030    2    1    2    0    0  0.00000000000E+00  0.00000000000E+00 -0.33601455068E+03  0.14942811007E+04  0.14560117546E+04 0.  0.
        2    1    3    3  502    0 -0.36121703516E+03 -0.50733138707E+03  0.21890258998E+03  0.66013727868E+03  0.25500000920E-02 0. -1.
       -2    1    3    3    0  502  0.36121703516E+03  0.50733138707E+03 -0.55491714066E+03  0.83414382201E+03  0.25500000920E-02 0.  1.
</event>
<event>
 5   0  0.1787688E-04  0.1595333E+04  0.7818609E-02  0.8823421E-01
        1   -1    0    0  501    0  0.00000000000E+00  0.00000000000E+00  0.93008921256E+03  0.93008921258E+03  0.50400001928E-02 0. -1.
       -1   -1    0    0    0  501  0.00000000000E+00  0.00000000000E+00 -0.68409727651E+03  0.68409727653E+03  0.50400001928E-02 0.  1.
    10030    2    1    2    0    0  0.00000000000E+00  0.00000000000E+00  0.24599193606E+03  0.16141864891E+04  0.15953325638E+04 0.  0.
        4    1    3    3  502    0  0.64851322566E+02 -0.79008318988E+03  0.33447238890E+02  0.79344657770E+03  0.12699999809E+01 0.  1.
       -4    1    3    3    0  502 -0.64851322566E+02  0.79008318988E+03  0.21254469717E+03  0.82073991140E+03  0.12699999809E+01 0. -1.
</event>
<event>
 5   0  0.1819811E-04  0.1634700E+04  0.7818609E-02  0.8799509E-01
        1   -1    0    0  501    0  0.00000000000E+00  0.00000000000E+00  0.76833848710E+03  0.76833848711E+03  0.50400001928E-02 0. -1.
       -1   -1    0    0    0  501  0.00000000000E+00  0.00000000000E+00 -0.86948823250E+03  0.86948823251E+03  0.50400001928E-02 0.  1.
    10030    2    1    2    0    0  0.00000000000E+00  0.00000000000E+00 -0.10114974540E+03  0.16378267196E+04  0.16347003066E+04 0.  0.
        1    1    3    3  502    0 -0.15764640817E+03  0.74532999326E+03 -0.34726972006E+03  0.83723679288E+03  0.50400001928E-02 0.  1.
       -1    1    3    3    0  502  0.15764640817E+03 -0.74532999326E+03  0.24611997466E+03  0.80058992675E+03  0.50400001928E-02 0. -1.
</event>
<event>
 5   0  0.3380454E-04  0.1596476E+04  0.7818609E-02  0.8822716E-01
       -2   -1    0    0    0  501  0.00000000000E+00  0.00000000000E+00  0.28491546387E+03  0.28491546388E+03  0.25500000920E-02 0.  1.
        2   -1    0    0  501    0  0.00000000000E+00  0.00000000000E+00 -0.22363952345E+04  0.22363952345E+04  0.25500000920E-02 0. -1.
    10030    2    1    2    0    0  0.00000000000E+00  0.00000000000E+00 -0.19514797706E+04  0.25213106984E+04  0.15964756004E+04 0.  0.
        5    1    3    3  502    0 -0.52761165486E+03  0.31295893450E+03 -0.17823332139E+04  0.18849538797E+04  0.46999998093E+01 0. -1.
       -5    1    3    3    0  502  0.52761165486E+03 -0.31295893450E+03 -0.16914655666E+03  0.63635681866E+03  0.46999998093E+01 0.  1.
</event>
<event>
 5   0  0.1736537E-04  0.1607915E+04  0.7818609E-02  0.8815700E-01
       -1   -1    0    0    0  501  0.00000000000E+00  0.00000000000E+00  0.42389397806E+03  0.42389397809E+03  0.50400001928E-02 0. -1.
        1   -1    0    0  501    0  0.00000000000E+00  0.00000000000E+00 -0.15247866681E+04  0.15247866681E+04  0.50400001928E-02 0.  1.
    10030    2    1    2    0    0  0.00000000000E+00  0.00000000000E+00 -0.11008926900E+04  0.19486806461E+04  0.16079152794E+04 0.  0.
        3    1    3    3  502    0 -0.36434878377E+03  0.22783839316E+03  0.27303083951E+03  0.50912299021E+03  0.10100000352E+00 0. -1.
       -3    1    3    3    0  502  0.36434878377E+03 -0.22783839316E+03 -0.13739235295E+04  0.14395576559E+04  0.10100000352E+00 0.  1.
</event>
<event>
 5   0  0.1736537E-04  0.1603011E+04  0.7818609E-02  0.8818701E-01
        1   -1    0    0  501    0  0.00000000000E+00  0.00000000000E+00  0.79029979747E+03  0.79029979749E+03  0.50400001928E-02 0.  1.
       -1   -1    0    0    0  501  0.00000000000E+00  0.00000000000E+00 -0.81286978666E+03  0.81286978667E+03  0.50400001928E-02 0. -1.
    10030    2    1    2    0    0  0.00000000000E+00  0.00000000000E+00 -0.22569989187E+02  0.16031695842E+04  0.16030107021E+04 0.  0.
        3    1    3    3  502    0 -0.66472860187E+03 -0.38081099124E+03 -0.24695574069E+03  0.80490264831E+03  0.10100000352E+00 0. -1.
       -3    1    3    3    0  502  0.66472860187E+03  0.38081099124E+03  0.22438575150E+03  0.79826693585E+03  0.10100000352E+00 0.  1.
</event>
<event>
 5   0  0.3210612E-04  0.1593466E+04  0.7818609E-02  0.8824572E-01
       -2   -1    0    0    0  501  0.00000000000E+00  0.00000000000E+00  0.96084963718E+03  0.96084963718E+03  0.25500000920E-02 0.  1.
        2   -1    0    0  501    0  0.00000000000E+00  0.00000000000E+00 -0.66064835729E+03  0.66064835729E+03  0.25500000920E-02 0. -1.
    10030    2    1    2    0    0  0.00000000000E+00  0.00000000000E+00  0.30020127989E+03  0.16214979945E+04  0.15934663277E+04 0.  0.
        2    1    3    3  502    0 -0.32747257580E+03 -0.13280726819E+03 -0.57653935827E+03  0.67622014908E+03  0.25500000920E-02 0. -1.
       -2    1    3    3    0  502  0.32747257580E+03  0.13280726819E+03  0.87674063816E+03  0.94527784539E+03  0.25500000920E-02 0.  1.
</event>
<event>
 5   0  0.3263294E-04  0.1597792E+04  0.7818609E-02  0.8821906E-01
        2   -1    0    0  501    0  0.00000000000E+00  0.00000000000E+00  0.96305765356E+03  0.96305765357E+03  0.25500000920E-02 0.  1.
       -2   -1    0    0    0  501  0.00000000000E+00  0.00000000000E+00 -0.66271727493E+03  0.66271727494E+03  0.25500000920E-02 0. -1.
    10030    2    1    2    0    0  0.00000000000E+00  0.00000000000E+00  0.30034037863E+03  0.16257749285E+04  0.15977921564E+04 0.  0.
        4    1    3    3  502    0  0.15704135000E+03 -0.78322379492E+03  0.16185310130E+03  0.81504572746E+03  0.12699999809E+01 0.  1.
       -4    1    3    3    0  502 -0.15704135000E+03  0.78322379492E+03  0.13848727734E+03  0.81072920105E+03  0.12699999809E+01 0. -1.
</event>
<event>
 5   0  0.1736537E-04  0.1607096E+04  0.7818609E-02  0.8816200E-01
        1   -1    0    0  501    0  0.00000000000E+00  0.00000000000E+00  0.89575489634E+03  0.89575489636E+03  0.50400001928E-02 0.  1.
       -1   -1    0    0    0  501  0.00000000000E+00  0.00000000000E+00 -0.72083310130E+03  0.72083310132E+03  0.50400001928E-02 0. -1.
    10030    2    1    2    0    0  0.00000000000E+00  0.00000000000E+00  0.17492179505E+03  0.16165879977E+04  0.16070964874E+04 0.  0.
        3    1    3    3  502    0  0.22837801714E+03  0.35637452277E+03 -0.59960342283E+03  0.73395067549E+03  0.10100000352E+00 0. -1.
       -3    1    3    3    0  502 -0.22837801714E+03 -0.35637452277E+03  0.77452521787E+03  0.88263732218E+03  0.10100000352E+00 0.  1.
</event>
<event>
 5   0  0.3210612E-04  0.1608089E+04  0.7818609E-02  0.8815594E-01
        2   -1    0    0  501    0  0.00000000000E+00  0.00000000000E+00  0.13480151511E+04  0.13480151511E+04  0.25500000920E-02 0. -1.
       -2   -1    0    0    0  501  0.00000000000E+00  0.00000000000E+00 -0.47958485397E+03  0.47958485398E+03  0.25500000920E-02 0.  1.
    10030    2    1    2    0    0  0.00000000000E+00  0.00000000000E+00  0.86843029714E+03  0.18276000051E+04  0.16080891137E+04 0.  0.
        2    1    3    3  502    0  0.70659907638E+02 -0.57263178575E+03  0.10706449742E+04  0.12162157068E+04  0.25500000920E-02 0. -1.
       -2    1    3    3    0  502 -0.70659907638E+02  0.57263178575E+03 -0.20221467706E+03  0.61138429832E+03  0.25500000920E-02 0.  1.
</event>
<event>
 5   0  0.3263294E-04  0.1432947E+04  0.7818609E-02  0.8930309E-01
       -2   -1    0    0    0  501  0.00000000000E+00  0.00000000000E+00  0.53085398950E+03  0.53085398951E+03  0.25500000920E-02 0. -1.
        2   -1    0    0  501    0  0.00000000000E+00  0.00000000000E+00 -0.96699709670E+03  0.96699709670E+03  0.25500000920E-02 0.  1.
    10030    2    1    2    0    0  0.00000000000E+00  0.00000000000E+00 -0.43614310720E+03  0.14978510862E+04  0.14329469866E+04 0.  0.
        4    1    3    3  502    0  0.24823902145E+03  0.36955416347E+03  0.36872846194E+03  0.57806157376E+03  0.12699999809E+01 0. -1.
       -4    1    3    3    0  502 -0.24823902145E+03 -0.36955416347E+03 -0.80487156914E+03  0.91978951245E+03  0.12699999809E+01 0.  1.
</event>
<event>
 5   0  0.3274900E-04  0.1575960E+04  0.7818609E-02  0.8835454E-01
        2   -1    0    0  501    0  0.00000000000E+00  0.00000000000E+00  0.19405417270E+04  0.19405417270E+04  0.25500000920E-02 0. -1.
       -2   -1    0    0    0  501  0.00000000000E+00  0.00000000000E+00 -0.31996864288E+03  0.31996864289E+03  0.25500000920E-02 0.  1.
    10030    2    1    2    0    0  0.00000000000E+00  0.00000000000E+00  0.16205730841E+04  0.22605103698E+04  0.15759600285E+04 0.  0.
        3    1    3    3  502    0 -0.67383992174E+03 -0.32252386837E+02  0.22621058188E+03  0.71152771846E+03  0.10100000352E+00 0. -1.
       -3    1    3    3    0  502  0.67383992174E+03  0.32252386837E+02  0.13943625022E+04  0.15489826514E+04  0.10100000352E+00 0.  1.
</event>
<event>
 5   0  0.1736537E-04  0.1597084E+04  0.7818609E-02  0.8822342E-01
       -1   -1    0    0    0  501  0.00000000000E+00  0.00000000000E+00  0.46660595703E+03  0.46660595705E+03  0.50400001928E-02 0.  1.
        1   -1    0    0  501    0  0.00000000000E+00  0.00000000000E+00 -0.13666113535E+04  0.13666113535E+04  0.50400001928E-02 0. -1.
    10030    2    1    2    0    0  0.00000000000E+00  0.00000000000E+00 -0.90000539646E+03  0.18332173106E+04  0.15970835902E+04 0.  0.
        3    1    3    3  502    0 -0.22537378872E+03  0.10073099718E+03  0.42170757274E+03  0.48864850920E+03  0.10100000352E+00 0.  1.
       -3    1    3    3    0  502  0.22537378872E+03 -0.10073099718E+03 -0.13217129692E+04  0.13445688014E+04  0.10100000352E+00 0. -1.
</event>
<event>
 5   0  0.3210612E-04  0.1584781E+04  0.7818609E-02  0.8829953E-01
        2   -1    0    0  501    0  0.00000000000E+00  0.00000000000E+00  0.11658363623E+04  0.11658363623E+04  0.25500000920E-02 0.  1.
       -2   -1    0    0    0  501  0.00000000000E+00  0.00000000000E+00 -0.53856826620E+03  0.53856826621E+03  0.25500000920E-02 0. -1.
    10030    2    1    2    0    0  0.00000000000E+00  0.00000000000E+00  0.62726809607E+03  0.17044046285E+04  0.15847807019E+04 0.  0.
        2    1    3    3  502    0 -0.61923951162E+03  0.16282781004E+03  0.81568073324E+03  0.10369693954E+04  0.25500000920E-02 0.  1.
       -2    1    3    3    0  502  0.61923951162E+03 -0.16282781004E+03 -0.18841263717E+03  0.66743523305E+03  0.25500000920E-02 0. -1.
</event>
<event>
 5   0  0.1219463E-04  0.1620912E+04  0.7818609E-02  0.8807803E-01
       -3   -1    0    0    0  501  0.00000000000E+00  0.00000000000E+00  0.15539660907E+04  0.15539660940E+04  0.10100000352E+00 0.  1.
        3   -1    0    0  501    0  0.00000000000E+00  0.00000000000E+00 -0.42268558275E+03  0.42268559482E+03  0.10100000352E+00 0. -1.
    10030    2    1    2    0    0  0.00000000000E+00  0.00000000000E+00  0.11312805080E+04  0.19766516888E+04  0.16209121849E+04 0.  0.
        4    1    3    3  502    0  0.15085023590E+03  0.22474647034E+00  0.15366939450E+04  0.15440808715E+04  0.12699999809E+01 0.  1.
       -4    1    3    3    0  502 -0.15085023590E+03 -0.22474647034E+00 -0.40541343704E+03  0.43257081734E+03  0.12699999809E+01 0. -1.
</event>
<event>
 5   0  0.1787688E-04  0.1597317E+04  0.7818609E-02  0.8822198E-01
        1   -1    0    0  501    0  0.00000000000E+00  0.00000000000E+00  0.10534873057E+04  0.10534873057E+04  0.50400001928E-02 0.  1.
       -1   -1    0    0    0  501  0.00000000000E+00  0.00000000000E+00 -0.60547024596E+03  0.60547024598E+03  0.50400001928E-02 0. -1.
    10030    2    1    2    0    0  0.00000000000E+00  0.00000000000E+00  0.44801705974E+03  0.16589575517E+04  0.15973167728E+04 0.  0.
        4    1    3    3  502    0  0.21711602098E+03 -0.42122221579E+01  0.10222355396E+04  0.10450474729E+04  0.12699999809E+01 0.  1.
       -4    1    3    3    0  502 -0.21711602098E+03  0.42122221579E+01 -0.57421847982E+03  0.61391007880E+03  0.12699999809E+01 0. -1.
</event>
<event>
 5   0  0.3210612E-04  0.1595349E+04  0.7818609E-02  0.8823411E-01
        2   -1    0    0  501    0  0.00000000000E+00  0.00000000000E+00  0.13451441120E+04  0.13451441121E+04  0.25500000920E-02 0. -1.
       -2   -1    0    0    0  501  0.00000000000E+00  0.00000000000E+00 -0.47302308596E+03  0.47302308596E+03  0.25500000920E-02 0.  1.
    10030    2    1    2    0    0  0.00000000000E+00  0.00000000000E+00  0.87212102609E+03  0.18181671980E+04  0.15953485123E+04 0.  0.
        2    1    3    3  502    0 -0.37848965315E+03  0.48946433627E+03  0.10098178072E+04  0.11842980021E+04  0.25500000920E-02 0. -1.
       -2    1    3    3    0  502  0.37848965315E+03 -0.48946433627E+03 -0.13769678110E+03  0.63386919593E+03  0.25500000920E-02 0.  1.
</event>
<event>
 5   0  0.1764099E-04  0.1601699E+04  0.7818609E-02  0.8819505E-01
        1   -1    0    0  501    0  0.00000000000E+00  0.00000000000E+00  0.65371109307E+03  0.65371109309E+03  0.50400001928E-02 0. -1.
       -1   -1    0    0    0  501  0.00000000000E+00  0.00000000000E+00 -0.98110555767E+03  0.98110555768E+03  0.50400001928E-02 0.  1.
    10030    2    1    2    0    0  0.00000000000E+00  0.00000000000E+00 -0.32739446459E+03  0.16348166508E+04  0.16016985816E+04 0.  0.
        5    1    3    3  502    0 -0.17191246283E+03 -0.70338830598E+03  0.18547047167E+03  0.74748270196E+03  0.46999998093E+01 0. -1.
       -5    1    3    3    0  502  0.17191246283E+03  0.70338830598E+03 -0.51286493627E+03  0.88733394882E+03  0.46999998093E+01 0.  1.
</event>
<event>
 5   0  0.1764099E-04  0.1596932E+04  0.7818609E-02  0.8822435E-01
        1   -1    0    0  501    0  0.00000000000E+00  0.00000000000E+00  0.13566689863E+04  0.13566689863E+04  0.50400001928E-02 0.  1.
       -1   -1    0    0    0  501  0.00000000000E+00  0.00000000000E+00 -0.46993627880E+03  0.46993627883E+03  0.50400001928E-02 0. -1.
    10030    2    1    2    0    0  0.00000000000E+00  0.00000000000E+00  0.88673270748E+03  0.18266052651E+04  0.15969320274E+04 0.  0.
        5    1    3    3  502    0 -0.42521832543E+03  0.20354284182E+03 -0.29374261548E+03  0.55547018542E+03  0.46999998093E+01 0. -1.
       -5    1    3    3    0  502  0.42521832543E+03 -0.20354284182E+03  0.11804753230E+04  0.12711350797E+04  0.46999998093E+01 0.  1.
</event>
<event>
 5   0  0.1736537E-04  0.1568740E+04  0.7818609E-02  0.8839986E-01
       -1   -1    0    0    0  501  0.00000000000E+00  0.00000000000E+00  0.52185801240E+03  0.52185801243E+03  0.50400001928E-02 0.  1.
        1   -1    0    0  501    0  0.00000000000E+00  0.00000000000E+00 -0.11789336579E+04  0.11789336579E+04  0.50400001928E-02 0. -1.
    10030    2    1    2    0    0  0.00000000000E+00  0.00000000000E+00 -0.65707564548E+03  0.17007916703E+04  0.15687395902E+04 0.  0.
        3    1    3    3  502    0  0.10530827689E+03  0.35008138358E+03  0.42384455217E+03  0.55972405962E+03  0.10100000352E+00 0.  1.
       -3    1    3    3    0  502 -0.10530827689E+03 -0.35008138358E+03 -0.10809201976E+04  0.11410676107E+04  0.10100000352E+00 0. -1.
</event>
<event>
 5   0  0.1761255E-04  0.1578404E+04  0.7818609E-02  0.8833926E-01
        1   -1    0    0  501    0  0.00000000000E+00  0.00000000000E+00  0.46968211561E+03  0.46968211563E+03  0.50400001928E-02 0. -1.
       -1   -1    0    0    0  501  0.00000000000E+00  0.00000000000E+00 -0.13260881120E+04  0.13260881120E+04  0.50400001928E-02 0.  1.
    10030    2    1    2    0    0  0.00000000000E+00  0.00000000000E+00 -0.85640599639E+03  0.17957702276E+04  0.15784040927E+04 0.  0.
        2    1    3    3  502    0 -0.38083180654E+03 -0.13634055477E+03 -0.11991812763E+04  0.12655660177E+04  0.25500000920E-02 0.  1.
       -2    1    3    3    0  502  0.38083180654E+03  0.13634055477E+03  0.34277527989E+03  0.53020420995E+03  0.25500000920E-02 0. -1.
</event>
<event>
 5   0  0.3380454E-04  0.1602500E+04  0.7818609E-02  0.8819014E-01
        2   -1    0    0  501    0  0.00000000000E+00  0.00000000000E+00  0.13341000395E+04  0.13341000395E+04  0.25500000920E-02 0.  1.
       -2   -1    0    0    0  501  0.00000000000E+00  0.00000000000E+00 -0.48122447975E+03  0.48122447976E+03  0.25500000920E-02 0. -1.
    10030    2    1    2    0    0  0.00000000000E+00  0.00000000000E+00  0.85287555979E+03  0.18153245193E+04  0.16025000436E+04 0.  0.
        5    1    3    3  502    0 -0.74594511138E+03  0.94510127373E+02  0.11288682948E+03  0.76034978768E+03  0.46999998093E+01 0. -1.
       -5    1    3    3    0  502  0.74594511138E+03 -0.94510127373E+02  0.73998873031E+03  0.10549747316E+04  0.46999998093E+01 0.  1.
</event>
<event>
 5   0  0.1787688E-04  0.1597395E+04  0.7818609E-02  0.8822150E-01
        1   -1    0    0  501    0  0.00000000000E+00  0.00000000000E+00  0.35696202221E+03  0.35696202225E+03  0.50400001928E-02 0. -1.
       -1   -1    0    0    0  501  0.00000000000E+00  0.00000000000E+00 -0.17870733689E+04  0.17870733689E+04  0.50400001928E-02 0.  1.
    10030    2    1    2    0    0  0.00000000000E+00  0.00000000000E+00 -0.14301113467E+04  0.21440353912E+04  0.15973945332E+04 0.  0.
        4    1    3    3  502    0  0.22308612812E+02  0.21851459503E+03 -0.17457361623E+04  0.17595006859E+04  0.12699999809E+01 0.  1.
       -4    1    3    3    0  502 -0.22308612812E+02 -0.21851459503E+03  0.31562481559E+03  0.38453470527E+03  0.12699999809E+01 0. -1.
</event>
<event>
 5   0  0.1764099E-04  0.1593170E+04  0.7818609E-02  0.8824755E-01
       -1   -1    0    0    0  501  0.00000000000E+00  0.00000000000E+00  0.84599011754E+03  0.84599011755E+03  0.50400001928E-02 0.  1.
        1   -1    0    0  501    0  0.00000000000E+00  0.00000000000E+00 -0.75006479914E+03  0.75006479916E+03  0.50400001928E-02 0. -1.
    10030    2    1    2    0    0  0.00000000000E+00  0.00000000000E+00  0.95925318398E+02  0.15960549167E+04  0.15931696804E+04 0.  0.
        5    1    3    3  502    0 -0.38584241903E+03  0.35234168125E+03  0.65030545952E+03  0.83422917316E+03  0.46999998093E+01 0.  1.
       -5    1    3    3    0  502  0.38584241903E+03 -0.35234168125E+03 -0.55438014113E+03  0.76182574355E+03  0.46999998093E+01 0. -1.
</event>
<event>
 5   0  0.3210612E-04  0.1623553E+04  0.7818609E-02  0.8806208E-01
        2   -1    0    0  501    0  0.00000000000E+00  0.00000000000E+00  0.22408992627E+04  0.22408992627E+04  0.25500000920E-02 0. -1.
       -2   -1    0    0    0  501  0.00000000000E+00  0.00000000000E+00 -0.29406975701E+03  0.29406975702E+03  0.25500000920E-02 0.  1.
    10030    2    1    2    0    0  0.00000000000E+00  0.00000000000E+00  0.19468295057E+04  0.25349690198E+04  0.16235525266E+04 0.  0.
        2    1    3    3  502    0 -0.36336906390E+03  0.47845782092E+03  0.18257889302E+04  0.19220988998E+04  0.25500000920E-02 0. -1.
       -2    1    3    3    0  502  0.36336906390E+03 -0.47845782092E+03  0.12104057554E+03  0.61287011996E+03  0.25500000920E-02 0.  1.
</event>
<event>
 5   0  0.1761255E-04  0.1597332E+04  0.7818609E-02  0.8822189E-01
        1   -1    0    0  501    0  0.00000000000E+00  0.00000000000E+00  0.25966359141E+04  0.25966359141E+04  0.50400001928E-02 0.  1.
       -1   -1    0    0    0  501  0.00000000000E+00  0.00000000000E+00 -0.24565152099E+03  0.24565152104E+03  0.50400001928E-02 0. -1.
    10030    2    1    2    0    0  0.00000000000E+00  0.00000000000E+00  0.23509843932E+04  0.28422874352E+04  0.15973322282E+04 0.  0.
        2    1    3    3  502    0  0.25231591765E+03 -0.75727212138E+03  0.12240007038E+04  0.14612672962E+04  0.25500000920E-02 0. -1.
       -2    1    3    3    0  502 -0.25231591765E+03  0.75727212138E+03  0.11269836894E+04  0.13810201390E+04  0.25500000920E-02 0.  1.
</event>
<event>
 5   0  0.3380454E-04  0.1627893E+04  0.7818609E-02  0.8803593E-01
       -2   -1    0    0    0  501  0.00000000000E+00  0.00000000000E+00  0.29482271041E+03  0.29482271042E+03  0.25500000920E-02 0. -1.
        2   -1    0    0  501    0  0.00000000000E+00  0.00000000000E+00 -0.22471442706E+04  0.22471442706E+04  0.25500000920E-02 0.  1.
    10030    2    1    2    0    0  0.00000000000E+00  0.00000000000E+00 -0.19523215602E+04  0.25419669810E+04  0.16278933191E+04 0.  0.
        5    1    3    3  502    0  0.32140922717E+03 -0.72310051221E+03 -0.12737040328E+04  0.14995073509E+04  0.46999998093E+01 0. -1.
       -5    1    3    3    0  502 -0.32140922717E+03  0.72310051221E+03 -0.67861752738E+03  0.10424596302E+04  0.46999998093E+01 0.  1.
</event>
<event>
 5   0  0.1819811E-04  0.1614348E+04  0.7818609E-02  0.8811782E-01
        1   -1    0    0  501    0  0.00000000000E+00  0.00000000000E+00  0.11575043019E+04  0.11575043019E+04  0.50400001928E-02 0. -1.
       -1   -1    0    0    0  501  0.00000000000E+00  0.00000000000E+00 -0.56287456649E+03  0.56287456651E+03  0.50400001928E-02 0.  1.
    10030    2    1    2    0    0  0.00000000000E+00  0.00000000000E+00  0.59462973537E+03  0.17203788684E+04  0.16143478338E+04 0.  0.
        1    1    3    3  502    0 -0.96488634129E+02  0.63763119604E+03  0.81463233560E+03  0.10389944374E+04  0.50400001928E-02 0. -1.
       -1    1    3    3    0  502  0.96488634129E+02 -0.63763119604E+03 -0.22000260023E+03  0.68138443100E+03  0.50400001928E-02 0.  1.
</event>
<event>
 5   0  0.3274900E-04  0.1589135E+04  0.7818609E-02  0.8827251E-01
        2   -1    0    0  501    0  0.00000000000E+00  0.00000000000E+00  0.37683950311E+03  0.37683950312E+03  0.25500000920E-02 0.  1.
       -2   -1    0    0    0  501  0.00000000000E+00  0.00000000000E+00 -0.16753492181E+04  0.16753492181E+04  0.25500000920E-02 0. -1.
    10030    2    1    2    0    0  0.00000000000E+00  0.00000000000E+00 -0.12985097150E+04  0.20521887212E+04  0.15891353207E+04 0.  0.
        3    1    3    3  502    0  0.71692792003E+02  0.15333272025E+03  0.35328655094E+03  0.39174248787E+03  0.10100000352E+00 0.  1.
       -3    1    3    3    0  502 -0.71692792003E+02 -0.15333272025E+03 -0.16517962659E+04  0.16604462333E+04  0.10100000352E+00 0. -1.
</event>
<event>
 5   0  0.3380454E-04  0.1603061E+04  0.7818609E-02  0.8818670E-01
       -2   -1    0    0    0  501  0.00000000000E+00  0.00000000000E+00  0.24647531548E+03  0.24647531550E+03  0.25500000920E-02 0.  1.
        2   -1    0    0  501    0  0.00000000000E+00  0.00000000000E+00 -0.26065546170E+04  0.26065546170E+04  0.25500000920E-02 0. -1.
    10030    2    1    2    0    0  0.00000000000E+00  0.00000000000E+00 -0.23600793016E+04  0.28530299325E+04  0.16030612859E+04 0.  0.
        5    1    3    3  502    0  0.13050383179E+03 -0.77821353295E+03 -0.14303554844E+04  0.16335808688E+04  0.46999998093E+01 0. -1.
       -5    1    3    3    0  502 -0.13050383179E+03  0.77821353295E+03 -0.92972381711E+03  0.12194490637E+04  0.46999998093E+01 0.  1.
</event>
<event>
 5   0  0.1819811E-04  0.1603111E+04  0.7818609E-02  0.8818639E-01
        1   -1    0    0  501    0  0.00000000000E+00  0.00000000000E+00  0.98122915887E+03  0.98122915888E+03  0.50400001928E-02 0.  1.
       -1   -1    0    0    0  501  0.00000000000E+00  0.00000000000E+00 -0.65478240851E+03  0.65478240853E+03  0.50400001928E-02 0. -1.
    10030    2    1    2    0    0  0.00000000000E+00  0.00000000000E+00  0.32644675036E+03  0.16360115674E+04  0.16031114646E+04 0.  0.
        1    1    3    3  502    0 -0.51056168469E+03 -0.36299095691E+03  0.67354177024E+03  0.91983378116E+03  0.50400001928E-02 0.  1.
       -1    1    3    3    0  502  0.51056168469E+03  0.36299095691E+03 -0.34709501989E+03  0.71617778626E+03  0.50400001928E-02 0. -1.
</event>
<event>
 5   0  0.3210612E-04  0.1594776E+04  0.7818609E-02  0.8823763E-01
       -2   -1    0    0    0  501  0.00000000000E+00  0.00000000000E+00  0.22091482885E+03  0.22091482886E+03  0.25500000920E-02 0. -1.
        2   -1    0    0  501    0  0.00000000000E+00  0.00000000000E+00 -0.28781590512E+04  0.28781590512E+04  0.25500000920E-02 0.  1.
    10030    2    1    2    0    0  0.00000000000E+00  0.00000000000E+00 -0.26572442223E+04  0.30990738801E+04  0.15947764912E+04 0.  0.
        2    1    3    3  502    0  0.15215241703E+03  0.42383152831E+03 -0.49834665249E+02  0.45306403109E+03  0.25500000920E-02 0. -1.
       -2    1    3    3    0  502 -0.15215241703E+03 -0.42383152831E+03 -0.26074095571E+04  0.26460098490E+04  0.25500000920E-02 0.  1.
</event>
<event>
 5   0  0.3380454E-04  0.1614545E+04  0.7818609E-02  0.8811662E-01
        2   -1    0    0  501    0  0.00000000000E+00  0.00000000000E+00  0.43526050728E+03  0.43526050729E+03  0.25500000920E-02 0.  1.
       -2   -1    0    0    0  501  0.00000000000E+00  0.00000000000E+00 -0.14972395413E+04  0.14972395413E+04  0.25500000920E-02 0. -1.
    10030    2    1    2    0    0  0.00000000000E+00  0.00000000000E+00 -0.10619790340E+04  0.19325000486E+04  0.16145454373E+04 0.  0.
        5    1    3    3  502    0  0.60452634070E+02 -0.58729070904E+03  0.12797772388E+03  0.60412356824E+03  0.46999998093E+01 0.  1.
       -5    1    3    3    0  502 -0.60452634070E+02  0.58729070904E+03 -0.11899567579E+04  0.13283764804E+04  0.46999998093E+01 0. -1.
</event>
<event>
 5   0  0.1761255E-04  0.1599822E+04  0.7818609E-02  0.8820658E-01
       -1   -1    0    0    0  501  0.00000000000E+00  0.00000000000E+00  0.57751608137E+03  0.57751608139E+03  0.50400001928E-02 0.  1.
        1   -1    0    0  501    0  0.00000000000E+00  0.00000000000E+00 -0.11079471615E+04  0.11079471615E+04  0.50400001928E-02 0. -1.
    10030    2    1    2    0    0  0.00000000000E+00  0.00000000000E+00 -0.53043108009E+03  0.16854632429E+04  0.15998216189E+04 0.  0.
        2    1    3    3  502    0  0.21253954805E+03  0.76429014549E+03 -0.15703049007E+03  0.80868477221E+03  0.25500000920E-02 0.  1.
       -2    1    3    3    0  502 -0.21253954805E+03 -0.76429014549E+03 -0.37340059003E+03  0.87677847066E+03  0.25500000920E-02 0. -1.
</event>
<event>
 5   0  0.3380454E-04  0.1596098E+04  0.7818609E-02  0.8822948E-01
        2   -1    0    0  501    0  0.00000000000E+00  0.00000000000E+00  0.33270534999E+03  0.33270535000E+03  0.25500000920E-02 0.  1.
       -2   -1    0    0    0  501  0.00000000000E+00  0.00000000000E+00 -0.19142539300E+04  0.19142539300E+04  0.25500000920E-02 0. -1.
    10030    2    1    2    0    0  0.00000000000E+00  0.00000000000E+00 -0.15815485800E+04  0.22469592800E+04  0.15960983977E+04 0.  0.
        5    1    3    3  502    0  0.51218681760E+03  0.37943858448E+03 -0.14667319241E+04  0.15992603299E+04  0.46999998093E+01 0. -1.
       -5    1    3    3    0  502 -0.51218681760E+03 -0.37943858448E+03 -0.11481665589E+03  0.64769895012E+03  0.46999998093E+01 0.  1.
</event>
<event>
 5   0  0.1787688E-04  0.1620377E+04  0.7818609E-02  0.8808126E-01
        1   -1    0    0  501    0  0.00000000000E+00  0.00000000000E+00  0.47655646004E+03  0.47655646006E+03  0.50400001928E-02 0.  1.
       -1   -1    0    0    0  501  0.00000000000E+00  0.00000000000E+00 -0.13773935477E+04  0.13773935477E+04  0.50400001928E-02 0. -1.
    10030    2    1    2    0    0  0.00000000000E+00  0.00000000000E+00 -0.90083708767E+03  0.18539500078E+04  0.16203774785E+04 0.  0.
        4    1    3    3  502    0  0.48579490787E+03 -0.43320533959E+03 -0.10023916469E+04  0.11951795620E+04  0.12699999809E+01 0. -1.
       -4    1    3    3    0  502 -0.48579490787E+03  0.43320533959E+03  0.10155455927E+03  0.65877044574E+03  0.12699999809E+01 0.  1.
</event>
<event>
 5   0  0.1764099E-04  0.1598055E+04  0.7818609E-02  0.8821744E-01
       -1   -1    0    0    0  501  0.00000000000E+00  0.00000000000E+00  0.10326032902E+04  0.10326032902E+04  0.50400001928E-02 0. -1.
        1   -1    0    0  501    0  0.00000000000E+00  0.00000000000E+00 -0.61828646072E+03  0.61828646074E+03  0.50400001928E-02 0.  1.
    10030    2    1    2    0    0  0.00000000000E+00  0.00000000000E+00  0.41431682947E+03  0.16508897509E+04  0.15980546094E+04 0.  0.
        5    1    3    3  502    0 -0.20043513515E+03 -0.61942251933E+02  0.10036295501E+04  0.10253318730E+04  0.46999998093E+01 0. -1.
       -5    1    3    3    0  502  0.20043513515E+03  0.61942251933E+02 -0.58931272062E+03  0.62555787794E+03  0.46999998093E+01 0.  1.
</event>
<event>
 5   0  0.1764099E-04  0.1623649E+04  0.7818609E-02  0.8806150E-01
       -1   -1    0    0    0  501  0.00000000000E+00  0.00000000000E+00  0.49821783291E+03  0.49821783294E+03  0.50400001928E-02 0. -1.
        1   -1    0    0  501    0  0.00000000000E+00  0.00000000000E+00 -0.13228338404E+04  0.13228338404E+04  0.50400001928E-02 0.  1.
    10030    2    1    2    0    0  0.00000000000E+00  0.00000000000E+00 -0.82461600752E+03  0.18210516734E+04  0.16236494810E+04 0.  0.
        5    1    3    3  502    0 -0.77364860902E+02 -0.16948687418E+03  0.47390020920E+03  0.50922943797E+03  0.46999998093E+01 0. -1.
       -5    1    3    3    0  502  0.77364860902E+02  0.16948687418E+03 -0.12985162167E+04  0.13118222354E+04  0.46999998093E+01 0.  1.
</event>
<event>
 5   0  0.1219463E-04  0.1604087E+04  0.7818609E-02  0.8818041E-01
        3   -1    0    0  501    0  0.00000000000E+00  0.00000000000E+00  0.14581938232E+04  0.14581938267E+04  0.10100000352E+00 0. -1.
       -3   -1    0    0    0  501  0.00000000000E+00  0.00000000000E+00 -0.44114418126E+03  0.44114419282E+03  0.10100000352E+00 0.  1.
    10030    2    1    2    0    0  0.00000000000E+00  0.00000000000E+00  0.10170496419E+04  0.18993380195E+04  0.16040869484E+04 0.  0.
        1    1    3    3  502    0  0.41832445138E+03 -0.60430702772E+03  0.12834804454E+03  0.74609352694E+03  0.50400001928E-02 0.  1.
       -1    1    3    3    0  502 -0.41832445138E+03  0.60430702772E+03  0.88870159736E+03  0.11532444925E+04  0.50400001928E-02 0. -1.
</event>
<event>
 5   0  0.3274900E-04  0.1598966E+04  0.7818609E-02  0.8821184E-01
       -2   -1    0    0    0  501  0.00000000000E+00  0.00000000000E+00  0.94647864488E+03  0.94647864489E+03  0.25500000920E-02 0. -1.
        2   -1    0    0  501    0  0.00000000000E+00  0.00000000000E+00 -0.67531672037E+03  0.67531672038E+03  0.25500000920E-02 0.  1.
    10030    2    1    2    0    0  0.00000000000E+00  0.00000000000E+00  0.27116192451E+03  0.16217953653E+04  0.15989657337E+04 0.  0.
        3    1    3    3  502    0 -0.63324875031E+03  0.38544553324E+03 -0.16802644984E+03  0.76013494652E+03  0.10100000352E+00 0.  1.
       -3    1    3    3    0  502  0.63324875031E+03 -0.38544553324E+03  0.43918837435E+03  0.86166041875E+03  0.10100000352E+00 0. -1.
</event>
<event>
 5   0  0.1764099E-04  0.1584720E+04  0.7818609E-02  0.8829990E-01
        1   -1    0    0  501    0  0.00000000000E+00  0.00000000000E+00  0.10774773294E+04  0.10774773294E+04  0.50400001928E-02 0.  1.
       -1   -1    0    0    0  501  0.00000000000E+00  0.00000000000E+00 -0.58268913604E+03  0.58268913606E+03  0.50400001928E-02 0. -1.
    10030    2    1    2    0    0  0.00000000000E+00  0.00000000000E+00  0.49478819333E+03  0.16601664654E+04  0.15847199553E+04 0.  0.
        5    1    3    3  502    0  0.13601176404E+03  0.39083257501E+03 -0.46046927377E+03  0.61911496811E+03  0.46999998093E+01 0. -1.
       -5    1    3    3    0  502 -0.13601176404E+03 -0.39083257501E+03  0.95525746711E+03  0.10410514973E+04  0.46999998093E+01 0.  1.
</event>
<event>
 5   0  0.1764099E-04  0.1603894E+04  0.7818609E-02  0.8818160E-01
       -1   -1    0    0    0  501  0.00000000000E+00  0.00000000000E+00  0.90044749367E+03  0.90044749369E+03  0.50400001928E-02 0.  1.
        1   -1    0    0  501    0  0.00000000000E+00  0.00000000000E+00 -0.71422117563E+03  0.71422117565E+03  0.50400001928E-02 0. -1.
    10030    2    1    2    0    0  0.00000000000E+00  0.00000000000E+00  0.18622631804E+03  0.16146686693E+04  0.16038935969E+04 0.  0.
        5    1    3    3  502    0 -0.60394610207E+03  0.17880223755E+03 -0.40658364765E+03  0.74970226549E+03  0.46999998093E+01 0. -1.
       -5    1    3    3    0  502  0.60394610207E+03 -0.17880223755E+03  0.59280996569E+03  0.86496640384E+03  0.46999998093E+01 0.  1.
</event>
<event>
 5   0  0.3274900E-04  0.1604026E+04  0.7818609E-02  0.8818079E-01
        2   -1    0    0  501    0  0.00000000000E+00  0.00000000000E+00  0.15772862788E+04  0.15772862788E+04  0.25500000920E-02 0.  1.
       -2   -1    0    0    0  501  0.00000000000E+00  0.00000000000E+00 -0.40780472736E+03  0.40780472737E+03  0.25500000920E-02 0. -1.
    10030    2    1    2    0    0  0.00000000000E+00  0.00000000000E+00  0.11694815515E+04  0.19850910062E+04  0.16040259361E+04 0.  0.
        3    1    3    3  502    0  0.23662931126E+03  0.11035192717E+02  0.15330033723E+04  0.15511977811E+04  0.10100000352E+00 0.  1.
       -3    1    3    3    0  502 -0.23662931126E+03 -0.11035192717E+02 -0.36352182079E+03  0.43389322513E+03  0.10100000352E+00 0. -1.
</event>
<event>
 5   0  0.3228393E-04  0.1600596E+04  0.7818609E-02  0.8820182E-01
        2   -1    0    0  501    0  0.00000000000E+00  0.00000000000E+00  0.19465309038E+04  0.19465309038E+04  0.25500000920E-02 0.  1.
       -2   -1    0    0    0  501  0.00000000000E+00  0.00000000000E+00 -0.32903491979E+03  0.32903491980E+03  0.25500000920E-02 0. -1.
    10030    2    1    2    0    0  0.00000000000E+00  0.00000000000E+00  0.16174959840E+04  0.22755658236E+04  0.16005956889E+04 0.  0.
        1    1    3    3  502    0 -0.51309286866E+03 -0.25216091770E+03  0.16049341696E+04  0.17037203729E+04  0.50400001928E-02 0.  1.
       -1    1    3    3    0  502  0.51309286866E+03  0.25216091770E+03  0.12561814426E+02  0.57184545071E+03  0.50400001928E-02 0. -1.
</event>
<event>
 5   0  0.3263294E-04  0.1597857E+04  0.7818609E-02  0.8821866E-01
        2   -1    0    0  501    0  0.00000000000E+00  0.00000000000E+00  0.15636459259E+04  0.15636459259E+04  0.25500000920E-02 0. -1.
       -2   -1    0    0    0  501  0.00000000000E+00  0.00000000000E+00 -0.40820421551E+03  0.40820421552E+03  0.25500000920E-02 0.  1.
    10030    2    1    2    0    0  0.00000000000E+00  0.00000000000E+00  0.11554417104E+04  0.19718501415E+04  0.15978571382E+04 0.  0.
        4    1    3    3  502    0 -0.71573190442E+03 -0.23602023922E+03  0.90493863190E+03  0.11776643209E+04  0.12699999809E+01 0. -1.
       -4    1    3    3    0  502  0.71573190442E+03  0.23602023922E+03  0.25050307853E+03  0.79418582056E+03  0.12699999809E+01 0.  1.
</event>
<event>
 5   0  0.1761255E-04  0.1587090E+04  0.7818609E-02  0.8828518E-01
       -1   -1    0    0    0  501  0.00000000000E+00  0.00000000000E+00  0.62505436218E+03  0.62505436220E+03  0.50400001928E-02 0.  1.
        1   -1    0    0  501    0  0.00000000000E+00  0.00000000000E+00 -0.10074544435E+04  0.10074544435E+04  0.50400001928E-02 0. -1.
    10030    2    1    2    0    0  0.00000000000E+00  0.00000000000E+00 -0.38240008131E+03  0.16325088057E+04  0.15870901608E+04 0.  0.
        2    1    3    3  502    0  0.75928111323E+01  0.49624183535E+03  0.44571292829E+03  0.66706343356E+03  0.25500000920E-02 0.  1.
       -2    1    3    3    0  502 -0.75928111323E+01 -0.49624183535E+03 -0.82811300960E+03  0.96544537215E+03  0.25500000920E-02 0. -1.
</event>
<event>
 5   0  0.3380454E-04  0.1609801E+04  0.7818609E-02  0.8814549E-01
       -2   -1    0    0    0  501  0.00000000000E+00  0.00000000000E+00  0.53618078381E+03  0.53618078382E+03  0.25500000920E-02 0. -1.
        2   -1    0    0  501    0  0.00000000000E+00  0.00000000000E+00 -0.12082954000E+04  0.12082954001E+04  0.25500000920E-02 0.  1.
    10030    2    1    2    0    0  0.00000000000E+00  0.00000000000E+00 -0.67211461624E+03  0.17444761839E+04  0.16098009500E+04 0.  0.
        5    1    3    3  502    0 -0.51487919826E+01  0.16371282362E+02  0.53596762139E+03  0.53626291138E+03  0.46999998093E+01 0. -1.
       -5    1    3    3    0  502  0.51487919826E+01 -0.16371282362E+02 -0.12080822376E+04  0.12082132725E+04  0.46999998093E+01 0.  1.
</event>
<event>
 5   0  0.1787688E-04  0.1598903E+04  0.7818609E-02  0.8821223E-01
        1   -1    0    0  501    0  0.00000000000E+00  0.00000000000E+00  0.26048230522E+04  0.26048230522E+04  0.50400001928E-02 0.  1.
       -1   -1    0    0    0  501  0.00000000000E+00  0.00000000000E+00 -0.24536113217E+03  0.24536113222E+03  0.50400001928E-02 0. -1.
    10030    2    1    2    0    0  0.00000000000E+00  0.00000000000E+00  0.23594619200E+04  0.28501841844E+04  0.15989025402E+04 0.  0.
        4    1    3    3  502    0  0.68008001819E+03  0.23546910834E+03  0.55923114523E+03  0.91142504838E+03  0.12699999809E+01 0. -1.
       -4    1    3    3    0  502 -0.68008001819E+03 -0.23546910834E+03  0.18002307748E+04  0.19387591360E+04  0.12699999809E+01 0.  1.
</event>
<event>
 5   0  0.3228393E-04  0.1608365E+04  0.7818609E-02  0.8815426E-01
        2   -1    0    0  501    0  0.00000000000E+00  0.00000000000E+00  0.82205537279E+03  0.82205537279E+03  0.25500000920E-02 0.  1.
       -2   -1    0    0    0  501  0.00000000000E+00  0.00000000000E+00 -0.78669799137E+03  0.78669799137E+03  0.25500000920E-02 0. -1.
    10030    2    1    2    0    0  0.00000000000E+00  0.00000000000E+00  0.35357381423E+02  0.16087533642E+04  0.16083647728E+04 0.  0.
        1    1    3    3  502    0 -0.15763334213E+03  0.15323939196E+03 -0.75605763910E+03  0.78737140884E+03  0.50400001928E-02 0. -1.
       -1    1    3    3    0  502  0.15763334213E+03 -0.15323939196E+03  0.79141502052E+03  0.82138195532E+03  0.50400001928E-02 0.  1.
</event>
<event>
 5   0  0.3380454E-04  0.1604814E+04  0.7818609E-02  0.8817596E-01
       -2   -1    0    0    0  501  0.00000000000E+00  0.00000000000E+00  0.95047070819E+03  0.95047070819E+03  0.25500000920E-02 0. -1.
        2   -1    0    0  501    0  0.00000000000E+00  0.00000000000E+00 -0.67740859638E+03  0.67740859638E+03  0.25500000920E-02 0.  1.
    10030    2    1    2    0    0  0.00000000000E+00  0.00000000000E+00  0.27306211181E+03  0.16278793046E+04  0.16048140432E+04 0.  0.
        5    1    3    3  502    0  0.21523266839E+03 -0.17924791884E+03 -0.62619347499E+03  0.68599947235E+03  0.46999998093E+01 0.  1.
       -5    1    3    3    0  502 -0.21523266839E+03  0.17924791884E+03  0.89925558680E+03  0.94187983222E+03  0.46999998093E+01 0. -1.
</event>
<event>
 5   0  0.3210612E-04  0.1582921E+04  0.7818609E-02  0.8831110E-01
       -2   -1    0    0    0  501  0.00000000000E+00  0.00000000000E+00  0.13429780772E+04  0.13429780772E+04  0.25500000920E-02 0. -1.
        2   -1    0    0  501    0  0.00000000000E+00  0.00000000000E+00 -0.46643309582E+03  0.46643309583E+03  0.25500000920E-02 0.  1.
    10030    2    1    2    0    0  0.00000000000E+00  0.00000000000E+00  0.87654498136E+03  0.18094111730E+04  0.15829206198E+04 0.  0.
        2    1    3    3  502    0 -0.62586304248E+03 -0.47852271456E+03  0.52473140413E+03  0.94658944785E+03  0.25500000920E-02 0. -1.
       -2    1    3    3    0  502  0.62586304248E+03  0.47852271456E+03  0.35181357723E+03  0.86282172516E+03  0.25500000920E-02 0.  1.
</event>
<event>
 5   0  0.1819811E-04  0.1599207E+04  0.7818609E-02  0.8821035E-01
        1   -1    0    0  501    0  0.00000000000E+00  0.00000000000E+00  0.54336456113E+03  0.54336456116E+03  0.50400001928E-02 0.  1.
       -1   -1    0    0    0  501  0.00000000000E+00  0.00000000000E+00 -0.11766788775E+04  0.11766788775E+04  0.50400001928E-02 0. -1.
    10030    2    1    2    0    0  0.00000000000E+00  0.00000000000E+00 -0.63331431638E+03  0.17200434387E+04  0.15992068058E+04 0.  0.
        1    1    3    3  502    0 -0.11960343472E+03  0.65965859557E+03  0.15205910867E+03  0.68744193708E+03  0.50400001928E-02 0.  1.
       -1    1    3    3    0  502  0.11960343472E+03 -0.65965859557E+03 -0.78537342505E+03  0.10326015016E+04  0.50400001928E-02 0. -1.
</event>
<event>
 5   0  0.1787688E-04  0.1622301E+04  0.7818609E-02  0.8806964E-01
        1   -1    0    0  501    0  0.00000000000E+00  0.00000000000E+00  0.51827450319E+03  0.51827450321E+03  0.50400001928E-02 0.  1.
       -1   -1    0    0    0  501  0.00000000000E+00  0.00000000000E+00 -0.12695299344E+04  0.12695299344E+04  0.50400001928E-02 0. -1.
    10030    2    1    2    0    0  0.00000000000E+00  0.00000000000E+00 -0.75125543118E+03  0.17878044376E+04  0.16223008304E+04 0.  0.
        4    1    3    3  502    0 -0.49403155126E+03  0.46294422716E+03 -0.86794590374E+03  0.11007798308E+04  0.12699999809E+01 0. -1.
       -4    1    3    3    0  502  0.49403155126E+03 -0.46294422716E+03  0.11669047255E+03  0.68702460683E+03  0.12699999809E+01 0.  1.
</event>
<event>
 5   0  0.3210612E-04  0.1591619E+04  0.7818609E-02  0.8825714E-01
        2   -1    0    0  501    0  0.00000000000E+00  0.00000000000E+00  0.35475233354E+03  0.35475233354E+03  0.25500000920E-02 0.  1.
       -2   -1    0    0    0  501  0.00000000000E+00  0.00000000000E+00 -0.17852243972E+04  0.17852243972E+04  0.25500000920E-02 0. -1.
    10030    2    1    2    0    0  0.00000000000E+00  0.00000000000E+00 -0.14304720637E+04  0.21399767308E+04  0.15916186991E+04 0.  0.
        2    1    3    3  502    0 -0.57821991969E+03 -0.19422933108E+03 -0.28013305652E+02  0.61061285106E+03  0.25500000920E-02 0.  1.
       -2    1    3    3    0  502  0.57821991969E+03  0.19422933108E+03 -0.14024587580E+04  0.15293638797E+04  0.25500000920E-02 0. -1.
</event>
<event>
 5   0  0.3380454E-04  0.1627380E+04  0.7818609E-02  0.8803902E-01
       -2   -1    0    0    0  501  0.00000000000E+00  0.00000000000E+00  0.25476337399E+03  0.25476337400E+03  0.25500000920E-02 0.  1.
        2   -1    0    0  501    0  0.00000000000E+00  0.00000000000E+00 -0.25988495573E+04  0.25988495574E+04  0.25500000920E-02 0. -1.
    10030    2    1    2    0    0  0.00000000000E+00  0.00000000000E+00 -0.23440861834E+04  0.28536129313E+04  0.16273803265E+04 0.  0.
        5    1    3    3  502    0 -0.11903562302E+03 -0.26217341442E+03 -0.25065082435E+04  0.25229962433E+04  0.46999998093E+01 0. -1.
       -5    1    3    3    0  502  0.11903562302E+03  0.26217341442E+03  0.16242206018E+03  0.33061668804E+03  0.46999998093E+01 0.  1.
</event>
<event>
 5   0  0.1787688E-04  0.1599403E+04  0.7818609E-02  0.8820915E-01
        1   -1    0    0  501    0  0.00000000000E+00  0.00000000000E+00  0.63194357190E+03  0.63194357192E+03  0.50400001928E-02 0. -1.
       -1   -1    0    0    0  501  0.00000000000E+00  0.00000000000E+00 -0.10119929594E+04  0.10119929594E+04  0.50400001928E-02 0.  1.
    10030    2    1    2    0    0  0.00000000000E+00  0.00000000000E+00 -0.38004938754E+03  0.16439365314E+04  0.15994029455E+04 0.  0.
        4    1    3    3  502    0 -0.70667459623E+03 -0.28531402482E+02 -0.57367051256E+03  0.91066047227E+03  0.12699999809E+01 0. -1.
       -4    1    3    3    0  502  0.70667459623E+03  0.28531402482E+02  0.19362112502E+03  0.73327605909E+03  0.12699999809E+01 0.  1.
</event>
<event>
 5   0  0.1761255E-04  0.1603366E+04  0.7818609E-02  0.8818483E-01
       -1   -1    0    0    0  501  0.00000000000E+00  0.00000000000E+00  0.97580802699E+03  0.97580802701E+03  0.50400001928E-02 0.  1.
        1   -1    0    0  501    0  0.00000000000E+00  0.00000000000E+00 -0.65862946745E+03  0.65862946747E+03  0.50400001928E-02 0. -1.
    10030    2    1    2    0    0  0.00000000000E+00  0.00000000000E+00  0.31717855954E+03  0.16344374945E+04  0.16033663601E+04 0.  0.
        2    1    3    3  502    0 -0.63991023590E+02 -0.15073071872E+03  0.95857837151E+03  0.97246444408E+03  0.25500000920E-02 0.  1.
       -2    1    3    3    0  502  0.63991023590E+02  0.15073071872E+03 -0.64139981197E+03  0.66197305041E+03  0.25500000920E-02 0. -1.
</event>
<event>
 5   0  0.3263294E-04  0.1595237E+04  0.7818609E-02  0.8823480E-01
       -2   -1    0    0    0  501  0.00000000000E+00  0.00000000000E+00  0.25199598458E+03  0.25199598459E+03  0.25500000920E-02 0.  1.
        2   -1    0    0  501    0  0.00000000000E+00  0.00000000000E+00 -0.25246238902E+04  0.25246238902E+04  0.25500000920E-02 0. -1.
    10030    2    1    2    0    0  0.00000000000E+00  0.00000000000E+00 -0.22726279056E+04  0.27766198748E+04  0.15952367635E+04 0.  0.
        4    1    3    3  502    0 -0.37041610806E+03  0.51090819967E+03 -0.19853802556E+04  0.20832598623E+04  0.12699999809E+01 0. -1.
       -4    1    3    3    0  502  0.37041610806E+03 -0.51090819967E+03 -0.28724765003E+03  0.69336001251E+03  0.12699999809E+01 0.  1.
</event>
<event>
 5   0  0.1219463E-04  0.1621398E+04  0.7818609E-02  0.8807509E-01
       -3   -1    0    0    0  501  0.00000000000E+00  0.00000000000E+00  0.93976705995E+03  0.93976706538E+03  0.10100000352E+00 0.  1.
        3   -1    0    0  501    0  0.00000000000E+00  0.00000000000E+00 -0.69935710473E+03  0.69935711203E+03  0.10100000352E+00 0. -1.
    10030    2    1    2    0    0  0.00000000000E+00  0.00000000000E+00  0.24040995522E+03  0.16391241774E+04  0.16213978914E+04 0.  0.
        2    1    3    3  502    0  0.79036418480E+03  0.10475719929E+03 -0.28313271121E+02  0.79777895231E+03  0.25500000920E-02 0. -1.
       -2    1    3    3    0  502 -0.79036418480E+03 -0.10475719929E+03  0.26872322634E+03  0.84134522510E+03  0.25500000920E-02 0.  1.
</event>
<event>
 5   0  0.3263294E-04  0.1600798E+04  0.7818609E-02  0.8820058E-01
       -2   -1    0    0    0  501  0.00000000000E+00  0.00000000000E+00  0.44257929588E+03  0.44257929589E+03  0.25500000920E-02 0. -1.
        2   -1    0    0  501    0  0.00000000000E+00  0.00000000000E+00 -0.14475117854E+04  0.14475117854E+04  0.25500000920E-02 0.  1.
    10030    2    1    2    0    0  0.00000000000E+00  0.00000000000E+00 -0.10049324895E+04  0.18900910813E+04  0.16007982343E+04 0.  0.
        4    1    3    3  502    0 -0.55646817057E+02 -0.74653642893E+02  0.43616168703E+03  0.44599144025E+03  0.12699999809E+01 0. -1.
       -4    1    3    3    0  502  0.55646817057E+02  0.74653642893E+02 -0.14410941765E+04  0.14440996410E+04  0.12699999809E+01 0.  1.
</event>
<event>
 5   0  0.3263294E-04  0.1565162E+04  0.7818609E-02  0.8842241E-01
        2   -1    0    0  501    0  0.00000000000E+00  0.00000000000E+00  0.14528584391E+04  0.14528584391E+04  0.25500000920E-02 0.  1.
       -2   -1    0    0    0  501  0.00000000000E+00  0.00000000000E+00 -0.42153681365E+03  0.42153681366E+03  0.25500000920E-02 0. -1.
    10030    2    1    2    0    0  0.00000000000E+00  0.00000000000E+00  0.10313216254E+04  0.18743952527E+04  0.15651623777E+04 0.  0.
        4    1    3    3  502    0 -0.90918889041E+02  0.12831811175E+03  0.14337388374E+04  0.14423385348E+04  0.12699999809E+01 0.  1.
       -4    1    3    3    0  502  0.90918889041E+02 -0.12831811175E+03 -0.40241721194E+03  0.43205671798E+03  0.12699999809E+01 0. -1.
</event>
<event>
 5   0  0.3274900E-04  0.1593703E+04  0.7818609E-02  0.8824426E-01
       -2   -1    0    0    0  501  0.00000000000E+00  0.00000000000E+00  0.65542712528E+03  0.65542712529E+03  0.25500000920E-02 0. -1.
        2   -1    0    0  501    0  0.00000000000E+00  0.00000000000E+00 -0.96879115391E+03  0.96879115391E+03  0.25500000920E-02 0.  1.
    10030    2    1    2    0    0  0.00000000000E+00  0.00000000000E+00 -0.31336402863E+03  0.16242182792E+04  0.15937026084E+04 0.  0.
        3    1    3    3  502    0 -0.27834602713E+03  0.10520269959E+03  0.59667967652E+03  0.66676140065E+03  0.10100000352E+00 0. -1.
       -3    1    3    3    0  502  0.27834602713E+03 -0.10520269959E+03 -0.91004370514E+03  0.95745687856E+03  0.10100000352E+00 0.  1.
</event>
<event>
 5   0  0.1761255E-04  0.1545317E+04  0.7818609E-02  0.8854865E-01
       -1   -1    0    0    0  501  0.00000000000E+00  0.00000000000E+00  0.13458570390E+04  0.13458570390E+04  0.50400001928E-02 0.  1.
        1   -1    0    0  501    0  0.00000000000E+00  0.00000000000E+00 -0.44358415716E+03  0.44358415719E+03  0.50400001928E-02 0. -1.
    10030    2    1    2    0    0  0.00000000000E+00  0.00000000000E+00  0.90227288186E+03  0.17894411962E+04  0.15453166153E+04 0.  0.
        2    1    3    3  502    0 -0.30903020811E+03 -0.50089741816E+03  0.10308227744E+04  0.11870103139E+04  0.25500000920E-02 0.  1.
       -2    1    3    3    0  502  0.30903020811E+03  0.50089741816E+03 -0.12854989259E+03  0.60243088229E+03  0.25500000920E-02 0. -1.
</event>
<event>
 5   0  0.1819811E-04  0.1600975E+04  0.7818609E-02  0.8819950E-01
       -1   -1    0    0    0  501  0.00000000000E+00  0.00000000000E+00  0.48852175948E+03  0.48852175951E+03  0.50400001928E-02 0.  1.
        1   -1    0    0  501    0  0.00000000000E+00  0.00000000000E+00 -0.13116711249E+04  0.13116711249E+04  0.50400001928E-02 0. -1.
    10030    2    1    2    0    0  0.00000000000E+00  0.00000000000E+00 -0.82314936544E+03  0.18001928844E+04  0.16009745605E+04 0.  0.
        1    1    3    3  502    0  0.33455490709E+03 -0.53218760645E+03 -0.96885621614E+03  0.11549168809E+04  0.50400001928E-02 0. -1.
       -1    1    3    3    0  502 -0.33455490709E+03  0.53218760645E+03  0.14570685070E+03  0.64527600349E+03  0.50400001928E-02 0.  1.
</event>
<event>
 5   0  0.1764099E-04  0.1600240E+04  0.7818609E-02  0.8820401E-01
       -1   -1    0    0    0  501  0.00000000000E+00  0.00000000000E+00  0.89351014733E+03  0.89351014734E+03  0.50400001928E-02 0.  1.
        1   -1    0    0  501    0  0.00000000000E+00  0.00000000000E+00 -0.71649066026E+03  0.71649066028E+03  0.50400001928E-02 0. -1.
    10030    2    1    2    0    0  0.00000000000E+00  0.00000000000E+00  0.17701948706E+03  0.16100008076E+04  0.16002395764E+04 0.  0.
        5    1    3    3  502    0 -0.38517490675E+03 -0.59382203221E+03  0.46386087223E+03  0.84627023669E+03  0.46999998093E+01 0.  1.
       -5    1    3    3    0  502  0.38517490675E+03  0.59382203221E+03 -0.28684138517E+03  0.76373057093E+03  0.46999998093E+01 0. -1.
</event>
<event>
 5   0  0.3228393E-04  0.1692161E+04  0.7818609E-02  0.8765848E-01
       -2   -1    0    0    0  501  0.00000000000E+00  0.00000000000E+00  0.72852320673E+03  0.72852320673E+03  0.25500000920E-02 0.  1.
        2   -1    0    0  501    0  0.00000000000E+00  0.00000000000E+00 -0.98260725472E+03  0.98260725472E+03  0.25500000920E-02 0. -1.
    10030    2    1    2    0    0  0.00000000000E+00  0.00000000000E+00 -0.25408404799E+03  0.17111304615E+04  0.16921609713E+04 0.  0.
        1    1    3    3  502    0  0.38690971839E+02  0.40805712809E+03 -0.87550467258E+03  0.96670369959E+03  0.50400001928E-02 0. -1.
       -1    1    3    3    0  502 -0.38690971839E+02 -0.40805712809E+03  0.62142062458E+03  0.74442676186E+03  0.50400001928E-02 0.  1.
</event>
<event>
 5   0  0.3380454E-04  0.1613884E+04  0.7818609E-02  0.8812064E-01
        2   -1    0    0  501    0  0.00000000000E+00  0.00000000000E+00  0.92777564334E+03  0.92777564334E+03  0.25500000920E-02 0.  1.
       -2   -1    0    0    0  501  0.00000000000E+00  0.00000000000E+00 -0.70184556811E+03  0.70184556812E+03  0.25500000920E-02 0. -1.
    10030    2    1    2    0    0  0.00000000000E+00  0.00000000000E+00  0.22593007522E+03  0.16296212115E+04  0.16138837920E+04 0.  0.
        5    1    3    3  502    0 -0.12109616591E+03  0.44813799573E+03  0.77943238422E+03  0.90720938938E+03  0.46999998093E+01 0.  1.
       -5    1    3    3    0  502  0.12109616591E+03 -0.44813799573E+03 -0.55350230900E+03  0.72241182208E+03  0.46999998093E+01 0. -1.
</event>
<event>
 5   0  0.3263294E-04  0.1602083E+04  0.7818609E-02  0.8819269E-01
       -2   -1    0    0    0  501  0.00000000000E+00  0.00000000000E+00  0.33690326435E+03  0.33690326436E+03  0.25500000920E-02 0. -1.
        2   -1    0    0  501    0  0.00000000000E+00  0.00000000000E+00 -0.19046046817E+04  0.19046046817E+04  0.25500000920E-02 0.  1.
    10030    2    1    2    0    0  0.00000000000E+00  0.00000000000E+00 -0.15677014174E+04  0.22415079461E+04  0.16020830622E+04 0.  0.
        4    1    3    3  502    0 -0.87834780332E+02 -0.26202421092E+03 -0.18357945409E+04  0.18564791529E+04  0.12699999809E+01 0.  1.
       -4    1    3    3    0  502  0.87834780332E+02  0.26202421092E+03  0.26809312358E+03  0.38502879315E+03  0.12699999809E+01 0. -1.
</event>
<event>
 5   0  0.1764099E-04  0.1620230E+04  0.7818609E-02  0.8808215E-01
        1   -1    0    0  501    0  0.00000000000E+00  0.00000000000E+00  0.12491384602E+04  0.12491384602E+04  0.50400001928E-02 0. -1.
       -1   -1    0    0    0  501  0.00000000000E+00  0.00000000000E+00 -0.52539144987E+03  0.52539144989E+03  0.50400001928E-02 0.  1.
    10030    2    1    2    0    0  0.00000000000E+00  0.00000000000E+00  0.72374701032E+03  0.17745299101E+04  0.16202304363E+04 0.  0.
        5    1    3    3  502    0  0.47777940308E+03  0.62469378275E+03  0.14907928952E+03  0.80047623624E+03  0.46999998093E+01 0.  1.
       -5    1    3    3    0  502 -0.47777940308E+03 -0.62469378275E+03  0.57466772080E+03  0.97405367385E+03  0.46999998093E+01 0. -1.
</event>
<event>
 5   0  0.1819811E-04  0.1616670E+04  0.7818609E-02  0.8810372E-01
       -1   -1    0    0    0  501  0.00000000000E+00  0.00000000000E+00  0.94385066839E+03  0.94385066841E+03  0.50400001928E-02 0.  1.
        1   -1    0    0  501    0  0.00000000000E+00  0.00000000000E+00 -0.69227598271E+03  0.69227598273E+03  0.50400001928E-02 0. -1.
    10030    2    1    2    0    0  0.00000000000E+00  0.00000000000E+00  0.25157468569E+03  0.16361266511E+04  0.16166696002E+04 0.  0.
        1    1    3    3  502    0  0.20101114576E+02 -0.27282130607E+03 -0.64400478106E+03  0.69969827633E+03  0.50400001928E-02 0. -1.
       -1    1    3    3    0  502 -0.20101114576E+02  0.27282130607E+03  0.89557946674E+03  0.93642837480E+03  0.50400001928E-02 0.  1.
</event>
<event>
 5   0  0.1761255E-04  0.1517585E+04  0.7818609E-02  0.8872843E-01
       -1   -1    0    0    0  501  0.00000000000E+00  0.00000000000E+00  0.47776677648E+03  0.47776677650E+03  0.50400001928E-02 0.  1.
        1   -1    0    0  501    0  0.00000000000E+00  0.00000000000E+00 -0.12051189478E+04  0.12051189478E+04  0.50400001928E-02 0. -1.
    10030    2    1    2    0    0  0.00000000000E+00  0.00000000000E+00 -0.72735217128E+03  0.16828857243E+04  0.15175846533E+04 0.  0.
        2    1    3    3  502    0 -0.29975048622E+03  0.32111942346E+03  0.32242229204E+03  0.54490748988E+03  0.25500000920E-02 0.  1.
       -2    1    3    3    0  502  0.29975048622E+03 -0.32111942346E+03 -0.10497744633E+04  0.11379782344E+04  0.25500000920E-02 0. -1.
</event>
<event>
 5   0  0.1761255E-04  0.1607079E+04  0.7818609E-02  0.8816211E-01
        1   -1    0    0  501    0  0.00000000000E+00  0.00000000000E+00  0.22665352792E+04  0.22665352793E+04  0.50400001928E-02 0. -1.
       -1   -1    0    0    0  501  0.00000000000E+00  0.00000000000E+00 -0.28487332675E+03  0.28487332680E+03  0.50400001928E-02 0.  1.
    10030    2    1    2    0    0  0.00000000000E+00  0.00000000000E+00  0.19816619525E+04  0.25514086060E+04  0.16070786481E+04 0.  0.
        2    1    3    3  502    0  0.72708282957E+03  0.23246605722E+03  0.59239063684E+03  0.96623836367E+03  0.25500000920E-02 0.  1.
       -2    1    3    3    0  502 -0.72708282957E+03 -0.23246605722E+03  0.13892713157E+04  0.15851702424E+04  0.25500000920E-02 0. -1.
</event>
<event>
 5   0  0.1764099E-04  0.1613565E+04  0.7818609E-02  0.8812258E-01
       -1   -1    0    0    0  501  0.00000000000E+00  0.00000000000E+00  0.10854218678E+04  0.10854218678E+04  0.50400001928E-02 0.  1.
        1   -1    0    0  501    0  0.00000000000E+00  0.00000000000E+00 -0.59967246464E+03  0.59967246466E+03  0.50400001928E-02 0. -1.
    10030    2    1    2    0    0  0.00000000000E+00  0.00000000000E+00  0.48574940313E+03  0.16850943324E+04  0.16135645096E+04 0.  0.
        5    1    3    3  502    0  0.26236477663E+03  0.76050428406E+03  0.17957868156E+03  0.82430130108E+03  0.46999998093E+01 0. -1.
       -5    1    3    3    0  502 -0.26236477663E+03 -0.76050428406E+03  0.30617072156E+03  0.86079303135E+03  0.46999998093E+01 0.  1.
</event>
<event>
 5   0  0.3228393E-04  0.1600294E+04  0.7818609E-02  0.8820368E-01
        2   -1    0    0  501    0  0.00000000000E+00  0.00000000000E+00  0.95714279188E+03  0.95714279188E+03  0.25500000920E-02 0.  1.
       -2   -1    0    0    0  501  0.00000000000E+00  0.00000000000E+00 -0.66890238106E+03  0.66890238106E+03  0.25500000920E-02 0. -1.
    10030    2    1    2    0    0  0.00000000000E+00  0.00000000000E+00  0.28824041082E+03  0.16260451729E+04  0.16002938387E+04 0.  0.
        1    1    3    3  502    0 -0.60853760367E+03  0.47408475246E+02  0.66981336804E+03  0.90620942758E+03  0.50400001928E-02 0.  1.
       -1    1    3    3    0  502  0.60853760367E+03 -0.47408475246E+02 -0.38157295722E+03  0.71983574537E+03  0.50400001928E-02 0. -1.
</event>
<event>
 5   0  0.1761255E-04  0.1593061E+04  0.7818609E-02  0.8824822E-01
        1   -1    0    0  501    0  0.00000000000E+00  0.00000000000E+00  0.15300208618E+04  0.15300208618E+04  0.50400001928E-02 0.  1.
       -1   -1    0    0    0  501  0.00000000000E+00  0.00000000000E+00 -0.41467446582E+03  0.41467446585E+03  0.50400001928E-02 0. -1.
    10030    2    1    2    0    0  0.00000000000E+00  0.00000000000E+00  0.11153463960E+04  0.19446953277E+04  0.15930606813E+04 0.  0.
        2    1    3    3  502    0 -0.65866466667E+03 -0.44645240312E+03  0.51363055139E+03  0.94708776504E+03  0.25500000920E-02 0.  1.
       -2    1    3    3    0  502  0.65866466667E+03  0.44645240312E+03  0.60171584461E+03  0.99760756263E+03  0.25500000920E-02 0. -1.
</event>
<event>
 5   0  0.1819811E-04  0.1600061E+04  0.7818609E-02  0.8820510E-01
       -1   -1    0    0    0  501  0.00000000000E+00  0.00000000000E+00  0.73313178249E+03  0.73313178250E+03  0.50400001928E-02 0. -1.
        1   -1    0    0  501    0  0.00000000000E+00  0.00000000000E+00 -0.87303412002E+03  0.87303412003E+03  0.50400001928E-02 0.  1.
    10030    2    1    2    0    0  0.00000000000E+00  0.00000000000E+00 -0.13990233753E+03  0.16061659025E+04  0.16000613246E+04 0.  0.
        1    1    3    3  502    0 -0.33526000531E+02 -0.78109351327E+03  0.10045512375E+03  0.78824000222E+03  0.50400001928E-02 0. -1.
       -1    1    3    3    0  502  0.33526000531E+02  0.78109351327E+03 -0.24035746128E+03  0.81792590031E+03  0.50400001928E-02 0.  1.
</event>
<event>
 5   0  0.3263294E-04  0.1595023E+04  0.7818609E-02  0.8823611E-01
       -2   -1    0    0    0  501  0.00000000000E+00  0.00000000000E+00  0.15611652880E+04  0.15611652880E+04  0.25500000920E-02 0. -1.
        2   -1    0    0  501    0  0.00000000000E+00  0.00000000000E+00 -0.40740369806E+03  0.40740369806E+03  0.25500000920E-02 0.  1.
    10030    2    1    2    0    0  0.00000000000E+00  0.00000000000E+00  0.11537615899E+04  0.19685689860E+04  0.15950228984E+04 0.  0.
        4    1    3    3  502    0  0.23298467592E+03  0.63633312847E+03  0.10958610915E+04  0.12884544440E+04  0.12699999809E+01 0. -1.
       -4    1    3    3    0  502 -0.23298467592E+03 -0.63633312847E+03  0.57900498403E+02  0.68011454198E+03  0.12699999809E+01 0.  1.
</event>
<event>
 5   0  0.1764099E-04  0.1653299E+04  0.7818609E-02  0.8788457E-01
       -1   -1    0    0    0  501  0.00000000000E+00  0.00000000000E+00  0.46845371545E+03  0.46845371548E+03  0.50400001928E-02 0.  1.
        1   -1    0    0  501    0  0.00000000000E+00  0.00000000000E+00 -0.14587336615E+04  0.14587336615E+04  0.50400001928E-02 0. -1.
    10030    2    1    2    0    0  0.00000000000E+00  0.00000000000E+00 -0.99027994606E+03  0.19271873770E+04  0.16532987675E+04 0.  0.
        5    1    3    3  502    0  0.47532994040E+03  0.30883396236E+03  0.20620707140E+03  0.60320843400E+03  0.46999998093E+01 0.  1.
       -5    1    3    3    0  502 -0.47532994040E+03 -0.30883396236E+03 -0.11964870175E+04  0.13239789430E+04  0.46999998093E+01 0. -1.
</event>
<event>
 5   0  0.1764099E-04  0.1594262E+04  0.7818609E-02  0.8824081E-01
        1   -1    0    0  501    0  0.00000000000E+00  0.00000000000E+00  0.42589419162E+03  0.42589419165E+03  0.50400001928E-02 0. -1.
       -1   -1    0    0    0  501  0.00000000000E+00  0.00000000000E+00 -0.14919615053E+04  0.14919615053E+04  0.50400001928E-02 0.  1.
    10030    2    1    2    0    0  0.00000000000E+00  0.00000000000E+00 -0.10660673137E+04  0.19178556970E+04  0.15942618847E+04 0.  0.
        5    1    3    3  502    0  0.92702202212E+02 -0.27505526626E+03 -0.14261125201E+04  0.14553584122E+04  0.46999998093E+01 0.  1.
       -5    1    3    3    0  502 -0.92702202212E+02  0.27505526626E+03  0.36004520643E+03  0.46249728482E+03  0.46999998093E+01 0. -1.
</event>
<event>
 5   0  0.1761255E-04  0.1576109E+04  0.7818609E-02  0.8835361E-01
       -1   -1    0    0    0  501  0.00000000000E+00  0.00000000000E+00  0.67196685587E+03  0.67196685589E+03  0.50400001928E-02 0.  1.
        1   -1    0    0  501    0  0.00000000000E+00  0.00000000000E+00 -0.92419772789E+03  0.92419772790E+03  0.50400001928E-02 0. -1.
    10030    2    1    2    0    0  0.00000000000E+00  0.00000000000E+00 -0.25223087202E+03  0.15961645838E+04  0.15761094396E+04 0.  0.
        2    1    3    3  502    0  0.63378114101E+03  0.23383802049E+03 -0.53707633588E+03  0.86302360634E+03  0.25500000920E-02 0. -1.
       -2    1    3    3    0  502 -0.63378114101E+03 -0.23383802049E+03  0.28484546386E+03  0.73314097745E+03  0.25500000920E-02 0.  1.
</event>
<event>
 5   0  0.3228393E-04  0.1597086E+04  0.7818609E-02  0.8822340E-01
       -2   -1    0    0    0  501  0.00000000000E+00  0.00000000000E+00  0.10406209638E+04  0.10406209638E+04  0.25500000920E-02 0. -1.
        2   -1    0    0  501    0  0.00000000000E+00  0.00000000000E+00 -0.61277925217E+03  0.61277925218E+03  0.25500000920E-02 0.  1.
    10030    2    1    2    0    0  0.00000000000E+00  0.00000000000E+00  0.42784171161E+03  0.16534002160E+04  0.15970860165E+04 0.  0.
        1    1    3    3  502    0  0.15165888104E+03 -0.38665623808E+03 -0.49215986339E+03  0.64399129948E+03  0.50400001928E-02 0.  1.
       -1    1    3    3    0  502 -0.15165888104E+03  0.38665623808E+03  0.92000157500E+03  0.10094089165E+04  0.50400001928E-02 0. -1.
</event>
<event>
 5   0  0.1761255E-04  0.1600648E+04  0.7818609E-02  0.8820150E-01
        1   -1    0    0  501    0  0.00000000000E+00  0.00000000000E+00  0.11391328302E+04  0.11391328302E+04  0.50400001928E-02 0.  1.
       -1   -1    0    0    0  501  0.00000000000E+00  0.00000000000E+00 -0.56228584850E+03  0.56228584852E+03  0.50400001928E-02 0. -1.
    10030    2    1    2    0    0  0.00000000000E+00  0.00000000000E+00  0.57684698171E+03  0.17014186787E+04  0.16006477064E+04 0.  0.
        2    1    3    3  502    0 -0.69878228800E+03 -0.38842126339E+03  0.32748632219E+03  0.86395315562E+03  0.25500000920E-02 0. -1.
       -2    1    3    3    0  502  0.69878228800E+03  0.38842126339E+03  0.24936065952E+03  0.83746552311E+03  0.25500000920E-02 0.  1.
</event>
<event>
 5   0  0.3228393E-04  0.1610579E+04  0.7818609E-02  0.8814075E-01
       -2   -1    0    0    0  501  0.00000000000E+00  0.00000000000E+00  0.59774600458E+03  0.59774600459E+03  0.25500000920E-02 0.  1.
        2   -1    0    0  501    0  0.00000000000E+00  0.00000000000E+00 -0.10848943346E+04  0.10848943346E+04  0.25500000920E-02 0. -1.
    10030    2    1    2    0    0  0.00000000000E+00  0.00000000000E+00 -0.48714833006E+03  0.16826403392E+04  0.16105790933E+04 0.  0.
        1    1    3    3  502    0  0.11496814139E+03  0.30447424068E+03  0.52597564303E+03  0.61852454588E+03  0.50400001928E-02 0.  1.
       -1    1    3    3    0  502 -0.11496814139E+03 -0.30447424068E+03 -0.10131239731E+04  0.10641157933E+04  0.50400001928E-02 0. -1.
</event>
<event>
 5   0  0.3274900E-04  0.1595104E+04  0.7818609E-02  0.8823561E-01
        2   -1    0    0  501    0  0.00000000000E+00  0.00000000000E+00  0.12908289749E+04  0.12908289749E+04  0.25500000920E-02 0. -1.
       -2   -1    0    0    0  501  0.00000000000E+00  0.00000000000E+00 -0.49277594061E+03  0.49277594061E+03  0.25500000920E-02 0.  1.
    10030    2    1    2    0    0  0.00000000000E+00  0.00000000000E+00  0.79805303431E+03  0.17836049155E+04  0.15951043380E+04 0.  0.
        3    1    3    3  502    0 -0.48456142406E+03  0.53604919810E+03  0.21585186103E+02  0.72292077501E+03  0.10100000352E+00 0.  1.
       -3    1    3    3    0  502  0.48456142406E+03 -0.53604919810E+03  0.77646784821E+03  0.10606841405E+04  0.10100000352E+00 0. -1.
</event>
<event>
 5   0  0.3274900E-04  0.1611801E+04  0.7818609E-02  0.8813331E-01
        2   -1    0    0  501    0  0.00000000000E+00  0.00000000000E+00  0.10222225759E+04  0.10222225759E+04  0.25500000920E-02 0.  1.
       -2   -1    0    0    0  501  0.00000000000E+00  0.00000000000E+00 -0.63535634041E+03  0.63535634041E+03  0.25500000920E-02 0. -1.
    10030    2    1    2    0    0  0.00000000000E+00  0.00000000000E+00  0.38686623550E+03  0.16575789163E+04  0.16118009740E+04 0.  0.
        3    1    3    3  502    0  0.56867779362E+03  0.13251809147E+03 -0.37778837128E+03  0.69547073353E+03  0.10100000352E+00 0. -1.
       -3    1    3    3    0  502 -0.56867779362E+03 -0.13251809147E+03  0.76465460678E+03  0.96210818279E+03  0.10100000352E+00 0.  1.
</event>
<event>
 5   0  0.1819811E-04  0.1607397E+04  0.7818609E-02  0.8816016E-01
       -1   -1    0    0    0  501  0.00000000000E+00  0.00000000000E+00  0.23179838230E+04  0.23179838230E+04  0.50400001928E-02 0. -1.
        1   -1    0    0  501    0  0.00000000000E+00  0.00000000000E+00 -0.27866094809E+03  0.27866094814E+03  0.50400001928E-02 0.  1.
    10030    2    1    2    0    0  0.00000000000E+00  0.00000000000E+00  0.20393228749E+04  0.25966447711E+04  0.16073973620E+04 0.  0.
        1    1    3    3  502    0  0.77703177218E+03  0.18849608710E+03  0.11511226548E+04  0.14015678778E+04  0.50400001928E-02 0. -1.
       -1    1    3    3    0  502 -0.77703177218E+03 -0.18849608710E+03  0.88820022010E+03  0.11950768933E+04  0.50400001928E-02 0.  1.
</event>
<event>
 5   0  0.1764099E-04  0.1594224E+04  0.7818609E-02  0.8824105E-01
       -1   -1    0    0    0  501  0.00000000000E+00  0.00000000000E+00  0.52990222671E+03  0.52990222673E+03  0.50400001928E-02 0.  1.
        1   -1    0    0  501    0  0.00000000000E+00  0.00000000000E+00 -0.11990649517E+04  0.11990649517E+04  0.50400001928E-02 0. -1.
    10030    2    1    2    0    0  0.00000000000E+00  0.00000000000E+00 -0.66916272500E+03  0.17289671785E+04  0.15942235576E+04 0.  0.
        5    1    3    3  502    0  0.62805298743E+03 -0.44196765662E+03 -0.10304427901E+03  0.77487171709E+03  0.46999998093E+01 0. -1.
       -5    1    3    3    0  502 -0.62805298743E+03  0.44196765662E+03 -0.56611844599E+03  0.95409546137E+03  0.46999998093E+01 0.  1.
</event>
<event>
 5   0  0.3274900E-04  0.1592229E+04  0.7818609E-02  0.8825336E-01
       -2   -1    0    0    0  501  0.00000000000E+00  0.00000000000E+00  0.41760376469E+03  0.41760376469E+03  0.25500000920E-02 0.  1.
        2   -1    0    0  501    0  0.00000000000E+00  0.00000000000E+00 -0.15177026220E+04  0.15177026220E+04  0.25500000920E-02 0. -1.
    10030    2    1    2    0    0  0.00000000000E+00  0.00000000000E+00 -0.11000988573E+04  0.19353063867E+04  0.15922290396E+04 0.  0.
        3    1    3    3  502    0 -0.50142979235E+02 -0.31880848781E+03  0.33452970077E+03  0.46482609777E+03  0.10100000352E+00 0.  1.
       -3    1    3    3    0  502  0.50142979235E+02  0.31880848781E+03 -0.14346285581E+04  0.14704802889E+04  0.10100000352E+00 0. -1.
</event>
<event>
 5   0  0.1764099E-04  0.1606813E+04  0.7818609E-02  0.8816373E-01
        1   -1    0    0  501    0  0.00000000000E+00  0.00000000000E+00  0.18328912211E+04  0.18328912211E+04  0.50400001928E-02 0.  1.
       -1   -1    0    0    0  501  0.00000000000E+00  0.00000000000E+00 -0.35215507933E+03  0.35215507937E+03  0.50400001928E-02 0. -1.
    10030    2    1    2    0    0  0.00000000000E+00  0.00000000000E+00  0.14807361418E+04  0.21850463005E+04  0.16068129368E+04 0.  0.
        5    1    3    3  502    0  0.55821438981E+03  0.18407759102E+03 -0.44002656704E+01  0.58781741795E+03  0.46999998093E+01 0. -1.
       -5    1    3    3    0  502 -0.55821438981E+03 -0.18407759102E+03  0.14851364074E+04  0.15972288825E+04  0.46999998093E+01 0.  1.
</event>
<event>
 5   0  0.3210612E-04  0.1599917E+04  0.7818609E-02  0.8820599E-01
        2   -1    0    0  501    0  0.00000000000E+00  0.00000000000E+00  0.25990901173E+04  0.25990901173E+04  0.25500000920E-02 0. -1.
       -2   -1    0    0    0  501  0.00000000000E+00  0.00000000000E+00 -0.24621455066E+03  0.24621455067E+03  0.25500000920E-02 0.  1.
    10030    2    1    2    0    0  0.00000000000E+00  0.00000000000E+00  0.23528755667E+04  0.28453046680E+04  0.15999172546E+04 0.  0.
        2    1    3    3  502    0 -0.56659056061E+02 -0.23050561477E+03 -0.18214292147E+03  0.29919747814E+03  0.25500000920E-02 0.  1.
       -2    1    3    3    0  502  0.56659056061E+02  0.23050561477E+03  0.25350184881E+04  0.25461071899E+04  0.25500000920E-02 0. -1.
</event>
<event>
 5   0  0.1736537E-04  0.1626481E+04  0.7818609E-02  0.8804443E-01
        1   -1    0    0  501    0  0.00000000000E+00  0.00000000000E+00  0.10100002136E+04  0.10100002136E+04  0.50400001928E-02 0.  1.
       -1   -1    0    0    0  501  0.00000000000E+00  0.00000000000E+00 -0.65481214127E+03  0.65481214129E+03  0.50400001928E-02 0. -1.
    10030    2    1    2    0    0  0.00000000000E+00  0.00000000000E+00  0.35518807231E+03  0.16648123549E+04  0.16264813587E+04 0.  0.
        3    1    3    3  502    0 -0.75780133221E+03 -0.28048187199E+03  0.83629415842E+02  0.81235880558E+03  0.10100000352E+00 0.  1.
       -3    1    3    3    0  502  0.75780133221E+03  0.28048187199E+03  0.27155865647E+03  0.85245354930E+03  0.10100000352E+00 0. -1.
</event>
<event>
 5   0  0.1819811E-04  0.1601430E+04  0.7818609E-02  0.8819670E-01
        1   -1    0    0  501    0  0.00000000000E+00  0.00000000000E+00  0.11120087708E+04  0.11120087708E+04  0.50400001928E-02 0. -1.
       -1   -1    0    0    0  501  0.00000000000E+00  0.00000000000E+00 -0.57656414675E+03  0.57656414677E+03  0.50400001928E-02 0.  1.
    10030    2    1    2    0    0  0.00000000000E+00  0.00000000000E+00  0.53544462400E+03  0.16885729175E+04  0.16014298463E+04 0.  0.
        1    1    3    3  502    0  0.37035823035E+03  0.50089369302E+02  0.10144022397E+04  0.10810578466E+04  0.50400001928E-02 0. -1.
       -1    1    3    3    0  502 -0.37035823035E+03 -0.50089369302E+02 -0.47895761574E+03  0.60751507093E+03  0.50400001928E-02 0.  1.
</event>
<event>
 5   0  0.1787688E-04  0.1604670E+04  0.7818609E-02  0.8817684E-01
        1   -1    0    0  501    0  0.00000000000E+00  0.00000000000E+00  0.42707052908E+03  0.42707052911E+03  0.50400001928E-02 0. -1.
       -1   -1    0    0    0  501  0.00000000000E+00  0.00000000000E+00 -0.15073426270E+04  0.15073426270E+04  0.50400001928E-02 0.  1.
    10030    2    1    2    0    0  0.00000000000E+00  0.00000000000E+00 -0.10802720979E+04  0.19344131561E+04  0.16046702007E+04 0.  0.
        4    1    3    3  502    0 -0.74382436766E+02 -0.45191041199E+03 -0.13342821815E+04  0.14106971043E+04  0.12699999809E+01 0.  1.
       -4    1    3    3    0  502  0.74382436766E+02  0.45191041199E+03  0.25401008364E+03  0.52371605175E+03  0.12699999809E+01 0. -1.
</event>
<event>
 5   0  0.3263294E-04  0.1602481E+04  0.7818609E-02  0.8819025E-01
       -2   -1    0    0    0  501  0.00000000000E+00  0.00000000000E+00  0.36583733840E+03  0.36583733841E+03  0.25500000920E-02 0. -1.
        2   -1    0    0  501    0  0.00000000000E+00  0.00000000000E+00 -0.17548418991E+04  0.17548418991E+04  0.25500000920E-02 0.  1.
    10030    2    1    2    0    0  0.00000000000E+00  0.00000000000E+00 -0.13890045607E+04  0.21206792375E+04  0.16024814379E+04 0.  0.
        4    1    3    3  502    0 -0.16798913239E+03 -0.36960519574E+03 -0.16086418377E+04  0.16590836399E+04  0.12699999809E+01 0.  1.
       -4    1    3    3    0  502  0.16798913239E+03  0.36960519574E+03  0.21963727704E+03  0.46159559756E+03  0.12699999809E+01 0. -1.
</event>
<event>
 5   0  0.1736537E-04  0.1598999E+04  0.7818609E-02  0.8821163E-01
       -1   -1    0    0    0  501  0.00000000000E+00  0.00000000000E+00  0.98072355442E+03  0.98072355443E+03  0.50400001928E-02 0.  1.
        1   -1    0    0  501    0  0.00000000000E+00  0.00000000000E+00 -0.65176300491E+03  0.65176300493E+03  0.50400001928E-02 0. -1.
    10030    2    1    2    0    0  0.00000000000E+00  0.00000000000E+00  0.32896054951E+03  0.16324865594E+04  0.15989988503E+04 0.  0.
        3    1    3    3  502    0 -0.47412242830E+03  0.61744790584E+03  0.35040776456E+03  0.85370932120E+03  0.10100000352E+00 0.  1.
       -3    1    3    3    0  502  0.47412242830E+03 -0.61744790584E+03 -0.21447215047E+02  0.77877723816E+03  0.10100000352E+00 0. -1.
</event>
<event>
 5   0  0.1764099E-04  0.1599359E+04  0.7818609E-02  0.8820942E-01
        1   -1    0    0  501    0  0.00000000000E+00  0.00000000000E+00  0.13290766647E+04  0.13290766647E+04  0.50400001928E-02 0. -1.
       -1   -1    0    0    0  501  0.00000000000E+00  0.00000000000E+00 -0.48115137394E+03  0.48115137397E+03  0.50400001928E-02 0.  1.
    10030    2    1    2    0    0  0.00000000000E+00  0.00000000000E+00  0.84792529078E+03  0.18102280387E+04  0.15993587007E+04 0.  0.
        5    1    3    3  502    0 -0.98032290863E+02 -0.52217958874E+02  0.13202875860E+04  0.13249597900E+04  0.46999998093E+01 0. -1.
       -5    1    3    3    0  502  0.98032290863E+02  0.52217958874E+02 -0.47236229523E+03  0.48526824873E+03  0.46999998093E+01 0.  1.
</event>
<event>
 5   0  0.1787688E-04  0.1607001E+04  0.7818609E-02  0.8816259E-01
        1   -1    0    0  501    0  0.00000000000E+00  0.00000000000E+00  0.12723396544E+04  0.12723396544E+04  0.50400001928E-02 0.  1.
       -1   -1    0    0    0  501  0.00000000000E+00  0.00000000000E+00 -0.50742194261E+03  0.50742194264E+03  0.50400001928E-02 0. -1.
    10030    2    1    2    0    0  0.00000000000E+00  0.00000000000E+00  0.76491771174E+03  0.17797615970E+04  0.16070010070E+04 0.  0.
        4    1    3    3  502    0  0.31454336724E+02 -0.55701982765E+03  0.10228524580E+04  0.11651133969E+04  0.12699999809E+01 0.  1.
       -4    1    3    3    0  502 -0.31454336724E+02  0.55701982765E+03 -0.25793474631E+03  0.61464820015E+03  0.12699999809E+01 0. -1.
</event>
<event>
 5   0  0.3210612E-04  0.1603074E+04  0.7818609E-02  0.8818662E-01
       -2   -1    0    0    0  501  0.00000000000E+00  0.00000000000E+00  0.39135336638E+03  0.39135336639E+03  0.25500000920E-02 0.  1.
        2   -1    0    0  501    0  0.00000000000E+00  0.00000000000E+00 -0.16416402116E+04  0.16416402116E+04  0.25500000920E-02 0. -1.
    10030    2    1    2    0    0  0.00000000000E+00  0.00000000000E+00 -0.12502868453E+04  0.20329935780E+04  0.16030738264E+04 0.  0.
        2    1    3    3  502    0 -0.40236711007E+03  0.40842017103E+03  0.85215561418E+02  0.57962748320E+03  0.25500000920E-02 0.  1.
       -2    1    3    3    0  502  0.40236711007E+03 -0.40842017103E+03 -0.13355024067E+04  0.14533660948E+04  0.25500000920E-02 0. -1.
</event>
<event>
 5   0  0.3263294E-04  0.1619641E+04  0.7818609E-02  0.8808572E-01
       -2   -1    0    0    0  501  0.00000000000E+00  0.00000000000E+00  0.54986414282E+03  0.54986414282E+03  0.25500000920E-02 0.  1.
        2   -1    0    0  501    0  0.00000000000E+00  0.00000000000E+00 -0.11926748471E+04  0.11926748471E+04  0.25500000920E-02 0. -1.
    10030    2    1    2    0    0  0.00000000000E+00  0.00000000000E+00 -0.64281070432E+03  0.17425389900E+04  0.16196408645E+04 0.  0.
        4    1    3    3  502    0  0.64442054454E+01  0.69364733592E+03  0.12817775154E+03  0.70542136578E+03  0.12699999809E+01 0.  1.
       -4    1    3    3    0  502 -0.64442054454E+01 -0.69364733592E+03 -0.77098845586E+03  0.10371176242E+04  0.12699999809E+01 0. -1.
</event>
<event>
 5   0  0.3263294E-04  0.1603089E+04  0.7818609E-02  0.8818652E-01
        2   -1    0    0  501    0  0.00000000000E+00  0.00000000000E+00  0.64503672964E+03  0.64503672964E+03  0.25500000920E-02 0. -1.
       -2   -1    0    0    0  501  0.00000000000E+00  0.00000000000E+00 -0.99602688160E+03  0.99602688160E+03  0.25500000920E-02 0.  1.
    10030    2    1    2    0    0  0.00000000000E+00  0.00000000000E+00 -0.35099015196E+03  0.16410636112E+04  0.16030894203E+04 0.  0.
        4    1    3    3  502    0 -0.56783274623E+03  0.10533880137E+03 -0.74448707249E+03  0.94222762896E+03  0.12699999809E+01 0.  1.
       -4    1    3    3    0  502  0.56783274623E+03 -0.10533880137E+03  0.39349692053E+03  0.69883598228E+03  0.12699999809E+01 0. -1.
</event>
<event>
 5   0  0.1787688E-04  0.1736881E+04  0.7818609E-02  0.8740605E-01
        1   -1    0    0  501    0  0.00000000000E+00  0.00000000000E+00  0.84379706050E+03  0.84379706052E+03  0.50400001928E-02 0.  1.
       -1   -1    0    0    0  501  0.00000000000E+00  0.00000000000E+00 -0.89380388127E+03  0.89380388128E+03  0.50400001928E-02 0. -1.
    10030    2    1    2    0    0  0.00000000000E+00  0.00000000000E+00 -0.50006820767E+02  0.17376009418E+04  0.17368812138E+04 0.  0.
        4    1    3    3  502    0 -0.31654992637E+03 -0.73152560645E+03 -0.36989821708E+03  0.87872627859E+03  0.12699999809E+01 0. -1.
       -4    1    3    3    0  502  0.31654992637E+03  0.73152560645E+03  0.31989139631E+03  0.85887466322E+03  0.12699999809E+01 0.  1.
</event>
<event>
 5   0  0.3210612E-04  0.1543372E+04  0.7818609E-02  0.8856112E-01
        2   -1    0    0  501    0  0.00000000000E+00  0.00000000000E+00  0.11418867959E+04  0.11418867959E+04  0.25500000920E-02 0. -1.
       -2   -1    0    0    0  501  0.00000000000E+00  0.00000000000E+00 -0.52150481677E+03  0.52150481677E+03  0.25500000920E-02 0.  1.
    10030    2    1    2    0    0  0.00000000000E+00  0.00000000000E+00  0.62038197910E+03  0.16633916126E+04  0.15433722354E+04 0.  0.
        2    1    3    3  502    0 -0.40940459370E+03  0.59264531318E+03  0.11786710362E+02  0.72040232865E+03  0.25500000920E-02 0.  1.
       -2    1    3    3    0  502  0.40940459370E+03 -0.59264531318E+03  0.60859526874E+03  0.94298928399E+03  0.25500000920E-02 0. -1.
</event>
<event>
 5   0  0.3263294E-04  0.1600875E+04  0.7818609E-02  0.8820011E-01
       -2   -1    0    0    0  501  0.00000000000E+00  0.00000000000E+00  0.31326302199E+04  0.31326302199E+04  0.25500000920E-02 0. -1.
        2   -1    0    0  501    0  0.00000000000E+00  0.00000000000E+00 -0.20452463019E+03  0.20452463020E+03  0.25500000920E-02 0.  1.
    10030    2    1    2    0    0  0.00000000000E+00  0.00000000000E+00  0.29281055897E+04  0.33371548501E+04  0.16008748074E+04 0.  0.
        4    1    3    3  502    0 -0.54491458421E+03  0.38119716326E+03  0.53540661308E+03  0.85375935461E+03  0.12699999809E+01 0.  1.
       -4    1    3    3    0  502  0.54491458421E+03 -0.38119716326E+03  0.23926989766E+04  0.24833954955E+04  0.12699999809E+01 0. -1.
</event>
<event>
 5   0  0.3380454E-04  0.1601870E+04  0.7818609E-02  0.8819400E-01
       -2   -1    0    0    0  501  0.00000000000E+00  0.00000000000E+00  0.99492465581E+03  0.99492465581E+03  0.25500000920E-02 0.  1.
        2   -1    0    0  501    0  0.00000000000E+00  0.00000000000E+00 -0.64476912417E+03  0.64476912418E+03  0.25500000920E-02 0. -1.
    10030    2    1    2    0    0  0.00000000000E+00  0.00000000000E+00  0.35015553163E+03  0.16396937800E+04  0.16018697812E+04 0.  0.
        5    1    3    3  502    0 -0.42804668397E+03  0.58551714338E+03  0.52283540414E+03  0.89411030565E+03  0.46999998093E+01 0.  1.
       -5    1    3    3    0  502  0.42804668397E+03 -0.58551714338E+03 -0.17267987251E+03  0.74558347434E+03  0.46999998093E+01 0. -1.
</event>
<event>
 5   0  0.1219463E-04  0.1596701E+04  0.7818609E-02  0.8822577E-01
        4   -1    0    0  501    0  0.00000000000E+00  0.00000000000E+00  0.17267917028E+04  0.17267921698E+04  0.12699999809E+01 0. -1.
       -4   -1    0    0    0  501  0.00000000000E+00  0.00000000000E+00 -0.36910127312E+03  0.36910345802E+03  0.12699999809E+01 0.  1.
    10030    2    1    2    0    0  0.00000000000E+00  0.00000000000E+00  0.13576904297E+04  0.20958956279E+04  0.15967013434E+04 0.  0.
        4    1    3    3  502    0 -0.16883283491E+03 -0.72433549228E+03  0.10597277397E+04  0.12946779240E+04  0.12699999809E+01 0. -1.
       -4    1    3    3    0  502  0.16883283491E+03  0.72433549228E+03  0.29796268997E+03  0.80121770390E+03  0.12699999809E+01 0.  1.
</event>
<event>
 5   0  0.3274900E-04  0.1585386E+04  0.7818609E-02  0.8829576E-01
       -2   -1    0    0    0  501  0.00000000000E+00  0.00000000000E+00  0.43869134572E+03  0.43869134573E+03  0.25500000920E-02 0.  1.
        2   -1    0    0  501    0  0.00000000000E+00  0.00000000000E+00 -0.14323569001E+04  0.14323569001E+04  0.25500000920E-02 0. -1.
    10030    2    1    2    0    0  0.00000000000E+00  0.00000000000E+00 -0.99366555441E+03  0.18710482459E+04  0.15853864842E+04 0.  0.
        3    1    3    3  502    0  0.56623987020E+03  0.37870270596E+03 -0.97523593533E+03  0.11895917240E+04  0.10100000352E+00 0. -1.
       -3    1    3    3    0  502 -0.56623987020E+03 -0.37870270596E+03 -0.18429619083E+02  0.68145652185E+03  0.10100000352E+00 0.  1.
</event>
<event>
 5   0  0.1764099E-04  0.1589728E+04  0.7818609E-02  0.8826884E-01
        1   -1    0    0  501    0  0.00000000000E+00  0.00000000000E+00  0.15642369748E+04  0.15642369748E+04  0.50400001928E-02 0. -1.
       -1   -1    0    0    0  501  0.00000000000E+00  0.00000000000E+00 -0.40390846501E+03  0.40390846504E+03  0.50400001928E-02 0.  1.
    10030    2    1    2    0    0  0.00000000000E+00  0.00000000000E+00  0.11603285098E+04  0.19681454398E+04  0.15897277194E+04 0.  0.
        5    1    3    3  502    0 -0.13410963977E+03  0.47364153212E+03  0.13527888520E+04  0.14395768352E+04  0.46999998093E+01 0. -1.
       -5    1    3    3    0  502  0.13410963977E+03 -0.47364153212E+03 -0.19246034223E+03  0.52856860459E+03  0.46999998093E+01 0.  1.
</event>
<event>
 5   0  0.1761255E-04  0.1594680E+04  0.7818609E-02  0.8823823E-01
       -1   -1    0    0    0  501  0.00000000000E+00  0.00000000000E+00  0.21874121025E+03  0.21874121031E+03  0.50400001928E-02 0. -1.
        1   -1    0    0  501    0  0.00000000000E+00  0.00000000000E+00 -0.29064057907E+04  0.29064057907E+04  0.50400001928E-02 0.  1.
    10030    2    1    2    0    0  0.00000000000E+00  0.00000000000E+00 -0.26876645805E+04  0.31251470011E+04  0.15946795543E+04 0.  0.
        2    1    3    3  502    0  0.49091376395E+03 -0.20537576660E+03 -0.18018088194E+03  0.56181908064E+03  0.25500000920E-02 0. -1.
       -2    1    3    3    0  502 -0.49091376395E+03  0.20537576660E+03 -0.25074836985E+04  0.25633279204E+04  0.25500000920E-02 0.  1.
</event>
<event>
 5   0  0.3228393E-04  0.1606718E+04  0.7818609E-02  0.8816432E-01
       -2   -1    0    0    0  501  0.00000000000E+00  0.00000000000E+00  0.42261881440E+03  0.42261881441E+03  0.25500000920E-02 0.  1.
        2   -1    0    0  501    0  0.00000000000E+00  0.00000000000E+00 -0.15271101405E+04  0.15271101405E+04  0.25500000920E-02 0. -1.
    10030    2    1    2    0    0  0.00000000000E+00  0.00000000000E+00 -0.11044913261E+04  0.19497289549E+04  0.16067177438E+04 0.  0.
        1    1    3    3  502    0 -0.15666399411E+03  0.45745168355E+03 -0.13307511748E+04  0.14158758205E+04  0.50400001928E-02 0. -1.
       -1    1    3    3    0  502  0.15666399411E+03 -0.45745168355E+03  0.22625984879E+03  0.53385313433E+03  0.50400001928E-02 0.  1.
</event>
<event>
 5   0  0.1787688E-04  0.1598322E+04  0.7818609E-02  0.8821579E-01
        1   -1    0    0  501    0  0.00000000000E+00  0.00000000000E+00  0.69331194380E+03  0.69331194381E+03  0.50400001928E-02 0. -1.
       -1   -1    0    0    0  501  0.00000000000E+00  0.00000000000E+00 -0.92117046304E+03  0.92117046306E+03  0.50400001928E-02 0.  1.
    10030    2    1    2    0    0  0.00000000000E+00  0.00000000000E+00 -0.22785851925E+03  0.16144824069E+04  0.15983222257E+04 0.  0.
        4    1    3    3  502    0  0.68634868528E+03  0.20832861650E+03 -0.46988622932E+03  0.85747886951E+03  0.12699999809E+01 0.  1.
       -4    1    3    3    0  502 -0.68634868528E+03 -0.20832861650E+03  0.24202771008E+03  0.75700353737E+03  0.12699999809E+01 0. -1.
</event>
<event>
 5   0  0.3274900E-04  0.1598508E+04  0.7818609E-02  0.8821465E-01
       -2   -1    0    0    0  501  0.00000000000E+00  0.00000000000E+00  0.94229579924E+03  0.94229579924E+03  0.25500000920E-02 0. -1.
        2   -1    0    0  501    0  0.00000000000E+00  0.00000000000E+00 -0.67792641234E+03  0.67792641234E+03  0.25500000920E-02 0.  1.
    10030    2    1    2    0    0  0.00000000000E+00  0.00000000000E+00  0.26436938690E+03  0.16202222116E+04  0.15985083178E+04 0.  0.
        3    1    3    3  502    0 -0.79624675171E+03  0.24950668160E+01  0.62019463219E+02  0.79866234354E+03  0.10100000352E+00 0. -1.
       -3    1    3    3    0  502  0.79624675171E+03 -0.24950668160E+01  0.20234992368E+03  0.82155986805E+03  0.10100000352E+00 0.  1.
</event>
<event>
 5   0  0.1764099E-04  0.1551087E+04  0.7818609E-02  0.8851174E-01
        1   -1    0    0  501    0  0.00000000000E+00  0.00000000000E+00  0.82931112506E+03  0.82931112507E+03  0.50400001928E-02 0. -1.
       -1   -1    0    0    0  501  0.00000000000E+00  0.00000000000E+00 -0.72526180027E+03  0.72526180029E+03  0.50400001928E-02 0.  1.
    10030    2    1    2    0    0  0.00000000000E+00  0.00000000000E+00  0.10404932478E+03  0.15545729254E+04  0.15510869474E+04 0.  0.
        5    1    3    3  502    0 -0.34411811586E+03  0.46465991816E+03  0.57002224215E+03  0.81195662677E+03  0.46999998093E+01 0. -1.
       -5    1    3    3    0  502  0.34411811586E+03 -0.46465991816E+03 -0.46597291737E+03  0.74261629859E+03  0.46999998093E+01 0.  1.
</event>
<event>
 5   0  0.1736537E-04  0.1599938E+04  0.7818609E-02  0.8820586E-01
       -1   -1    0    0    0  501  0.00000000000E+00  0.00000000000E+00  0.12517843785E+04  0.12517843785E+04  0.50400001928E-02 0.  1.
        1   -1    0    0  501    0  0.00000000000E+00  0.00000000000E+00 -0.51123032395E+03  0.51123032397E+03  0.50400001928E-02 0. -1.
    10030    2    1    2    0    0  0.00000000000E+00  0.00000000000E+00  0.74055405459E+03  0.17630147025E+04  0.15999376655E+04 0.  0.
        3    1    3    3  502    0 -0.79536398024E+03 -0.63546634593E+02  0.30689861502E+03  0.85488525893E+03  0.10100000352E+00 0.  1.
       -3    1    3    3    0  502  0.79536398024E+03  0.63546634593E+02  0.43365543956E+03  0.90812944358E+03  0.10100000352E+00 0. -1.
</event>
<event>
 5   0  0.1219463E-04  0.1607043E+04  0.7818609E-02  0.8816233E-01
        3   -1    0    0  501    0  0.00000000000E+00  0.00000000000E+00  0.14526274226E+04  0.14526274261E+04  0.10100000352E+00 0. -1.
       -3   -1    0    0    0  501  0.00000000000E+00  0.00000000000E+00 -0.44446836969E+03  0.44446838117E+03  0.10100000352E+00 0.  1.
    10030    2    1    2    0    0  0.00000000000E+00  0.00000000000E+00  0.10081590529E+04  0.18970958073E+04  0.16070431936E+04 0.  0.
        1    1    3    3  502    0 -0.46216510515E+03  0.26108230828E+03 -0.20802644384E+03  0.57011889767E+03  0.50400001928E-02 0.  1.
       -1    1    3    3    0  502  0.46216510515E+03 -0.26108230828E+03  0.12161854968E+04  0.13269769096E+04  0.50400001928E-02 0. -1.
</event>
<event>
 5   0  0.3210612E-04  0.1600026E+04  0.7818609E-02  0.8820532E-01
       -2   -1    0    0    0  501  0.00000000000E+00  0.00000000000E+00  0.59197636720E+03  0.59197636721E+03  0.25500000920E-02 0. -1.
        2   -1    0    0  501    0  0.00000000000E+00  0.00000000000E+00 -0.10811593032E+04  0.10811593032E+04  0.25500000920E-02 0.  1.
    10030    2    1    2    0    0  0.00000000000E+00  0.00000000000E+00 -0.48918293602E+03  0.16731356704E+04  0.16000259457E+04 0.  0.
        2    1    3    3  502    0  0.53884103849E+03 -0.49721528284E+03  0.90108746529E+02  0.73870988112E+03  0.25500000920E-02 0. -1.
       -2    1    3    3    0  502 -0.53884103849E+03  0.49721528284E+03 -0.57929168255E+03  0.93442578931E+03  0.25500000920E-02 0.  1.
</event>
<event>
 5   0  0.3380454E-04  0.1604665E+04  0.7818609E-02  0.8817687E-01
       -2   -1    0    0    0  501  0.00000000000E+00  0.00000000000E+00  0.67448841793E+03  0.67448841794E+03  0.25500000920E-02 0.  1.
        2   -1    0    0  501    0  0.00000000000E+00  0.00000000000E+00 -0.95440852348E+03  0.95440852348E+03  0.25500000920E-02 0. -1.
    10030    2    1    2    0    0  0.00000000000E+00  0.00000000000E+00 -0.27992010554E+03  0.16288969414E+04  0.16046650679E+04 0.  0.
        5    1    3    3  502    0 -0.43128957561E+03  0.12936864498E+03  0.53412232484E+03  0.69860982832E+03  0.46999998093E+01 0.  1.
       -5    1    3    3    0  502  0.43128957561E+03 -0.12936864498E+03 -0.81404243039E+03  0.93028711310E+03  0.46999998093E+01 0. -1.
</event>
<event>
 5   0  0.1787688E-04  0.1606721E+04  0.7818609E-02  0.8816430E-01
       -1   -1    0    0    0  501  0.00000000000E+00  0.00000000000E+00  0.10452684160E+04  0.10452684160E+04  0.50400001928E-02 0.  1.
        1   -1    0    0  501    0  0.00000000000E+00  0.00000000000E+00 -0.61743760715E+03  0.61743760717E+03  0.50400001928E-02 0. -1.
    10030    2    1    2    0    0  0.00000000000E+00  0.00000000000E+00  0.42783080883E+03  0.16627060232E+04  0.16067209212E+04 0.  0.
        4    1    3    3  502    0 -0.38026930707E+03  0.69284287157E+03  0.36298481397E+03  0.86971005437E+03  0.12699999809E+01 0.  1.
       -4    1    3    3    0  502  0.38026930707E+03 -0.69284287157E+03  0.64845994862E+02  0.79299596880E+03  0.12699999809E+01 0. -1.
</event>
<event>
 5   0  0.3263294E-04  0.1618905E+04  0.7818609E-02  0.8809017E-01
        2   -1    0    0  501    0  0.00000000000E+00  0.00000000000E+00  0.12152686671E+04  0.12152686671E+04  0.25500000920E-02 0.  1.
       -2   -1    0    0    0  501  0.00000000000E+00  0.00000000000E+00 -0.53915130465E+03  0.53915130466E+03  0.25500000920E-02 0. -1.
    10030    2    1    2    0    0  0.00000000000E+00  0.00000000000E+00  0.67611736246E+03  0.17544199718E+04  0.16189054171E+04 0.  0.
        4    1    3    3  502    0 -0.54236026650E+03 -0.58912196919E+03  0.20986601588E+03  0.82780717005E+03  0.12699999809E+01 0.  1.
       -4    1    3    3    0  502  0.54236026650E+03  0.58912196919E+03  0.46625134658E+03  0.92661280174E+03  0.12699999809E+01 0. -1.
</event>
<event>
 5   0  0.1764099E-04  0.1632400E+04  0.7818609E-02  0.8800887E-01
       -1   -1    0    0    0  501  0.00000000000E+00  0.00000000000E+00  0.11717074548E+04  0.11717074549E+04  0.50400001928E-02 0.  1.
        1   -1    0    0  501    0  0.00000000000E+00  0.00000000000E+00 -0.56855722671E+03  0.56855722673E+03  0.50400001928E-02 0. -1.
    10030    2    1    2    0    0  0.00000000000E+00  0.00000000000E+00  0.60315022813E+03  0.17402646816E+04  0.16324003689E+04 0.  0.
        5    1    3    3  502    0 -0.28337659621E+03  0.61305517000E+03 -0.18698805231E+03  0.70080350916E+03  0.46999998093E+01 0. -1.
       -5    1    3    3    0  502  0.28337659621E+03 -0.61305517000E+03  0.79013828045E+03  0.10394611724E+04  0.46999998093E+01 0.  1.
</event>
<event>
 5   0  0.3210612E-04  0.1596127E+04  0.7818609E-02  0.8822931E-01
       -2   -1    0    0    0  501  0.00000000000E+00  0.00000000000E+00  0.33677096548E+03  0.33677096549E+03  0.25500000920E-02 0. -1.
        2   -1    0    0  501    0  0.00000000000E+00  0.00000000000E+00 -0.18912116330E+04  0.18912116330E+04  0.25500000920E-02 0.  1.
    10030    2    1    2    0    0  0.00000000000E+00  0.00000000000E+00 -0.15544406675E+04  0.22279825985E+04  0.15961267714E+04 0.  0.
        2    1    3    3  502    0  0.28182361827E+03 -0.19343563778E+03  0.22941577230E+03  0.41167158557E+03  0.25500000920E-02 0. -1.
       -2    1    3    3    0  502 -0.28182361827E+03  0.19343563778E+03 -0.17838564398E+04  0.18163110129E+04  0.25500000920E-02 0.  1.
</event>
<event>
 5   0  0.3274900E-04  0.1622771E+04  0.7818609E-02  0.8806680E-01
        2   -1    0    0  501    0  0.00000000000E+00  0.00000000000E+00  0.19456974287E+04  0.19456974287E+04  0.25500000920E-02 0.  1.
       -2   -1    0    0    0  501  0.00000000000E+00  0.00000000000E+00 -0.33836011248E+03  0.33836011249E+03  0.25500000920E-02 0. -1.
    10030    2    1    2    0    0  0.00000000000E+00  0.00000000000E+00  0.16073373163E+04  0.22840575412E+04  0.16227709646E+04 0.  0.
        3    1    3    3  502    0  0.32843907253E+03  0.43498127859E+03  0.16496543717E+04  0.17373659641E+04  0.10100000352E+00 0.  1.
       -3    1    3    3    0  502 -0.32843907253E+03 -0.43498127859E+03 -0.42317055438E+02  0.54669157709E+03  0.10100000352E+00 0. -1.
</event>
<event>
 5   0  0.1761255E-04  0.1600145E+04  0.7818609E-02  0.8820459E-01
        1   -1    0    0  501    0  0.00000000000E+00  0.00000000000E+00  0.17337982748E+04  0.17337982748E+04  0.50400001928E-02 0.  1.
       -1   -1    0    0    0  501  0.00000000000E+00  0.00000000000E+00 -0.36919885337E+03  0.36919885340E+03  0.50400001928E-02 0. -1.
    10030    2    1    2    0    0  0.00000000000E+00  0.00000000000E+00  0.13645994214E+04  0.21029971282E+04  0.16001454122E+04 0.  0.
        2    1    3    3  502    0 -0.22616380908E+03 -0.34258964109E+03  0.15848376863E+04  0.16371402574E+04  0.25500000920E-02 0.  1.
       -2    1    3    3    0  502  0.22616380908E+03  0.34258964109E+03 -0.22023826484E+03  0.46585687075E+03  0.25500000920E-02 0. -1.
</event>
<event>
 5   0  0.1764099E-04  0.1603360E+04  0.7818609E-02  0.8818486E-01
       -1   -1    0    0    0  501  0.00000000000E+00  0.00000000000E+00  0.41943490796E+03  0.41943490799E+03  0.50400001928E-02 0. -1.
        1   -1    0    0  501    0  0.00000000000E+00  0.00000000000E+00 -0.15322782270E+04  0.15322782270E+04  0.50400001928E-02 0.  1.
    10030    2    1    2    0    0  0.00000000000E+00  0.00000000000E+00 -0.11128433190E+04  0.19517131350E+04  0.16033601930E+04 0.  0.
        5    1    3    3  502    0 -0.28005100271E+03 -0.74369458973E+03 -0.42783636504E+03  0.90253878153E+03  0.46999998093E+01 0. -1.
       -5    1    3    3    0  502  0.28005100271E+03  0.74369458973E+03 -0.68500695397E+03  0.10491743534E+04  0.46999998093E+01 0.  1.
</event>
<event>
 5   0  0.3274900E-04  0.1603598E+04  0.7818609E-02  0.8818341E-01
        2   -1    0    0  501    0  0.00000000000E+00  0.00000000000E+00  0.11826133304E+04  0.11826133304E+04  0.25500000920E-02 0. -1.
       -2   -1    0    0    0  501  0.00000000000E+00  0.00000000000E+00 -0.54361088392E+03  0.54361088392E+03  0.25500000920E-02 0.  1.
    10030    2    1    2    0    0  0.00000000000E+00  0.00000000000E+00  0.63900244651E+03  0.17262242144E+04  0.16035978023E+04 0.  0.
        3    1    3    3  502    0  0.77875457114E+03 -0.18944296235E+03  0.34438024043E+03  0.87232165986E+03  0.10100000352E+00 0.  1.
       -3    1    3    3    0  502 -0.77875457114E+03  0.18944296235E+03  0.29462220608E+03  0.85390255450E+03  0.10100000352E+00 0. -1.
</event>
<event>
 5   0  0.3274900E-04  0.1605402E+04  0.7818609E-02  0.8817236E-01
       -2   -1    0    0    0  501  0.00000000000E+00  0.00000000000E+00  0.16396643067E+04  0.16396643067E+04  0.25500000920E-02 0.  1.
        2   -1    0    0  501    0  0.00000000000E+00  0.00000000000E+00 -0.39296368327E+03  0.39296368328E+03  0.25500000920E-02 0. -1.
    10030    2    1    2    0    0  0.00000000000E+00  0.00000000000E+00  0.12467006234E+04  0.20326279900E+04  0.16054015389E+04 0.  0.
        3    1    3    3  502    0 -0.42803108488E+03  0.16467996273E+03  0.14574506524E+04  0.15279046156E+04  0.10100000352E+00 0.  1.
       -3    1    3    3    0  502  0.42803108488E+03 -0.16467996273E+03 -0.21075002901E+03  0.50472337441E+03  0.10100000352E+00 0. -1.
</event>
<event>
 5   0  0.3210612E-04  0.1600869E+04  0.7818609E-02  0.8820014E-01
        2   -1    0    0  501    0  0.00000000000E+00  0.00000000000E+00  0.67176563975E+03  0.67176563975E+03  0.25500000920E-02 0.  1.
       -2   -1    0    0    0  501  0.00000000000E+00  0.00000000000E+00 -0.95374875450E+03  0.95374875451E+03  0.25500000920E-02 0. -1.
    10030    2    1    2    0    0  0.00000000000E+00  0.00000000000E+00 -0.28198311476E+03  0.16255143943E+04  0.16008693166E+04 0.  0.
        2    1    3    3  502    0  0.26284321408E+02 -0.49289856464E+03  0.49883269966E+03  0.70176486293E+03  0.25500000920E-02 0.  1.
       -2    1    3    3    0  502 -0.26284321408E+02  0.49289856464E+03 -0.78081581442E+03  0.92374953133E+03  0.25500000920E-02 0. -1.
</event>
<event>
 5   0  0.1819811E-04  0.1600622E+04  0.7818609E-02  0.8820166E-01
        1   -1    0    0  501    0  0.00000000000E+00  0.00000000000E+00  0.12610313863E+04  0.12610313863E+04  0.50400001928E-02 0. -1.
       -1   -1    0    0    0  501  0.00000000000E+00  0.00000000000E+00 -0.50791551727E+03  0.50791551730E+03  0.50400001928E-02 0.  1.
    10030    2    1    2    0    0  0.00000000000E+00  0.00000000000E+00  0.75311586899E+03  0.17689469036E+04  0.16006216403E+04 0.  0.
        1    1    3    3  502    0  0.41897198032E+03 -0.30754606978E+03 -0.29602698172E+03  0.59812547117E+03  0.50400001928E-02 0.  1.
       -1    1    3    3    0  502 -0.41897198032E+03  0.30754606978E+03  0.10491428507E+04  0.11708214324E+04  0.50400001928E-02 0. -1.
</event>
<event>
 5   0  0.3263294E-04  0.1586857E+04  0.7818609E-02  0.8828663E-01
       -2   -1    0    0    0  501  0.00000000000E+00  0.00000000000E+00  0.98538488473E+03  0.98538488473E+03  0.25500000920E-02 0.  1.
        2   -1    0    0  501    0  0.00000000000E+00  0.00000000000E+00 -0.63886567802E+03  0.63886567802E+03  0.25500000920E-02 0. -1.
    10030    2    1    2    0    0  0.00000000000E+00  0.00000000000E+00  0.34651920671E+03  0.16242505627E+04  0.15868567453E+04 0.  0.
        4    1    3    3  502    0  0.58968045867E+03 -0.43705078593E+03 -0.13515547006E+03  0.74632770739E+03  0.12699999809E+01 0. -1.
       -4    1    3    3    0  502 -0.58968045867E+03  0.43705078593E+03  0.48167467677E+03  0.87792285536E+03  0.12699999809E+01 0.  1.
</event>
<event>
 5   0  0.3274900E-04  0.1630418E+04  0.7818609E-02  0.8802076E-01
       -2   -1    0    0    0  501  0.00000000000E+00  0.00000000000E+00  0.69385681044E+03  0.69385681044E+03  0.25500000920E-02 0. -1.
        2   -1    0    0  501    0  0.00000000000E+00  0.00000000000E+00 -0.95778539489E+03  0.95778539490E+03  0.25500000920E-02 0.  1.
    10030    2    1    2    0    0  0.00000000000E+00  0.00000000000E+00 -0.26392858446E+03  0.16516422053E+04  0.16304182521E+04 0.  0.
        3    1    3    3  502    0  0.16398094286E+03 -0.95817271244E+02 -0.93506115548E+03  0.95415411427E+03  0.10100000352E+00 0.  1.
       -3    1    3    3    0  502 -0.16398094286E+03  0.95817271244E+02  0.67113257102E+03  0.69748809107E+03  0.10100000352E+00 0. -1.
</event>
<event>
 5   0  0.1761255E-04  0.1588596E+04  0.7818609E-02  0.8827585E-01
        1   -1    0    0  501    0  0.00000000000E+00  0.00000000000E+00  0.79970804943E+03  0.79970804944E+03  0.50400001928E-02 0. -1.
       -1   -1    0    0    0  501  0.00000000000E+00  0.00000000000E+00 -0.78892405891E+03  0.78892405892E+03  0.50400001928E-02 0.  1.
    10030    2    1    2    0    0  0.00000000000E+00  0.00000000000E+00  0.10783990520E+02  0.15886321084E+04  0.15885955059E+04 0.  0.
        2    1    3    3  502    0 -0.16906362968E+03  0.58682383080E+02 -0.76850101099E+03  0.78906269515E+03  0.25500000920E-02 0.  1.
       -2    1    3    3    0  502  0.16906362968E+03 -0.58682383080E+02  0.77928500151E+03  0.79956941322E+03  0.25500000920E-02 0. -1.
</event>
<event>
 5   0  0.1819811E-04  0.1599269E+04  0.7818609E-02  0.8820997E-01
       -1   -1    0    0    0  501  0.00000000000E+00  0.00000000000E+00  0.46647592964E+03  0.46647592966E+03  0.50400001928E-02 0. -1.
        1   -1    0    0  501    0  0.00000000000E+00  0.00000000000E+00 -0.13707356587E+04  0.13707356587E+04  0.50400001928E-02 0.  1.
    10030    2    1    2    0    0  0.00000000000E+00  0.00000000000E+00 -0.90425972906E+03  0.18372115884E+04  0.15992688213E+04 0.  0.
        1    1    3    3  502    0 -0.62613123411E+03 -0.77818392680E+02 -0.10164604823E+04  0.11963644665E+04  0.50400001928E-02 0.  1.
       -1    1    3    3    0  502  0.62613123411E+03  0.77818392680E+02  0.11220075325E+03  0.64084712188E+03  0.50400001928E-02 0. -1.
</event>
<event>
 5   0  0.3228393E-04  0.1606822E+04  0.7818609E-02  0.8816368E-01
       -2   -1    0    0    0  501  0.00000000000E+00  0.00000000000E+00  0.10427125862E+04  0.10427125862E+04  0.25500000920E-02 0.  1.
        2   -1    0    0  501    0  0.00000000000E+00  0.00000000000E+00 -0.61902862974E+03  0.61902862974E+03  0.25500000920E-02 0. -1.
    10030    2    1    2    0    0  0.00000000000E+00  0.00000000000E+00  0.42368395650E+03  0.16617412160E+04  0.16068216372E+04 0.  0.
        1    1    3    3  502    0  0.40407030750E+03 -0.49817891282E+03 -0.28844194686E+03  0.70331628682E+03  0.50400001928E-02 0. -1.
       -1    1    3    3    0  502 -0.40407030750E+03  0.49817891282E+03  0.71212590335E+03  0.95842492916E+03  0.50400001928E-02 0.  1.
</event>
<event>
 5   0  0.1764099E-04  0.1614078E+04  0.7818609E-02  0.8811946E-01
       -1   -1    0    0    0  501  0.00000000000E+00  0.00000000000E+00  0.64757780133E+03  0.64757780135E+03  0.50400001928E-02 0. -1.
        1   -1    0    0  501    0  0.00000000000E+00  0.00000000000E+00 -0.10057659999E+04  0.10057659999E+04  0.50400001928E-02 0.  1.
    10030    2    1    2    0    0  0.00000000000E+00  0.00000000000E+00 -0.35818819855E+03  0.16533438012E+04  0.16140777365E+04 0.  0.
        5    1    3    3  502    0 -0.67369287451E+03  0.29523279810E+03 -0.51923422024E+03  0.90036146058E+03  0.46999998093E+01 0.  1.
       -5    1    3    3    0  502  0.67369287451E+03 -0.29523279810E+03  0.16104602170E+03  0.75298234066E+03  0.46999998093E+01 0. -1.
</event>
<event>
 5   0  0.1819811E-04  0.1582468E+04  0.7818609E-02  0.8831392E-01
        1   -1    0    0  501    0  0.00000000000E+00  0.00000000000E+00  0.67436166384E+03  0.67436166386E+03  0.50400001928E-02 0. -1.
       -1   -1    0    0    0  501  0.00000000000E+00  0.00000000000E+00 -0.92836109808E+03  0.92836109810E+03  0.50400001928E-02 0.  1.
    10030    2    1    2    0    0  0.00000000000E+00  0.00000000000E+00 -0.25399943425E+03  0.16027227620E+04  0.15824678635E+04 0.  0.
        1    1    3    3  502    0 -0.21012108123E+03 -0.42788159440E+03  0.51260354100E+03  0.69999708419E+03  0.50400001928E-02 0. -1.
       -1    1    3    3    0  502  0.21012108123E+03  0.42788159440E+03 -0.76660297525E+03  0.90272567776E+03  0.50400001928E-02 0.  1.
</event>
<event>
 5   0  0.3274900E-04  0.1589160E+04  0.7818609E-02  0.8827235E-01
       -2   -1    0    0    0  501  0.00000000000E+00  0.00000000000E+00  0.70481812019E+03  0.70481812020E+03  0.25500000920E-02 0.  1.
        2   -1    0    0  501    0  0.00000000000E+00  0.00000000000E+00 -0.89577381266E+03  0.89577381266E+03  0.25500000920E-02 0. -1.
    10030    2    1    2    0    0  0.00000000000E+00  0.00000000000E+00 -0.19095569246E+03  0.16005919329E+04  0.15891603000E+04 0.  0.
        3    1    3    3  502    0  0.41432750789E+03 -0.58993111958E+03  0.24109903047E+03  0.76014127788E+03  0.10100000352E+00 0.  1.
       -3    1    3    3    0  502 -0.41432750789E+03  0.58993111958E+03 -0.43205472293E+03  0.84045065498E+03  0.10100000352E+00 0. -1.
</event>
<event>
 5   0  0.1819811E-04  0.1433085E+04  0.7818609E-02  0.8930212E-01
       -1   -1    0    0    0  501  0.00000000000E+00  0.00000000000E+00  0.44058947549E+03  0.44058947552E+03  0.50400001928E-02 0.  1.
        1   -1    0    0  501    0  0.00000000000E+00  0.00000000000E+00 -0.11653327404E+04  0.11653327405E+04  0.50400001928E-02 0. -1.
    10030    2    1    2    0    0  0.00000000000E+00  0.00000000000E+00 -0.72474326496E+03  0.16059222160E+04  0.14330852604E+04 0.  0.
        1    1    3    3  502    0 -0.40075990869E+03 -0.95987684349E+02 -0.10192517745E+04  0.10994072584E+04  0.50400001928E-02 0. -1.
       -1    1    3    3    0  502  0.40075990869E+03  0.95987684349E+02  0.29450850959E+03  0.50651495754E+03  0.50400001928E-02 0.  1.
</event>
<event>
 5   0  0.1819811E-04  0.1592645E+04  0.7818609E-02  0.8825079E-01
        1   -1    0    0  501    0  0.00000000000E+00  0.00000000000E+00  0.94919084022E+03  0.94919084024E+03  0.50400001928E-02 0. -1.
       -1   -1    0    0    0  501  0.00000000000E+00  0.00000000000E+00 -0.66807381429E+03  0.66807381431E+03  0.50400001928E-02 0.  1.
    10030    2    1    2    0    0  0.00000000000E+00  0.00000000000E+00  0.28111702593E+03  0.16172646546E+04  0.15926450265E+04 0.  0.
        1    1    3    3  502    0  0.23258976869E+03  0.42541229631E+03 -0.50091537989E+03  0.69712971547E+03  0.50400001928E-02 0.  1.
       -1    1    3    3    0  502 -0.23258976869E+03 -0.42541229631E+03  0.78203240582E+03  0.92013493909E+03  0.50400001928E-02 0. -1.
</event>
<event>
 5   0  0.1761255E-04  0.1596867E+04  0.7818609E-02  0.8822475E-01
        1   -1    0    0  501    0  0.00000000000E+00  0.00000000000E+00  0.13239085572E+04  0.13239085572E+04  0.50400001928E-02 0. -1.
       -1   -1    0    0    0  501  0.00000000000E+00  0.00000000000E+00 -0.48152587241E+03  0.48152587244E+03  0.50400001928E-02 0.  1.
    10030    2    1    2    0    0  0.00000000000E+00  0.00000000000E+00  0.84238268475E+03  0.18054344296E+04  0.15968672118E+04 0.  0.
        2    1    3    3  502    0  0.71850043156E+03 -0.10552436850E+03  0.79637334405E+03  0.10777702750E+04  0.25500000920E-02 0. -1.
       -2    1    3    3    0  502 -0.71850043156E+03  0.10552436850E+03  0.46009340697E+02  0.72766415464E+03  0.25500000920E-02 0.  1.
</event>
<event>
 5   0  0.3228393E-04  0.1589767E+04  0.7818609E-02  0.8826859E-01
        2   -1    0    0  501    0  0.00000000000E+00  0.00000000000E+00  0.24625993130E+04  0.24625993130E+04  0.25500000920E-02 0. -1.
       -2   -1    0    0    0  501  0.00000000000E+00  0.00000000000E+00 -0.25657446329E+03  0.25657446331E+03  0.25500000920E-02 0.  1.
    10030    2    1    2    0    0  0.00000000000E+00  0.00000000000E+00  0.22060248497E+04  0.27191737763E+04  0.15897674007E+04 0.  0.
        1    1    3    3  502    0  0.36569120626E+03  0.30340629381E+03  0.13089906835E+02  0.47534911712E+03  0.50400001928E-02 0.  1.
       -1    1    3    3    0  502 -0.36569120626E+03 -0.30340629381E+03  0.21929349428E+04  0.22438246591E+04  0.50400001928E-02 0. -1.
</event>
<event>
 5   0  0.1219463E-04  0.1602419E+04  0.7818609E-02  0.8819063E-01
       -3   -1    0    0    0  501  0.00000000000E+00  0.00000000000E+00  0.24031192692E+04  0.24031192714E+04  0.10100000352E+00 0.  1.
        3   -1    0    0  501    0  0.00000000000E+00  0.00000000000E+00 -0.26712636711E+03  0.26712638621E+03  0.10100000352E+00 0. -1.
    10030    2    1    2    0    0  0.00000000000E+00  0.00000000000E+00  0.21359929021E+04  0.26702456576E+04  0.16024188572E+04 0.  0.
        1    1    3    3  502    0 -0.69853455922E+03 -0.34801817276E+03  0.13701104551E+04  0.15767909938E+04  0.50400001928E-02 0. -1.
       -1    1    3    3    0  502  0.69853455922E+03  0.34801817276E+03  0.76588244706E+03  0.10934546638E+04  0.50400001928E-02 0.  1.
</event>
<event>
 5   0  0.3274900E-04  0.1601291E+04  0.7818609E-02  0.8819755E-01
        2   -1    0    0  501    0  0.00000000000E+00  0.00000000000E+00  0.50534087733E+03  0.50534087734E+03  0.25500000920E-02 0. -1.
       -2   -1    0    0    0  501  0.00000000000E+00  0.00000000000E+00 -0.12685166223E+04  0.12685166223E+04  0.25500000920E-02 0.  1.
    10030    2    1    2    0    0  0.00000000000E+00  0.00000000000E+00 -0.76317574499E+03  0.17738574997E+04  0.16012911076E+04 0.  0.
        3    1    3    3  502    0 -0.13875978438E+03  0.15337671158E+03  0.47523580554E+03  0.51829313568E+03  0.10100000352E+00 0. -1.
       -3    1    3    3    0  502  0.13875978438E+03 -0.15337671158E+03 -0.12384115505E+04  0.12555643640E+04  0.10100000352E+00 0.  1.
</event>
<event>
 5   0  0.3210612E-04  0.1594189E+04  0.7818609E-02  0.8824126E-01
       -2   -1    0    0    0  501  0.00000000000E+00  0.00000000000E+00  0.94896846496E+03  0.94896846496E+03  0.25500000920E-02 0. -1.
        2   -1    0    0  501    0  0.00000000000E+00  0.00000000000E+00 -0.66952623310E+03  0.66952623311E+03  0.25500000920E-02 0.  1.
    10030    2    1    2    0    0  0.00000000000E+00  0.00000000000E+00  0.27944223185E+03  0.16184946981E+04  0.15941885480E+04 0.  0.
        2    1    3    3  502    0  0.32811975760E+03  0.45097291474E+03 -0.43845287769E+03  0.70942235031E+03  0.25500000920E-02 0.  1.
       -2    1    3    3    0  502 -0.32811975760E+03 -0.45097291474E+03  0.71789510954E+03  0.90907234776E+03  0.25500000920E-02 0. -1.
</event>
<event>
 5   0  0.3263294E-04  0.1590156E+04  0.7818609E-02  0.8826619E-01
        2   -1    0    0  501    0  0.00000000000E+00  0.00000000000E+00  0.17115300471E+04  0.17115300471E+04  0.25500000920E-02 0. -1.
       -2   -1    0    0    0  501  0.00000000000E+00  0.00000000000E+00 -0.36934721797E+03  0.36934721798E+03  0.25500000920E-02 0.  1.
    10030    2    1    2    0    0  0.00000000000E+00  0.00000000000E+00  0.13421828291E+04  0.20808772651E+04  0.15901557928E+04 0.  0.
        4    1    3    3  502    0  0.12066073403E+03  0.78582569136E+03  0.66044271491E+03  0.10335701343E+04  0.12699999809E+01 0.  1.
       -4    1    3    3    0  502 -0.12066073403E+03 -0.78582569136E+03  0.68174011419E+03  0.10473071308E+04  0.12699999809E+01 0. -1.
</event>
<event>
 5   0  0.3274900E-04  0.1600457E+04  0.7818609E-02  0.8820267E-01
       -2   -1    0    0    0  501  0.00000000000E+00  0.00000000000E+00  0.83720304381E+03  0.83720304382E+03  0.25500000920E-02 0.  1.
        2   -1    0    0  501    0  0.00000000000E+00  0.00000000000E+00 -0.76488682996E+03  0.76488682997E+03  0.25500000920E-02 0. -1.
    10030    2    1    2    0    0  0.00000000000E+00  0.00000000000E+00  0.72316213850E+02  0.16020898738E+04  0.16004569125E+04 0.  0.
        3    1    3    3  502    0 -0.56203457982E+03 -0.28229333385E+02  0.60567251777E+03  0.82675206269E+03  0.10100000352E+00 0.  1.
       -3    1    3    3    0  502  0.56203457982E+03  0.28229333385E+02 -0.53335630392E+03  0.77533781109E+03  0.10100000352E+00 0. -1.
</event>
<event>
 5   0  0.1819811E-04  0.1609035E+04  0.7818609E-02  0.8815017E-01
       -1   -1    0    0    0  501  0.00000000000E+00  0.00000000000E+00  0.99954681447E+03  0.99954681448E+03  0.50400001928E-02 0.  1.
        1   -1    0    0  501    0  0.00000000000E+00  0.00000000000E+00 -0.64754161109E+03  0.64754161111E+03  0.50400001928E-02 0. -1.
    10030    2    1    2    0    0  0.00000000000E+00  0.00000000000E+00  0.35200520338E+03  0.16470884256E+04  0.16090346853E+04 0.  0.
        1    1    3    3  502    0 -0.91583291590E+02 -0.46892923990E+03 -0.48658134815E+03  0.68194100898E+03  0.50400001928E-02 0. -1.
       -1    1    3    3    0  502  0.91583291590E+02  0.46892923990E+03  0.83858655153E+03  0.96514741660E+03  0.50400001928E-02 0.  1.
</event>
<event>
 5   0  0.1219463E-04  0.1645188E+04  0.7818609E-02  0.8793258E-01
       -3   -1    0    0    0  501  0.00000000000E+00  0.00000000000E+00  0.12322676604E+04  0.12322676645E+04  0.10100000352E+00 0.  1.
        3   -1    0    0  501    0  0.00000000000E+00  0.00000000000E+00 -0.54911835725E+03  0.54911836654E+03  0.10100000352E+00 0. -1.
    10030    2    1    2    0    0  0.00000000000E+00  0.00000000000E+00  0.68314930311E+03  0.17813860310E+04  0.16451878985E+04 0.  0.
        4    1    3    3  502    0 -0.31841352978E+03  0.74820521445E+03  0.47621057532E+03  0.94232496721E+03  0.12699999809E+01 0.  1.
       -4    1    3    3    0  502  0.31841352978E+03 -0.74820521445E+03  0.20693872779E+03  0.83906106383E+03  0.12699999809E+01 0. -1.
</event>
<event>
 5   0  0.1219463E-04  0.1595306E+04  0.7818609E-02  0.8823437E-01
       -3   -1    0    0    0  501  0.00000000000E+00  0.00000000000E+00  0.16718857016E+04  0.16718857046E+04  0.10100000352E+00 0.  1.
        3   -1    0    0  501    0  0.00000000000E+00  0.00000000000E+00 -0.38055830033E+03  0.38055831373E+03  0.10100000352E+00 0. -1.
    10030    2    1    2    0    0  0.00000000000E+00  0.00000000000E+00  0.12913274012E+04  0.20524440183E+04  0.15953056106E+04 0.  0.
        5    1    3    3  502    0 -0.57521661157E+03  0.20117751664E+03  0.13078087405E+04  0.14428209643E+04  0.46999998093E+01 0.  1.
       -5    1    3    3    0  502  0.57521661157E+03 -0.20117751664E+03 -0.16481339264E+02  0.60962305400E+03  0.46999998093E+01 0. -1.
</event>
<event>
 5   0  0.3263294E-04  0.1581271E+04  0.7818609E-02  0.8832137E-01
       -2   -1    0    0    0  501  0.00000000000E+00  0.00000000000E+00  0.10427099355E+04  0.10427099355E+04  0.25500000920E-02 0. -1.
        2   -1    0    0  501    0  0.00000000000E+00  0.00000000000E+00 -0.59949984102E+03  0.59949984103E+03  0.25500000920E-02 0.  1.
    10030    2    1    2    0    0  0.00000000000E+00  0.00000000000E+00  0.44321009450E+03  0.16422097766E+04  0.15812709326E+04 0.  0.
        4    1    3    3  502    0 -0.22129417880E+03 -0.24780090706E+03  0.96669820925E+03  0.10221954039E+04  0.12699999809E+01 0. -1.
       -4    1    3    3    0  502  0.22129417880E+03  0.24780090706E+03 -0.52348811475E+03  0.62001437265E+03  0.12699999809E+01 0.  1.
</event>
<event>
 5   0  0.3210612E-04  0.1592746E+04  0.7818609E-02  0.8825017E-01
        2   -1    0    0  501    0  0.00000000000E+00  0.00000000000E+00  0.10612414496E+04  0.10612414496E+04  0.25500000920E-02 0. -1.
       -2   -1    0    0    0  501  0.00000000000E+00  0.00000000000E+00 -0.59761172100E+03  0.59761172101E+03  0.25500000920E-02 0.  1.
    10030    2    1    2    0    0  0.00000000000E+00  0.00000000000E+00  0.46362972859E+03  0.16588531706E+04  0.15927464696E+04 0.  0.
        2    1    3    3  502    0 -0.35296113355E+03 -0.43459913228E+03 -0.35804144257E+03  0.66456876406E+03  0.25500000920E-02 0.  1.
       -2    1    3    3    0  502  0.35296113355E+03  0.43459913228E+03  0.82167117115E+03  0.99428440653E+03  0.25500000920E-02 0. -1.
</event>
<event>
 5   0  0.1761255E-04  0.1604606E+04  0.7818609E-02  0.8817723E-01
       -1   -1    0    0    0  501  0.00000000000E+00  0.00000000000E+00  0.65059047891E+03  0.65059047893E+03  0.50400001928E-02 0.  1.
        1   -1    0    0  501    0  0.00000000000E+00  0.00000000000E+00 -0.98939425165E+03  0.98939425166E+03  0.50400001928E-02 0. -1.
    10030    2    1    2    0    0  0.00000000000E+00  0.00000000000E+00 -0.33880377273E+03  0.16399847306E+04  0.16046064689E+04 0.  0.
        2    1    3    3  502    0  0.54674579055E+03 -0.67935803326E+02  0.42667575353E+03  0.69684893020E+03  0.25500000920E-02 0.  1.
       -2    1    3    3    0  502 -0.54674579055E+03  0.67935803326E+02 -0.76547952626E+03  0.94313580040E+03  0.25500000920E-02 0. -1.
</event>
<event>
 5   0  0.1219463E-04  0.1605415E+04  0.7818609E-02  0.8817228E-01
        4   -1    0    0  501    0  0.00000000000E+00  0.00000000000E+00  0.99228330297E+03  0.99228411569E+03  0.12699999809E+01 0. -1.
       -4   -1    0    0    0  501  0.00000000000E+00  0.00000000000E+00 -0.64934825698E+03  0.64934949891E+03  0.12699999809E+01 0.  1.
    10030    2    1    2    0    0  0.00000000000E+00  0.00000000000E+00  0.34293504599E+03  0.16416336146E+04  0.16054147373E+04 0.  0.
        1    1    3    3  502    0  0.64059003932E+03 -0.13380752292E+03 -0.30386260248E+03  0.72152098575E+03  0.50400001928E-02 0.  1.
       -1    1    3    3    0  502 -0.64059003932E+03  0.13380752292E+03  0.64679764847E+03  0.92011262885E+03  0.50400001928E-02 0. -1.
</event>
<event>
 5   0  0.3228393E-04  0.1602373E+04  0.7818609E-02  0.8819092E-01
       -2   -1    0    0    0  501  0.00000000000E+00  0.00000000000E+00  0.56590394020E+03  0.56590394020E+03  0.25500000920E-02 0.  1.
        2   -1    0    0  501    0  0.00000000000E+00  0.00000000000E+00 -0.11342910332E+04  0.11342910332E+04  0.25500000920E-02 0. -1.
    10030    2    1    2    0    0  0.00000000000E+00  0.00000000000E+00 -0.56838709296E+03  0.17001949734E+04  0.16023729466E+04 0.  0.
        1    1    3    3  502    0  0.35837608992E+03 -0.16135569008E+03  0.45659039015E+03  0.60244822595E+03  0.50400001928E-02 0.  1.
       -1    1    3    3    0  502 -0.35837608992E+03  0.16135569008E+03 -0.10249774831E+04  0.10977467474E+04  0.50400001928E-02 0. -1.
</event>
<event>
 5   0  0.1819811E-04  0.1605088E+04  0.7818609E-02  0.8817428E-01
       -1   -1    0    0    0  501  0.00000000000E+00  0.00000000000E+00  0.44103433594E+03  0.44103433597E+03  0.50400001928E-02 0.  1.
        1   -1    0    0  501    0  0.00000000000E+00  0.00000000000E+00 -0.14603789213E+04  0.14603789213E+04  0.50400001928E-02 0. -1.
    10030    2    1    2    0    0  0.00000000000E+00  0.00000000000E+00 -0.10193445853E+04  0.19014132572E+04  0.16050884683E+04 0.  0.
        1    1    3    3  502    0  0.35030106602E+03 -0.58083790556E+03 -0.10178072399E+04  0.12231169556E+04  0.50400001928E-02 0. -1.
       -1    1    3    3    0  502 -0.35030106602E+03  0.58083790556E+03 -0.15373454096E+01  0.67829630166E+03  0.50400001928E-02 0.  1.
</event>
<event>
 5   0  0.1764099E-04  0.1625945E+04  0.7818609E-02  0.8804766E-01
        1   -1    0    0  501    0  0.00000000000E+00  0.00000000000E+00  0.49370098998E+03  0.49370099001E+03  0.50400001928E-02 0.  1.
       -1   -1    0    0    0  501  0.00000000000E+00  0.00000000000E+00 -0.13387133268E+04  0.13387133268E+04  0.50400001928E-02 0. -1.
    10030    2    1    2    0    0  0.00000000000E+00  0.00000000000E+00 -0.84501233683E+03  0.18324143168E+04  0.16259447651E+04 0.  0.
        5    1    3    3  502    0 -0.65033899828E+03  0.38460612700E+03 -0.76067532118E+03  0.10721528435E+04  0.46999998093E+01 0. -1.
       -5    1    3    3    0  502  0.65033899828E+03 -0.38460612700E+03 -0.84337015654E+02  0.76026147332E+03  0.46999998093E+01 0.  1.
</event>
<event>
 5   0  0.1819811E-04  0.1597042E+04  0.7818609E-02  0.8822367E-01
        1   -1    0    0  501    0  0.00000000000E+00  0.00000000000E+00  0.93546849389E+03  0.93546849391E+03  0.50400001928E-02 0. -1.
       -1   -1    0    0    0  501  0.00000000000E+00  0.00000000000E+00 -0.68162225144E+03  0.68162225146E+03  0.50400001928E-02 0.  1.
    10030    2    1    2    0    0  0.00000000000E+00  0.00000000000E+00  0.25384624246E+03  0.16170907454E+04  0.15970424427E+04 0.  0.
        1    1    3    3  502    0  0.25705563813E+03 -0.56280958297E+03 -0.38419464880E+03  0.72831157891E+03  0.50400001928E-02 0.  1.
       -1    1    3    3    0  502 -0.25705563813E+03  0.56280958297E+03  0.63804089125E+03  0.88877916645E+03  0.50400001928E-02 0. -1.
</event>
<event>
 5   0  0.1736537E-04  0.1595421E+04  0.7818609E-02  0.8823366E-01
       -1   -1    0    0    0  501  0.00000000000E+00  0.00000000000E+00  0.37488254005E+03  0.37488254009E+03  0.50400001928E-02 0. -1.
        1   -1    0    0  501    0  0.00000000000E+00  0.00000000000E+00 -0.16974428049E+04  0.16974428049E+04  0.50400001928E-02 0.  1.
    10030    2    1    2    0    0  0.00000000000E+00  0.00000000000E+00 -0.13225602649E+04  0.20723253450E+04  0.15954205343E+04 0.  0.
        3    1    3    3  502    0  0.12909092656E+03  0.60365068598E+02 -0.16807745178E+04  0.16868050862E+04  0.10100000352E+00 0.  1.
       -3    1    3    3    0  502 -0.12909092656E+03 -0.60365068598E+02  0.35821425290E+03  0.38552025888E+03  0.10100000352E+00 0. -1.
</event>
<event>
 5   0  0.3228393E-04  0.1609044E+04  0.7818609E-02  0.8815011E-01
        2   -1    0    0  501    0  0.00000000000E+00  0.00000000000E+00  0.16809804597E+04  0.16809804597E+04  0.25500000920E-02 0.  1.
       -2   -1    0    0    0  501  0.00000000000E+00  0.00000000000E+00 -0.38504663877E+03  0.38504663878E+03  0.25500000920E-02 0. -1.
    10030    2    1    2    0    0  0.00000000000E+00  0.00000000000E+00  0.12959338210E+04  0.20660270985E+04  0.16090442826E+04 0.  0.
        1    1    3    3  502    0  0.26181062796E+03 -0.30432929498E+03  0.15431842445E+04  0.15945465616E+04  0.50400001928E-02 0.  1.
       -1    1    3    3    0  502 -0.26181062796E+03  0.30432929498E+03 -0.24725042354E+03  0.47148053688E+03  0.50400001928E-02 0. -1.
</event>
<event>
 5   0  0.3228393E-04  0.1523981E+04  0.7818609E-02  0.8868660E-01
       -2   -1    0    0    0  501  0.00000000000E+00  0.00000000000E+00  0.60419611421E+03  0.60419611422E+03  0.25500000920E-02 0. -1.
        2   -1    0    0  501    0  0.00000000000E+00  0.00000000000E+00 -0.96099556332E+03  0.96099556333E+03  0.25500000920E-02 0.  1.
    10030    2    1    2    0    0  0.00000000000E+00  0.00000000000E+00 -0.35679944911E+03  0.15651916775E+04  0.15239813452E+04 0.  0.
        1    1    3    3  502    0 -0.22354605980E+03  0.10165373456E+03 -0.91923999890E+03  0.95147700876E+03  0.50400001928E-02 0.  1.
       -1    1    3    3    0  502  0.22354605980E+03 -0.10165373456E+03  0.56244054979E+03  0.61371466878E+03  0.50400001928E-02 0. -1.
</event>
<event>
 5   0  0.1219463E-04  0.1604575E+04  0.7818609E-02  0.8817742E-01
        3   -1    0    0  501    0  0.00000000000E+00  0.00000000000E+00  0.92661590693E+03  0.92661591243E+03  0.10100000352E+00 0.  1.
       -3   -1    0    0    0  501  0.00000000000E+00  0.00000000000E+00 -0.69464082208E+03  0.69464082942E+03  0.10100000352E+00 0. -1.
    10030    2    1    2    0    0  0.00000000000E+00  0.00000000000E+00  0.23197508485E+03  0.16212567419E+04  0.16045750163E+04 0.  0.
        1    1    3    3  502    0  0.22803256312E+03 -0.69242461308E+03 -0.22247947735E+03  0.76219932597E+03  0.50400001928E-02 0.  1.
       -1    1    3    3    0  502 -0.22803256312E+03  0.69242461308E+03  0.45445456220E+03  0.85905741588E+03  0.50400001928E-02 0. -1.
</event>
<event>
 5   0  0.3263294E-04  0.1596135E+04  0.7818609E-02  0.8822926E-01
        2   -1    0    0  501    0  0.00000000000E+00  0.00000000000E+00  0.19888279337E+04  0.19888279337E+04  0.25500000920E-02 0.  1.
       -2   -1    0    0    0  501  0.00000000000E+00  0.00000000000E+00 -0.32024479022E+03  0.32024479023E+03  0.25500000920E-02 0. -1.
    10030    2    1    2    0    0  0.00000000000E+00  0.00000000000E+00  0.16685831435E+04  0.23090727240E+04  0.15961350625E+04 0.  0.
        4    1    3    3  502    0  0.85850485742E+02 -0.51551180215E+03  0.17068445960E+04  0.17850610106E+04  0.12699999809E+01 0.  1.
       -4    1    3    3    0  502 -0.85850485742E+02  0.51551180215E+03 -0.38261452439E+02  0.52401171333E+03  0.12699999809E+01 0. -1.
</event>
<event>
 5   0  0.1761255E-04  0.1602155E+04  0.7818609E-02  0.8819225E-01
        1   -1    0    0  501    0  0.00000000000E+00  0.00000000000E+00  0.88187582770E+03  0.88187582771E+03  0.50400001928E-02 0.  1.
       -1   -1    0    0    0  501  0.00000000000E+00  0.00000000000E+00 -0.72768173511E+03  0.72768173512E+03  0.50400001928E-02 0. -1.
    10030    2    1    2    0    0  0.00000000000E+00  0.00000000000E+00  0.15419409259E+03  0.16095575628E+04  0.16021547147E+04 0.  0.
        2    1    3    3  502    0 -0.24691666447E+03 -0.44535586879E+03  0.69835170512E+03  0.86429439030E+03  0.25500000920E-02 0.  1.
       -2    1    3    3    0  502  0.24691666447E+03  0.44535586879E+03 -0.54415761253E+03  0.74526317253E+03  0.25500000920E-02 0. -1.
</event>
<event>
 5   0  0.3380454E-04  0.1583775E+04  0.7818609E-02  0.8830578E-01
        2   -1    0    0  501    0  0.00000000000E+00  0.00000000000E+00  0.10061522250E+04  0.10061522250E+04  0.25500000920E-02 0. -1.
       -2   -1    0    0    0  501  0.00000000000E+00  0.00000000000E+00 -0.62325153236E+03  0.62325153236E+03  0.25500000920E-02 0.  1.
    10030    2    1    2    0    0  0.00000000000E+00  0.00000000000E+00  0.38290069261E+03  0.16294037573E+04  0.15837751305E+04 0.  0.
        5    1    3    3  502    0 -0.35070136289E+03 -0.64832003869E+03  0.48919001191E+03  0.88466902073E+03  0.46999998093E+01 0.  1.
       -5    1    3    3    0  502  0.35070136289E+03  0.64832003869E+03 -0.10628931930E+03  0.74473473660E+03  0.46999998093E+01 0. -1.
</event>
<event>
 5   0  0.3380454E-04  0.1526019E+04  0.7818609E-02  0.8867333E-01
        2   -1    0    0  501    0  0.00000000000E+00  0.00000000000E+00  0.10154716402E+04  0.10154716402E+04  0.25500000920E-02 0.  1.
       -2   -1    0    0    0  501  0.00000000000E+00  0.00000000000E+00 -0.57331333658E+03  0.57331333659E+03  0.25500000920E-02 0. -1.
    10030    2    1    2    0    0  0.00000000000E+00  0.00000000000E+00  0.44215830366E+03  0.15887849768E+04  0.15260189177E+04 0.  0.
        5    1    3    3  502    0 -0.16599372741E+03 -0.88669318646E+02  0.99091421565E+03  0.10086373176E+04  0.46999998093E+01 0.  1.
       -5    1    3    3    0  502  0.16599372741E+03  0.88669318646E+02 -0.54875591199E+03  0.58014765927E+03  0.46999998093E+01 0. -1.
</event>
<event>
 5   0  0.3274900E-04  0.1611719E+04  0.7818609E-02  0.8813381E-01
        2   -1    0    0  501    0  0.00000000000E+00  0.00000000000E+00  0.10724776962E+04  0.10724776962E+04  0.25500000920E-02 0.  1.
       -2   -1    0    0    0  501  0.00000000000E+00  0.00000000000E+00 -0.60552246041E+03  0.60552246042E+03  0.25500000920E-02 0. -1.
    10030    2    1    2    0    0  0.00000000000E+00  0.00000000000E+00  0.46695523580E+03  0.16780001566E+04  0.16117187513E+04 0.  0.
        3    1    3    3  502    0 -0.36227809840E+01 -0.55455912457E+03 -0.37525576811E+03  0.66960126111E+03  0.10100000352E+00 0.  1.
       -3    1    3    3    0  502  0.36227809840E+01  0.55455912457E+03  0.84221100391E+03  0.10083988955E+04  0.10100000352E+00 0. -1.
</event>
<event>
 5   0  0.3380454E-04  0.1615854E+04  0.7818609E-02  0.8810867E-01
       -2   -1    0    0    0  501  0.00000000000E+00  0.00000000000E+00  0.12062344919E+04  0.12062344919E+04  0.25500000920E-02 0.  1.
        2   -1    0    0  501    0  0.00000000000E+00  0.00000000000E+00 -0.54114341029E+03  0.54114341030E+03  0.25500000920E-02 0. -1.
    10030    2    1    2    0    0  0.00000000000E+00  0.00000000000E+00  0.66509108163E+03  0.17473779022E+04  0.16158537639E+04 0.  0.
        5    1    3    3  502    0  0.55225578707E+03 -0.17047983208E+03 -0.27791564015E+03  0.64133378247E+03  0.46999998093E+01 0. -1.
       -5    1    3    3    0  502 -0.55225578707E+03  0.17047983208E+03  0.94300672178E+03  0.11060441197E+04  0.46999998093E+01 0.  1.
</event>
<event>
 5   0  0.3210612E-04  0.1600971E+04  0.7818609E-02  0.8819952E-01
       -2   -1    0    0    0  501  0.00000000000E+00  0.00000000000E+00  0.78227238353E+03  0.78227238354E+03  0.25500000920E-02 0. -1.
        2   -1    0    0  501    0  0.00000000000E+00  0.00000000000E+00 -0.81912216410E+03  0.81912216411E+03  0.25500000920E-02 0.  1.
    10030    2    1    2    0    0  0.00000000000E+00  0.00000000000E+00 -0.36849780571E+02  0.16013945476E+04  0.16009705153E+04 0.  0.
        2    1    3    3  502    0 -0.77244501177E+03  0.10244472826E+03 -0.20180492082E+03  0.80491704209E+03  0.25500000920E-02 0. -1.
       -2    1    3    3    0  502  0.77244501177E+03 -0.10244472826E+03  0.16495514025E+03  0.79647750556E+03  0.25500000920E-02 0.  1.
</event>
<event>
 5   0  0.3380454E-04  0.1580437E+04  0.7818609E-02  0.8832657E-01
        2   -1    0    0  501    0  0.00000000000E+00  0.00000000000E+00  0.45711033797E+03  0.45711033797E+03  0.25500000920E-02 0.  1.
       -2   -1    0    0    0  501  0.00000000000E+00  0.00000000000E+00 -0.13660719332E+04  0.13660719332E+04  0.25500000920E-02 0. -1.
    10030    2    1    2    0    0  0.00000000000E+00  0.00000000000E+00 -0.90896159525E+03  0.18231822712E+04  0.15804374117E+04 0.  0.
        5    1    3    3  502    0 -0.50247206954E+03  0.29390418577E+03  0.16198044811E+03  0.60424962280E+03  0.46999998093E+01 0.  1.
       -5    1    3    3    0  502  0.50247206954E+03 -0.29390418577E+03 -0.10709420434E+04  0.12189326484E+04  0.46999998093E+01 0. -1.
</event>
<event>
 5   0  0.3210612E-04  0.1598834E+04  0.7818609E-02  0.8821265E-01
       -2   -1    0    0    0  501  0.00000000000E+00  0.00000000000E+00  0.48452048617E+03  0.48452048618E+03  0.25500000920E-02 0.  1.
        2   -1    0    0  501    0  0.00000000000E+00  0.00000000000E+00 -0.13189684471E+04  0.13189684471E+04  0.25500000920E-02 0. -1.
    10030    2    1    2    0    0  0.00000000000E+00  0.00000000000E+00 -0.83444796095E+03  0.18034889333E+04  0.15988336164E+04 0.  0.
        2    1    3    3  502    0  0.66199550341E+03  0.36369619570E+03 -0.71256750062E+03  0.10383955953E+04  0.25500000920E-02 0. -1.
       -2    1    3    3    0  502 -0.66199550341E+03 -0.36369619570E+03 -0.12188046033E+03  0.76509333804E+03  0.25500000920E-02 0.  1.
</event>
<event>
 5   0  0.3263294E-04  0.1660533E+04  0.7818609E-02  0.8784200E-01
       -2   -1    0    0    0  501  0.00000000000E+00  0.00000000000E+00  0.14844725237E+04  0.14844725237E+04  0.25500000920E-02 0. -1.
        2   -1    0    0  501    0  0.00000000000E+00  0.00000000000E+00 -0.46436851954E+03  0.46436851955E+03  0.25500000920E-02 0.  1.
    10030    2    1    2    0    0  0.00000000000E+00  0.00000000000E+00  0.10201040041E+04  0.19488410432E+04  0.16605328158E+04 0.  0.
        4    1    3    3  502    0 -0.79339532507E+03 -0.23932345433E+03  0.56976671618E+03  0.10056776727E+04  0.12699999809E+01 0.  1.
       -4    1    3    3    0  502  0.79339532507E+03  0.23932345433E+03  0.45033728794E+03  0.94316337049E+03  0.12699999809E+01 0. -1.
</event>
<event>
 5   0  0.3228393E-04  0.1597981E+04  0.7818609E-02  0.8821790E-01
       -2   -1    0    0    0  501  0.00000000000E+00  0.00000000000E+00  0.40884118652E+03  0.40884118653E+03  0.25500000920E-02 0. -1.
        2   -1    0    0  501    0  0.00000000000E+00  0.00000000000E+00 -0.15614510935E+04  0.15614510935E+04  0.25500000920E-02 0.  1.
    10030    2    1    2    0    0  0.00000000000E+00  0.00000000000E+00 -0.11526099069E+04  0.19702922800E+04  0.15979806229E+04 0.  0.
        1    1    3    3  502    0 -0.58512696041E+03 -0.35864819519E+03 -0.10807517617E+04  0.12802446869E+04  0.50400001928E-02 0.  1.
       -1    1    3    3    0  502  0.58512696041E+03  0.35864819519E+03 -0.71858145185E+02  0.69004759312E+03  0.50400001928E-02 0. -1.
</event>
<event>
 5   0  0.1819811E-04  0.1604578E+04  0.7818609E-02  0.8817740E-01
       -1   -1    0    0    0  501  0.00000000000E+00  0.00000000000E+00  0.58579304426E+03  0.58579304428E+03  0.50400001928E-02 0.  1.
        1   -1    0    0  501    0  0.00000000000E+00  0.00000000000E+00 -0.10987970773E+04  0.10987970773E+04  0.50400001928E-02 0. -1.
    10030    2    1    2    0    0  0.00000000000E+00  0.00000000000E+00 -0.51300403306E+03  0.16845901216E+04  0.16045780567E+04 0.  0.
        1    1    3    3  502    0  0.18744943867E+03 -0.20814036751E+03  0.53278969730E+03  0.60193402149E+03  0.50400001928E-02 0.  1.
       -1    1    3    3    0  502 -0.18744943867E+03  0.20814036751E+03 -0.10457937304E+04  0.10826561001E+04  0.50400001928E-02 0. -1.
</event>
<event>
 5   0  0.1764099E-04  0.1593315E+04  0.7818609E-02  0.8824665E-01
        1   -1    0    0  501    0  0.00000000000E+00  0.00000000000E+00  0.11550951816E+04  0.11550951816E+04  0.50400001928E-02 0. -1.
       -1   -1    0    0    0  501  0.00000000000E+00  0.00000000000E+00 -0.54944655516E+03  0.54944655518E+03  0.50400001928E-02 0.  1.
    10030    2    1    2    0    0  0.00000000000E+00  0.00000000000E+00  0.60564862644E+03  0.17045417368E+04  0.15933148696E+04 0.  0.
        5    1    3    3  502    0 -0.42451742901E+02  0.50076586071E+03  0.96409436240E+03  0.10872297951E+04  0.46999998093E+01 0. -1.
       -5    1    3    3    0  502  0.42451742901E+02 -0.50076586071E+03 -0.35844573596E+03  0.61731194170E+03  0.46999998093E+01 0.  1.
</event>
<event>
 5   0  0.1761255E-04  0.1591251E+04  0.7818609E-02  0.8825941E-01
        1   -1    0    0  501    0  0.00000000000E+00  0.00000000000E+00  0.19980796954E+04  0.19980796954E+04  0.50400001928E-02 0.  1.
       -1   -1    0    0    0  501  0.00000000000E+00  0.00000000000E+00 -0.31681419229E+03  0.31681419233E+03  0.50400001928E-02 0. -1.
    10030    2    1    2    0    0  0.00000000000E+00  0.00000000000E+00  0.16812655031E+04  0.23148938877E+04  0.15912510863E+04 0.  0.
        2    1    3    3  502    0  0.38196432750E+03  0.30482525086E+03  0.17540166308E+04  0.18208211121E+04  0.25500000920E-02 0.  1.
       -2    1    3    3    0  502 -0.38196432750E+03 -0.30482525086E+03 -0.72751127700E+02  0.49407277565E+03  0.25500000920E-02 0. -1.
</event>
<event>
 5   0  0.1764099E-04  0.1578543E+04  0.7818609E-02  0.8833839E-01
        1   -1    0    0  501    0  0.00000000000E+00  0.00000000000E+00  0.23881794264E+04  0.23881794264E+04  0.50400001928E-02 0.  1.
       -1   -1    0    0    0  501  0.00000000000E+00  0.00000000000E+00 -0.26084707061E+03  0.26084707066E+03  0.50400001928E-02 0. -1.
    10030    2    1    2    0    0  0.00000000000E+00  0.00000000000E+00  0.21273323558E+04  0.26490264971E+04  0.15785431354E+04 0.  0.
        5    1    3    3  502    0 -0.76622087394E+03 -0.37700473701E+02  0.13749691861E+04  0.15745088460E+04  0.46999998093E+01 0.  1.
       -5    1    3    3    0  502  0.76622087394E+03  0.37700473701E+02  0.75236316968E+03  0.10745176511E+04  0.46999998093E+01 0. -1.
</event>
<event>
 5   0  0.3228393E-04  0.1604301E+04  0.7818609E-02  0.8817910E-01
        2   -1    0    0  501    0  0.00000000000E+00  0.00000000000E+00  0.22826222511E+04  0.22826222511E+04  0.25500000920E-02 0. -1.
       -2   -1    0    0    0  501  0.00000000000E+00  0.00000000000E+00 -0.28188873525E+03  0.28188873526E+03  0.25500000920E-02 0.  1.
    10030    2    1    2    0    0  0.00000000000E+00  0.00000000000E+00  0.20007335159E+04  0.25645109864E+04  0.16043010932E+04 0.  0.
        1    1    3    3  502    0 -0.71575217024E+03 -0.24168340678E+03  0.14314744896E+04  0.16185892786E+04  0.50400001928E-02 0. -1.
       -1    1    3    3    0  502  0.71575217024E+03  0.24168340678E+03  0.56925902630E+03  0.94592170784E+03  0.50400001928E-02 0.  1.
</event>
<event>
 5   0  0.3263294E-04  0.1599853E+04  0.7818609E-02  0.8820638E-01
        2   -1    0    0  501    0  0.00000000000E+00  0.00000000000E+00  0.12967921401E+04  0.12967921401E+04  0.25500000920E-02 0.  1.
       -2   -1    0    0    0  501  0.00000000000E+00  0.00000000000E+00 -0.49343504151E+03  0.49343504152E+03  0.25500000920E-02 0. -1.
    10030    2    1    2    0    0  0.00000000000E+00  0.00000000000E+00  0.80335709859E+03  0.17902271816E+04  0.15998533476E+04 0.  0.
        4    1    3    3  502    0  0.14079103660E+03  0.77953055933E+03  0.52623959108E+03  0.95100984697E+03  0.12699999809E+01 0.  1.
       -4    1    3    3    0  502 -0.14079103660E+03 -0.77953055933E+03  0.27711750752E+03  0.83921733466E+03  0.12699999809E+01 0. -1.
</event>
<event>
 5   0  0.1787688E-04  0.1584639E+04  0.7818609E-02  0.8830041E-01
        1   -1    0    0  501    0  0.00000000000E+00  0.00000000000E+00  0.11618574505E+04  0.11618574505E+04  0.50400001928E-02 0.  1.
       -1   -1    0    0    0  501  0.00000000000E+00  0.00000000000E+00 -0.54031611098E+03  0.54031611100E+03  0.50400001928E-02 0. -1.
    10030    2    1    2    0    0  0.00000000000E+00  0.00000000000E+00  0.62154133953E+03  0.17021735615E+04  0.15846391377E+04 0.  0.
        4    1    3    3  502    0  0.61559740866E+03 -0.41505661974E+03  0.13598718356E+02  0.74257572353E+03  0.12699999809E+01 0. -1.
       -4    1    3    3    0  502 -0.61559740866E+03  0.41505661974E+03  0.60794262117E+03  0.95959783799E+03  0.12699999809E+01 0.  1.
</event>
<event>
 5   0  0.1761255E-04  0.1601194E+04  0.7818609E-02  0.8819815E-01
       -1   -1    0    0    0  501  0.00000000000E+00  0.00000000000E+00  0.66266245457E+03  0.66266245459E+03  0.50400001928E-02 0. -1.
        1   -1    0    0  501    0  0.00000000000E+00  0.00000000000E+00 -0.96724247016E+03  0.96724247018E+03  0.50400001928E-02 0.  1.
    10030    2    1    2    0    0  0.00000000000E+00  0.00000000000E+00 -0.30458001559E+03  0.16299049248E+04  0.16011936416E+04 0.  0.
        2    1    3    3  502    0  0.25439352464E+03 -0.49962109522E+02 -0.92333036821E+03  0.95903662424E+03  0.25500000920E-02 0.  1.
       -2    1    3    3    0  502 -0.25439352464E+03  0.49962109522E+02  0.61875035262E+03  0.67086830052E+03  0.25500000920E-02 0. -1.
</event>
<event>
 5   0  0.1761255E-04  0.1599866E+04  0.7818609E-02  0.8820630E-01
        1   -1    0    0  501    0  0.00000000000E+00  0.00000000000E+00  0.67337457661E+03  0.67337457663E+03  0.50400001928E-02 0.  1.
       -1   -1    0    0    0  501  0.00000000000E+00  0.00000000000E+00 -0.95027774513E+03  0.95027774514E+03  0.50400001928E-02 0. -1.
    10030    2    1    2    0    0  0.00000000000E+00  0.00000000000E+00 -0.27690316851E+03  0.16236523218E+04  0.15998660873E+04 0.  0.
        2    1    3    3  502    0 -0.29775064642E+03 -0.53600110502E+03 -0.65984100005E+03  0.90074567852E+03  0.25500000920E-02 0. -1.
       -2    1    3    3    0  502  0.29775064642E+03  0.53600110502E+03  0.38293783153E+03  0.72290664325E+03  0.25500000920E-02 0.  1.
</event>
<event>
 5   0  0.3210612E-04  0.1593859E+04  0.7818609E-02  0.8824329E-01
       -2   -1    0    0    0  501  0.00000000000E+00  0.00000000000E+00  0.86188854065E+03  0.86188854065E+03  0.25500000920E-02 0.  1.
        2   -1    0    0  501    0  0.00000000000E+00  0.00000000000E+00 -0.73686674443E+03  0.73686674443E+03  0.25500000920E-02 0. -1.
    10030    2    1    2    0    0  0.00000000000E+00  0.00000000000E+00  0.12502179622E+03  0.15987552851E+04  0.15938594706E+04 0.  0.
        2    1    3    3  502    0  0.72495082821E+02  0.19339055088E+03 -0.70955562986E+03  0.73900245878E+03  0.25500000920E-02 0. -1.
       -2    1    3    3    0  502 -0.72495082821E+02 -0.19339055088E+03  0.83457742608E+03  0.85975282631E+03  0.25500000920E-02 0.  1.
</event>
<event>
 5   0  0.1819811E-04  0.1654167E+04  0.7818609E-02  0.8787945E-01
       -1   -1    0    0    0  501  0.00000000000E+00  0.00000000000E+00  0.33373167797E+03  0.33373167800E+03  0.50400001928E-02 0.  1.
        1   -1    0    0  501    0  0.00000000000E+00  0.00000000000E+00 -0.20497519086E+04  0.20497519086E+04  0.50400001928E-02 0. -1.
    10030    2    1    2    0    0  0.00000000000E+00  0.00000000000E+00 -0.17160202306E+04  0.23834835866E+04  0.16541670338E+04 0.  0.
        1    1    3    3  502    0 -0.42484497853E+02  0.40466255027E+03  0.17954590161E+03  0.44473974745E+03  0.50400001928E-02 0.  1.
       -1    1    3    3    0  502  0.42484497853E+02 -0.40466255027E+03 -0.18955661322E+04  0.19387438391E+04  0.50400001928E-02 0. -1.
</event>
<event>
 5   0  0.1761255E-04  0.1599023E+04  0.7818609E-02  0.8821148E-01
        1   -1    0    0  501    0  0.00000000000E+00  0.00000000000E+00  0.18175240270E+04  0.18175240270E+04  0.50400001928E-02 0. -1.
       -1   -1    0    0    0  501  0.00000000000E+00  0.00000000000E+00 -0.35169750069E+03  0.35169750073E+03  0.50400001928E-02 0.  1.
    10030    2    1    2    0    0  0.00000000000E+00  0.00000000000E+00  0.14658265263E+04  0.21692215277E+04  0.15990230240E+04 0.  0.
        2    1    3    3  502    0  0.18635756292E+03 -0.16946649405E+03 -0.29646250431E+03  0.38902191497E+03  0.25500000920E-02 0.  1.
       -2    1    3    3    0  502 -0.18635756292E+03  0.16946649405E+03  0.17622890306E+04  0.17801996127E+04  0.25500000920E-02 0. -1.
</event>
<event>
 5   0  0.1736537E-04  0.1598143E+04  0.7818609E-02  0.8821689E-01
        1   -1    0    0  501    0  0.00000000000E+00  0.00000000000E+00  0.12312356873E+04  0.12312356873E+04  0.50400001928E-02 0.  1.
       -1   -1    0    0    0  501  0.00000000000E+00  0.00000000000E+00 -0.51859729161E+03  0.51859729164E+03  0.50400001928E-02 0. -1.
    10030    2    1    2    0    0  0.00000000000E+00  0.00000000000E+00  0.71263839565E+03  0.17498329789E+04  0.15981432887E+04 0.  0.
        3    1    3    3  502    0 -0.37109897906E+03 -0.70530515998E+03  0.41965100640E+03  0.90070905309E+03  0.10100000352E+00 0.  1.
       -3    1    3    3    0  502  0.37109897906E+03  0.70530515998E+03  0.29298738925E+03  0.84912392583E+03  0.10100000352E+00 0. -1.
</event>
<event>
 5   0  0.1787688E-04  0.1614163E+04  0.7818609E-02  0.8811894E-01
       -1   -1    0    0    0  501  0.00000000000E+00  0.00000000000E+00  0.61233986983E+03  0.61233986985E+03  0.50400001928E-02 0. -1.
        1   -1    0    0  501    0  0.00000000000E+00  0.00000000000E+00 -0.10637570907E+04  0.10637570907E+04  0.50400001928E-02 0.  1.
    10030    2    1    2    0    0  0.00000000000E+00  0.00000000000E+00 -0.45141722088E+03  0.16760969606E+04  0.16141634099E+04 0.  0.
        4    1    3    3  502    0 -0.35659175705E+03  0.72341827111E+03 -0.25664415005E+03  0.84638023892E+03  0.12699999809E+01 0.  1.
       -4    1    3    3    0  502  0.35659175705E+03 -0.72341827111E+03 -0.19477307083E+03  0.82971672165E+03  0.12699999809E+01 0. -1.
</event>
<event>
 5   0  0.3263294E-04  0.1600865E+04  0.7818609E-02  0.8820017E-01
       -2   -1    0    0    0  501  0.00000000000E+00  0.00000000000E+00  0.80612516120E+03  0.80612516121E+03  0.25500000920E-02 0. -1.
        2   -1    0    0  501    0  0.00000000000E+00  0.00000000000E+00 -0.79478027807E+03  0.79478027807E+03  0.25500000920E-02 0.  1.
    10030    2    1    2    0    0  0.00000000000E+00  0.00000000000E+00  0.11344883136E+02  0.16009054393E+04  0.16008652408E+04 0.  0.
        4    1    3    3  502    0  0.99216256592E+02 -0.20208529381E+03  0.77381179514E+03  0.80589617119E+03  0.12699999809E+01 0. -1.
       -4    1    3    3    0  502 -0.99216256592E+02  0.20208529381E+03 -0.76246691200E+03  0.79500926809E+03  0.12699999809E+01 0.  1.
</event>
<event>
 5   0  0.3210612E-04  0.1603009E+04  0.7818609E-02  0.8818701E-01
       -2   -1    0    0    0  501  0.00000000000E+00  0.00000000000E+00  0.75987198398E+03  0.75987198398E+03  0.25500000920E-02 0. -1.
        2   -1    0    0  501    0  0.00000000000E+00  0.00000000000E+00 -0.84541831907E+03  0.84541831908E+03  0.25500000920E-02 0.  1.
    10030    2    1    2    0    0  0.00000000000E+00  0.00000000000E+00 -0.85546335095E+02  0.16052903031E+04  0.16030092893E+04 0.  0.
        2    1    3    3  502    0 -0.19714118890E+03 -0.37268453616E+03  0.63985014163E+03  0.76626797898E+03  0.25500000920E-02 0. -1.
       -2    1    3    3    0  502  0.19714118890E+03  0.37268453616E+03 -0.72539647673E+03  0.83902232408E+03  0.25500000920E-02 0.  1.
</event>
<event>
 5   0  0.3380454E-04  0.1584884E+04  0.7818609E-02  0.8829889E-01
        2   -1    0    0  501    0  0.00000000000E+00  0.00000000000E+00  0.10738914888E+04  0.10738914888E+04  0.25500000920E-02 0. -1.
       -2   -1    0    0    0  501  0.00000000000E+00  0.00000000000E+00 -0.58475548290E+03  0.58475548290E+03  0.25500000920E-02 0.  1.
    10030    2    1    2    0    0  0.00000000000E+00  0.00000000000E+00  0.48913600590E+03  0.16586469717E+04  0.15848835113E+04 0.  0.
        5    1    3    3  502    0  0.63259259958E+03  0.25466596904E+02  0.74331949576E+03  0.97640560598E+03  0.46999998093E+01 0. -1.
       -5    1    3    3    0  502 -0.63259259958E+03 -0.25466596904E+02 -0.25418348986E+03  0.68224136573E+03  0.46999998093E+01 0.  1.
</event>
<event>
 5   0  0.3274900E-04  0.1597421E+04  0.7818609E-02  0.8822134E-01
        2   -1    0    0  501    0  0.00000000000E+00  0.00000000000E+00  0.89019066883E+03  0.89019066883E+03  0.25500000920E-02 0.  1.
       -2   -1    0    0    0  501  0.00000000000E+00  0.00000000000E+00 -0.71663145911E+03  0.71663145912E+03  0.25500000920E-02 0. -1.
    10030    2    1    2    0    0  0.00000000000E+00  0.00000000000E+00  0.17355920972E+03  0.16068221280E+04  0.15974212192E+04 0.  0.
        3    1    3    3  502    0 -0.62400144034E+03  0.43068211866E+03  0.33940246995E+03  0.83069785824E+03  0.10100000352E+00 0.  1.
       -3    1    3    3    0  502  0.62400144034E+03 -0.43068211866E+03 -0.16584326023E+03  0.77612426971E+03  0.10100000352E+00 0. -1.
</event>
<event>
 5   0  0.3228393E-04  0.1596504E+04  0.7818609E-02  0.8822699E-01
       -2   -1    0    0    0  501  0.00000000000E+00  0.00000000000E+00  0.29938825486E+03  0.29938825487E+03  0.25500000920E-02 0.  1.
        2   -1    0    0  501    0  0.00000000000E+00  0.00000000000E+00 -0.21283607493E+04  0.21283607493E+04  0.25500000920E-02 0. -1.
    10030    2    1    2    0    0  0.00000000000E+00  0.00000000000E+00 -0.18289724944E+04  0.24277490042E+04  0.15965039436E+04 0.  0.
        1    1    3    3  502    0  0.60258457032E+03 -0.32500995428E+03 -0.29033382085E+03  0.74366212914E+03  0.50400001928E-02 0.  1.
       -1    1    3    3    0  502 -0.60258457032E+03  0.32500995428E+03 -0.15386386736E+04  0.16840868750E+04  0.50400001928E-02 0. -1.
</event>
<event>
 5   0  0.1736537E-04  0.1597575E+04  0.7818609E-02  0.8822039E-01
        1   -1    0    0  501    0  0.00000000000E+00  0.00000000000E+00  0.93168299090E+03  0.93168299092E+03  0.50400001928E-02 0.  1.
       -1   -1    0    0    0  501  0.00000000000E+00  0.00000000000E+00 -0.68484789623E+03  0.68484789624E+03  0.50400001928E-02 0. -1.
    10030    2    1    2    0    0  0.00000000000E+00  0.00000000000E+00  0.24683509468E+03  0.16165308872E+04  0.15975745820E+04 0.  0.
        3    1    3    3  502    0 -0.16526285819E+03 -0.58568387239E+03  0.64697733957E+03  0.88821005331E+03  0.10100000352E+00 0.  1.
       -3    1    3    3    0  502  0.16526285819E+03  0.58568387239E+03 -0.40014224490E+03  0.72832083385E+03  0.10100000352E+00 0. -1.
</event>
<event>
 5   0  0.1736537E-04  0.1593683E+04  0.7818609E-02  0.8824438E-01
       -1   -1    0    0    0  501  0.00000000000E+00  0.00000000000E+00  0.96731913488E+03  0.96731913489E+03  0.50400001928E-02 0.  1.
        1   -1    0    0  501    0  0.00000000000E+00  0.00000000000E+00 -0.65640811936E+03  0.65640811938E+03  0.50400001928E-02 0. -1.
    10030    2    1    2    0    0  0.00000000000E+00  0.00000000000E+00  0.31091101552E+03  0.16237272543E+04  0.15936826964E+04 0.  0.
        3    1    3    3  502    0 -0.14568097078E+03  0.48214885496E+03  0.78456330621E+03  0.93232508024E+03  0.10100000352E+00 0.  1.
       -3    1    3    3    0  502  0.14568097078E+03 -0.48214885496E+03 -0.47365229069E+03  0.69140217404E+03  0.10100000352E+00 0. -1.
</event>
<event>
 5   0  0.3274900E-04  0.1609433E+04  0.7818609E-02  0.8814774E-01
        2   -1    0    0  501    0  0.00000000000E+00  0.00000000000E+00  0.13656255694E+04  0.13656255694E+04  0.25500000920E-02 0.  1.
       -2   -1    0    0    0  501  0.00000000000E+00  0.00000000000E+00 -0.47419195030E+03  0.47419195030E+03  0.25500000920E-02 0. -1.
    10030    2    1    2    0    0  0.00000000000E+00  0.00000000000E+00  0.89143361907E+03  0.18398175197E+04  0.16094330084E+04 0.  0.
        3    1    3    3  502    0  0.40008763971E+03 -0.65928144266E+03  0.18292612378E+03  0.79258066911E+03  0.10100000352E+00 0. -1.
       -3    1    3    3    0  502 -0.40008763971E+03  0.65928144266E+03  0.70850749529E+03  0.10472368506E+04  0.10100000352E+00 0.  1.
</event>
<event>
 5   0  0.1787688E-04  0.1572771E+04  0.7818609E-02  0.8837452E-01
       -1   -1    0    0    0  501  0.00000000000E+00  0.00000000000E+00  0.58317606438E+03  0.58317606440E+03  0.50400001928E-02 0. -1.
        1   -1    0    0  501    0  0.00000000000E+00  0.00000000000E+00 -0.10604043546E+04  0.10604043546E+04  0.50400001928E-02 0.  1.
    10030    2    1    2    0    0  0.00000000000E+00  0.00000000000E+00 -0.47722829025E+03  0.16435804191E+04  0.15727713606E+04 0.  0.
        4    1    3    3  502    0 -0.33729635259E+03  0.41195990591E+03 -0.84339296965E+03  0.99739315604E+03  0.12699999809E+01 0.  1.
       -4    1    3    3    0  502  0.33729635259E+03 -0.41195990591E+03  0.36616467940E+03  0.64618726302E+03  0.12699999809E+01 0. -1.
</event>
<event>
 5   0  0.3228393E-04  0.1555669E+04  0.7818609E-02  0.8848255E-01
        2   -1    0    0  501    0  0.00000000000E+00  0.00000000000E+00  0.19861038053E+04  0.19861038054E+04  0.25500000920E-02 0.  1.
       -2   -1    0    0    0  501  0.00000000000E+00  0.00000000000E+00 -0.30462967438E+03  0.30462967439E+03  0.25500000920E-02 0. -1.
    10030    2    1    2    0    0  0.00000000000E+00  0.00000000000E+00  0.16814741310E+04  0.22907334797E+04  0.15556685451E+04 0.  0.
        1    1    3    3  502    0  0.31945735629E+03  0.64765686371E+03  0.41520091651E+03  0.83300913362E+03  0.50400001928E-02 0.  1.
       -1    1    3    3    0  502 -0.31945735629E+03 -0.64765686371E+03  0.12662732145E+04  0.14577243461E+04  0.50400001928E-02 0. -1.
</event>
<event>
 5   0  0.3274900E-04  0.1598857E+04  0.7818609E-02  0.8821251E-01
       -2   -1    0    0    0  501  0.00000000000E+00  0.00000000000E+00  0.77575647829E+03  0.77575647830E+03  0.25500000920E-02 0. -1.
        2   -1    0    0  501    0  0.00000000000E+00  0.00000000000E+00 -0.82382243945E+03  0.82382243945E+03  0.25500000920E-02 0.  1.
    10030    2    1    2    0    0  0.00000000000E+00  0.00000000000E+00 -0.48065961151E+02  0.15995789177E+04  0.15988565844E+04 0.  0.
        3    1    3    3  502    0  0.54816222319E+03  0.58061844070E+03 -0.62598905270E+02  0.80094833151E+03  0.10100000352E+00 0.  1.
       -3    1    3    3    0  502 -0.54816222319E+03 -0.58061844070E+03  0.14532944119E+02  0.79863058624E+03  0.10100000352E+00 0. -1.
</event>
<event>
 5   0  0.1736537E-04  0.1609951E+04  0.7818609E-02  0.8814458E-01
        1   -1    0    0  501    0  0.00000000000E+00  0.00000000000E+00  0.11621813922E+04  0.11621813922E+04  0.50400001928E-02 0.  1.
       -1   -1    0    0    0  501  0.00000000000E+00  0.00000000000E+00 -0.55755990921E+03  0.55755990924E+03  0.50400001928E-02 0. -1.
    10030    2    1    2    0    0  0.00000000000E+00  0.00000000000E+00  0.60462148302E+03  0.17197413015E+04  0.16099512434E+04 0.  0.
        3    1    3    3  502    0 -0.45472056786E+03  0.45282155231E+03 -0.21680063289E+03  0.67736303243E+03  0.10100000352E+00 0. -1.
       -3    1    3    3    0  502  0.45472056786E+03 -0.45282155231E+03  0.82142211591E+03  0.10423782690E+04  0.10100000352E+00 0.  1.
</event>
<event>
 5   0  0.3274900E-04  0.1603477E+04  0.7818609E-02  0.8818415E-01
        2   -1    0    0  501    0  0.00000000000E+00  0.00000000000E+00  0.19699706450E+04  0.19699706450E+04  0.25500000920E-02 0.  1.
       -2   -1    0    0    0  501  0.00000000000E+00  0.00000000000E+00 -0.32629130738E+03  0.32629130739E+03  0.25500000920E-02 0. -1.
    10030    2    1    2    0    0  0.00000000000E+00  0.00000000000E+00  0.16436793377E+04  0.22962619524E+04  0.16034765945E+04 0.  0.
        3    1    3    3  502    0 -0.14666257209E+02 -0.55414149974E+03 -0.76342368459E+01  0.55438812452E+03  0.10100000352E+00 0. -1.
       -3    1    3    3    0  502  0.14666257209E+02  0.55414149974E+03  0.16513135745E+04  0.17418738279E+04  0.10100000352E+00 0.  1.
</event>
<event>
 5   0  0.3228393E-04  0.1592776E+04  0.7818609E-02  0.8824998E-01
        2   -1    0    0  501    0  0.00000000000E+00  0.00000000000E+00  0.56277928208E+03  0.56277928209E+03  0.25500000920E-02 0.  1.
       -2   -1    0    0    0  501  0.00000000000E+00  0.00000000000E+00 -0.11269670480E+04  0.11269670480E+04  0.25500000920E-02 0. -1.
    10030    2    1    2    0    0  0.00000000000E+00  0.00000000000E+00 -0.56418776591E+03  0.16897463301E+04  0.15927758238E+04 0.  0.
        1    1    3    3  502    0 -0.41646341845E+03  0.58040052510E+02  0.43541286276E+03  0.60530553250E+03  0.50400001928E-02 0.  1.
       -1    1    3    3    0  502  0.41646341845E+03 -0.58040052510E+02 -0.99960062867E+03  0.10844407976E+04  0.50400001928E-02 0. -1.
</event>
<event>
 5   0  0.1761255E-04  0.1598999E+04  0.7818609E-02  0.8821163E-01
        1   -1    0    0  501    0  0.00000000000E+00  0.00000000000E+00  0.99875172122E+03  0.99875172123E+03  0.50400001928E-02 0. -1.
       -1   -1    0    0    0  501  0.00000000000E+00  0.00000000000E+00 -0.63999825998E+03  0.63999826000E+03  0.50400001928E-02 0.  1.
    10030    2    1    2    0    0  0.00000000000E+00  0.00000000000E+00  0.35875346124E+03  0.16387499812E+04  0.15989988915E+04 0.  0.
        2    1    3    3  502    0 -0.36245634390E+03  0.44700865913E+03  0.74815834602E+03  0.94389207714E+03  0.25500000920E-02 0. -1.
       -2    1    3    3    0  502  0.36245634390E+03 -0.44700865913E+03 -0.38940488478E+03  0.69485790408E+03  0.25500000920E-02 0.  1.
</event>
<event>
 5   0  0.3263294E-04  0.1704301E+04  0.7818609E-02  0.8758915E-01
       -2   -1    0    0    0  501  0.00000000000E+00  0.00000000000E+00  0.42033821920E+03  0.42033821921E+03  0.25500000920E-02 0. -1.
        2   -1    0    0  501    0  0.00000000000E+00  0.00000000000E+00 -0.17275627435E+04  0.17275627435E+04  0.25500000920E-02 0.  1.
    10030    2    1    2    0    0  0.00000000000E+00  0.00000000000E+00 -0.13072245243E+04  0.21479009627E+04  0.17043012025E+04 0.  0.
        4    1    3    3  502    0  0.12495327388E+02 -0.43897065657E+03 -0.15739703107E+04  0.16340855309E+04  0.12699999809E+01 0.  1.
       -4    1    3    3    0  502 -0.12495327388E+02  0.43897065657E+03  0.26674578636E+03  0.51381543182E+03  0.12699999809E+01 0. -1.
</event>
<event>
 5   0  0.3210612E-04  0.1609860E+04  0.7818609E-02  0.8814513E-01
       -2   -1    0    0    0  501  0.00000000000E+00  0.00000000000E+00  0.13702981126E+04  0.13702981126E+04  0.25500000920E-02 0. -1.
        2   -1    0    0  501    0  0.00000000000E+00  0.00000000000E+00 -0.47282594624E+03  0.47282594625E+03  0.25500000920E-02 0.  1.
    10030    2    1    2    0    0  0.00000000000E+00  0.00000000000E+00  0.89747216636E+03  0.18431240589E+04  0.16098602445E+04 0.  0.
        2    1    3    3  502    0 -0.43181298782E+03 -0.20459215413E+03  0.11903537068E+04  0.12826778057E+04  0.25500000920E-02 0. -1.
       -2    1    3    3    0  502  0.43181298782E+03  0.20459215413E+03 -0.29288154040E+03  0.56044625317E+03  0.25500000920E-02 0.  1.
</event>
<event>
 5   0  0.1736537E-04  0.1607815E+04  0.7818609E-02  0.8815761E-01
       -1   -1    0    0    0  501  0.00000000000E+00  0.00000000000E+00  0.66883779988E+03  0.66883779989E+03  0.50400001928E-02 0. -1.
        1   -1    0    0  501    0  0.00000000000E+00  0.00000000000E+00 -0.96625424075E+03  0.96625424076E+03  0.50400001928E-02 0.  1.
    10030    2    1    2    0    0  0.00000000000E+00  0.00000000000E+00 -0.29741644088E+03  0.16350920407E+04  0.16078151144E+04 0.  0.
        3    1    3    3  502    0 -0.29879801895E+03 -0.61832184835E+03 -0.57372812840E+03  0.89485537368E+03  0.10100000352E+00 0.  1.
       -3    1    3    3    0  502  0.29879801895E+03  0.61832184835E+03  0.27631168752E+03  0.74023666698E+03  0.10100000352E+00 0. -1.
</event>
<event>
 5   0  0.1787688E-04  0.1613388E+04  0.7818609E-02  0.8812365E-01
       -1   -1    0    0    0  501  0.00000000000E+00  0.00000000000E+00  0.47941737974E+03  0.47941737976E+03  0.50400001928E-02 0.  1.
        1   -1    0    0  501    0  0.00000000000E+00  0.00000000000E+00 -0.13573880947E+04  0.13573880947E+04  0.50400001928E-02 0. -1.
    10030    2    1    2    0    0  0.00000000000E+00  0.00000000000E+00 -0.87797071493E+03  0.18368054744E+04  0.16133882901E+04 0.  0.
        4    1    3    3  502    0 -0.35714624808E+03 -0.74166033435E+02 -0.12581350225E+04  0.13099463313E+04  0.12699999809E+01 0. -1.
       -4    1    3    3    0  502  0.35714624808E+03  0.74166033435E+02  0.38016430761E+03  0.52685914315E+03  0.12699999809E+01 0.  1.
</event>
<event>
 5   0  0.1764099E-04  0.1642981E+04  0.7818609E-02  0.8794569E-01
        1   -1    0    0  501    0  0.00000000000E+00  0.00000000000E+00  0.16396955782E+04  0.16396955782E+04  0.50400001928E-02 0. -1.
       -1   -1    0    0    0  501  0.00000000000E+00  0.00000000000E+00 -0.41156850057E+03  0.41156850060E+03  0.50400001928E-02 0.  1.
    10030    2    1    2    0    0  0.00000000000E+00  0.00000000000E+00  0.12281270776E+04  0.20512640788E+04  0.16429814978E+04 0.  0.
        5    1    3    3  502    0  0.31002907009E+03 -0.15916045953E+03  0.15428131057E+04  0.15816903759E+04  0.46999998093E+01 0. -1.
       -5    1    3    3    0  502 -0.31002907009E+03  0.15916045953E+03 -0.31468602807E+03  0.46957370288E+03  0.46999998093E+01 0.  1.
</event>
<event>
 5   0  0.1787688E-04  0.1584106E+04  0.7818609E-02  0.8830372E-01
       -1   -1    0    0    0  501  0.00000000000E+00  0.00000000000E+00  0.53803842934E+03  0.53803842936E+03  0.50400001928E-02 0.  1.
        1   -1    0    0  501    0  0.00000000000E+00  0.00000000000E+00 -0.11659904968E+04  0.11659904968E+04  0.50400001928E-02 0. -1.
    10030    2    1    2    0    0  0.00000000000E+00  0.00000000000E+00 -0.62795206745E+03  0.17040289262E+04  0.15841056727E+04 0.  0.
        4    1    3    3  502    0  0.53945384019E+03  0.47630825989E+02 -0.93571711471E+03  0.10811324031E+04  0.12699999809E+01 0. -1.
       -4    1    3    3    0  502 -0.53945384019E+03 -0.47630825989E+02  0.30776504726E+03  0.62289652310E+03  0.12699999809E+01 0.  1.
</event>
<event>
 5   0  0.1819811E-04  0.1601584E+04  0.7818609E-02  0.8819576E-01
       -1   -1    0    0    0  501  0.00000000000E+00  0.00000000000E+00  0.55895338615E+03  0.55895338617E+03  0.50400001928E-02 0. -1.
        1   -1    0    0  501    0  0.00000000000E+00  0.00000000000E+00 -0.11472651404E+04  0.11472651404E+04  0.50400001928E-02 0.  1.
    10030    2    1    2    0    0  0.00000000000E+00  0.00000000000E+00 -0.58831175427E+03  0.17062185266E+04  0.16015838849E+04 0.  0.
        1    1    3    3  502    0 -0.51770512823E+03 -0.30180072154E+03 -0.86005222104E+03  0.10482328454E+04  0.50400001928E-02 0.  1.
       -1    1    3    3    0  502  0.51770512823E+03  0.30180072154E+03  0.27174046676E+03  0.65798568117E+03  0.50400001928E-02 0. -1.
</event>
<event>
 5   0  0.3380454E-04  0.1603104E+04  0.7818609E-02  0.8818644E-01
        2   -1    0    0  501    0  0.00000000000E+00  0.00000000000E+00  0.12021004418E+04  0.12021004418E+04  0.25500000920E-02 0. -1.
       -2   -1    0    0    0  501  0.00000000000E+00  0.00000000000E+00 -0.53446885447E+03  0.53446885448E+03  0.25500000920E-02 0.  1.
    10030    2    1    2    0    0  0.00000000000E+00  0.00000000000E+00  0.66763158730E+03  0.17365692962E+04  0.16031035476E+04 0.  0.
        5    1    3    3  502    0  0.25178366124E+03  0.42447980747E+03 -0.35033906517E+03  0.60525834947E+03  0.46999998093E+01 0.  1.
       -5    1    3    3    0  502 -0.25178366124E+03 -0.42447980747E+03  0.10179706525E+04  0.11313109468E+04  0.46999998093E+01 0. -1.
</event>
<event>
 5   0  0.1787688E-04  0.1602942E+04  0.7818609E-02  0.8818743E-01
       -1   -1    0    0    0  501  0.00000000000E+00  0.00000000000E+00  0.47694728349E+03  0.47694728352E+03  0.50400001928E-02 0. -1.
        1   -1    0    0  501    0  0.00000000000E+00  0.00000000000E+00 -0.13468064382E+04  0.13468064382E+04  0.50400001928E-02 0.  1.
    10030    2    1    2    0    0  0.00000000000E+00  0.00000000000E+00 -0.86985915466E+03  0.18237537217E+04  0.16029418855E+04 0.  0.
        4    1    3    3  502    0 -0.32921941809E+03 -0.61011706496E+03  0.22619905927E+02  0.69364366302E+03  0.12699999809E+01 0. -1.
       -4    1    3    3    0  502  0.32921941809E+03  0.61011706496E+03 -0.89247906059E+03  0.11301100587E+04  0.12699999809E+01 0.  1.
</event>
<event>
 5   0  0.1219463E-04  0.1602773E+04  0.7818609E-02  0.8818846E-01
        4   -1    0    0  501    0  0.00000000000E+00  0.00000000000E+00  0.41932178637E+03  0.41932370959E+03  0.12699999809E+01 0.  1.
       -4   -1    0    0    0  501  0.00000000000E+00  0.00000000000E+00 -0.15315630865E+04  0.15315636130E+04  0.12699999809E+01 0. -1.
    10030    2    1    2    0    0  0.00000000000E+00  0.00000000000E+00 -0.11122413001E+04  0.19508873226E+04  0.16027727961E+04 0.  0.
        2    1    3    3  502    0  0.29599335787E+03  0.70239468797E+03 -0.85736058009E+03  0.11471867895E+04  0.25500000920E-02 0. -1.
       -2    1    3    3    0  502 -0.29599335787E+03 -0.70239468797E+03 -0.25488072003E+03  0.80370053319E+03  0.25500000920E-02 0.  1.
</event>
<event>
 5   0  0.3274900E-04  0.1619006E+04  0.7818609E-02  0.8808956E-01
       -2   -1    0    0    0  501  0.00000000000E+00  0.00000000000E+00  0.57576994321E+03  0.57576994321E+03  0.25500000920E-02 0.  1.
        2   -1    0    0  501    0  0.00000000000E+00  0.00000000000E+00 -0.11381199066E+04  0.11381199066E+04  0.25500000920E-02 0. -1.
    10030    2    1    2    0    0  0.00000000000E+00  0.00000000000E+00 -0.56234996336E+03  0.17138898498E+04  0.16190061568E+04 0.  0.
        3    1    3    3  502    0 -0.46815953822E+03 -0.28790419990E+03 -0.91034072364E+03  0.10633825393E+04  0.10100000352E+00 0. -1.
       -3    1    3    3    0  502  0.46815953822E+03  0.28790419990E+03  0.34799076028E+03  0.65050731049E+03  0.10100000352E+00 0.  1.
</event>
<event>
 5   0  0.3274900E-04  0.1645899E+04  0.7818609E-02  0.8792836E-01
       -2   -1    0    0    0  501  0.00000000000E+00  0.00000000000E+00  0.91636560670E+03  0.91636560671E+03  0.25500000920E-02 0. -1.
        2   -1    0    0  501    0  0.00000000000E+00  0.00000000000E+00 -0.73905626431E+03  0.73905626432E+03  0.25500000920E-02 0.  1.
    10030    2    1    2    0    0  0.00000000000E+00  0.00000000000E+00  0.17730934239E+03  0.16554218710E+04  0.16458988329E+04 0.  0.
        3    1    3    3  502    0 -0.29969022273E+03 -0.28298101984E+03  0.80506324128E+03  0.90444420494E+03  0.10100000352E+00 0. -1.
       -3    1    3    3    0  502  0.29969022273E+03  0.28298101984E+03 -0.62775389889E+03  0.75097766609E+03  0.10100000352E+00 0.  1.
</event>
<event>
 5   0  0.1764099E-04  0.1619583E+04  0.7818609E-02  0.8808607E-01
       -1   -1    0    0    0  501  0.00000000000E+00  0.00000000000E+00  0.51726738487E+03  0.51726738490E+03  0.50400001928E-02 0.  1.
        1   -1    0    0  501    0  0.00000000000E+00  0.00000000000E+00 -0.12677427209E+04  0.12677427209E+04  0.50400001928E-02 0. -1.
    10030    2    1    2    0    0  0.00000000000E+00  0.00000000000E+00 -0.75047533606E+03  0.17850101058E+04  0.16195826153E+04 0.  0.
        5    1    3    3  502    0  0.70917632013E+01  0.78575334124E+02  0.51300643137E+03  0.51905882602E+03  0.46999998093E+01 0.  1.
       -5    1    3    3    0  502 -0.70917632013E+01 -0.78575334124E+02 -0.12634817674E+04  0.12659512798E+04  0.46999998093E+01 0. -1.
</event>
<event>
 5   0  0.3380454E-04  0.1653161E+04  0.7818609E-02  0.8788538E-01
       -2   -1    0    0    0  501  0.00000000000E+00  0.00000000000E+00  0.39031721551E+03  0.39031721552E+03  0.25500000920E-02 0.  1.
        2   -1    0    0  501    0  0.00000000000E+00  0.00000000000E+00 -0.17504626543E+04  0.17504626543E+04  0.25500000920E-02 0. -1.
    10030    2    1    2    0    0  0.00000000000E+00  0.00000000000E+00 -0.13601454388E+04  0.21407798698E+04  0.16531614671E+04 0.  0.
        5    1    3    3  502    0 -0.31001426047E+03 -0.48967184336E+03 -0.14432502059E+04  0.15552750891E+04  0.46999998093E+01 0. -1.
       -5    1    3    3    0  502  0.31001426047E+03  0.48967184336E+03  0.83104767182E+02  0.58550478068E+03  0.46999998093E+01 0.  1.
</event>
<event>
 5   0  0.3274900E-04  0.1600106E+04  0.7818609E-02  0.8820483E-01
       -2   -1    0    0    0  501  0.00000000000E+00  0.00000000000E+00  0.58973421243E+03  0.58973421244E+03  0.25500000920E-02 0.  1.
        2   -1    0    0  501    0  0.00000000000E+00  0.00000000000E+00 -0.10853789510E+04  0.10853789510E+04  0.25500000920E-02 0. -1.
    10030    2    1    2    0    0  0.00000000000E+00  0.00000000000E+00 -0.49564473858E+03  0.16751131635E+04  0.16001063726E+04 0.  0.
        3    1    3    3  502    0 -0.48369915827E+03 -0.63649135099E+03 -0.21473420893E+03  0.82776621475E+03  0.10100000352E+00 0. -1.
       -3    1    3    3    0  502  0.48369915827E+03  0.63649135099E+03 -0.28091052965E+03  0.84734694870E+03  0.10100000352E+00 0.  1.
</event>
<event>
 5   0  0.1736537E-04  0.1600812E+04  0.7818609E-02  0.8820050E-01
       -1   -1    0    0    0  501  0.00000000000E+00  0.00000000000E+00  0.83951316079E+03  0.83951316081E+03  0.50400001928E-02 0. -1.
        1   -1    0    0  501    0  0.00000000000E+00  0.00000000000E+00 -0.76312022444E+03  0.76312022445E+03  0.50400001928E-02 0.  1.
    10030    2    1    2    0    0  0.00000000000E+00  0.00000000000E+00  0.76392936354E+02  0.16026333853E+04  0.16008116338E+04 0.  0.
        3    1    3    3  502    0 -0.25209880340E+03 -0.71518767234E+03  0.29461730609E+03  0.81353953843E+03  0.10100000352E+00 0. -1.
       -3    1    3    3    0  502  0.25209880340E+03  0.71518767234E+03 -0.21822436973E+03  0.78909384682E+03  0.10100000352E+00 0.  1.
</event>
<event>
 5   0  0.1736537E-04  0.1593134E+04  0.7818609E-02  0.8824777E-01
        1   -1    0    0  501    0  0.00000000000E+00  0.00000000000E+00  0.66735784039E+03  0.66735784041E+03  0.50400001928E-02 0. -1.
       -1   -1    0    0    0  501  0.00000000000E+00  0.00000000000E+00 -0.95079288157E+03  0.95079288159E+03  0.50400001928E-02 0.  1.
    10030    2    1    2    0    0  0.00000000000E+00  0.00000000000E+00 -0.28343504118E+03  0.16181507220E+04  0.15931341238E+04 0.  0.
        3    1    3    3  502    0  0.10909815605E+03 -0.55198764546E+03 -0.71442105456E+03  0.90939002732E+03  0.10100000352E+00 0.  1.
       -3    1    3    3    0  502 -0.10909815605E+03  0.55198764546E+03  0.43098601338E+03  0.70876069468E+03  0.10100000352E+00 0. -1.
</event>
<event>
 5   0  0.1787688E-04  0.1600744E+04  0.7818609E-02  0.8820091E-01
        1   -1    0    0  501    0  0.00000000000E+00  0.00000000000E+00  0.12544575071E+04  0.12544575071E+04  0.50400001928E-02 0. -1.
       -1   -1    0    0    0  501  0.00000000000E+00  0.00000000000E+00 -0.51065516055E+03  0.51065516057E+03  0.50400001928E-02 0.  1.
    10030    2    1    2    0    0  0.00000000000E+00  0.00000000000E+00  0.74380234658E+03  0.17651126677E+04  0.16007438268E+04 0.  0.
        4    1    3    3  502    0 -0.46236329187E+03  0.34706864552E+03 -0.23842864894E+03  0.62536892465E+03  0.12699999809E+01 0.  1.
       -4    1    3    3    0  502  0.46236329187E+03 -0.34706864552E+03  0.98223099553E+03  0.11397437431E+04  0.12699999809E+01 0. -1.
</event>
<event>
 5   0  0.3228393E-04  0.1616292E+04  0.7818609E-02  0.8810602E-01
        2   -1    0    0  501    0  0.00000000000E+00  0.00000000000E+00  0.13417420700E+04  0.13417420700E+04  0.25500000920E-02 0. -1.
       -2   -1    0    0    0  501  0.00000000000E+00  0.00000000000E+00 -0.48675498985E+03  0.48675498986E+03  0.25500000920E-02 0.  1.
    10030    2    1    2    0    0  0.00000000000E+00  0.00000000000E+00  0.85498708012E+03  0.18284970598E+04  0.16162916168E+04 0.  0.
        1    1    3    3  502    0 -0.59539044537E+03 -0.25962970666E+03  0.97145809635E+03  0.11686009584E+04  0.50400001928E-02 0. -1.
       -1    1    3    3    0  502  0.59539044537E+03  0.25962970666E+03 -0.11647101623E+03  0.65989610142E+03  0.50400001928E-02 0.  1.
</event>
<event>
 5   0  0.3380454E-04  0.1563813E+04  0.7818609E-02  0.8843093E-01
       -2   -1    0    0    0  501  0.00000000000E+00  0.00000000000E+00  0.56322726309E+03  0.56322726310E+03  0.25500000920E-02 0.  1.
        2   -1    0    0  501    0  0.00000000000E+00  0.00000000000E+00 -0.10854908539E+04  0.10854908539E+04  0.25500000920E-02 0. -1.
    10030    2    1    2    0    0  0.00000000000E+00  0.00000000000E+00 -0.52226359078E+03  0.16487181170E+04  0.15638133427E+04 0.  0.
        5    1    3    3  502    0  0.77389652371E+03  0.37424240162E+01 -0.37865651552E+03  0.86158730369E+03  0.46999998093E+01 0. -1.
       -5    1    3    3    0  502 -0.77389652371E+03 -0.37424240162E+01 -0.14360707526E+03  0.78713081327E+03  0.46999998093E+01 0.  1.
</event>
<event>
 5   0  0.3210612E-04  0.1605548E+04  0.7818609E-02  0.8817147E-01
       -2   -1    0    0    0  501  0.00000000000E+00  0.00000000000E+00  0.60559599137E+03  0.60559599137E+03  0.25500000920E-02 0. -1.
        2   -1    0    0  501    0  0.00000000000E+00  0.00000000000E+00 -0.10641514897E+04  0.10641514897E+04  0.25500000920E-02 0.  1.
    10030    2    1    2    0    0  0.00000000000E+00  0.00000000000E+00 -0.45855549833E+03  0.16697474811E+04  0.16055477276E+04 0.  0.
        2    1    3    3  502    0 -0.34647508883E+03 -0.35692713570E+03  0.42599931661E+03  0.65491784610E+03  0.25500000920E-02 0. -1.
       -2    1    3    3    0  502  0.34647508883E+03  0.35692713570E+03 -0.88455481494E+03  0.10148296350E+04  0.25500000920E-02 0.  1.
</event>
<event>
 5   0  0.3274900E-04  0.1594709E+04  0.7818609E-02  0.8823805E-01
        2   -1    0    0  501    0  0.00000000000E+00  0.00000000000E+00  0.12731971277E+04  0.12731971277E+04  0.25500000920E-02 0.  1.
       -2   -1    0    0    0  501  0.00000000000E+00  0.00000000000E+00 -0.49935260833E+03  0.49935260834E+03  0.25500000920E-02 0. -1.
    10030    2    1    2    0    0  0.00000000000E+00  0.00000000000E+00  0.77384451938E+03  0.17725497361E+04  0.15947091354E+04 0.  0.
        3    1    3    3  502    0  0.62122640271E+03 -0.45606377738E+03  0.61433017803E+03  0.98555466125E+03  0.10100000352E+00 0.  1.
       -3    1    3    3    0  502 -0.62122640271E+03  0.45606377738E+03  0.15951434135E+03  0.78699507481E+03  0.10100000352E+00 0. -1.
</event>
<event>
 5   0  0.1761255E-04  0.1605577E+04  0.7818609E-02  0.8817129E-01
        1   -1    0    0  501    0  0.00000000000E+00  0.00000000000E+00  0.25187203689E+04  0.25187203689E+04  0.50400001928E-02 0.  1.
       -1   -1    0    0    0  501  0.00000000000E+00  0.00000000000E+00 -0.25587173890E+03  0.25587173895E+03  0.50400001928E-02 0. -1.
    10030    2    1    2    0    0  0.00000000000E+00  0.00000000000E+00  0.22628486300E+04  0.27745921078E+04  0.16055769812E+04 0.  0.
        2    1    3    3  502    0 -0.12985739468E+03  0.78166347217E+03  0.90871674949E+03  0.12056644879E+04  0.25500000920E-02 0. -1.
       -2    1    3    3    0  502  0.12985739468E+03 -0.78166347217E+03  0.13541318805E+04  0.15689276199E+04  0.25500000920E-02 0.  1.
</event>
<event>
 5   0  0.1819811E-04  0.1602800E+04  0.7818609E-02  0.8818830E-01
        1   -1    0    0  501    0  0.00000000000E+00  0.00000000000E+00  0.13779517878E+04  0.13779517878E+04  0.50400001928E-02 0.  1.
       -1   -1    0    0    0  501  0.00000000000E+00  0.00000000000E+00 -0.46608459559E+03  0.46608459561E+03  0.50400001928E-02 0. -1.
    10030    2    1    2    0    0  0.00000000000E+00  0.00000000000E+00  0.91186719222E+03  0.18440363834E+04  0.16028001769E+04 0.  0.
        1    1    3    3  502    0 -0.54221843751E+03  0.99354662185E+02 -0.21331270187E+03  0.59107909088E+03  0.50400001928E-02 0. -1.
       -1    1    3    3    0  502  0.54221843751E+03 -0.99354662185E+02  0.11251798941E+04  0.12529572925E+04  0.50400001928E-02 0.  1.
</event>
<event>
 5   0  0.3274900E-04  0.1594447E+04  0.7818609E-02  0.8823967E-01
        2   -1    0    0  501    0  0.00000000000E+00  0.00000000000E+00  0.21328926997E+04  0.21328926997E+04  0.25500000920E-02 0. -1.
       -2   -1    0    0    0  501  0.00000000000E+00  0.00000000000E+00 -0.29798270887E+03  0.29798270888E+03  0.25500000920E-02 0.  1.
    10030    2    1    2    0    0  0.00000000000E+00  0.00000000000E+00  0.18349099908E+04  0.24308754085E+04  0.15944467936E+04 0.  0.
        3    1    3    3  502    0  0.47254133838E+03  0.47983294966E+03  0.26698938320E+03  0.72444345328E+03  0.10100000352E+00 0.  1.
       -3    1    3    3    0  502 -0.47254133838E+03 -0.47983294966E+03  0.15679206076E+04  0.17064319553E+04  0.10100000352E+00 0. -1.
</event>
<event>
 5   0  0.3380454E-04  0.1599969E+04  0.7818609E-02  0.8820567E-01
        2   -1    0    0  501    0  0.00000000000E+00  0.00000000000E+00  0.61713283470E+03  0.61713283470E+03  0.25500000920E-02 0. -1.
       -2   -1    0    0    0  501  0.00000000000E+00  0.00000000000E+00 -0.10370137116E+04  0.10370137116E+04  0.25500000920E-02 0.  1.
    10030    2    1    2    0    0  0.00000000000E+00  0.00000000000E+00 -0.41988087690E+03  0.16541465463E+04  0.15999690140E+04 0.  0.
        5    1    3    3  502    0  0.10331181185E+02 -0.23131450216E+03 -0.10015976420E+04  0.10280238610E+04  0.46999998093E+01 0.  1.
       -5    1    3    3    0  502 -0.10331181185E+02  0.23131450216E+03  0.58171676514E+03  0.62612268531E+03  0.46999998093E+01 0. -1.
</event>
<event>
 5   0  0.1736537E-04  0.1602101E+04  0.7818609E-02  0.8819258E-01
       -1   -1    0    0    0  501  0.00000000000E+00  0.00000000000E+00  0.96172769344E+03  0.96172769346E+03  0.50400001928E-02 0.  1.
        1   -1    0    0  501    0  0.00000000000E+00  0.00000000000E+00 -0.66721770287E+03  0.66721770289E+03  0.50400001928E-02 0. -1.
    10030    2    1    2    0    0  0.00000000000E+00  0.00000000000E+00  0.29450999057E+03  0.16289453964E+04  0.16021007989E+04 0.  0.
        3    1    3    3  502    0 -0.17109006623E+03 -0.73044910248E+03  0.43276980292E+03  0.86609319049E+03  0.10100000352E+00 0.  1.
       -3    1    3    3    0  502  0.17109006623E+03  0.73044910248E+03 -0.13825981235E+03  0.76285220587E+03  0.10100000352E+00 0. -1.
</event>
<event>
 5   0  0.1761255E-04  0.1599754E+04  0.7818609E-02  0.8820699E-01
       -1   -1    0    0    0  501  0.00000000000E+00  0.00000000000E+00  0.10217360451E+04  0.10217360451E+04  0.50400001928E-02 0.  1.
        1   -1    0    0  501    0  0.00000000000E+00  0.00000000000E+00 -0.62619231064E+03  0.62619231066E+03  0.50400001928E-02 0. -1.
    10030    2    1    2    0    0  0.00000000000E+00  0.00000000000E+00  0.39554373441E+03  0.16479283557E+04  0.15997540498E+04 0.  0.
        2    1    3    3  502    0  0.55420261609E+03 -0.57326510509E+03  0.13237925047E+03  0.80826832571E+03  0.25500000920E-02 0.  1.
       -2    1    3    3    0  502 -0.55420261609E+03  0.57326510509E+03  0.26316448394E+03  0.83966003002E+03  0.25500000920E-02 0. -1.
</event>
<event>
 5   0  0.1761255E-04  0.1595821E+04  0.7818609E-02  0.8823119E-01
        1   -1    0    0  501    0  0.00000000000E+00  0.00000000000E+00  0.23482187178E+04  0.23482187178E+04  0.50400001928E-02 0. -1.
       -1   -1    0    0    0  501  0.00000000000E+00  0.00000000000E+00 -0.27112525621E+03  0.27112525626E+03  0.50400001928E-02 0.  1.
    10030    2    1    2    0    0  0.00000000000E+00  0.00000000000E+00  0.20770934616E+04  0.26193439741E+04  0.15958212952E+04 0.  0.
        2    1    3    3  502    0  0.11443976668E+03  0.49399551411E+03  0.27355573388E+02  0.50781527701E+03  0.25500000920E-02 0.  1.
       -2    1    3    3    0  502 -0.11443976668E+03 -0.49399551411E+03  0.20497378882E+04  0.21115286971E+04  0.25500000920E-02 0. -1.
</event>
<event>
 5   0  0.3263294E-04  0.1601273E+04  0.7818609E-02  0.8819766E-01
       -2   -1    0    0    0  501  0.00000000000E+00  0.00000000000E+00  0.93111053195E+03  0.93111053195E+03  0.25500000920E-02 0. -1.
        2   -1    0    0  501    0  0.00000000000E+00  0.00000000000E+00 -0.68844583763E+03  0.68844583763E+03  0.25500000920E-02 0.  1.
    10030    2    1    2    0    0  0.00000000000E+00  0.00000000000E+00  0.24266469433E+03  0.16195563696E+04  0.16012734558E+04 0.  0.
        4    1    3    3  502    0  0.29116092569E+03  0.30635140133E+03 -0.56642553268E+03  0.70672863442E+03  0.12699999809E+01 0.  1.
       -4    1    3    3    0  502 -0.29116092569E+03 -0.30635140133E+03  0.80909022700E+03  0.91282773516E+03  0.12699999809E+01 0. -1.
</event>
<event>
 5   0  0.1764099E-04  0.1590888E+04  0.7818609E-02  0.8826165E-01
        1   -1    0    0  501    0  0.00000000000E+00  0.00000000000E+00  0.12489002225E+04  0.12489002226E+04  0.50400001928E-02 0.  1.
       -1   -1    0    0    0  501  0.00000000000E+00  0.00000000000E+00 -0.50663076667E+03  0.50663076669E+03  0.50400001928E-02 0. -1.
    10030    2    1    2    0    0  0.00000000000E+00  0.00000000000E+00  0.74226945588E+03  0.17555309893E+04  0.15908881510E+04 0.  0.
        5    1    3    3  502    0 -0.94871334120E+01 -0.73041820186E+02  0.12451137002E+04  0.12472992141E+04  0.46999998093E+01 0.  1.
       -5    1    3    3    0  502  0.94871334120E+01  0.73041820186E+02 -0.50284424431E+03  0.50823177511E+03  0.46999998093E+01 0. -1.
</event>
<event>
 5   0  0.3380454E-04  0.1587156E+04  0.7818609E-02  0.8828478E-01
        2   -1    0    0  501    0  0.00000000000E+00  0.00000000000E+00  0.17472702404E+04  0.17472702404E+04  0.25500000920E-02 0.  1.
       -2   -1    0    0    0  501  0.00000000000E+00  0.00000000000E+00 -0.36042862251E+03  0.36042862251E+03  0.25500000920E-02 0. -1.
    10030    2    1    2    0    0  0.00000000000E+00  0.00000000000E+00  0.13868416179E+04  0.21076988629E+04  0.15871562064E+04 0.  0.
        5    1    3    3  502    0  0.28980801817E+03  0.55915942671E+03  0.13345660940E+04  0.14757156573E+04  0.46999998093E+01 0.  1.
       -5    1    3    3    0  502 -0.28980801817E+03 -0.55915942671E+03  0.52275523943E+02  0.63198320569E+03  0.46999998093E+01 0. -1.
</event>
<event>
 5   0  0.1761255E-04  0.1614367E+04  0.7818609E-02  0.8811770E-01
       -1   -1    0    0    0  501  0.00000000000E+00  0.00000000000E+00  0.11386412887E+04  0.11386412887E+04  0.50400001928E-02 0. -1.
        1   -1    0    0  501    0  0.00000000000E+00  0.00000000000E+00 -0.57221255698E+03  0.57221255700E+03  0.50400001928E-02 0.  1.
    10030    2    1    2    0    0  0.00000000000E+00  0.00000000000E+00  0.56642873170E+03  0.17108538457E+04  0.16143665548E+04 0.  0.
        2    1    3    3  502    0  0.68061003773E+03 -0.10751197153E+03  0.72876578988E+03  0.10029398905E+04  0.25500000920E-02 0. -1.
       -2    1    3    3    0  502 -0.68061003773E+03  0.10751197153E+03 -0.16233705818E+03  0.70791395518E+03  0.25500000920E-02 0.  1.
</event>
<event>
 5   0  0.3228393E-04  0.1605372E+04  0.7818609E-02  0.8817255E-01
        2   -1    0    0  501    0  0.00000000000E+00  0.00000000000E+00  0.15857967465E+04  0.15857967465E+04  0.25500000920E-02 0.  1.
       -2   -1    0    0    0  501  0.00000000000E+00  0.00000000000E+00 -0.40629723695E+03  0.40629723696E+03  0.25500000920E-02 0. -1.
    10030    2    1    2    0    0  0.00000000000E+00  0.00000000000E+00  0.11794995095E+04  0.19920939834E+04  0.16053720273E+04 0.  0.
        1    1    3    3  502    0 -0.25011469731E+03 -0.64157931736E+02  0.15328534944E+04  0.15544495608E+04  0.50400001928E-02 0.  1.
       -1    1    3    3    0  502  0.25011469731E+03  0.64157931736E+02 -0.35335398483E+03  0.43764442260E+03  0.50400001928E-02 0. -1.
</event>
<event>
 5   0  0.1764099E-04  0.1601263E+04  0.7818609E-02  0.8819772E-01
        1   -1    0    0  501    0  0.00000000000E+00  0.00000000000E+00  0.11521500607E+04  0.11521500607E+04  0.50400001928E-02 0. -1.
       -1   -1    0    0    0  501  0.00000000000E+00  0.00000000000E+00 -0.55636053784E+03  0.55636053786E+03  0.50400001928E-02 0.  1.
    10030    2    1    2    0    0  0.00000000000E+00  0.00000000000E+00  0.59578952282E+03  0.17085105985E+04  0.16012630358E+04 0.  0.
        5    1    3    3  502    0  0.52792867793E+03  0.25125548026E+03 -0.28568474711E+03  0.65075023632E+03  0.46999998093E+01 0.  1.
       -5    1    3    3    0  502 -0.52792867793E+03 -0.25125548026E+03  0.88147426993E+03  0.10577603622E+04  0.46999998093E+01 0. -1.
</event>
<event>
 5   0  0.1219463E-04  0.1599586E+04  0.7818609E-02  0.8820802E-01
        4   -1    0    0  501    0  0.00000000000E+00  0.00000000000E+00  0.10285150642E+04  0.10285158483E+04  0.12699999809E+01 0.  1.
       -4   -1    0    0    0  501  0.00000000000E+00  0.00000000000E+00 -0.62193295063E+03  0.62193424731E+03  0.12699999809E+01 0. -1.
    10030    2    1    2    0    0  0.00000000000E+00  0.00000000000E+00  0.40658211360E+03  0.16504500956E+04  0.15995863537E+04 0.  0.
        5    1    3    3  502    0 -0.65357070478E+03 -0.23336132124E+03  0.61346791986E+03  0.92627056041E+03  0.46999998093E+01 0.  1.
       -5    1    3    3    0  502  0.65357070478E+03  0.23336132124E+03 -0.20688580625E+03  0.72417953522E+03  0.46999998093E+01 0. -1.
</event>
<event>
 5   0  0.3210612E-04  0.1600793E+04  0.7818609E-02  0.8820061E-01
        2   -1    0    0  501    0  0.00000000000E+00  0.00000000000E+00  0.11488738700E+04  0.11488738700E+04  0.25500000920E-02 0.  1.
       -2   -1    0    0    0  501  0.00000000000E+00  0.00000000000E+00 -0.55761981549E+03  0.55761981550E+03  0.25500000920E-02 0. -1.
    10030    2    1    2    0    0  0.00000000000E+00  0.00000000000E+00  0.59125405451E+03  0.17064936855E+04  0.16007933476E+04 0.  0.
        2    1    3    3  502    0 -0.25633112777E+03 -0.54223709272E+03 -0.26937702702E+03  0.65748817060E+03  0.25500000920E-02 0. -1.
       -2    1    3    3    0  502  0.25633112777E+03  0.54223709272E+03  0.86063108153E+03  0.10490055149E+04  0.25500000920E-02 0.  1.
</event>
<event>
 5   0  0.3210612E-04  0.1596641E+04  0.7818609E-02  0.8822614E-01
       -2   -1    0    0    0  501  0.00000000000E+00  0.00000000000E+00  0.36158835200E+03  0.36158835201E+03  0.25500000920E-02 0. -1.
        2   -1    0    0  501    0  0.00000000000E+00  0.00000000000E+00 -0.17625456747E+04  0.17625456747E+04  0.25500000920E-02 0.  1.
    10030    2    1    2    0    0  0.00000000000E+00  0.00000000000E+00 -0.14009573227E+04  0.21241340267E+04  0.15966414574E+04 0.  0.
        2    1    3    3  502    0  0.25784994766E+02 -0.79631063917E+03 -0.76753392917E+03  0.11062928330E+04  0.25500000920E-02 0. -1.
       -2    1    3    3    0  502 -0.25784994766E+02  0.79631063917E+03 -0.63342339351E+03  0.10178411936E+04  0.25500000920E-02 0.  1.
</event>
<event>
 5   0  0.3263294E-04  0.1607550E+04  0.7818609E-02  0.8815923E-01
        2   -1    0    0  501    0  0.00000000000E+00  0.00000000000E+00  0.13493485062E+04  0.13493485062E+04  0.25500000920E-02 0. -1.
       -2   -1    0    0    0  501  0.00000000000E+00  0.00000000000E+00 -0.47879001706E+03  0.47879001707E+03  0.25500000920E-02 0.  1.
    10030    2    1    2    0    0  0.00000000000E+00  0.00000000000E+00  0.87055848917E+03  0.18281385233E+04  0.16075504276E+04 0.  0.
        4    1    3    3  502    0 -0.27993460443E+02  0.30713996789E+03  0.12793802847E+04  0.13160296803E+04  0.12699999809E+01 0. -1.
       -4    1    3    3    0  502  0.27993460443E+02 -0.30713996789E+03 -0.40882179550E+03  0.51210884300E+03  0.12699999809E+01 0.  1.
</event>
<event>
 5   0  0.3210612E-04  0.1589846E+04  0.7818609E-02  0.8826810E-01
       -2   -1    0    0    0  501  0.00000000000E+00  0.00000000000E+00  0.49214976428E+03  0.49214976429E+03  0.25500000920E-02 0. -1.
        2   -1    0    0  501    0  0.00000000000E+00  0.00000000000E+00 -0.12839645831E+04  0.12839645831E+04  0.25500000920E-02 0.  1.
    10030    2    1    2    0    0  0.00000000000E+00  0.00000000000E+00 -0.79181481880E+03  0.17761143474E+04  0.15898463661E+04 0.  0.
        2    1    3    3  502    0  0.15723336548E+03  0.16782497478E+03  0.45417452909E+03  0.50907961682E+03  0.25500000920E-02 0. -1.
       -2    1    3    3    0  502 -0.15723336548E+03 -0.16782497478E+03 -0.12459893479E+04  0.12670347306E+04  0.25500000920E-02 0.  1.
</event>
<event>
 5   0  0.3210612E-04  0.1619244E+04  0.7818609E-02  0.8808812E-01
       -2   -1    0    0    0  501  0.00000000000E+00  0.00000000000E+00  0.30617499028E+03  0.30617499029E+03  0.25500000920E-02 0.  1.
        2   -1    0    0  501    0  0.00000000000E+00  0.00000000000E+00 -0.21408920313E+04  0.21408920313E+04  0.25500000920E-02 0. -1.
    10030    2    1    2    0    0  0.00000000000E+00  0.00000000000E+00 -0.18347170410E+04  0.24470670216E+04  0.16192437703E+04 0.  0.
        2    1    3    3  502    0 -0.54933567731E+01  0.76576993894E+03 -0.52023328514E+03  0.92578423367E+03  0.25500000920E-02 0. -1.
       -2    1    3    3    0  502  0.54933567731E+01 -0.76576993894E+03 -0.13144837558E+04  0.15212827879E+04  0.25500000920E-02 0.  1.
</event>
<event>
 5   0  0.3274900E-04  0.1598682E+04  0.7818609E-02  0.8821358E-01
       -2   -1    0    0    0  501  0.00000000000E+00  0.00000000000E+00  0.35543622801E+03  0.35543622802E+03  0.25500000920E-02 0.  1.
        2   -1    0    0  501    0  0.00000000000E+00  0.00000000000E+00 -0.17976393693E+04  0.17976393693E+04  0.25500000920E-02 0. -1.
    10030    2    1    2    0    0  0.00000000000E+00  0.00000000000E+00 -0.14422031412E+04  0.21530755973E+04  0.15986821532E+04 0.  0.
        3    1    3    3  502    0 -0.51935557502E+03  0.32013206315E+03 -0.14166609646E+04  0.15424470980E+04  0.10100000352E+00 0. -1.
       -3    1    3    3    0  502  0.51935557502E+03 -0.32013206315E+03 -0.25542176614E+02  0.61062849929E+03  0.10100000352E+00 0.  1.
</event>
<event>
 5   0  0.1787688E-04  0.1605435E+04  0.7818609E-02  0.8817216E-01
       -1   -1    0    0    0  501  0.00000000000E+00  0.00000000000E+00  0.70611912361E+03  0.70611912363E+03  0.50400001928E-02 0.  1.
        1   -1    0    0  501    0  0.00000000000E+00  0.00000000000E+00 -0.91253106857E+03  0.91253106858E+03  0.50400001928E-02 0. -1.
    10030    2    1    2    0    0  0.00000000000E+00  0.00000000000E+00 -0.20641194495E+03  0.16186501922E+04  0.16054353160E+04 0.  0.
        4    1    3    3  502    0 -0.31724054220E+03 -0.47951696881E+03 -0.66797388081E+03  0.88134488331E+03  0.12699999809E+01 0. -1.
       -4    1    3    3    0  502  0.31724054220E+03  0.47951696881E+03  0.46156193586E+03  0.73730530890E+03  0.12699999809E+01 0.  1.
</event>
<event>
 5   0  0.1819811E-04  0.1612766E+04  0.7818609E-02  0.8812743E-01
       -1   -1    0    0    0  501  0.00000000000E+00  0.00000000000E+00  0.54346224377E+03  0.54346224379E+03  0.50400001928E-02 0.  1.
        1   -1    0    0  501    0  0.00000000000E+00  0.00000000000E+00 -0.11965024024E+04  0.11965024024E+04  0.50400001928E-02 0. -1.
    10030    2    1    2    0    0  0.00000000000E+00  0.00000000000E+00 -0.65304015860E+03  0.17399646462E+04  0.16127664187E+04 0.  0.
        1    1    3    3  502    0 -0.74676620702E+03  0.87313706351E+02 -0.64100719515E+03  0.98801501787E+03  0.50400001928E-02 0. -1.
       -1    1    3    3    0  502  0.74676620702E+03 -0.87313706351E+02 -0.12032963449E+02  0.75194962830E+03  0.50400001928E-02 0.  1.
</event>
<event>
 5   0  0.1736537E-04  0.1592432E+04  0.7818609E-02  0.8825211E-01
        1   -1    0    0  501    0  0.00000000000E+00  0.00000000000E+00  0.12652963579E+04  0.12652963579E+04  0.50400001928E-02 0.  1.
       -1   -1    0    0    0  501  0.00000000000E+00  0.00000000000E+00 -0.50103656229E+03  0.50103656232E+03  0.50400001928E-02 0. -1.
    10030    2    1    2    0    0  0.00000000000E+00  0.00000000000E+00  0.76425979562E+03  0.17663329202E+04  0.15924317725E+04 0.  0.
        3    1    3    3  502    0  0.11883990882E+03  0.24827202797E+03  0.12108460254E+04  0.12417366997E+04  0.10100000352E+00 0.  1.
       -3    1    3    3    0  502 -0.11883990882E+03 -0.24827202797E+03 -0.44658622980E+03  0.52459622058E+03  0.10100000352E+00 0. -1.
</event>
<event>
 5   0  0.1761255E-04  0.1576087E+04  0.7818609E-02  0.8835375E-01
       -1   -1    0    0    0  501  0.00000000000E+00  0.00000000000E+00  0.51521388975E+03  0.51521388977E+03  0.50400001928E-02 0. -1.
        1   -1    0    0  501    0  0.00000000000E+00  0.00000000000E+00 -0.12053495645E+04  0.12053495645E+04  0.50400001928E-02 0.  1.
    10030    2    1    2    0    0  0.00000000000E+00  0.00000000000E+00 -0.69013567474E+03  0.17205634543E+04  0.15760873550E+04 0.  0.
        2    1    3    3  502    0  0.55239487337E+02  0.71413564757E+03  0.13643750346E+02  0.71639882470E+03  0.25500000920E-02 0.  1.
       -2    1    3    3    0  502 -0.55239487337E+02 -0.71413564757E+03 -0.70377942509E+03  0.10041646296E+04  0.25500000920E-02 0. -1.
</event>
<event>
 5   0  0.1736537E-04  0.1596806E+04  0.7818609E-02  0.8822513E-01
        1   -1    0    0  501    0  0.00000000000E+00  0.00000000000E+00  0.86372572616E+03  0.86372572618E+03  0.50400001928E-02 0. -1.
       -1   -1    0    0    0  501  0.00000000000E+00  0.00000000000E+00 -0.73802041998E+03  0.73802042000E+03  0.50400001928E-02 0.  1.
    10030    2    1    2    0    0  0.00000000000E+00  0.00000000000E+00  0.12570530618E+03  0.16017461462E+04  0.15968058407E+04 0.  0.
        3    1    3    3  502    0 -0.49621471272E+03 -0.17235415724E+03 -0.54026642178E+03  0.75354018694E+03  0.10100000352E+00 0.  1.
       -3    1    3    3    0  502  0.49621471272E+03  0.17235415724E+03  0.66597172796E+03  0.84820595923E+03  0.10100000352E+00 0. -1.
</event>
<event>
 5   0  0.3263294E-04  0.1606210E+04  0.7818609E-02  0.8816742E-01
       -2   -1    0    0    0  501  0.00000000000E+00  0.00000000000E+00  0.83522246596E+03  0.83522246596E+03  0.25500000920E-02 0. -1.
        2   -1    0    0  501    0  0.00000000000E+00  0.00000000000E+00 -0.77222250009E+03  0.77222250010E+03  0.25500000920E-02 0.  1.
    10030    2    1    2    0    0  0.00000000000E+00  0.00000000000E+00  0.62999965866E+02  0.16074449661E+04  0.16062099250E+04 0.  0.
        4    1    3    3  502    0  0.49420527104E+03 -0.11245588196E+03  0.65494832943E+03  0.82815705179E+03  0.12699999809E+01 0. -1.
       -4    1    3    3    0  502 -0.49420527104E+03  0.11245588196E+03 -0.59194836356E+03  0.77928791427E+03  0.12699999809E+01 0.  1.
</event>
<event>
 5   0  0.3263294E-04  0.1660212E+04  0.7818609E-02  0.8784388E-01
       -2   -1    0    0    0  501  0.00000000000E+00  0.00000000000E+00  0.64358852309E+03  0.64358852309E+03  0.25500000920E-02 0.  1.
        2   -1    0    0  501    0  0.00000000000E+00  0.00000000000E+00 -0.10706781661E+04  0.10706781661E+04  0.25500000920E-02 0. -1.
    10030    2    1    2    0    0  0.00000000000E+00  0.00000000000E+00 -0.42708964303E+03  0.17142666892E+04  0.16602122511E+04 0.  0.
        4    1    3    3  502    0 -0.30593199541E+03  0.76270754729E+03 -0.92434094660E+02  0.82696001310E+03  0.12699999809E+01 0.  1.
       -4    1    3    3    0  502  0.30593199541E+03 -0.76270754729E+03 -0.33465554837E+03  0.88730667611E+03  0.12699999809E+01 0. -1.
</event>
<event>
 5   0  0.3210612E-04  0.1603743E+04  0.7818609E-02  0.8818252E-01
        2   -1    0    0  501    0  0.00000000000E+00  0.00000000000E+00  0.55986227670E+03  0.55986227671E+03  0.25500000920E-02 0. -1.
       -2   -1    0    0    0  501  0.00000000000E+00  0.00000000000E+00 -0.11484925306E+04  0.11484925306E+04  0.25500000920E-02 0.  1.
    10030    2    1    2    0    0  0.00000000000E+00  0.00000000000E+00 -0.58863025391E+03  0.17083548073E+04  0.16037426763E+04 0.  0.
        2    1    3    3  502    0  0.12598756412E+03  0.30261590468E+03 -0.10738629218E+04  0.11227781735E+04  0.25500000920E-02 0.  1.
       -2    1    3    3    0  502 -0.12598756412E+03 -0.30261590468E+03  0.48523266789E+03  0.58557663382E+03  0.25500000920E-02 0. -1.
</event>
<event>
 5   0  0.1219463E-04  0.1605481E+04  0.7818609E-02  0.8817188E-01
       -3   -1    0    0    0  501  0.00000000000E+00  0.00000000000E+00  0.45541900911E+03  0.45541902031E+03  0.10100000352E+00 0.  1.
        3   -1    0    0  501    0  0.00000000000E+00  0.00000000000E+00 -0.14149429659E+04  0.14149429695E+04  0.10100000352E+00 0. -1.
    10030    2    1    2    0    0  0.00000000000E+00  0.00000000000E+00 -0.95952395679E+03  0.18703619898E+04  0.16054805353E+04 0.  0.
        4    1    3    3  502    0 -0.23277140389E+03  0.20666285688E+03 -0.13417713664E+04  0.13774048335E+04  0.12699999809E+01 0. -1.
       -4    1    3    3    0  502  0.23277140389E+03 -0.20666285688E+03  0.38224740960E+03  0.49295715628E+03  0.12699999809E+01 0.  1.
</event>
<event>
 5   0  0.1787688E-04  0.1585338E+04  0.7818609E-02  0.8829607E-01
       -1   -1    0    0    0  501  0.00000000000E+00  0.00000000000E+00  0.49771491047E+03  0.49771491050E+03  0.50400001928E-02 0. -1.
        1   -1    0    0  501    0  0.00000000000E+00  0.00000000000E+00 -0.12624170420E+04  0.12624170420E+04  0.50400001928E-02 0.  1.
    10030    2    1    2    0    0  0.00000000000E+00  0.00000000000E+00 -0.76470213155E+03  0.17601319525E+04  0.15853375478E+04 0.  0.
        4    1    3    3  502    0 -0.61700015248E+03  0.48219129954E+03 -0.24580962159E+03  0.82074455251E+03  0.12699999809E+01 0. -1.
       -4    1    3    3    0  502  0.61700015248E+03 -0.48219129954E+03 -0.51889250996E+03  0.93938740001E+03  0.12699999809E+01 0.  1.
</event>
<event>
 5   0  0.1736537E-04  0.1600696E+04  0.7818609E-02  0.8820121E-01
        1   -1    0    0  501    0  0.00000000000E+00  0.00000000000E+00  0.96250395466E+03  0.96250395467E+03  0.50400001928E-02 0.  1.
       -1   -1    0    0    0  501  0.00000000000E+00  0.00000000000E+00 -0.66551063103E+03  0.66551063105E+03  0.50400001928E-02 0. -1.
    10030    2    1    2    0    0  0.00000000000E+00  0.00000000000E+00  0.29699332362E+03  0.16280145857E+04  0.16006956166E+04 0.  0.
        3    1    3    3  502    0 -0.69334522242E+03  0.84516372319E+02 -0.24892279890E+03  0.74150737330E+03  0.10100000352E+00 0. -1.
       -3    1    3    3    0  502  0.69334522242E+03 -0.84516372319E+02  0.54591612252E+03  0.88650721242E+03  0.10100000352E+00 0.  1.
</event>
<event>
 5   0  0.1787688E-04  0.1602630E+04  0.7818609E-02  0.8818934E-01
       -1   -1    0    0    0  501  0.00000000000E+00  0.00000000000E+00  0.11968241616E+04  0.11968241616E+04  0.50400001928E-02 0. -1.
        1   -1    0    0  501    0  0.00000000000E+00  0.00000000000E+00 -0.53650789531E+03  0.53650789534E+03  0.50400001928E-02 0.  1.
    10030    2    1    2    0    0  0.00000000000E+00  0.00000000000E+00  0.66031626627E+03  0.17333320569E+04  0.16026298537E+04 0.  0.
        4    1    3    3  502    0  0.44086992731E+02  0.78544539862E+03  0.49502293108E+03  0.92947159846E+03  0.12699999809E+01 0. -1.
       -4    1    3    3    0  502 -0.44086992731E+02 -0.78544539862E+03  0.16529333519E+03  0.80386045847E+03  0.12699999809E+01 0.  1.
</event>
<event>
 5   0  0.1787688E-04  0.1621797E+04  0.7818609E-02  0.8807268E-01
        1   -1    0    0  501    0  0.00000000000E+00  0.00000000000E+00  0.14876187529E+04  0.14876187529E+04  0.50400001928E-02 0.  1.
       -1   -1    0    0    0  501  0.00000000000E+00  0.00000000000E+00 -0.44201956098E+03  0.44201956101E+03  0.50400001928E-02 0. -1.
    10030    2    1    2    0    0  0.00000000000E+00  0.00000000000E+00  0.10455991920E+04  0.19296383139E+04  0.16217972600E+04 0.  0.
        4    1    3    3  502    0  0.19680123328E+03  0.45370953027E+03  0.12874089531E+04  0.13791325131E+04  0.12699999809E+01 0.  1.
       -4    1    3    3    0  502 -0.19680123328E+03 -0.45370953027E+03 -0.24180976114E+03  0.55050580085E+03  0.12699999809E+01 0. -1.
</event>
<event>
 5   0  0.3228393E-04  0.1611066E+04  0.7818609E-02  0.8813778E-01
       -2   -1    0    0    0  501  0.00000000000E+00  0.00000000000E+00  0.32809527922E+03  0.32809527923E+03  0.25500000920E-02 0.  1.
        2   -1    0    0  501    0  0.00000000000E+00  0.00000000000E+00 -0.19777294492E+04  0.19777294492E+04  0.25500000920E-02 0. -1.
    10030    2    1    2    0    0  0.00000000000E+00  0.00000000000E+00 -0.16496341700E+04  0.23058247284E+04  0.16110663498E+04 0.  0.
        1    1    3    3  502    0  0.73264930541E+03 -0.33281211767E+03 -0.87730258843E+03  0.11904615668E+04  0.50400001928E-02 0. -1.
       -1    1    3    3    0  502 -0.73264930541E+03  0.33281211767E+03 -0.77233158153E+03  0.11153631616E+04  0.50400001928E-02 0.  1.
</event>
<event>
 5   0  0.3210612E-04  0.1465722E+04  0.7818609E-02  0.8907573E-01
       -2   -1    0    0    0  501  0.00000000000E+00  0.00000000000E+00  0.59166031540E+03  0.59166031540E+03  0.25500000920E-02 0. -1.
        2   -1    0    0  501    0  0.00000000000E+00  0.00000000000E+00 -0.90775995285E+03  0.90775995285E+03  0.25500000920E-02 0.  1.
    10030    2    1    2    0    0  0.00000000000E+00  0.00000000000E+00 -0.31609963745E+03  0.14994202683E+04  0.14657224021E+04 0.  0.
        2    1    3    3  502    0  0.50192262862E+03 -0.32606827784E+03 -0.59066563710E+03  0.84091185137E+03  0.25500000920E-02 0.  1.
       -2    1    3    3    0  502 -0.50192262862E+03  0.32606827784E+03  0.27456599965E+03  0.65850841688E+03  0.25500000920E-02 0. -1.
</event>
<event>
 5   0  0.3274900E-04  0.1608316E+04  0.7818609E-02  0.8815455E-01
       -2   -1    0    0    0  501  0.00000000000E+00  0.00000000000E+00  0.26727108553E+03  0.26727108555E+03  0.25500000920E-02 0. -1.
        2   -1    0    0  501    0  0.00000000000E+00  0.00000000000E+00 -0.24195284053E+04  0.24195284053E+04  0.25500000920E-02 0.  1.
    10030    2    1    2    0    0  0.00000000000E+00  0.00000000000E+00 -0.21522573198E+04  0.26867994909E+04  0.16083158687E+04 0.  0.
        3    1    3    3  502    0  0.24194655693E+03  0.33113784584E+03  0.79439606798E+02  0.41773325303E+03  0.10100000352E+00 0. -1.
       -3    1    3    3    0  502 -0.24194655693E+03 -0.33113784584E+03 -0.22316969266E+04  0.22690662378E+04  0.10100000352E+00 0.  1.
</event>
<event>
 5   0  0.3380454E-04  0.1599734E+04  0.7818609E-02  0.8820711E-01
        2   -1    0    0  501    0  0.00000000000E+00  0.00000000000E+00  0.17114835840E+04  0.17114835841E+04  0.25500000920E-02 0.  1.
       -2   -1    0    0    0  501  0.00000000000E+00  0.00000000000E+00 -0.37382023187E+03  0.37382023188E+03  0.25500000920E-02 0. -1.
    10030    2    1    2    0    0  0.00000000000E+00  0.00000000000E+00  0.13376633522E+04  0.20853038159E+04  0.15997339657E+04 0.  0.
        5    1    3    3  502    0 -0.75751053863E+03  0.25259847046E+03  0.60857386525E+03  0.10039982285E+04  0.46999998093E+01 0. -1.
       -5    1    3    3    0  502  0.75751053863E+03 -0.25259847046E+03  0.72908948693E+03  0.10813055874E+04  0.46999998093E+01 0.  1.
</event>
<event>
 5   0  0.1764099E-04  0.1610871E+04  0.7818609E-02  0.8813897E-01
        1   -1    0    0  501    0  0.00000000000E+00  0.00000000000E+00  0.72034391207E+03  0.72034391209E+03  0.50400001928E-02 0.  1.
       -1   -1    0    0    0  501  0.00000000000E+00  0.00000000000E+00 -0.90057899997E+03  0.90057899998E+03  0.50400001928E-02 0. -1.
    10030    2    1    2    0    0  0.00000000000E+00  0.00000000000E+00 -0.18023508790E+03  0.16209229121E+04  0.16108713170E+04 0.  0.
        5    1    3    3  502    0  0.44611175695E+03  0.58933819262E+03  0.23183094421E+03  0.77466307622E+03  0.46999998093E+01 0.  1.
       -5    1    3    3    0  502 -0.44611175695E+03 -0.58933819262E+03 -0.41206603210E+03  0.84625983585E+03  0.46999998093E+01 0. -1.
</event>
<event>
 5   0  0.1761255E-04  0.1627063E+04  0.7818609E-02  0.8804093E-01
        1   -1    0    0  501    0  0.00000000000E+00  0.00000000000E+00  0.18285500061E+04  0.18285500061E+04  0.50400001928E-02 0. -1.
       -1   -1    0    0    0  501  0.00000000000E+00  0.00000000000E+00 -0.36194439048E+03  0.36194439052E+03  0.50400001928E-02 0.  1.
    10030    2    1    2    0    0  0.00000000000E+00  0.00000000000E+00  0.14666056156E+04  0.21904943966E+04  0.16270628967E+04 0.  0.
        2    1    3    3  502    0 -0.35306575831E+03  0.28133743610E+03  0.16444393318E+04  0.17052820583E+04  0.25500000920E-02 0. -1.
       -2    1    3    3    0  502  0.35306575831E+03 -0.28133743610E+03 -0.17783371613E+03  0.48521233830E+03  0.25500000920E-02 0.  1.
</event>
<event>
 5   0  0.1764099E-04  0.1609460E+04  0.7818609E-02  0.8814757E-01
       -1   -1    0    0    0  501  0.00000000000E+00  0.00000000000E+00  0.92169189094E+03  0.92169189095E+03  0.50400001928E-02 0.  1.
        1   -1    0    0  501    0  0.00000000000E+00  0.00000000000E+00 -0.70261090381E+03  0.70261090383E+03  0.50400001928E-02 0. -1.
    10030    2    1    2    0    0  0.00000000000E+00  0.00000000000E+00  0.21908098713E+03  0.16243027948E+04  0.16094604966E+04 0.  0.
        5    1    3    3  502    0  0.37792312542E+03 -0.38460732474E+03 -0.49331228112E+03  0.73084046116E+03  0.46999998093E+01 0. -1.
       -5    1    3    3    0  502 -0.37792312542E+03  0.38460732474E+03  0.71239326824E+03  0.89346233362E+03  0.46999998093E+01 0.  1.
</event>
<event>
 5   0  0.3210612E-04  0.1609063E+04  0.7818609E-02  0.8814999E-01
       -2   -1    0    0    0  501  0.00000000000E+00  0.00000000000E+00  0.64794770570E+03  0.64794770571E+03  0.25500000920E-02 0. -1.
        2   -1    0    0  501    0  0.00000000000E+00  0.00000000000E+00 -0.99895588926E+03  0.99895588926E+03  0.25500000920E-02 0.  1.
    10030    2    1    2    0    0  0.00000000000E+00  0.00000000000E+00 -0.35100818356E+03  0.16469035950E+04  0.16090633009E+04 0.  0.
        2    1    3    3  502    0  0.22130085937E+03 -0.65853953507E+03 -0.59078314213E+03  0.91196113439E+03  0.25500000920E-02 0.  1.
       -2    1    3    3    0  502 -0.22130085937E+03  0.65853953507E+03  0.23977495857E+03  0.73494246058E+03  0.25500000920E-02 0. -1.
</event>
<event>
 5   0  0.3228393E-04  0.1569400E+04  0.7818609E-02  0.8839571E-01
        2   -1    0    0  501    0  0.00000000000E+00  0.00000000000E+00  0.30688072468E+04  0.30688072468E+04  0.25500000920E-02 0.  1.
       -2   -1    0    0    0  501  0.00000000000E+00  0.00000000000E+00 -0.20064921170E+03  0.20064921171E+03  0.25500000920E-02 0. -1.
    10030    2    1    2    0    0  0.00000000000E+00  0.00000000000E+00  0.28681580351E+04  0.32694564585E+04  0.15693995730E+04 0.  0.
        1    1    3    3  502    0 -0.63143159974E+03 -0.40175890979E+03  0.19254692141E+04  0.20658043909E+04  0.50400001928E-02 0.  1.
       -1    1    3    3    0  502  0.63143159974E+03  0.40175890979E+03  0.94268882099E+03  0.12036520677E+04  0.50400001928E-02 0. -1.
</event>
<event>
 5   0  0.3228393E-04  0.1612702E+04  0.7818609E-02  0.8812782E-01
        2   -1    0    0  501    0  0.00000000000E+00  0.00000000000E+00  0.16082228860E+04  0.16082228860E+04  0.25500000920E-02 0.  1.
       -2   -1    0    0    0  501  0.00000000000E+00  0.00000000000E+00 -0.40429849303E+03  0.40429849304E+03  0.25500000920E-02 0. -1.
    10030    2    1    2    0    0  0.00000000000E+00  0.00000000000E+00  0.12039243929E+04  0.20125213790E+04  0.16127021911E+04 0.  0.
        1    1    3    3  502    0  0.76616069291E+03  0.24613108303E+03  0.66583042983E+03  0.10444677490E+04  0.50400001928E-02 0.  1.
       -1    1    3    3    0  502 -0.76616069291E+03 -0.24613108303E+03  0.53809396309E+03  0.96805362999E+03  0.50400001928E-02 0. -1.
</event>
<event>
 5   0  0.3274900E-04  0.1603613E+04  0.7818609E-02  0.8818332E-01
        2   -1    0    0  501    0  0.00000000000E+00  0.00000000000E+00  0.10907867107E+04  0.10907867107E+04  0.25500000920E-02 0.  1.
       -2   -1    0    0    0  501  0.00000000000E+00  0.00000000000E+00 -0.58938522009E+03  0.58938522009E+03  0.25500000920E-02 0. -1.
    10030    2    1    2    0    0  0.00000000000E+00  0.00000000000E+00  0.50140149060E+03  0.16801719308E+04  0.16036128779E+04 0.  0.
        3    1    3    3  502    0  0.63415112124E+03 -0.49062815153E+03  0.25643254407E+03  0.84179646442E+03  0.10100000352E+00 0.  1.
       -3    1    3    3    0  502 -0.63415112124E+03  0.49062815153E+03  0.24496894654E+03  0.83837546637E+03  0.10100000352E+00 0. -1.
</event>
<event>
 5   0  0.1787688E-04  0.1590790E+04  0.7818609E-02  0.8826226E-01
        1   -1    0    0  501    0  0.00000000000E+00  0.00000000000E+00  0.67923574377E+03  0.67923574379E+03  0.50400001928E-02 0.  1.
       -1   -1    0    0    0  501  0.00000000000E+00  0.00000000000E+00 -0.93141973985E+03  0.93141973986E+03  0.50400001928E-02 0. -1.
    10030    2    1    2    0    0  0.00000000000E+00  0.00000000000E+00 -0.25218399608E+03  0.16106554837E+04  0.15907904699E+04 0.  0.
        4    1    3    3  502    0  0.36336898601E+03 -0.51325813515E+03  0.36700192884E+03  0.72812290306E+03  0.12699999809E+01 0.  1.
       -4    1    3    3    0  502 -0.36336898601E+03  0.51325813515E+03 -0.61918592491E+03  0.88253258059E+03  0.12699999809E+01 0. -1.
</event>
<event>
 5   0  0.3274900E-04  0.1595746E+04  0.7818609E-02  0.8823166E-01
       -2   -1    0    0    0  501  0.00000000000E+00  0.00000000000E+00  0.24687354405E+03  0.24687354406E+03  0.25500000920E-02 0.  1.
        2   -1    0    0  501    0  0.00000000000E+00  0.00000000000E+00 -0.25786541237E+04  0.25786541237E+04  0.25500000920E-02 0. -1.
    10030    2    1    2    0    0  0.00000000000E+00  0.00000000000E+00 -0.23317805797E+04  0.28255276678E+04  0.15957461984E+04 0.  0.
        3    1    3    3  502    0 -0.68787775883E+03  0.31621132516E+03 -0.71992214051E+03  0.10447264292E+04  0.10100000352E+00 0.  1.
       -3    1    3    3    0  502  0.68787775883E+03 -0.31621132516E+03 -0.16118584392E+04  0.17808012386E+04  0.10100000352E+00 0. -1.
</event>
<event>
 5   0  0.1761255E-04  0.1598248E+04  0.7818609E-02  0.8821625E-01
        1   -1    0    0  501    0  0.00000000000E+00  0.00000000000E+00  0.29281340481E+04  0.29281340481E+04  0.50400001928E-02 0. -1.
       -1   -1    0    0    0  501  0.00000000000E+00  0.00000000000E+00 -0.21809091380E+03  0.21809091386E+03  0.50400001928E-02 0.  1.
    10030    2    1    2    0    0  0.00000000000E+00  0.00000000000E+00  0.27100431343E+04  0.31462249620E+04  0.15982483291E+04 0.  0.
        2    1    3    3  502    0  0.41799368651E+03 -0.49320965685E+03  0.43038126638E+03  0.77666113720E+03  0.25500000920E-02 0.  1.
       -2    1    3    3    0  502 -0.41799368651E+03  0.49320965685E+03  0.22796618679E+04  0.23695638248E+04  0.25500000920E-02 0. -1.
</event>
<event>
 5   0  0.3380454E-04  0.1602983E+04  0.7818609E-02  0.8818717E-01
       -2   -1    0    0    0  501  0.00000000000E+00  0.00000000000E+00  0.38115460466E+03  0.38115460466E+03  0.25500000920E-02 0. -1.
        2   -1    0    0  501    0  0.00000000000E+00  0.00000000000E+00 -0.16853757781E+04  0.16853757781E+04  0.25500000920E-02 0.  1.
    10030    2    1    2    0    0  0.00000000000E+00  0.00000000000E+00 -0.13042211735E+04  0.20665303828E+04  0.16029831420E+04 0.  0.
        5    1    3    3  502    0 -0.42210151590E+03 -0.10584312828E+03  0.21556855218E+03  0.48565867461E+03  0.46999998093E+01 0. -1.
       -5    1    3    3    0  502  0.42210151590E+03  0.10584312828E+03 -0.15197897257E+04  0.15808717082E+04  0.46999998093E+01 0.  1.
</event>
<event>
 5   0  0.3274900E-04  0.1601080E+04  0.7818609E-02  0.8819885E-01
        2   -1    0    0  501    0  0.00000000000E+00  0.00000000000E+00  0.72872589739E+03  0.72872589739E+03  0.25500000920E-02 0. -1.
       -2   -1    0    0    0  501  0.00000000000E+00  0.00000000000E+00 -0.87943152838E+03  0.87943152838E+03  0.25500000920E-02 0.  1.
    10030    2    1    2    0    0  0.00000000000E+00  0.00000000000E+00 -0.15070563099E+03  0.16081574258E+04  0.16010802974E+04 0.  0.
        3    1    3    3  502    0  0.59900678374E+03  0.46431988398E+03 -0.33429546118E+03  0.82834506529E+03  0.10100000352E+00 0.  1.
       -3    1    3    3    0  502 -0.59900678374E+03 -0.46431988398E+03  0.18358983019E+03  0.77981236049E+03  0.10100000352E+00 0. -1.
</event>
<event>
 5   0  0.1761255E-04  0.1606850E+04  0.7818609E-02  0.8816351E-01
       -1   -1    0    0    0  501  0.00000000000E+00  0.00000000000E+00  0.60603862552E+03  0.60603862554E+03  0.50400001928E-02 0.  1.
        1   -1    0    0  501    0  0.00000000000E+00  0.00000000000E+00 -0.10650997614E+04  0.10650997614E+04  0.50400001928E-02 0. -1.
    10030    2    1    2    0    0  0.00000000000E+00  0.00000000000E+00 -0.45906113591E+03  0.16711383870E+04  0.16068498318E+04 0.  0.
        2    1    3    3  502    0  0.29470411321E+03 -0.57421656710E+03  0.26806395546E+03  0.69888015031E+03  0.25500000920E-02 0.  1.
       -2    1    3    3    0  502 -0.29470411321E+03  0.57421656710E+03 -0.72712509136E+03  0.97225823667E+03  0.25500000920E-02 0. -1.
</event>
<event>
 5   0  0.1761255E-04  0.1598282E+04  0.7818609E-02  0.8821604E-01
       -1   -1    0    0    0  501  0.00000000000E+00  0.00000000000E+00  0.86685782044E+03  0.86685782045E+03  0.50400001928E-02 0.  1.
        1   -1    0    0  501    0  0.00000000000E+00  0.00000000000E+00 -0.73671359177E+03  0.73671359179E+03  0.50400001928E-02 0. -1.
    10030    2    1    2    0    0  0.00000000000E+00  0.00000000000E+00  0.13014422867E+03  0.16035714122E+04  0.15982815002E+04 0.  0.
        2    1    3    3  502    0 -0.42244760556E+03  0.29851776885E+03  0.67622785394E+03  0.85138648580E+03  0.25500000920E-02 0.  1.
       -2    1    3    3    0  502  0.42244760556E+03 -0.29851776885E+03 -0.54608362527E+03  0.75218492643E+03  0.25500000920E-02 0. -1.
</event>
<event>
 5   0  0.1764099E-04  0.1604494E+04  0.7818609E-02  0.8817792E-01
       -1   -1    0    0    0  501  0.00000000000E+00  0.00000000000E+00  0.46086932093E+03  0.46086932096E+03  0.50400001928E-02 0.  1.
        1   -1    0    0  501    0  0.00000000000E+00  0.00000000000E+00 -0.13964922770E+04  0.13964922770E+04  0.50400001928E-02 0. -1.
    10030    2    1    2    0    0  0.00000000000E+00  0.00000000000E+00 -0.93562295604E+03  0.18573615979E+04  0.16044942473E+04 0.  0.
        5    1    3    3  502    0 -0.79351740971E+03  0.11781491029E+03 -0.47395055387E+03  0.93177328258E+03  0.46999998093E+01 0. -1.
       -5    1    3    3    0  502  0.79351740971E+03 -0.11781491029E+03 -0.46167240216E+03  0.92558831536E+03  0.46999998093E+01 0.  1.
</event>
<event>
 5   0  0.3210612E-04  0.1562707E+04  0.7818609E-02  0.8843792E-01
        2   -1    0    0  501    0  0.00000000000E+00  0.00000000000E+00  0.61385470814E+03  0.61385470814E+03  0.25500000920E-02 0. -1.
       -2   -1    0    0    0  501  0.00000000000E+00  0.00000000000E+00 -0.99455689085E+03  0.99455689085E+03  0.25500000920E-02 0.  1.
    10030    2    1    2    0    0  0.00000000000E+00  0.00000000000E+00 -0.38070218271E+03  0.16084115990E+04  0.15627071766E+04 0.  0.
        2    1    3    3  502    0  0.27031550974E+03 -0.14010278936E+03 -0.93099004928E+03  0.97951096893E+03  0.25500000920E-02 0.  1.
       -2    1    3    3    0  502 -0.27031550974E+03  0.14010278936E+03  0.55028786657E+03  0.62890063006E+03  0.25500000920E-02 0. -1.
</event>
<event>
 5   0  0.3210612E-04  0.1598168E+04  0.7818609E-02  0.8821674E-01
        2   -1    0    0  501    0  0.00000000000E+00  0.00000000000E+00  0.11085646958E+04  0.11085646958E+04  0.25500000920E-02 0. -1.
       -2   -1    0    0    0  501  0.00000000000E+00  0.00000000000E+00 -0.57600184917E+03  0.57600184918E+03  0.25500000920E-02 0.  1.
    10030    2    1    2    0    0  0.00000000000E+00  0.00000000000E+00  0.53256284660E+03  0.16845665449E+04  0.15981680947E+04 0.  0.
        2    1    3    3  502    0 -0.38087649503E+03  0.25688277696E+01  0.10067258856E+04  0.10763691338E+04  0.25500000920E-02 0. -1.
       -2    1    3    3    0  502  0.38087649503E+03 -0.25688277696E+01 -0.47416303904E+03  0.60819741116E+03  0.25500000920E-02 0.  1.
</event>
<event>
 5   0  0.1736537E-04  0.1562825E+04  0.7818609E-02  0.8843718E-01
       -1   -1    0    0    0  501  0.00000000000E+00  0.00000000000E+00  0.45895541277E+03  0.45895541280E+03  0.50400001928E-02 0. -1.
        1   -1    0    0  501    0  0.00000000000E+00  0.00000000000E+00 -0.13304236163E+04  0.13304236163E+04  0.50400001928E-02 0.  1.
    10030    2    1    2    0    0  0.00000000000E+00  0.00000000000E+00 -0.87146820350E+03  0.17893790291E+04  0.15628245199E+04 0.  0.
        3    1    3    3  502    0 -0.20672525407E+03  0.38590851143E+03 -0.11768230241E+04  0.12556166414E+04  0.10100000352E+00 0.  1.
       -3    1    3    3    0  502  0.20672525407E+03 -0.38590851143E+03  0.30535482060E+03  0.53376238770E+03  0.10100000352E+00 0. -1.
</event>
<event>
 5   0  0.3263294E-04  0.1587793E+04  0.7818609E-02  0.8828083E-01
       -2   -1    0    0    0  501  0.00000000000E+00  0.00000000000E+00  0.77648522391E+03  0.77648522392E+03  0.25500000920E-02 0. -1.
        2   -1    0    0  501    0  0.00000000000E+00  0.00000000000E+00 -0.81169776887E+03  0.81169776887E+03  0.25500000920E-02 0.  1.
    10030    2    1    2    0    0  0.00000000000E+00  0.00000000000E+00 -0.35212544957E+02  0.15881829928E+04  0.15877925857E+04 0.  0.
        4    1    3    3  502    0 -0.68968208557E+03  0.11474262030E+03  0.35857457134E+03  0.78575096830E+03  0.12699999809E+01 0. -1.
       -4    1    3    3    0  502  0.68968208557E+03 -0.11474262030E+03 -0.39378711629E+03  0.80243202449E+03  0.12699999809E+01 0.  1.
</event>
<event>
 5   0  0.1819811E-04  0.1537658E+04  0.7818609E-02  0.8859790E-01
       -1   -1    0    0    0  501  0.00000000000E+00  0.00000000000E+00  0.15782880569E+04  0.15782880569E+04  0.50400001928E-02 0. -1.
        1   -1    0    0  501    0  0.00000000000E+00  0.00000000000E+00 -0.37451836256E+03  0.37451836259E+03  0.50400001928E-02 0.  1.
    10030    2    1    2    0    0  0.00000000000E+00  0.00000000000E+00  0.12037696943E+04  0.19528064195E+04  0.15376577756E+04 0.  0.
        1    1    3    3  502    0 -0.58886808738E+03 -0.36841021186E+03  0.10204149643E+04  0.12343979941E+04  0.50400001928E-02 0. -1.
       -1    1    3    3    0  502  0.58886808738E+03  0.36841021186E+03  0.18335473002E+03  0.71840842533E+03  0.50400001928E-02 0.  1.
</event>
<event>
 5   0  0.3210612E-04  0.1593561E+04  0.7818609E-02  0.8824513E-01
        2   -1    0    0  501    0  0.00000000000E+00  0.00000000000E+00  0.14736194839E+04  0.14736194839E+04  0.25500000920E-02 0.  1.
       -2   -1    0    0    0  501  0.00000000000E+00  0.00000000000E+00 -0.43081624430E+03  0.43081624431E+03  0.25500000920E-02 0. -1.
    10030    2    1    2    0    0  0.00000000000E+00  0.00000000000E+00  0.10428032396E+04  0.19044357282E+04  0.15935610583E+04 0.  0.
        2    1    3    3  502    0 -0.45045984088E+03  0.36932066282E+03  0.11710990924E+04  0.13079697644E+04  0.25500000920E-02 0.  1.
       -2    1    3    3    0  502  0.45045984088E+03 -0.36932066282E+03 -0.12829585278E+03  0.59646596389E+03  0.25500000920E-02 0. -1.
</event>
<event>
 5   0  0.1764099E-04  0.1554923E+04  0.7818609E-02  0.8848730E-01
        1   -1    0    0  501    0  0.00000000000E+00  0.00000000000E+00  0.17813735675E+04  0.17813735675E+04  0.50400001928E-02 0.  1.
       -1   -1    0    0    0  501  0.00000000000E+00  0.00000000000E+00 -0.33931459873E+03  0.33931459876E+03  0.50400001928E-02 0. -1.
    10030    2    1    2    0    0  0.00000000000E+00  0.00000000000E+00  0.14420589688E+04  0.21206881663E+04  0.15549225798E+04 0.  0.
        5    1    3    3  502    0  0.10130896712E+02 -0.63003761988E+03  0.13421060197E+04  0.14826734960E+04  0.46999998093E+01 0.  1.
       -5    1    3    3    0  502 -0.10130896712E+02  0.63003761988E+03  0.99952949103E+02  0.63801467033E+03  0.46999998093E+01 0. -1.
</event>
<event>
 5   0  0.3228393E-04  0.1621050E+04  0.7818609E-02  0.8807720E-01
       -2   -1    0    0    0  501  0.00000000000E+00  0.00000000000E+00  0.49047395947E+03  0.49047395948E+03  0.25500000920E-02 0. -1.
        2   -1    0    0  501    0  0.00000000000E+00  0.00000000000E+00 -0.13394203365E+04  0.13394203365E+04  0.25500000920E-02 0.  1.
    10030    2    1    2    0    0  0.00000000000E+00  0.00000000000E+00 -0.84894637706E+03  0.18298942960E+04  0.16210500250E+04 0.  0.
        1    1    3    3  502    0 -0.60754897209E+03 -0.23196583344E+03  0.12161460743E+03  0.66159958747E+03  0.50400001928E-02 0. -1.
       -1    1    3    3    0  502  0.60754897209E+03  0.23196583344E+03 -0.97056098449E+03  0.11682947085E+04  0.50400001928E-02 0.  1.
</event>
<event>
 5   0  0.3380454E-04  0.1727515E+04  0.7818609E-02  0.8745825E-01
       -2   -1    0    0    0  501  0.00000000000E+00  0.00000000000E+00  0.34379925458E+03  0.34379925459E+03  0.25500000920E-02 0. -1.
        2   -1    0    0  501    0  0.00000000000E+00  0.00000000000E+00 -0.21700952701E+04  0.21700952701E+04  0.25500000920E-02 0.  1.
    10030    2    1    2    0    0  0.00000000000E+00  0.00000000000E+00 -0.18262960155E+04  0.25138945247E+04  0.17275151360E+04 0.  0.
        5    1    3    3  502    0 -0.25056069056E+02  0.45384542307E+03 -0.19819602564E+04  0.20334188015E+04  0.46999998093E+01 0.  1.
       -5    1    3    3    0  502  0.25056069056E+02 -0.45384542307E+03  0.15566424086E+03  0.48047572314E+03  0.46999998093E+01 0. -1.
</event>
<event>
 5   0  0.1819811E-04  0.1593876E+04  0.7818609E-02  0.8824319E-01
        1   -1    0    0  501    0  0.00000000000E+00  0.00000000000E+00  0.89925481750E+03  0.89925481752E+03  0.50400001928E-02 0.  1.
       -1   -1    0    0    0  501  0.00000000000E+00  0.00000000000E+00 -0.70626234592E+03  0.70626234594E+03  0.50400001928E-02 0. -1.
    10030    2    1    2    0    0  0.00000000000E+00  0.00000000000E+00  0.19299247158E+03  0.16055171635E+04  0.15938755497E+04 0.  0.
        1    1    3    3  502    0 -0.58026071611E+03 -0.24744906911E+03 -0.39406832120E+03  0.74378987776E+03  0.50400001928E-02 0. -1.
       -1    1    3    3    0  502  0.58026071611E+03  0.24744906911E+03  0.58706079278E+03  0.86172728569E+03  0.50400001928E-02 0.  1.
</event>
<event>
 5   0  0.1787688E-04  0.1616435E+04  0.7818609E-02  0.8810514E-01
        1   -1    0    0  501    0  0.00000000000E+00  0.00000000000E+00  0.66017235498E+03  0.66017235500E+03  0.50400001928E-02 0. -1.
       -1   -1    0    0    0  501  0.00000000000E+00  0.00000000000E+00 -0.98946268851E+03  0.98946268852E+03  0.50400001928E-02 0.  1.
    10030    2    1    2    0    0  0.00000000000E+00  0.00000000000E+00 -0.32929033353E+03  0.16496350435E+04  0.16164354775E+04 0.  0.
        4    1    3    3  502    0 -0.39350101199E+03 -0.17687943814E+03 -0.86211820231E+03  0.96404293977E+03  0.12699999809E+01 0.  1.
       -4    1    3    3    0  502  0.39350101199E+03  0.17687943814E+03  0.53282786878E+03  0.68559210375E+03  0.12699999809E+01 0. -1.
</event>
<event>
 5   0  0.1787688E-04  0.1580078E+04  0.7818609E-02  0.8832881E-01
       -1   -1    0    0    0  501  0.00000000000E+00  0.00000000000E+00  0.55707042061E+03  0.55707042063E+03  0.50400001928E-02 0. -1.
        1   -1    0    0  501    0  0.00000000000E+00  0.00000000000E+00 -0.11204362250E+04  0.11204362250E+04  0.50400001928E-02 0.  1.
    10030    2    1    2    0    0  0.00000000000E+00  0.00000000000E+00 -0.56336580439E+03  0.16775066456E+04  0.15800783261E+04 0.  0.
        4    1    3    3  502    0 -0.64756208575E+03 -0.24508411226E+03 -0.68561280441E+03  0.97440720823E+03  0.12699999809E+01 0.  1.
       -4    1    3    3    0  502  0.64756208575E+03  0.24508411226E+03  0.12224700002E+03  0.70309943741E+03  0.12699999809E+01 0. -1.
</event>
<event>
 5   0  0.3210612E-04  0.1651517E+04  0.7818609E-02  0.8789510E-01
        2   -1    0    0  501    0  0.00000000000E+00  0.00000000000E+00  0.51463537309E+03  0.51463537310E+03  0.25500000920E-02 0. -1.
       -2   -1    0    0    0  501  0.00000000000E+00  0.00000000000E+00 -0.13249708481E+04  0.13249708481E+04  0.25500000920E-02 0.  1.
    10030    2    1    2    0    0  0.00000000000E+00  0.00000000000E+00 -0.81033547505E+03  0.18396062212E+04  0.16515167172E+04 0.  0.
        2    1    3    3  502    0 -0.10222318872E+03 -0.39435732334E+03 -0.12052390436E+04  0.12722297085E+04  0.25500000920E-02 0.  1.
       -2    1    3    3    0  502  0.10222318872E+03  0.39435732334E+03  0.39490356858E+03  0.56737651279E+03  0.25500000920E-02 0. -1.
</event>
<event>
 5   0  0.3210612E-04  0.1613644E+04  0.7818609E-02  0.8812209E-01
       -2   -1    0    0    0  501  0.00000000000E+00  0.00000000000E+00  0.44145831319E+03  0.44145831320E+03  0.25500000920E-02 0. -1.
        2   -1    0    0  501    0  0.00000000000E+00  0.00000000000E+00 -0.14745719494E+04  0.14745719494E+04  0.25500000920E-02 0.  1.
    10030    2    1    2    0    0  0.00000000000E+00  0.00000000000E+00 -0.10331136362E+04  0.19160302626E+04  0.16136443790E+04 0.  0.
        2    1    3    3  502    0  0.65266151333E+02  0.27762918017E+02 -0.14708631356E+04  0.14725721761E+04  0.25500000920E-02 0.  1.
       -2    1    3    3    0  502 -0.65266151333E+02 -0.27762918017E+02  0.43774949947E+03  0.44345808643E+03  0.25500000920E-02 0. -1.
</event>
<event>
 5   0  0.3263294E-04  0.1555364E+04  0.7818609E-02  0.8848449E-01
        2   -1    0    0  501    0  0.00000000000E+00  0.00000000000E+00  0.14871866918E+04  0.14871866918E+04  0.25500000920E-02 0.  1.
       -2   -1    0    0    0  501  0.00000000000E+00  0.00000000000E+00 -0.40666668645E+03  0.40666668646E+03  0.25500000920E-02 0. -1.
    10030    2    1    2    0    0  0.00000000000E+00  0.00000000000E+00  0.10805200053E+04  0.18938533782E+04  0.15553639884E+04 0.  0.
        4    1    3    3  502    0 -0.29719502513E+03 -0.23953899341E+03 -0.28475211086E+03  0.47622388628E+03  0.12699999809E+01 0. -1.
       -4    1    3    3    0  502  0.29719502513E+03  0.23953899341E+03  0.13652721162E+04  0.14176294919E+04  0.12699999809E+01 0.  1.
</event>
<event>
 5   0  0.3380454E-04  0.1606984E+04  0.7818609E-02  0.8816269E-01
        2   -1    0    0  501    0  0.00000000000E+00  0.00000000000E+00  0.13212755395E+04  0.13212755395E+04  0.25500000920E-02 0.  1.
       -2   -1    0    0    0  501  0.00000000000E+00  0.00000000000E+00 -0.48861854843E+03  0.48861854843E+03  0.25500000920E-02 0. -1.
    10030    2    1    2    0    0  0.00000000000E+00  0.00000000000E+00  0.83265699109E+03  0.18098940879E+04  0.16069844258E+04 0.  0.
        5    1    3    3  502    0  0.44178795602E+03 -0.41447922795E+03 -0.17815294238E+03  0.63145086061E+03  0.46999998093E+01 0. -1.
       -5    1    3    3    0  502 -0.44178795602E+03  0.41447922795E+03  0.10108099335E+04  0.11784432273E+04  0.46999998093E+01 0.  1.
</event>
<event>
 5   0  0.3210612E-04  0.1596991E+04  0.7818609E-02  0.8822399E-01
       -2   -1    0    0    0  501  0.00000000000E+00  0.00000000000E+00  0.38012644330E+03  0.38012644331E+03  0.25500000920E-02 0. -1.
        2   -1    0    0  501    0  0.00000000000E+00  0.00000000000E+00 -0.16773238812E+04  0.16773238812E+04  0.25500000920E-02 0.  1.
    10030    2    1    2    0    0  0.00000000000E+00  0.00000000000E+00 -0.12971974379E+04  0.20574503245E+04  0.15969911224E+04 0.  0.
        2    1    3    3  502    0  0.23781689019E+03 -0.70858405119E+03 -0.10105869746E+04  0.12569543604E+04  0.25500000920E-02 0.  1.
       -2    1    3    3    0  502 -0.23781689019E+03  0.70858405119E+03 -0.28661046326E+03  0.80049596409E+03  0.25500000920E-02 0. -1.
</event>
<event>
 5   0  0.3228393E-04  0.1670859E+04  0.7818609E-02  0.8778161E-01
        2   -1    0    0  501    0  0.00000000000E+00  0.00000000000E+00  0.11673021331E+04  0.11673021331E+04  0.25500000920E-02 0. -1.
       -2   -1    0    0    0  501  0.00000000000E+00  0.00000000000E+00 -0.59791063115E+03  0.59791063115E+03  0.25500000920E-02 0.  1.
    10030    2    1    2    0    0  0.00000000000E+00  0.00000000000E+00  0.56939150196E+03  0.17652127643E+04  0.16708588871E+04 0.  0.
        1    1    3    3  502    0  0.47616855266E+03 -0.23152064539E+03 -0.39801955562E+03  0.66238800296E+03  0.50400001928E-02 0.  1.
       -1    1    3    3    0  502 -0.47616855266E+03  0.23152064539E+03  0.96741105758E+03  0.11028247613E+04  0.50400001928E-02 0. -1.
</event>
<event>
 5   0  0.3263294E-04  0.1604290E+04  0.7818609E-02  0.8817917E-01
        2   -1    0    0  501    0  0.00000000000E+00  0.00000000000E+00  0.88690548913E+03  0.88690548913E+03  0.25500000920E-02 0.  1.
       -2   -1    0    0    0  501  0.00000000000E+00  0.00000000000E+00 -0.72548512468E+03  0.72548512469E+03  0.25500000920E-02 0. -1.
    10030    2    1    2    0    0  0.00000000000E+00  0.00000000000E+00  0.16142036444E+03  0.16123906138E+04  0.16042901725E+04 0.  0.
        4    1    3    3  502    0  0.69814715703E+03 -0.22536668804E+03 -0.24532805286E+03  0.77355482247E+03  0.12699999809E+01 0. -1.
       -4    1    3    3    0  502 -0.69814715703E+03  0.22536668804E+03  0.40674841731E+03  0.83883579134E+03  0.12699999809E+01 0.  1.
</event>
<event>
 5   0  0.3263294E-04  0.1661637E+04  0.7818609E-02  0.8783552E-01
        2   -1    0    0  501    0  0.00000000000E+00  0.00000000000E+00  0.18905248163E+04  0.18905248163E+04  0.25500000920E-02 0. -1.
       -2   -1    0    0    0  501  0.00000000000E+00  0.00000000000E+00 -0.36511531222E+03  0.36511531223E+03  0.25500000920E-02 0.  1.
    10030    2    1    2    0    0  0.00000000000E+00  0.00000000000E+00  0.15254095041E+04  0.22556401286E+04  0.16616372150E+04 0.  0.
        4    1    3    3  502    0 -0.64208494284E+02 -0.37514444985E+03 -0.23981262207E+03  0.44985308224E+03  0.12699999809E+01 0.  1.
       -4    1    3    3    0  502  0.64208494284E+02  0.37514444985E+03  0.17652221262E+04  0.18057870463E+04  0.12699999809E+01 0. -1.
</event>
<event>
 5   0  0.3380454E-04  0.1650211E+04  0.7818609E-02  0.8790282E-01
       -2   -1    0    0    0  501  0.00000000000E+00  0.00000000000E+00  0.55873336825E+03  0.55873336825E+03  0.25500000920E-02 0.  1.
        2   -1    0    0  501    0  0.00000000000E+00  0.00000000000E+00 -0.12184680712E+04  0.12184680712E+04  0.25500000920E-02 0. -1.
    10030    2    1    2    0    0  0.00000000000E+00  0.00000000000E+00 -0.65973470291E+03  0.17772014394E+04  0.16502106163E+04 0.  0.
        5    1    3    3  502    0 -0.24374924939E+03  0.66678857744E+03 -0.78264432523E+03  0.10566810935E+04  0.46999998093E+01 0. -1.
       -5    1    3    3    0  502  0.24374924939E+03 -0.66678857744E+03  0.12290962232E+03  0.72052034589E+03  0.46999998093E+01 0.  1.
</event>
<event>
 5   0  0.1787688E-04  0.1589965E+04  0.7818609E-02  0.8826737E-01
        1   -1    0    0  501    0  0.00000000000E+00  0.00000000000E+00  0.13742641731E+04  0.13742641732E+04  0.50400001928E-02 0.  1.
       -1   -1    0    0    0  501  0.00000000000E+00  0.00000000000E+00 -0.45988051063E+03  0.45988051066E+03  0.50400001928E-02 0. -1.
    10030    2    1    2    0    0  0.00000000000E+00  0.00000000000E+00  0.91438366252E+03  0.18341446838E+04  0.15899651691E+04 0.  0.
        4    1    3    3  502    0 -0.16218950630E+03  0.27889017287E+03  0.12953503131E+04  0.13349229232E+04  0.12699999809E+01 0.  1.
       -4    1    3    3    0  502  0.16218950630E+03 -0.27889017287E+03 -0.38096665057E+03  0.49922176057E+03  0.12699999809E+01 0. -1.
</event>
<event>
 5   0  0.3380454E-04  0.1577657E+04  0.7818609E-02  0.8834393E-01
       -2   -1    0    0    0  501  0.00000000000E+00  0.00000000000E+00  0.78425255360E+03  0.78425255360E+03  0.25500000920E-02 0. -1.
        2   -1    0    0  501    0  0.00000000000E+00  0.00000000000E+00 -0.79343164605E+03  0.79343164605E+03  0.25500000920E-02 0.  1.
    10030    2    1    2    0    0  0.00000000000E+00  0.00000000000E+00 -0.91790924486E+01  0.15776841997E+04  0.15776574971E+04 0.  0.
        5    1    3    3  502    0 -0.40434345293E+03  0.24722506619E+03  0.62598820710E+03  0.78517334819E+03  0.46999998093E+01 0. -1.
       -5    1    3    3    0  502  0.40434345293E+03 -0.24722506619E+03 -0.63516729954E+03  0.79251085146E+03  0.46999998093E+01 0.  1.
</event>
<event>
 5   0  0.3274900E-04  0.1635104E+04  0.7818609E-02  0.8799268E-01
       -2   -1    0    0    0  501  0.00000000000E+00  0.00000000000E+00  0.81353165030E+03  0.81353165030E+03  0.25500000920E-02 0. -1.
        2   -1    0    0  501    0  0.00000000000E+00  0.00000000000E+00 -0.82159250949E+03  0.82159250950E+03  0.25500000920E-02 0.  1.
    10030    2    1    2    0    0  0.00000000000E+00  0.00000000000E+00 -0.80608591966E+01  0.16351241598E+04  0.16351042904E+04 0.  0.
        3    1    3    3  502    0 -0.36485805373E+03 -0.33413700754E+03  0.64684041498E+03  0.81435340721E+03  0.10100000352E+00 0. -1.
       -3    1    3    3    0  502  0.36485805373E+03  0.33413700754E+03 -0.65490127418E+03  0.82077075259E+03  0.10100000352E+00 0.  1.
</event>
<event>
 5   0  0.1219463E-04  0.1594412E+04  0.7818609E-02  0.8823989E-01
        4   -1    0    0  501    0  0.00000000000E+00  0.00000000000E+00  0.96327719770E+03  0.96327803489E+03  0.12699999809E+01 0.  1.
       -4   -1    0    0    0  501  0.00000000000E+00  0.00000000000E+00 -0.65976373064E+03  0.65976495297E+03  0.12699999809E+01 0. -1.
    10030    2    1    2    0    0  0.00000000000E+00  0.00000000000E+00  0.30351346706E+03  0.16230429879E+04  0.15944115265E+04 0.  0.
        2    1    3    3  502    0  0.28559742894E+03  0.52194782307E+03  0.69188995559E+03  0.91252788016E+03  0.25500000920E-02 0.  1.
       -2    1    3    3    0  502 -0.28559742894E+03 -0.52194782307E+03 -0.38837648854E+03  0.71051510770E+03  0.25500000920E-02 0. -1.
</event>
<event>
 5   0  0.1819811E-04  0.1586996E+04  0.7818609E-02  0.8828577E-01
        1   -1    0    0  501    0  0.00000000000E+00  0.00000000000E+00  0.36774049630E+03  0.36774049634E+03  0.50400001928E-02 0.  1.
       -1   -1    0    0    0  501  0.00000000000E+00  0.00000000000E+00 -0.17121837278E+04  0.17121837278E+04  0.50400001928E-02 0. -1.
    10030    2    1    2    0    0  0.00000000000E+00  0.00000000000E+00 -0.13444432315E+04  0.20799242242E+04  0.15869962746E+04 0.  0.
        1    1    3    3  502    0 -0.43604976462E+03  0.48842105368E+03 -0.84718789165E+02  0.66020587407E+03  0.50400001928E-02 0.  1.
       -1    1    3    3    0  502  0.43604976462E+03 -0.48842105368E+03 -0.12597244424E+04  0.14197183501E+04  0.50400001928E-02 0. -1.
</event>
<event>
 5   0  0.1764099E-04  0.1611719E+04  0.7818609E-02  0.8813381E-01
       -1   -1    0    0    0  501  0.00000000000E+00  0.00000000000E+00  0.72747448953E+03  0.72747448955E+03  0.50400001928E-02 0.  1.
        1   -1    0    0  501    0  0.00000000000E+00  0.00000000000E+00 -0.89269045656E+03  0.89269045658E+03  0.50400001928E-02 0. -1.
    10030    2    1    2    0    0  0.00000000000E+00  0.00000000000E+00 -0.16521596703E+03  0.16201649461E+04  0.16117190006E+04 0.  0.
        5    1    3    3  502    0  0.57357711121E+03 -0.32807961618E+02 -0.65065361461E+03  0.86800880241E+03  0.46999998093E+01 0. -1.
       -5    1    3    3    0  502 -0.57357711121E+03  0.32807961618E+02  0.48543764759E+03  0.75215614372E+03  0.46999998093E+01 0.  1.
</event>
<event>
 5   0  0.1764099E-04  0.1615459E+04  0.7818609E-02  0.8811107E-01
        1   -1    0    0  501    0  0.00000000000E+00  0.00000000000E+00  0.80500875331E+03  0.80500875333E+03  0.50400001928E-02 0. -1.
       -1   -1    0    0    0  501  0.00000000000E+00  0.00000000000E+00 -0.81045958423E+03  0.81045958425E+03  0.50400001928E-02 0.  1.
    10030    2    1    2    0    0  0.00000000000E+00  0.00000000000E+00 -0.54508309193E+01  0.16154683376E+04  0.16154591416E+04 0.  0.
        5    1    3    3  502    0 -0.14315808302E+03  0.68082993228E+02  0.78928631449E+03  0.80506180318E+03  0.46999998093E+01 0. -1.
       -5    1    3    3    0  502  0.14315808302E+03 -0.68082993228E+02 -0.79473714541E+03  0.81040653440E+03  0.46999998093E+01 0.  1.
</event>
<event>
 5   0  0.3228393E-04  0.1602831E+04  0.7818609E-02  0.8818810E-01
       -2   -1    0    0    0  501  0.00000000000E+00  0.00000000000E+00  0.83677642447E+03  0.83677642447E+03  0.25500000920E-02 0. -1.
        2   -1    0    0  501    0  0.00000000000E+00  0.00000000000E+00 -0.76754928275E+03  0.76754928275E+03  0.25500000920E-02 0.  1.
    10030    2    1    2    0    0  0.00000000000E+00  0.00000000000E+00  0.69227141716E+02  0.16043257072E+04  0.16028314252E+04 0.  0.
        1    1    3    3  502    0 -0.65581730276E+03 -0.26861287726E+03  0.40915211961E+03  0.81832430579E+03  0.50400001928E-02 0. -1.
       -1    1    3    3    0  502  0.65581730276E+03  0.26861287726E+03 -0.33992497789E+03  0.78600140144E+03  0.50400001928E-02 0.  1.
</event>
<event>
 5   0  0.3228393E-04  0.1602519E+04  0.7818609E-02  0.8819002E-01
       -2   -1    0    0    0  501  0.00000000000E+00  0.00000000000E+00  0.86259825968E+03  0.86259825968E+03  0.25500000920E-02 0. -1.
        2   -1    0    0  501    0  0.00000000000E+00  0.00000000000E+00 -0.74428255138E+03  0.74428255139E+03  0.25500000920E-02 0.  1.
    10030    2    1    2    0    0  0.00000000000E+00  0.00000000000E+00  0.11831570830E+03  0.16068808111E+04  0.16025190589E+04 0.  0.
        1    1    3    3  502    0 -0.39825465617E+02  0.79942335971E+03  0.22273802005E+02  0.80072460812E+03  0.50400001928E-02 0. -1.
       -1    1    3    3    0  502  0.39825465617E+02 -0.79942335971E+03  0.96041906292E+02  0.80615620295E+03  0.50400001928E-02 0.  1.
</event>
<event>
 5   0  0.1787688E-04  0.1600565E+04  0.7818609E-02  0.8820201E-01
        1   -1    0    0  501    0  0.00000000000E+00  0.00000000000E+00  0.11260094788E+04  0.11260094788E+04  0.50400001928E-02 0.  1.
       -1   -1    0    0    0  501  0.00000000000E+00  0.00000000000E+00 -0.56878066396E+03  0.56878066398E+03  0.50400001928E-02 0. -1.
    10030    2    1    2    0    0  0.00000000000E+00  0.00000000000E+00  0.55722881484E+03  0.16947901428E+04  0.16005654238E+04 0.  0.
        4    1    3    3  502    0  0.69823607111E+03 -0.36868744983E+03  0.14060847146E+03  0.80202020037E+03  0.12699999809E+01 0. -1.
       -4    1    3    3    0  502 -0.69823607111E+03  0.36868744983E+03  0.41662034338E+03  0.89276994241E+03  0.12699999809E+01 0.  1.
</event>
<event>
 5   0  0.3210612E-04  0.1594258E+04  0.7818609E-02  0.8824083E-01
       -2   -1    0    0    0  501  0.00000000000E+00  0.00000000000E+00  0.38441206659E+03  0.38441206660E+03  0.25500000920E-02 0.  1.
        2   -1    0    0  501    0  0.00000000000E+00  0.00000000000E+00 -0.16529516746E+04  0.16529516746E+04  0.25500000920E-02 0. -1.
    10030    2    1    2    0    0  0.00000000000E+00  0.00000000000E+00 -0.12685396081E+04  0.20373637412E+04  0.15942579079E+04 0.  0.
        2    1    3    3  502    0 -0.58566466471E+02 -0.28524592610E+03 -0.15825478756E+04  0.16091156105E+04  0.25500000920E-02 0. -1.
       -2    1    3    3    0  502  0.58566466471E+02  0.28524592610E+03  0.31400826758E+03  0.42824813072E+03  0.25500000920E-02 0.  1.
</event>
<event>
 5   0  0.1219463E-04  0.1590300E+04  0.7818609E-02  0.8826529E-01
        3   -1    0    0  501    0  0.00000000000E+00  0.00000000000E+00  0.57846498632E+03  0.57846499514E+03  0.10100000352E+00 0. -1.
       -3   -1    0    0    0  501  0.00000000000E+00  0.00000000000E+00 -0.10930021568E+04  0.10930021615E+04  0.10100000352E+00 0.  1.
    10030    2    1    2    0    0  0.00000000000E+00  0.00000000000E+00 -0.51453717047E+03  0.16714671566E+04  0.15902999578E+04 0.  0.
        3    1    3    3  502    0  0.51308073856E+03  0.52910826963E+03  0.56385227731E+02  0.73917975444E+03  0.10100000352E+00 0. -1.
       -3    1    3    3    0  502 -0.51308073856E+03 -0.52910826963E+03 -0.57092239820E+03  0.93228740216E+03  0.10100000352E+00 0.  1.
</event>
<event>
 5   0  0.3380454E-04  0.1637680E+04  0.7818609E-02  0.8797728E-01
        2   -1    0    0  501    0  0.00000000000E+00  0.00000000000E+00  0.18364645355E+04  0.18364645355E+04  0.25500000920E-02 0.  1.
       -2   -1    0    0    0  501  0.00000000000E+00  0.00000000000E+00 -0.36510309363E+03  0.36510309363E+03  0.25500000920E-02 0. -1.
    10030    2    1    2    0    0  0.00000000000E+00  0.00000000000E+00  0.14713614418E+04  0.22015676291E+04  0.16376799238E+04 0.  0.
        5    1    3    3  502    0 -0.45385189302E+02  0.30566407103E+03  0.17550506368E+04  0.17820536376E+04  0.46999998093E+01 0.  1.
       -5    1    3    3    0  502  0.45385189302E+02 -0.30566407103E+03 -0.28368919493E+03  0.41951399148E+03  0.46999998093E+01 0. -1.
</event>
<event>
 5   0  0.3380454E-04  0.1592724E+04  0.7818609E-02  0.8825030E-01
        2   -1    0    0  501    0  0.00000000000E+00  0.00000000000E+00  0.21346864216E+04  0.21346864216E+04  0.25500000920E-02 0.  1.
       -2   -1    0    0    0  501  0.00000000000E+00  0.00000000000E+00 -0.29708925569E+03  0.29708925570E+03  0.25500000920E-02 0. -1.
    10030    2    1    2    0    0  0.00000000000E+00  0.00000000000E+00  0.18375971659E+04  0.24317756773E+04  0.15927239562E+04 0.  0.
        5    1    3    3  502    0 -0.35572897672E+03  0.22325468454E+03 -0.11423291614E+03  0.43526659437E+03  0.46999998093E+01 0. -1.
       -5    1    3    3    0  502  0.35572897672E+03 -0.22325468454E+03  0.19518300821E+04  0.19965090829E+04  0.46999998093E+01 0.  1.
</event>
<event>
 5   0  0.1819811E-04  0.1609309E+04  0.7818609E-02  0.8814850E-01
        1   -1    0    0  501    0  0.00000000000E+00  0.00000000000E+00  0.10918566542E+04  0.10918566542E+04  0.50400001928E-02 0. -1.
       -1   -1    0    0    0  501  0.00000000000E+00  0.00000000000E+00 -0.59299779445E+03  0.59299779447E+03  0.50400001928E-02 0.  1.
    10030    2    1    2    0    0  0.00000000000E+00  0.00000000000E+00  0.49885885974E+03  0.16848544487E+04  0.16093086563E+04 0.  0.
        1    1    3    3  502    0  0.27655727309E+03 -0.67613909905E+03 -0.10378093647E+03  0.73784719920E+03  0.50400001928E-02 0.  1.
       -1    1    3    3    0  502 -0.27655727309E+03  0.67613909905E+03  0.60263979622E+03  0.94700724948E+03  0.50400001928E-02 0. -1.
</event>
<event>
 5   0  0.1787688E-04  0.1596784E+04  0.7818609E-02  0.8822526E-01
        1   -1    0    0  501    0  0.00000000000E+00  0.00000000000E+00  0.84491613127E+03  0.84491613129E+03  0.50400001928E-02 0. -1.
       -1   -1    0    0    0  501  0.00000000000E+00  0.00000000000E+00 -0.75442977476E+03  0.75442977478E+03  0.50400001928E-02 0.  1.
    10030    2    1    2    0    0  0.00000000000E+00  0.00000000000E+00  0.90486356514E+02  0.15993459061E+04  0.15967841265E+04 0.  0.
        4    1    3    3  502    0 -0.31913638393E+03 -0.18067649435E+03 -0.66507456710E+03  0.75948523348E+03  0.12699999809E+01 0.  1.
       -4    1    3    3    0  502  0.31913638393E+03  0.18067649435E+03  0.75556092362E+03  0.83986067259E+03  0.12699999809E+01 0. -1.
</event>
<event>
 5   0  0.3274900E-04  0.1599392E+04  0.7818609E-02  0.8820922E-01
        2   -1    0    0  501    0  0.00000000000E+00  0.00000000000E+00  0.83359444029E+03  0.83359444029E+03  0.25500000920E-02 0.  1.
       -2   -1    0    0    0  501  0.00000000000E+00  0.00000000000E+00 -0.76717609501E+03  0.76717609501E+03  0.25500000920E-02 0. -1.
    10030    2    1    2    0    0  0.00000000000E+00  0.00000000000E+00  0.66418345279E+02  0.16007705353E+04  0.15993920439E+04 0.  0.
        3    1    3    3  502    0 -0.13077198212E+03  0.51173160072E+03  0.63417916848E+03  0.82532040471E+03  0.10100000352E+00 0.  1.
       -3    1    3    3    0  502  0.13077198212E+03 -0.51173160072E+03 -0.56776082321E+03  0.77545013060E+03  0.10100000352E+00 0. -1.
</event>
<event>
 5   0  0.3228393E-04  0.1598687E+04  0.7818609E-02  0.8821355E-01
        2   -1    0    0  501    0  0.00000000000E+00  0.00000000000E+00  0.16760554356E+04  0.16760554356E+04  0.25500000920E-02 0.  1.
       -2   -1    0    0    0  501  0.00000000000E+00  0.00000000000E+00 -0.38122229309E+03  0.38122229310E+03  0.25500000920E-02 0. -1.
    10030    2    1    2    0    0  0.00000000000E+00  0.00000000000E+00  0.12948331425E+04  0.20572777287E+04  0.15986865816E+04 0.  0.
        1    1    3    3  502    0 -0.44697000622E+02  0.41415001245E+03 -0.23050869365E+03  0.47608015349E+03  0.50400001928E-02 0. -1.
       -1    1    3    3    0  502  0.44697000622E+02 -0.41415001245E+03  0.15253418362E+04  0.15811975752E+04  0.50400001928E-02 0.  1.
</event>
<event>
 5   0  0.3380454E-04  0.1591704E+04  0.7818609E-02  0.8825661E-01
        2   -1    0    0  501    0  0.00000000000E+00  0.00000000000E+00  0.81758224312E+03  0.81758224312E+03  0.25500000920E-02 0.  1.
       -2   -1    0    0    0  501  0.00000000000E+00  0.00000000000E+00 -0.77469903549E+03  0.77469903549E+03  0.25500000920E-02 0. -1.
    10030    2    1    2    0    0  0.00000000000E+00  0.00000000000E+00  0.42883207635E+02  0.15922812786E+04  0.15917037101E+04 0.  0.
        5    1    3    3  502    0  0.33257669284E+03 -0.25462159940E+03 -0.65550082533E+03  0.77790927332E+03  0.46999998093E+01 0. -1.
       -5    1    3    3    0  502 -0.33257669284E+03  0.25462159940E+03  0.69838403297E+03  0.81437200530E+03  0.46999998093E+01 0.  1.
</event>
<event>
 5   0  0.1219463E-04  0.1601715E+04  0.7818609E-02  0.8819495E-01
        4   -1    0    0  501    0  0.00000000000E+00  0.00000000000E+00  0.11234156001E+04  0.11234163179E+04  0.12699999809E+01 0.  1.
       -4   -1    0    0    0  501  0.00000000000E+00  0.00000000000E+00 -0.57091184455E+03  0.57091325712E+03  0.12699999809E+01 0. -1.
    10030    2    1    2    0    0  0.00000000000E+00  0.00000000000E+00  0.55250375553E+03  0.16943295751E+04  0.16017154270E+04 0.  0.
        4    1    3    3  502    0 -0.36493784435E+03 -0.42294595430E+03 -0.33078355129E+03  0.64921666738E+03  0.12699999809E+01 0. -1.
       -4    1    3    3    0  502  0.36493784435E+03  0.42294595430E+03  0.88328730682E+03  0.10451129077E+04  0.12699999809E+01 0.  1.
</event>
<event>
 5   0  0.3274900E-04  0.1610178E+04  0.7818609E-02  0.8814319E-01
       -2   -1    0    0    0  501  0.00000000000E+00  0.00000000000E+00  0.63259254813E+03  0.63259254814E+03  0.25500000920E-02 0.  1.
        2   -1    0    0  501    0  0.00000000000E+00  0.00000000000E+00 -0.10246222523E+04  0.10246222523E+04  0.25500000920E-02 0. -1.
    10030    2    1    2    0    0  0.00000000000E+00  0.00000000000E+00 -0.39202970417E+03  0.16572148004E+04  0.16101781286E+04 0.  0.
        3    1    3    3  502    0  0.62411248284E+03 -0.11900200886E+03 -0.70491888656E+03  0.94899342262E+03  0.10100000352E+00 0.  1.
       -3    1    3    3    0  502 -0.62411248284E+03  0.11900200886E+03  0.31288918239E+03  0.70822137782E+03  0.10100000352E+00 0. -1.
</event>
<event>
 5   0  0.3263294E-04  0.1641619E+04  0.7818609E-02  0.8795380E-01
       -2   -1    0    0    0  501  0.00000000000E+00  0.00000000000E+00  0.88100557448E+03  0.88100557449E+03  0.25500000920E-02 0. -1.
        2   -1    0    0  501    0  0.00000000000E+00  0.00000000000E+00 -0.76472618478E+03  0.76472618479E+03  0.25500000920E-02 0.  1.
    10030    2    1    2    0    0  0.00000000000E+00  0.00000000000E+00  0.11627938970E+03  0.16457317593E+04  0.16416187520E+04 0.  0.
        4    1    3    3  502    0 -0.64903193631E+03 -0.50173810890E+03  0.30816416653E+02  0.82093534989E+03  0.12699999809E+01 0. -1.
       -4    1    3    3    0  502  0.64903193631E+03  0.50173810890E+03  0.85462973045E+02  0.82479640938E+03  0.12699999809E+01 0.  1.
</event>
<event>
 5   0  0.1219463E-04  0.1596128E+04  0.7818609E-02  0.8822931E-01
       -3   -1    0    0    0  501  0.00000000000E+00  0.00000000000E+00  0.17863184878E+04  0.17863184907E+04  0.10100000352E+00 0. -1.
        3   -1    0    0  501    0  0.00000000000E+00  0.00000000000E+00 -0.35654657342E+03  0.35654658773E+03  0.10100000352E+00 0.  1.
    10030    2    1    2    0    0  0.00000000000E+00  0.00000000000E+00  0.14297719144E+04  0.21428650784E+04  0.15961275065E+04 0.  0.
        4    1    3    3  502    0  0.14131147970E+03  0.67877745759E+03  0.18429149387E+03  0.71740695483E+03  0.12699999809E+01 0.  1.
       -4    1    3    3    0  502 -0.14131147970E+03 -0.67877745759E+03  0.12454804205E+04  0.14254581236E+04  0.12699999809E+01 0. -1.
</event>
<event>
 5   0  0.3274900E-04  0.1599569E+04  0.7818609E-02  0.8820813E-01
        2   -1    0    0  501    0  0.00000000000E+00  0.00000000000E+00  0.12147961136E+04  0.12147961136E+04  0.25500000920E-02 0. -1.
       -2   -1    0    0    0  501  0.00000000000E+00  0.00000000000E+00 -0.52655344288E+03  0.52655344288E+03  0.25500000920E-02 0.  1.
    10030    2    1    2    0    0  0.00000000000E+00  0.00000000000E+00  0.68824267073E+03  0.17413495565E+04  0.15995687869E+04 0.  0.
        3    1    3    3  502    0 -0.64911716880E+03  0.44045706607E+03  0.51382142209E+03  0.93774622893E+03  0.10100000352E+00 0.  1.
       -3    1    3    3    0  502  0.64911716880E+03 -0.44045706607E+03  0.17442124864E+03  0.80360332756E+03  0.10100000352E+00 0. -1.
</event>
<event>
 5   0  0.3263294E-04  0.1601378E+04  0.7818609E-02  0.8819702E-01
       -2   -1    0    0    0  501  0.00000000000E+00  0.00000000000E+00  0.91031851172E+03  0.91031851172E+03  0.25500000920E-02 0.  1.
        2   -1    0    0  501    0  0.00000000000E+00  0.00000000000E+00 -0.70426223944E+03  0.70426223945E+03  0.25500000920E-02 0. -1.
    10030    2    1    2    0    0  0.00000000000E+00  0.00000000000E+00  0.20605627227E+03  0.16145807512E+04  0.16013780986E+04 0.  0.
        4    1    3    3  502    0 -0.46803056830E+02  0.41637909109E+03  0.79095781343E+03  0.89508544238E+03  0.12699999809E+01 0.  1.
       -4    1    3    3    0  502  0.46803056830E+02 -0.41637909109E+03 -0.58490154116E+03  0.71949530879E+03  0.12699999809E+01 0. -1.
</event>
<event>
 5   0  0.3228393E-04  0.1593141E+04  0.7818609E-02  0.8824773E-01
       -2   -1    0    0    0  501  0.00000000000E+00  0.00000000000E+00  0.77884976094E+03  0.77884976095E+03  0.25500000920E-02 0.  1.
        2   -1    0    0  501    0  0.00000000000E+00  0.00000000000E+00 -0.81469468612E+03  0.81469468613E+03  0.25500000920E-02 0. -1.
    10030    2    1    2    0    0  0.00000000000E+00  0.00000000000E+00 -0.35844925182E+02  0.15935444471E+04  0.15931412512E+04 0.  0.
        1    1    3    3  502    0  0.14490815091E+03  0.38728819195E+03  0.66308333771E+03  0.78145379172E+03  0.50400001928E-02 0.  1.
       -1    1    3    3    0  502 -0.14490815091E+03 -0.38728819195E+03 -0.69892826289E+03  0.81209065535E+03  0.50400001928E-02 0. -1.
</event>
<event>
 5   0  0.1787688E-04  0.1610917E+04  0.7818609E-02  0.8813869E-01
        1   -1    0    0  501    0  0.00000000000E+00  0.00000000000E+00  0.10170219637E+04  0.10170219637E+04  0.50400001928E-02 0. -1.
       -1   -1    0    0    0  501  0.00000000000E+00  0.00000000000E+00 -0.63790491144E+03  0.63790491146E+03  0.50400001928E-02 0.  1.
    10030    2    1    2    0    0  0.00000000000E+00  0.00000000000E+00  0.37911705223E+03  0.16549268751E+04  0.16109168888E+04 0.  0.
        4    1    3    3  502    0  0.70092154721E+03  0.39059945126E+03  0.11762598931E+03  0.81098485370E+03  0.12699999809E+01 0. -1.
       -4    1    3    3    0  502 -0.70092154721E+03 -0.39059945126E+03  0.26149106292E+03  0.84394202144E+03  0.12699999809E+01 0.  1.
</event>
<event>
 5   0  0.3274900E-04  0.1598607E+04  0.7818609E-02  0.8821404E-01
       -2   -1    0    0    0  501  0.00000000000E+00  0.00000000000E+00  0.44361883237E+03  0.44361883238E+03  0.25500000920E-02 0.  1.
        2   -1    0    0  501    0  0.00000000000E+00  0.00000000000E+00 -0.14401687780E+04  0.14401687780E+04  0.25500000920E-02 0. -1.
    10030    2    1    2    0    0  0.00000000000E+00  0.00000000000E+00 -0.99654994560E+03  0.18837876103E+04  0.15986068831E+04 0.  0.
        3    1    3    3  502    0  0.74642157112E+03  0.83195614124E+02 -0.82060228404E+03  0.11124094529E+04  0.10100000352E+00 0. -1.
       -3    1    3    3    0  502 -0.74642157112E+03 -0.83195614124E+02 -0.17594766156E+03  0.77137815749E+03  0.10100000352E+00 0.  1.
</event>
<event>
 5   0  0.3380454E-04  0.1583952E+04  0.7818609E-02  0.8830468E-01
        2   -1    0    0  501    0  0.00000000000E+00  0.00000000000E+00  0.10204082000E+04  0.10204082000E+04  0.25500000920E-02 0. -1.
       -2   -1    0    0    0  501  0.00000000000E+00  0.00000000000E+00 -0.61468145553E+03  0.61468145553E+03  0.25500000920E-02 0.  1.
    10030    2    1    2    0    0  0.00000000000E+00  0.00000000000E+00  0.40572674449E+03  0.16350896556E+04  0.15839520165E+04 0.  0.
        5    1    3    3  502    0 -0.16689556093E+03  0.17512415567E+03  0.98131929495E+03  0.10107087844E+04  0.46999998093E+01 0. -1.
       -5    1    3    3    0  502  0.16689556093E+03 -0.17512415567E+03 -0.57559255046E+03  0.62438087119E+03  0.46999998093E+01 0.  1.
</event>
<event>
 5   0  0.1736537E-04  0.1601037E+04  0.7818609E-02  0.8819911E-01
        1   -1    0    0  501    0  0.00000000000E+00  0.00000000000E+00  0.17268058996E+04  0.17268058996E+04  0.50400001928E-02 0.  1.
       -1   -1    0    0    0  501  0.00000000000E+00  0.00000000000E+00 -0.37110709442E+03  0.37110709446E+03  0.50400001928E-02 0. -1.
    10030    2    1    2    0    0  0.00000000000E+00  0.00000000000E+00  0.13556988052E+04  0.20979129941E+04  0.16010370640E+04 0.  0.
        3    1    3    3  502    0  0.34125747753E+03  0.13325725950E+03 -0.25481506016E+03  0.44625652742E+03  0.10100000352E+00 0. -1.
       -3    1    3    3    0  502 -0.34125747753E+03 -0.13325725950E+03  0.16105138654E+04  0.16516564667E+04  0.10100000352E+00 0.  1.
</event>
<event>
 5   0  0.1787688E-04  0.1606500E+04  0.7818609E-02  0.8816565E-01
       -1   -1    0    0    0  501  0.00000000000E+00  0.00000000000E+00  0.54031610106E+03  0.54031610108E+03  0.50400001928E-02 0. -1.
        1   -1    0    0  501    0  0.00000000000E+00  0.00000000000E+00 -0.11941354773E+04  0.11941354773E+04  0.50400001928E-02 0.  1.
    10030    2    1    2    0    0  0.00000000000E+00  0.00000000000E+00 -0.65381937626E+03  0.17344515784E+04  0.16065000782E+04 0.  0.
        4    1    3    3  502    0  0.15000398663E+03 -0.78899175693E+03 -0.34217146515E+03  0.87297887316E+03  0.12699999809E+01 0.  1.
       -4    1    3    3    0  502 -0.15000398663E+03  0.78899175693E+03 -0.31164791111E+03  0.86147270526E+03  0.12699999809E+01 0. -1.
</event>
<event>
 5   0  0.3263294E-04  0.1606071E+04  0.7818609E-02  0.8816827E-01
        2   -1    0    0  501    0  0.00000000000E+00  0.00000000000E+00  0.15962809874E+04  0.15962809874E+04  0.25500000920E-02 0. -1.
       -2   -1    0    0    0  501  0.00000000000E+00  0.00000000000E+00 -0.40398049456E+03  0.40398049457E+03  0.25500000920E-02 0.  1.
    10030    2    1    2    0    0  0.00000000000E+00  0.00000000000E+00  0.11923004928E+04  0.20002614819E+04  0.16060714589E+04 0.  0.
        4    1    3    3  502    0  0.55576668469E+03  0.56288285560E+03  0.76850300366E+03  0.11028654480E+04  0.12699999809E+01 0.  1.
       -4    1    3    3    0  502 -0.55576668469E+03 -0.56288285560E+03  0.42379748913E+03  0.89739603388E+03  0.12699999809E+01 0. -1.
</event>
<event>
 5   0  0.1736537E-04  0.1604286E+04  0.7818609E-02  0.8817919E-01
        1   -1    0    0  501    0  0.00000000000E+00  0.00000000000E+00  0.13132566096E+04  0.13132566096E+04  0.50400001928E-02 0.  1.
       -1   -1    0    0    0  501  0.00000000000E+00  0.00000000000E+00 -0.48995258542E+03  0.48995258544E+03  0.50400001928E-02 0. -1.
    10030    2    1    2    0    0  0.00000000000E+00  0.00000000000E+00  0.82330402419E+03  0.18032091951E+04  0.16042860982E+04 0.  0.
        3    1    3    3  502    0  0.53071572652E+03 -0.12498496502E+03 -0.24964774985E+03  0.59967027028E+03  0.10100000352E+00 0. -1.
       -3    1    3    3    0  502 -0.53071572652E+03  0.12498496502E+03  0.10729517740E+04  0.12035389248E+04  0.10100000352E+00 0.  1.
</event>
<event>
 5   0  0.3380454E-04  0.1595383E+04  0.7818609E-02  0.8823389E-01
       -2   -1    0    0    0  501  0.00000000000E+00  0.00000000000E+00  0.85900322728E+03  0.85900322729E+03  0.25500000920E-02 0. -1.
        2   -1    0    0  501    0  0.00000000000E+00  0.00000000000E+00 -0.74075589566E+03  0.74075589566E+03  0.25500000920E-02 0.  1.
    10030    2    1    2    0    0  0.00000000000E+00  0.00000000000E+00  0.11824733162E+03  0.15997591230E+04  0.15953829697E+04 0.  0.
        5    1    3    3  502    0 -0.75597575748E+03 -0.91716409919E+02 -0.17896893477E+03  0.78228077782E+03  0.46999998093E+01 0. -1.
       -5    1    3    3    0  502  0.75597575748E+03  0.91716409919E+02  0.29721626639E+03  0.81747834513E+03  0.46999998093E+01 0.  1.
</event>
<event>
 5   0  0.3210612E-04  0.1605117E+04  0.7818609E-02  0.8817411E-01
       -2   -1    0    0    0  501  0.00000000000E+00  0.00000000000E+00  0.89571289398E+03  0.89571289399E+03  0.25500000920E-02 0.  1.
        2   -1    0    0  501    0  0.00000000000E+00  0.00000000000E+00 -0.71909211517E+03  0.71909211518E+03  0.25500000920E-02 0. -1.
    10030    2    1    2    0    0  0.00000000000E+00  0.00000000000E+00  0.17662077881E+03  0.16148050092E+04  0.16051169173E+04 0.  0.
        2    1    3    3  502    0 -0.65201091175E+03  0.96053263698E+02 -0.37244478356E+03  0.75700698498E+03  0.25500000920E-02 0. -1.
       -2    1    3    3    0  502  0.65201091175E+03 -0.96053263698E+02  0.54906556237E+03  0.85779802418E+03  0.25500000920E-02 0.  1.
</event>
<event>
 5   0  0.3380454E-04  0.1602685E+04  0.7818609E-02  0.8818900E-01
        2   -1    0    0  501    0  0.00000000000E+00  0.00000000000E+00  0.11937187333E+04  0.11937187333E+04  0.25500000920E-02 0.  1.
       -2   -1    0    0    0  501  0.00000000000E+00  0.00000000000E+00 -0.53794047571E+03  0.53794047571E+03  0.25500000920E-02 0. -1.
    10030    2    1    2    0    0  0.00000000000E+00  0.00000000000E+00  0.65577825758E+03  0.17316592090E+04  0.16026847766E+04 0.  0.
        5    1    3    3  502    0 -0.14127824649E+03 -0.17153879272E+03  0.11597435407E+04  0.11808523491E+04  0.46999998093E+01 0.  1.
       -5    1    3    3    0  502  0.14127824649E+03  0.17153879272E+03 -0.50396528308E+03  0.55080685988E+03  0.46999998093E+01 0. -1.
</event>
<event>
 5   0  0.1764099E-04  0.1606428E+04  0.7818609E-02  0.8816608E-01
        1   -1    0    0  501    0  0.00000000000E+00  0.00000000000E+00  0.58258933218E+03  0.58258933220E+03  0.50400001928E-02 0. -1.
       -1   -1    0    0    0  501  0.00000000000E+00  0.00000000000E+00 -0.11073890860E+04  0.11073890860E+04  0.50400001928E-02 0.  1.
    10030    2    1    2    0    0  0.00000000000E+00  0.00000000000E+00 -0.52479975377E+03  0.16899784182E+04  0.16064284212E+04 0.  0.
        5    1    3    3  502    0  0.54065484892E+03 -0.14901765674E+03 -0.86729823106E+03  0.10328321448E+04  0.46999998093E+01 0.  1.
       -5    1    3    3    0  502 -0.54065484892E+03  0.14901765674E+03  0.34249847729E+03  0.65714627339E+03  0.46999998093E+01 0. -1.
</event>
<event>
 5   0  0.1787688E-04  0.1601195E+04  0.7818609E-02  0.8819814E-01
       -1   -1    0    0    0  501  0.00000000000E+00  0.00000000000E+00  0.56304666140E+03  0.56304666143E+03  0.50400001928E-02 0. -1.
        1   -1    0    0  501    0  0.00000000000E+00  0.00000000000E+00 -0.11383711173E+04  0.11383711173E+04  0.50400001928E-02 0.  1.
    10030    2    1    2    0    0  0.00000000000E+00  0.00000000000E+00 -0.57532445592E+03  0.17014177788E+04  0.16011946254E+04 0.  0.
        4    1    3    3  502    0  0.43556550750E+03 -0.27792752539E+03 -0.93749083424E+03  0.10704446263E+04  0.12699999809E+01 0.  1.
       -4    1    3    3    0  502 -0.43556550750E+03  0.27792752539E+03  0.36216637832E+03  0.63097315250E+03  0.12699999809E+01 0. -1.
</event>
<event>
 5   0  0.3274900E-04  0.1581833E+04  0.7818609E-02  0.8831787E-01
       -2   -1    0    0    0  501  0.00000000000E+00  0.00000000000E+00  0.86001430465E+03  0.86001430465E+03  0.25500000920E-02 0.  1.
        2   -1    0    0  501    0  0.00000000000E+00  0.00000000000E+00 -0.72737077585E+03  0.72737077585E+03  0.25500000920E-02 0. -1.
    10030    2    1    2    0    0  0.00000000000E+00  0.00000000000E+00  0.13264352880E+03  0.15873850805E+04  0.15818334578E+04 0.  0.
        3    1    3    3  502    0  0.26772343951E+03 -0.77823768772E+02 -0.67642239114E+03  0.73162807524E+03  0.10100000352E+00 0. -1.
       -3    1    3    3    0  502 -0.26772343951E+03  0.77823768772E+02  0.80906591994E+03  0.85575700526E+03  0.10100000352E+00 0.  1.
</event>
<event>
 5   0  0.1761255E-04  0.1622310E+04  0.7818609E-02  0.8806958E-01
       -1   -1    0    0    0  501  0.00000000000E+00  0.00000000000E+00  0.18080759210E+04  0.18080759210E+04  0.50400001928E-02 0. -1.
        1   -1    0    0  501    0  0.00000000000E+00  0.00000000000E+00 -0.36390753808E+03  0.36390753812E+03  0.50400001928E-02 0.  1.
    10030    2    1    2    0    0  0.00000000000E+00  0.00000000000E+00  0.14441683829E+04  0.21719834591E+04  0.16223100285E+04 0.  0.
        2    1    3    3  502    0  0.78132418954E+03 -0.20806861083E+03  0.63519043888E+03  0.10282154101E+04  0.25500000920E-02 0.  1.
       -2    1    3    3    0  502 -0.78132418954E+03  0.20806861083E+03  0.80897794403E+03  0.11437680490E+04  0.25500000920E-02 0. -1.
</event>
<event>
 5   0  0.3263294E-04  0.1596898E+04  0.7818609E-02  0.8822456E-01
        2   -1    0    0  501    0  0.00000000000E+00  0.00000000000E+00  0.85301645650E+03  0.85301645650E+03  0.25500000920E-02 0. -1.
       -2   -1    0    0    0  501  0.00000000000E+00  0.00000000000E+00 -0.74737207772E+03  0.74737207772E+03  0.25500000920E-02 0.  1.
    10030    2    1    2    0    0  0.00000000000E+00  0.00000000000E+00  0.10564437878E+03  0.16003885342E+04  0.15968978445E+04 0.  0.
        4    1    3    3  502    0 -0.88293217751E+02 -0.78729530276E+03 -0.46841068359E+02  0.79361532536E+03  0.12699999809E+01 0.  1.
       -4    1    3    3    0  502  0.88293217751E+02  0.78729530276E+03  0.15248544714E+03  0.80677320887E+03  0.12699999809E+01 0. -1.
</event>
<event>
 5   0  0.1787688E-04  0.1611671E+04  0.7818609E-02  0.8813410E-01
       -1   -1    0    0    0  501  0.00000000000E+00  0.00000000000E+00  0.80597846147E+03  0.80597846149E+03  0.50400001928E-02 0.  1.
        1   -1    0    0  501    0  0.00000000000E+00  0.00000000000E+00 -0.80569254485E+03  0.80569254487E+03  0.50400001928E-02 0. -1.
    10030    2    1    2    0    0  0.00000000000E+00  0.00000000000E+00  0.28591661958E+00  0.16116710064E+04  0.16116709810E+04 0.  0.
        4    1    3    3  502    0 -0.68858704909E+03  0.53758781610E+02 -0.41498003489E+03  0.80576185876E+03  0.12699999809E+01 0. -1.
       -4    1    3    3    0  502  0.68858704909E+03 -0.53758781610E+02  0.41526595151E+03  0.80590914759E+03  0.12699999809E+01 0.  1.
</event>
<event>
 5   0  0.1819811E-04  0.1598473E+04  0.7818609E-02  0.8821486E-01
       -1   -1    0    0    0  501  0.00000000000E+00  0.00000000000E+00  0.42918274732E+03  0.42918274735E+03  0.50400001928E-02 0. -1.
        1   -1    0    0  501    0  0.00000000000E+00  0.00000000000E+00 -0.14883619470E+04  0.14883619470E+04  0.50400001928E-02 0.  1.
    10030    2    1    2    0    0  0.00000000000E+00  0.00000000000E+00 -0.10591791997E+04  0.19175446943E+04  0.15984733585E+04 0.  0.
        1    1    3    3  502    0 -0.43006942277E+03  0.32346378645E+01 -0.13377111574E+04  0.14051481459E+04  0.50400001928E-02 0.  1.
       -1    1    3    3    0  502  0.43006942277E+03 -0.32346378645E+01  0.27853195777E+03  0.51239654840E+03  0.50400001928E-02 0. -1.
</event>
<event>
 5   0  0.1764099E-04  0.1440803E+04  0.7818609E-02  0.8924801E-01
       -1   -1    0    0    0  501  0.00000000000E+00  0.00000000000E+00  0.24745095721E+03  0.24745095726E+03  0.50400001928E-02 0.  1.
        1   -1    0    0  501    0  0.00000000000E+00  0.00000000000E+00 -0.20972983057E+04  0.20972983057E+04  0.50400001928E-02 0. -1.
    10030    2    1    2    0    0  0.00000000000E+00  0.00000000000E+00 -0.18498473485E+04  0.23447492630E+04  0.14408032112E+04 0.  0.
        5    1    3    3  502    0  0.61495340060E+03 -0.36850850793E+03 -0.80996287859E+03  0.10816783995E+04  0.46999998093E+01 0. -1.
       -5    1    3    3    0  502 -0.61495340060E+03  0.36850850793E+03 -0.10398844699E+04  0.12630708634E+04  0.46999998093E+01 0.  1.
</event>
<event>
 5   0  0.1736537E-04  0.1624783E+04  0.7818609E-02  0.8805466E-01
       -1   -1    0    0    0  501  0.00000000000E+00  0.00000000000E+00  0.12459625532E+04  0.12459625533E+04  0.50400001928E-02 0.  1.
        1   -1    0    0  501    0  0.00000000000E+00  0.00000000000E+00 -0.52969509629E+03  0.52969509631E+03  0.50400001928E-02 0. -1.
    10030    2    1    2    0    0  0.00000000000E+00  0.00000000000E+00  0.71626745696E+03  0.17756576496E+04  0.16247833759E+04 0.  0.
        3    1    3    3  502    0 -0.38025483578E+03 -0.63131266416E+03 -0.15410895381E+02  0.73714783182E+03  0.10100000352E+00 0. -1.
       -3    1    3    3    0  502  0.38025483578E+03  0.63131266416E+03  0.73167835235E+03  0.10385098177E+04  0.10100000352E+00 0.  1.
</event>
<event>
 5   0  0.3210612E-04  0.1588767E+04  0.7818609E-02  0.8827479E-01
       -2   -1    0    0    0  501  0.00000000000E+00  0.00000000000E+00  0.53962985927E+03  0.53962985928E+03  0.25500000920E-02 0. -1.
        2   -1    0    0  501    0  0.00000000000E+00  0.00000000000E+00 -0.11694034481E+04  0.11694034481E+04  0.25500000920E-02 0.  1.
    10030    2    1    2    0    0  0.00000000000E+00  0.00000000000E+00 -0.62977358885E+03  0.17090333074E+04  0.15887668402E+04 0.  0.
        2    1    3    3  502    0 -0.57637585198E+02  0.52965656161E+03 -0.94871563396E+03  0.10880806581E+04  0.25500000920E-02 0.  1.
       -2    1    3    3    0  502  0.57637585198E+02 -0.52965656161E+03  0.31894204511E+03  0.62095264926E+03  0.25500000920E-02 0. -1.
</event>
<event>
 5   0  0.1787688E-04  0.1456273E+04  0.7818609E-02  0.8914063E-01
        1   -1    0    0  501    0  0.00000000000E+00  0.00000000000E+00  0.10808411453E+04  0.10808411453E+04  0.50400001928E-02 0. -1.
       -1   -1    0    0    0  501  0.00000000000E+00  0.00000000000E+00 -0.49052781544E+03  0.49052781547E+03  0.50400001928E-02 0.  1.
    10030    2    1    2    0    0  0.00000000000E+00  0.00000000000E+00  0.59031332984E+03  0.15713689608E+04  0.14562728396E+04 0.  0.
        4    1    3    3  502    0 -0.45406860140E+02 -0.69570875315E+03  0.52177600098E+03  0.87081815568E+03  0.12699999809E+01 0.  1.
       -4    1    3    3    0  502  0.45406860140E+02  0.69570875315E+03  0.68537328866E+02  0.70055080509E+03  0.12699999809E+01 0. -1.
</event>
<event>
 5   0  0.3274900E-04  0.1601277E+04  0.7818609E-02  0.8819764E-01
       -2   -1    0    0    0  501  0.00000000000E+00  0.00000000000E+00  0.41805005507E+03  0.41805005508E+03  0.25500000920E-02 0. -1.
        2   -1    0    0  501    0  0.00000000000E+00  0.00000000000E+00 -0.15333611686E+04  0.15333611686E+04  0.25500000920E-02 0.  1.
    10030    2    1    2    0    0  0.00000000000E+00  0.00000000000E+00 -0.11153111136E+04  0.19514112237E+04  0.16012766419E+04 0.  0.
        3    1    3    3  502    0  0.46438441049E+03 -0.11533358991E+03 -0.13399429730E+04  0.14228147802E+04  0.10100000352E+00 0.  1.
       -3    1    3    3    0  502 -0.46438441049E+03  0.11533358991E+03  0.22463185940E+03  0.52859644354E+03  0.10100000352E+00 0. -1.
</event>
<event>
 5   0  0.3263294E-04  0.1612413E+04  0.7818609E-02  0.8812959E-01
        2   -1    0    0  501    0  0.00000000000E+00  0.00000000000E+00  0.16935672554E+04  0.16935672554E+04  0.25500000920E-02 0.  1.
       -2   -1    0    0    0  501  0.00000000000E+00  0.00000000000E+00 -0.38378672103E+03  0.38378672104E+03  0.25500000920E-02 0. -1.
    10030    2    1    2    0    0  0.00000000000E+00  0.00000000000E+00  0.13097805344E+04  0.20773539765E+04  0.16124126318E+04 0.  0.
        4    1    3    3  502    0 -0.56194234429E+03  0.45204937399E+03  0.19065600553E+03  0.74597530802E+03  0.12699999809E+01 0. -1.
       -4    1    3    3    0  502  0.56194234429E+03 -0.45204937399E+03  0.11191245289E+04  0.13313786685E+04  0.12699999809E+01 0.  1.
</event>
<event>
 5   0  0.1819811E-04  0.1596345E+04  0.7818609E-02  0.8822796E-01
       -1   -1    0    0    0  501  0.00000000000E+00  0.00000000000E+00  0.84838595850E+03  0.84838595852E+03  0.50400001928E-02 0.  1.
        1   -1    0    0  501    0  0.00000000000E+00  0.00000000000E+00 -0.75093139403E+03  0.75093139405E+03  0.50400001928E-02 0. -1.
    10030    2    1    2    0    0  0.00000000000E+00  0.00000000000E+00  0.97454564468E+02  0.15993173526E+04  0.15963453893E+04 0.  0.
        1    1    3    3  502    0  0.77830387042E+03 -0.17591501411E+03  0.29283843190E+02  0.79847388836E+03  0.50400001928E-02 0.  1.
       -1    1    3    3    0  502 -0.77830387042E+03  0.17591501411E+03  0.68170721278E+02  0.80084346421E+03  0.50400001928E-02 0. -1.
</event>
<event>
 5   0  0.3380454E-04  0.1610025E+04  0.7818609E-02  0.8814413E-01
       -2   -1    0    0    0  501  0.00000000000E+00  0.00000000000E+00  0.11341192256E+04  0.11341192256E+04  0.25500000920E-02 0.  1.
        2   -1    0    0  501    0  0.00000000000E+00  0.00000000000E+00 -0.57140842484E+03  0.57140842484E+03  0.25500000920E-02 0. -1.
    10030    2    1    2    0    0  0.00000000000E+00  0.00000000000E+00  0.56271080080E+03  0.17055276505E+04  0.16100251927E+04 0.  0.
        5    1    3    3  502    0 -0.97614236986E+02  0.72522756303E+03  0.63672382751E+03  0.97001179372E+03  0.46999998093E+01 0.  1.
       -5    1    3    3    0  502  0.97614236986E+02 -0.72522756303E+03 -0.74013026707E+02  0.73551585677E+03  0.46999998093E+01 0. -1.
</event>
<event>
 5   0  0.3228393E-04  0.1564787E+04  0.7818609E-02  0.8842478E-01
       -2   -1    0    0    0  501  0.00000000000E+00  0.00000000000E+00  0.19480190120E+04  0.19480190120E+04  0.25500000920E-02 0.  1.
        2   -1    0    0  501    0  0.00000000000E+00  0.00000000000E+00 -0.31423694906E+03  0.31423694907E+03  0.25500000920E-02 0. -1.
    10030    2    1    2    0    0  0.00000000000E+00  0.00000000000E+00  0.16337820629E+04  0.22622559611E+04  0.15647869517E+04 0.  0.
        1    1    3    3  502    0 -0.51683094344E+03 -0.20928691702E+03  0.16103629049E+04  0.17041666360E+04  0.50400001928E-02 0.  1.
       -1    1    3    3    0  502  0.51683094344E+03  0.20928691702E+03  0.23419157987E+02  0.55808932503E+03  0.50400001928E-02 0. -1.
</event>
<event>
 5   0  0.3274900E-04  0.1595612E+04  0.7818609E-02  0.8823249E-01
       -2   -1    0    0    0  501  0.00000000000E+00  0.00000000000E+00  0.48221225402E+03  0.48221225403E+03  0.25500000920E-02 0. -1.
        2   -1    0    0  501    0  0.00000000000E+00  0.00000000000E+00 -0.13199458038E+04  0.13199458038E+04  0.25500000920E-02 0.  1.
    10030    2    1    2    0    0  0.00000000000E+00  0.00000000000E+00 -0.83773354980E+03  0.18021580578E+04  0.15956115332E+04 0.  0.
        3    1    3    3  502    0 -0.39125003821E+00  0.61544857576E+03 -0.99223970412E+03  0.11676115549E+04  0.10100000352E+00 0.  1.
       -3    1    3    3    0  502  0.39125003821E+00 -0.61544857576E+03  0.15450615432E+03  0.63454650295E+03  0.10100000352E+00 0. -1.
</event>
<event>
 5   0  0.1819811E-04  0.1621973E+04  0.7818609E-02  0.8807162E-01
        1   -1    0    0  501    0  0.00000000000E+00  0.00000000000E+00  0.14681523427E+04  0.14681523427E+04  0.50400001928E-02 0.  1.
       -1   -1    0    0    0  501  0.00000000000E+00  0.00000000000E+00 -0.44797760435E+03  0.44797760438E+03  0.50400001928E-02 0. -1.
    10030    2    1    2    0    0  0.00000000000E+00  0.00000000000E+00  0.10201747384E+04  0.19161299471E+04  0.16219733282E+04 0.  0.
        1    1    3    3  502    0 -0.51800153760E+03  0.53469136833E+02  0.12445409115E+04  0.13490984478E+04  0.50400001928E-02 0.  1.
       -1    1    3    3    0  502  0.51800153760E+03 -0.53469136833E+02 -0.22436617309E+03  0.56703149930E+03  0.50400001928E-02 0. -1.
</event>
<event>
 5   0  0.1761255E-04  0.1628549E+04  0.7818609E-02  0.8803199E-01
        1   -1    0    0  501    0  0.00000000000E+00  0.00000000000E+00  0.38989719564E+03  0.38989719567E+03  0.50400001928E-02 0.  1.
       -1   -1    0    0    0  501  0.00000000000E+00  0.00000000000E+00 -0.17005585335E+04  0.17005585336E+04  0.50400001928E-02 0. -1.
    10030    2    1    2    0    0  0.00000000000E+00  0.00000000000E+00 -0.13106613379E+04  0.20904557292E+04  0.16285490515E+04 0.  0.
        2    1    3    3  502    0 -0.21985644120E+03  0.58927249925E+02 -0.16588916930E+04  0.16744345089E+04  0.25500000920E-02 0. -1.
       -2    1    3    3    0  502  0.21985644120E+03 -0.58927249925E+02  0.34823035510E+03  0.41602122030E+03  0.25500000920E-02 0.  1.
</event>
<event>
 5   0  0.3228393E-04  0.1594715E+04  0.7818609E-02  0.8823802E-01
        2   -1    0    0  501    0  0.00000000000E+00  0.00000000000E+00  0.20752272123E+04  0.20752272123E+04  0.25500000920E-02 0. -1.
       -2   -1    0    0    0  501  0.00000000000E+00  0.00000000000E+00 -0.30636587978E+03  0.30636587979E+03  0.25500000920E-02 0.  1.
    10030    2    1    2    0    0  0.00000000000E+00  0.00000000000E+00  0.17688613325E+04  0.23815930921E+04  0.15947147841E+04 0.  0.
        1    1    3    3  502    0 -0.53180242772E+03  0.49827160062E+03  0.40121837565E+03  0.83190419827E+03  0.50400001928E-02 0.  1.
       -1    1    3    3    0  502  0.53180242772E+03 -0.49827160062E+03  0.13676429568E+04  0.15496888938E+04  0.50400001928E-02 0. -1.
</event>
<event>
 5   0  0.3274900E-04  0.1605979E+04  0.7818609E-02  0.8816883E-01
       -2   -1    0    0    0  501  0.00000000000E+00  0.00000000000E+00  0.11616837204E+04  0.11616837204E+04  0.25500000920E-02 0. -1.
        2   -1    0    0  501    0  0.00000000000E+00  0.00000000000E+00 -0.55504969492E+03  0.55504969492E+03  0.25500000920E-02 0.  1.
    10030    2    1    2    0    0  0.00000000000E+00  0.00000000000E+00  0.60663402544E+03  0.17167334153E+04  0.16059790716E+04 0.  0.
        3    1    3    3  502    0 -0.60311324833E+03  0.44104176501E+03 -0.11126911844E+02  0.74725313460E+03  0.10100000352E+00 0.  1.
       -3    1    3    3    0  502  0.60311324833E+03 -0.44104176501E+03  0.61776093728E+03  0.96948028068E+03  0.10100000352E+00 0. -1.
</event>
<event>
 5   0  0.1764099E-04  0.1591018E+04  0.7818609E-02  0.8826085E-01
        1   -1    0    0  501    0  0.00000000000E+00  0.00000000000E+00  0.81896520302E+03  0.81896520303E+03  0.50400001928E-02 0. -1.
       -1   -1    0    0    0  501  0.00000000000E+00  0.00000000000E+00 -0.77272465362E+03  0.77272465364E+03  0.50400001928E-02 0.  1.
    10030    2    1    2    0    0  0.00000000000E+00  0.00000000000E+00  0.46240549393E+02  0.15916898567E+04  0.15910180425E+04 0.  0.
        5    1    3    3  502    0 -0.72478669116E+02  0.74532645302E+03 -0.24541034120E+03  0.78804378344E+03  0.46999998093E+01 0. -1.
       -5    1    3    3    0  502  0.72478669116E+02 -0.74532645302E+03  0.29165089059E+03  0.80364607324E+03  0.46999998093E+01 0.  1.
</event>
<event>
 5   0  0.3274900E-04  0.1605959E+04  0.7818609E-02  0.8816896E-01
        2   -1    0    0  501    0  0.00000000000E+00  0.00000000000E+00  0.12827360146E+04  0.12827360146E+04  0.25500000920E-02 0. -1.
       -2   -1    0    0    0  501  0.00000000000E+00  0.00000000000E+00 -0.50265679711E+03  0.50265679712E+03  0.25500000920E-02 0.  1.
    10030    2    1    2    0    0  0.00000000000E+00  0.00000000000E+00  0.78007921748E+03  0.17853928117E+04  0.16059588745E+04 0.  0.
        3    1    3    3  502    0 -0.39441538917E+03  0.21819846215E+03  0.11288190954E+04  0.12154861696E+04  0.10100000352E+00 0. -1.
       -3    1    3    3    0  502  0.39441538917E+03 -0.21819846215E+03 -0.34873987792E+03  0.56990664213E+03  0.10100000352E+00 0.  1.
</event>
<event>
 5   0  0.1761255E-04  0.1586832E+04  0.7818609E-02  0.8828679E-01
       -1   -1    0    0    0  501  0.00000000000E+00  0.00000000000E+00  0.79123329223E+03  0.79123329225E+03  0.50400001928E-02 0.  1.
        1   -1    0    0  501    0  0.00000000000E+00  0.00000000000E+00 -0.79560480357E+03  0.79560480359E+03  0.50400001928E-02 0. -1.
    10030    2    1    2    0    0  0.00000000000E+00  0.00000000000E+00 -0.43715113378E+01  0.15868380958E+04  0.15868320744E+04 0.  0.
        2    1    3    3  502    0  0.12940746262E+03 -0.57584489413E+03 -0.53243806206E+03  0.79487981696E+03  0.25500000920E-02 0. -1.
       -2    1    3    3    0  502 -0.12940746262E+03  0.57584489413E+03  0.52806655072E+03  0.79195827887E+03  0.25500000920E-02 0.  1.
</event>
<event>
 5   0  0.1787688E-04  0.1601876E+04  0.7818609E-02  0.8819396E-01
       -1   -1    0    0    0  501  0.00000000000E+00  0.00000000000E+00  0.55294905423E+03  0.55294905425E+03  0.50400001928E-02 0. -1.
        1   -1    0    0  501    0  0.00000000000E+00  0.00000000000E+00 -0.11601460419E+04  0.11601460419E+04  0.50400001928E-02 0.  1.
    10030    2    1    2    0    0  0.00000000000E+00  0.00000000000E+00 -0.60719698764E+03  0.17130950961E+04  0.16018759710E+04 0.  0.
        4    1    3    3  502    0  0.21993162107E+03  0.66358097950E+03  0.11442494390E+03  0.70838147561E+03  0.12699999809E+01 0. -1.
       -4    1    3    3    0  502 -0.21993162107E+03 -0.66358097950E+03 -0.72162193154E+03  0.10047136205E+04  0.12699999809E+01 0.  1.
</event>
<event>
 5   0  0.3274900E-04  0.1603621E+04  0.7818609E-02  0.8818327E-01
       -2   -1    0    0    0  501  0.00000000000E+00  0.00000000000E+00  0.82896215930E+03  0.82896215931E+03  0.25500000920E-02 0. -1.
        2   -1    0    0  501    0  0.00000000000E+00  0.00000000000E+00 -0.77554794209E+03  0.77554794210E+03  0.25500000920E-02 0.  1.
    10030    2    1    2    0    0  0.00000000000E+00  0.00000000000E+00  0.53414217209E+02  0.16045101014E+04  0.16036207740E+04 0.  0.
        3    1    3    3  502    0  0.69263946863E+03  0.29086543062E+03  0.30712625850E+03  0.81159021747E+03  0.10100000352E+00 0. -1.
       -3    1    3    3    0  502 -0.69263946863E+03 -0.29086543062E+03 -0.25371204129E+03  0.79291988393E+03  0.10100000352E+00 0.  1.
</event>
<event>
 5   0  0.1736537E-04  0.1618583E+04  0.7818609E-02  0.8809212E-01
        1   -1    0    0  501    0  0.00000000000E+00  0.00000000000E+00  0.12771539124E+04  0.12771539124E+04  0.50400001928E-02 0. -1.
       -1   -1    0    0    0  501  0.00000000000E+00  0.00000000000E+00 -0.51282224572E+03  0.51282224574E+03  0.50400001928E-02 0.  1.
    10030    2    1    2    0    0  0.00000000000E+00  0.00000000000E+00  0.76433166671E+03  0.17899761582E+04  0.16185832540E+04 0.  0.
        3    1    3    3  502    0 -0.20989707875E+03  0.61717620606E+03  0.91252047322E+03  0.11214530205E+04  0.10100000352E+00 0. -1.
       -3    1    3    3    0  502  0.20989707875E+03 -0.61717620606E+03 -0.14818880652E+03  0.66852313765E+03  0.10100000352E+00 0.  1.
</event>
<event>
 5   0  0.1819811E-04  0.1599894E+04  0.7818609E-02  0.8820613E-01
        1   -1    0    0  501    0  0.00000000000E+00  0.00000000000E+00  0.90885786412E+03  0.90885786414E+03  0.50400001928E-02 0.  1.
       -1   -1    0    0    0  501  0.00000000000E+00  0.00000000000E+00 -0.70408710515E+03  0.70408710517E+03  0.50400001928E-02 0. -1.
    10030    2    1    2    0    0  0.00000000000E+00  0.00000000000E+00  0.20477075897E+03  0.16129449693E+04  0.15998938747E+04 0.  0.
        1    1    3    3  502    0  0.24766253275E+02  0.23191046847E+03 -0.66904896687E+03  0.70853535747E+03  0.50400001928E-02 0. -1.
       -1    1    3    3    0  502 -0.24766253275E+02 -0.23191046847E+03  0.87381972584E+03  0.90440961184E+03  0.50400001928E-02 0.  1.
</event>
<event>
 5   0  0.1787688E-04  0.1605742E+04  0.7818609E-02  0.8817028E-01
       -1   -1    0    0    0  501  0.00000000000E+00  0.00000000000E+00  0.23186121723E+03  0.23186121728E+03  0.50400001928E-02 0. -1.
        1   -1    0    0  501    0  0.00000000000E+00  0.00000000000E+00 -0.27801184843E+04  0.27801184843E+04  0.50400001928E-02 0.  1.
    10030    2    1    2    0    0  0.00000000000E+00  0.00000000000E+00 -0.25482572671E+04  0.30119797016E+04  0.16057417674E+04 0.  0.
        4    1    3    3  502    0  0.32462968814E+03 -0.70461265491E+03 -0.16619005896E+04  0.18340606889E+04  0.12699999809E+01 0.  1.
       -4    1    3    3    0  502 -0.32462968814E+03  0.70461265491E+03 -0.88635667747E+03  0.11779190127E+04  0.12699999809E+01 0. -1.
</event>
<event>
 5   0  0.3210612E-04  0.1605515E+04  0.7818609E-02  0.8817167E-01
        2   -1    0    0  501    0  0.00000000000E+00  0.00000000000E+00  0.65780210393E+03  0.65780210393E+03  0.25500000920E-02 0. -1.
       -2   -1    0    0    0  501  0.00000000000E+00  0.00000000000E+00 -0.97965587713E+03  0.97965587713E+03  0.25500000920E-02 0.  1.
    10030    2    1    2    0    0  0.00000000000E+00  0.00000000000E+00 -0.32185377320E+03  0.16374579811E+04  0.16055151162E+04 0.  0.
        2    1    3    3  502    0 -0.33696396865E+02  0.18282974947E+03  0.63554410267E+03  0.66217706914E+03  0.25500000920E-02 0. -1.
       -2    1    3    3    0  502  0.33696396865E+02 -0.18282974947E+03 -0.95739787587E+03  0.97528091193E+03  0.25500000920E-02 0.  1.
</event>
<event>
 5   0  0.3210612E-04  0.1602899E+04  0.7818609E-02  0.8818769E-01
        2   -1    0    0  501    0  0.00000000000E+00  0.00000000000E+00  0.88475132065E+03  0.88475132065E+03  0.25500000920E-02 0. -1.
       -2   -1    0    0    0  501  0.00000000000E+00  0.00000000000E+00 -0.72599091131E+03  0.72599091132E+03  0.25500000920E-02 0.  1.
    10030    2    1    2    0    0  0.00000000000E+00  0.00000000000E+00  0.15876040933E+03  0.16107422320E+04  0.16028991454E+04 0.  0.
        2    1    3    3  502    0  0.51586597608E+03  0.36716355824E+03 -0.41434313041E+03  0.75670801073E+03  0.25500000920E-02 0.  1.
       -2    1    3    3    0  502 -0.51586597608E+03 -0.36716355824E+03  0.57310353974E+03  0.85403422124E+03  0.25500000920E-02 0. -1.
</event>
<event>
 5   0  0.3210612E-04  0.1605698E+04  0.7818609E-02  0.8817055E-01
        2   -1    0    0  501    0  0.00000000000E+00  0.00000000000E+00  0.47997127675E+03  0.47997127675E+03  0.25500000920E-02 0. -1.
       -2   -1    0    0    0  501  0.00000000000E+00  0.00000000000E+00 -0.13429273813E+04  0.13429273813E+04  0.25500000920E-02 0.  1.
    10030    2    1    2    0    0  0.00000000000E+00  0.00000000000E+00 -0.86295610452E+03  0.18228986580E+04  0.16056980660E+04 0.  0.
        2    1    3    3  502    0 -0.69213336721E+02 -0.76396755630E+02 -0.13353826353E+04  0.13393557156E+04  0.25500000920E-02 0.  1.
       -2    1    3    3    0  502  0.69213336721E+02  0.76396755630E+02  0.47242653074E+03  0.48354294246E+03  0.25500000920E-02 0. -1.
</event>
<event>
 5   0  0.1761255E-04  0.1574009E+04  0.7818609E-02  0.8836676E-01
        1   -1    0    0  501    0  0.00000000000E+00  0.00000000000E+00  0.78865208096E+03  0.78865208097E+03  0.50400001928E-02 0.  1.
       -1   -1    0    0    0  501  0.00000000000E+00  0.00000000000E+00 -0.78536062531E+03  0.78536062533E+03  0.50400001928E-02 0. -1.
    10030    2    1    2    0    0  0.00000000000E+00  0.00000000000E+00  0.32914556441E+01  0.15740127063E+04  0.15740092649E+04 0.  0.
        2    1    3    3  502    0  0.35012518640E+03 -0.64692325627E+03 -0.27813863219E+03  0.78642128938E+03  0.25500000920E-02 0. -1.
       -2    1    3    3    0  502 -0.35012518640E+03  0.64692325627E+03  0.28143008784E+03  0.78759141692E+03  0.25500000920E-02 0.  1.
</event>
<event>
 5   0  0.1787688E-04  0.1600377E+04  0.7818609E-02  0.8820316E-01
        1   -1    0    0  501    0  0.00000000000E+00  0.00000000000E+00  0.16051493973E+04  0.16051493973E+04  0.50400001928E-02 0. -1.
       -1   -1    0    0    0  501  0.00000000000E+00  0.00000000000E+00 -0.39890479090E+03  0.39890479093E+03  0.50400001928E-02 0.  1.
    10030    2    1    2    0    0  0.00000000000E+00  0.00000000000E+00  0.12062446064E+04  0.20040541882E+04  0.16003771865E+04 0.  0.
        4    1    3    3  502    0  0.45354369680E+03  0.91364155769E+02  0.14206825231E+04  0.14941183816E+04  0.12699999809E+01 0. -1.
       -4    1    3    3    0  502 -0.45354369680E+03 -0.91364155769E+02 -0.21443791671E+03  0.50993580664E+03  0.12699999809E+01 0.  1.
</event>
<event>
 5   0  0.1736537E-04  0.1602993E+04  0.7818609E-02  0.8818711E-01
        1   -1    0    0  501    0  0.00000000000E+00  0.00000000000E+00  0.30390757451E+03  0.30390757455E+03  0.50400001928E-02 0. -1.
       -1   -1    0    0    0  501  0.00000000000E+00  0.00000000000E+00 -0.21137904589E+04  0.21137904589E+04  0.50400001928E-02 0.  1.
    10030    2    1    2    0    0  0.00000000000E+00  0.00000000000E+00 -0.18098828844E+04  0.24176980335E+04  0.16029933642E+04 0.  0.
        3    1    3    3  502    0 -0.17816287453E+03 -0.37974139579E+03  0.12514465477E+03  0.43772906273E+03  0.10100000352E+00 0. -1.
       -3    1    3    3    0  502  0.17816287453E+03  0.37974139579E+03 -0.19350275392E+04  0.19799689707E+04  0.10100000352E+00 0.  1.
</event>
<event>
 5   0  0.3380454E-04  0.1609023E+04  0.7818609E-02  0.8815024E-01
        2   -1    0    0  501    0  0.00000000000E+00  0.00000000000E+00  0.83527921577E+03  0.83527921577E+03  0.25500000920E-02 0. -1.
       -2   -1    0    0    0  501  0.00000000000E+00  0.00000000000E+00 -0.77487712287E+03  0.77487712287E+03  0.25500000920E-02 0.  1.
    10030    2    1    2    0    0  0.00000000000E+00  0.00000000000E+00  0.60402092900E+02  0.16101563386E+04  0.16090230023E+04 0.  0.
        5    1    3    3  502    0  0.62146702304E+03  0.47917438588E+03  0.20749048327E+03  0.81172886080E+03  0.46999998093E+01 0. -1.
       -5    1    3    3    0  502 -0.62146702304E+03 -0.47917438588E+03 -0.14708839037E+03  0.79842747785E+03  0.46999998093E+01 0.  1.
</event>
<event>
 5   0  0.1787688E-04  0.1614517E+04  0.7818609E-02  0.8811679E-01
       -1   -1    0    0    0  501  0.00000000000E+00  0.00000000000E+00  0.83727626702E+03  0.83727626703E+03  0.50400001928E-02 0. -1.
        1   -1    0    0  501    0  0.00000000000E+00  0.00000000000E+00 -0.77831647331E+03  0.77831647333E+03  0.50400001928E-02 0.  1.
    10030    2    1    2    0    0  0.00000000000E+00  0.00000000000E+00  0.58959793701E+02  0.16155927404E+04  0.16145165361E+04 0.  0.
        4    1    3    3  502    0  0.22996653107E+03 -0.10357953757E+03  0.79683587658E+03  0.83580042661E+03  0.12699999809E+01 0. -1.
       -4    1    3    3    0  502 -0.22996653107E+03  0.10357953757E+03 -0.73787608287E+03  0.77979231376E+03  0.12699999809E+01 0.  1.
</event>
<event>
 5   0  0.3380454E-04  0.1622931E+04  0.7818609E-02  0.8806583E-01
       -2   -1    0    0    0  501  0.00000000000E+00  0.00000000000E+00  0.65366366655E+03  0.65366366655E+03  0.25500000920E-02 0. -1.
        2   -1    0    0  501    0  0.00000000000E+00  0.00000000000E+00 -0.10073620137E+04  0.10073620137E+04  0.25500000920E-02 0.  1.
    10030    2    1    2    0    0  0.00000000000E+00  0.00000000000E+00 -0.35369834714E+03  0.16610256802E+04  0.16229306176E+04 0.  0.
        5    1    3    3  502    0 -0.48567625649E+03  0.21377234895E+03  0.45146140933E+03  0.69672055906E+03  0.46999998093E+01 0. -1.
       -5    1    3    3    0  502  0.48567625649E+03 -0.21377234895E+03 -0.80515975647E+03  0.96430512119E+03  0.46999998093E+01 0.  1.
</event>
<event>
 5   0  0.1787688E-04  0.1595830E+04  0.7818609E-02  0.8823114E-01
       -1   -1    0    0    0  501  0.00000000000E+00  0.00000000000E+00  0.64119083417E+03  0.64119083419E+03  0.50400001928E-02 0.  1.
        1   -1    0    0  501    0  0.00000000000E+00  0.00000000000E+00 -0.99294671747E+03  0.99294671749E+03  0.50400001928E-02 0. -1.
    10030    2    1    2    0    0  0.00000000000E+00  0.00000000000E+00 -0.35175588330E+03  0.16341375517E+04  0.15958299835E+04 0.  0.
        4    1    3    3  502    0 -0.32159606450E+03 -0.73023030485E+03 -0.17846735149E+03  0.81762615863E+03  0.12699999809E+01 0. -1.
       -4    1    3    3    0  502  0.32159606450E+03  0.73023030485E+03 -0.17328853181E+03  0.81651139305E+03  0.12699999809E+01 0.  1.
</event>
<event>
 5   0  0.1764099E-04  0.1620313E+04  0.7818609E-02  0.8808165E-01
        1   -1    0    0  501    0  0.00000000000E+00  0.00000000000E+00  0.86670260492E+03  0.86670260494E+03  0.50400001928E-02 0. -1.
       -1   -1    0    0    0  501  0.00000000000E+00  0.00000000000E+00 -0.75729966521E+03  0.75729966522E+03  0.50400001928E-02 0.  1.
    10030    2    1    2    0    0  0.00000000000E+00  0.00000000000E+00  0.10940293971E+03  0.16240022702E+04  0.16203130470E+04 0.  0.
        5    1    3    3  502    0 -0.36796249080E+02 -0.26539287111E+03  0.82099713168E+03  0.86362359869E+03  0.46999998093E+01 0. -1.
       -5    1    3    3    0  502  0.36796249080E+02  0.26539287111E+03 -0.71159419197E+03  0.76037867147E+03  0.46999998093E+01 0.  1.
</event>
<event>
 5   0  0.1736537E-04  0.1586588E+04  0.7818609E-02  0.8828830E-01
       -1   -1    0    0    0  501  0.00000000000E+00  0.00000000000E+00  0.43886699885E+03  0.43886699888E+03  0.50400001928E-02 0.  1.
        1   -1    0    0  501    0  0.00000000000E+00  0.00000000000E+00 -0.14339547571E+04  0.14339547571E+04  0.50400001928E-02 0. -1.
    10030    2    1    2    0    0  0.00000000000E+00  0.00000000000E+00 -0.99508775828E+03  0.18728217560E+04  0.15865880635E+04 0.  0.
        3    1    3    3  502    0 -0.47413565636E+03  0.38117481178E+03  0.10344111541E+03  0.61708907973E+03  0.10100000352E+00 0.  1.
       -3    1    3    3    0  502  0.47413565636E+03 -0.38117481178E+03 -0.10985288737E+04  0.12557326763E+04  0.10100000352E+00 0. -1.
</event>
<event>
 5   0  0.1736537E-04  0.1583181E+04  0.7818609E-02  0.8830948E-01
       -1   -1    0    0    0  501  0.00000000000E+00  0.00000000000E+00  0.58043578516E+03  0.58043578518E+03  0.50400001928E-02 0.  1.
        1   -1    0    0  501    0  0.00000000000E+00  0.00000000000E+00 -0.10795606155E+04  0.10795606156E+04  0.50400001928E-02 0. -1.
    10030    2    1    2    0    0  0.00000000000E+00  0.00000000000E+00 -0.49912483039E+03  0.16599964007E+04  0.15831811186E+04 0.  0.
        3    1    3    3  502    0  0.78620205245E+03 -0.29932728229E+02 -0.15811871580E+03  0.80250306789E+03  0.10100000352E+00 0. -1.
       -3    1    3    3    0  502 -0.78620205245E+03  0.29932728229E+02 -0.34100611458E+03  0.85749333284E+03  0.10100000352E+00 0.  1.
</event>
<event>
 5   0  0.3263294E-04  0.1654691E+04  0.7818609E-02  0.8787636E-01
       -2   -1    0    0    0  501  0.00000000000E+00  0.00000000000E+00  0.29245018312E+03  0.29245018313E+03  0.25500000920E-02 0.  1.
        2   -1    0    0  501    0  0.00000000000E+00  0.00000000000E+00 -0.23405729338E+04  0.23405729338E+04  0.25500000920E-02 0. -1.
    10030    2    1    2    0    0  0.00000000000E+00  0.00000000000E+00 -0.20481227507E+04  0.26330231169E+04  0.16546914916E+04 0.  0.
        4    1    3    3  502    0  0.10875951133E+02 -0.66435547090E+03 -0.23963480581E+03  0.70633768913E+03  0.12699999809E+01 0.  1.
       -4    1    3    3    0  502 -0.10875951133E+02  0.66435547090E+03 -0.18084879449E+04  0.19266854278E+04  0.12699999809E+01 0. -1.
</event>
<event>
 5   0  0.3210612E-04  0.1576705E+04  0.7818609E-02  0.8834988E-01
       -2   -1    0    0    0  501  0.00000000000E+00  0.00000000000E+00  0.36696526127E+03  0.36696526128E+03  0.25500000920E-02 0. -1.
        2   -1    0    0  501    0  0.00000000000E+00  0.00000000000E+00 -0.16936205061E+04  0.16936205061E+04  0.25500000920E-02 0.  1.
    10030    2    1    2    0    0  0.00000000000E+00  0.00000000000E+00 -0.13266552448E+04  0.20605857674E+04  0.15767052883E+04 0.  0.
        2    1    3    3  502    0  0.62711296287E+03 -0.30157272819E+02 -0.12864290813E+04  0.14314607611E+04  0.25500000920E-02 0.  1.
       -2    1    3    3    0  502 -0.62711296287E+03  0.30157272819E+02 -0.40226163525E+02  0.62912500629E+03  0.25500000920E-02 0. -1.
</event>
<event>
 5   0  0.1736537E-04  0.1599764E+04  0.7818609E-02  0.8820693E-01
       -1   -1    0    0    0  501  0.00000000000E+00  0.00000000000E+00  0.64578816567E+03  0.64578816569E+03  0.50400001928E-02 0. -1.
        1   -1    0    0  501    0  0.00000000000E+00  0.00000000000E+00 -0.99074528711E+03  0.99074528713E+03  0.50400001928E-02 0.  1.
    10030    2    1    2    0    0  0.00000000000E+00  0.00000000000E+00 -0.34495712144E+03  0.16365334528E+04  0.15997644597E+04 0.  0.
        3    1    3    3  502    0  0.73857317244E+01 -0.59423447916E+03  0.37521680144E+03  0.70282061974E+03  0.10100000352E+00 0.  1.
       -3    1    3    3    0  502 -0.73857317244E+01  0.59423447916E+03 -0.72017392288E+03  0.93371283308E+03  0.10100000352E+00 0. -1.
</event>
<event>
 5   0  0.3274900E-04  0.1599891E+04  0.7818609E-02  0.8820615E-01
       -2   -1    0    0    0  501  0.00000000000E+00  0.00000000000E+00  0.55097766254E+03  0.55097766254E+03  0.25500000920E-02 0. -1.
        2   -1    0    0  501    0  0.00000000000E+00  0.00000000000E+00 -0.11614138325E+04  0.11614138325E+04  0.25500000920E-02 0.  1.
    10030    2    1    2    0    0  0.00000000000E+00  0.00000000000E+00 -0.61043616992E+03  0.17123914950E+04  0.15998913446E+04 0.  0.
        3    1    3    3  502    0 -0.23530140355E+03  0.74381878687E+03 -0.49451583898E+03  0.92367692589E+03  0.10100000352E+00 0.  1.
       -3    1    3    3    0  502  0.23530140355E+03 -0.74381878687E+03 -0.11592033094E+03  0.78871456912E+03  0.10100000352E+00 0. -1.
</event>
<event>
 5   0  0.1819811E-04  0.1599305E+04  0.7818609E-02  0.8820975E-01
        1   -1    0    0  501    0  0.00000000000E+00  0.00000000000E+00  0.85223657130E+03  0.85223657132E+03  0.50400001928E-02 0.  1.
       -1   -1    0    0    0  501  0.00000000000E+00  0.00000000000E+00 -0.75031299657E+03  0.75031299659E+03  0.50400001928E-02 0. -1.
    10030    2    1    2    0    0  0.00000000000E+00  0.00000000000E+00  0.10192357473E+03  0.16025495679E+04  0.15993050686E+04 0.  0.
        1    1    3    3  502    0 -0.27931184051E+03 -0.61159147709E+03  0.48471978532E+03  0.82886217757E+03  0.50400001928E-02 0.  1.
       -1    1    3    3    0  502  0.27931184051E+03  0.61159147709E+03 -0.38279621059E+03  0.77368739034E+03  0.50400001928E-02 0. -1.
</event>
<event>
 5   0  0.1787688E-04  0.1602475E+04  0.7818609E-02  0.8819029E-01
       -1   -1    0    0    0  501  0.00000000000E+00  0.00000000000E+00  0.11382857941E+04  0.11382857941E+04  0.50400001928E-02 0.  1.
        1   -1    0    0  501    0  0.00000000000E+00  0.00000000000E+00 -0.56398971226E+03  0.56398971228E+03  0.50400001928E-02 0. -1.
    10030    2    1    2    0    0  0.00000000000E+00  0.00000000000E+00  0.57429608183E+03  0.17022755064E+04  0.16024749327E+04 0.  0.
        4    1    3    3  502    0 -0.18551251921E+03  0.48812001373E+02 -0.53923564567E+03  0.57234098291E+03  0.12699999809E+01 0. -1.
       -4    1    3    3    0  502  0.18551251921E+03 -0.48812001373E+02  0.11135317275E+04  0.11299345235E+04  0.12699999809E+01 0.  1.
</event>
<event>
 5   0  0.1764099E-04  0.1604850E+04  0.7818609E-02  0.8817574E-01
       -1   -1    0    0    0  501  0.00000000000E+00  0.00000000000E+00  0.37053026829E+03  0.37053026833E+03  0.50400001928E-02 0. -1.
        1   -1    0    0  501    0  0.00000000000E+00  0.00000000000E+00 -0.17377418995E+04  0.17377418995E+04  0.50400001928E-02 0.  1.
    10030    2    1    2    0    0  0.00000000000E+00  0.00000000000E+00 -0.13672116312E+04  0.21082721678E+04  0.16048501142E+04 0.  0.
        5    1    3    3  502    0 -0.52542828133E+03  0.18397011144E+03 -0.14427583067E+04  0.15464454411E+04  0.46999998093E+01 0.  1.
       -5    1    3    3    0  502  0.52542828133E+03 -0.18397011144E+03  0.75546675470E+02  0.56182672676E+03  0.46999998093E+01 0. -1.
</event>
<event>
 5   0  0.3274900E-04  0.1594767E+04  0.7818609E-02  0.8823770E-01
        2   -1    0    0  501    0  0.00000000000E+00  0.00000000000E+00  0.10986004190E+04  0.10986004190E+04  0.25500000920E-02 0. -1.
       -2   -1    0    0    0  501  0.00000000000E+00  0.00000000000E+00 -0.57875469291E+03  0.57875469292E+03  0.25500000920E-02 0.  1.
    10030    2    1    2    0    0  0.00000000000E+00  0.00000000000E+00  0.51984572607E+03  0.16773551119E+04  0.15947666263E+04 0.  0.
        3    1    3    3  502    0  0.31788113899E+03 -0.39464904788E+03 -0.38760900425E+03  0.63799454535E+03  0.10100000352E+00 0.  1.
       -3    1    3    3    0  502 -0.31788113899E+03  0.39464904788E+03  0.90745473032E+03  0.10393605665E+04  0.10100000352E+00 0. -1.
</event>
<event>
 5   0  0.1819811E-04  0.1605650E+04  0.7818609E-02  0.8817085E-01
       -1   -1    0    0    0  501  0.00000000000E+00  0.00000000000E+00  0.11808671566E+04  0.11808671567E+04  0.50400001928E-02 0.  1.
        1   -1    0    0  501    0  0.00000000000E+00  0.00000000000E+00 -0.54580885367E+03  0.54580885370E+03  0.50400001928E-02 0. -1.
    10030    2    1    2    0    0  0.00000000000E+00  0.00000000000E+00  0.63505830297E+03  0.17266760104E+04  0.16056497117E+04 0.  0.
        1    1    3    3  502    0 -0.58238333808E+03 -0.20664520899E+03  0.86865783354E+03  0.10660389424E+04  0.50400001928E-02 0.  1.
       -1    1    3    3    0  502  0.58238333808E+03  0.20664520899E+03 -0.23359953058E+03  0.66063706797E+03  0.50400001928E-02 0. -1.
</event>
<event>
 5   0  0.3228393E-04  0.1611307E+04  0.7818609E-02  0.8813631E-01
       -2   -1    0    0    0  501  0.00000000000E+00  0.00000000000E+00  0.85934181859E+03  0.85934181859E+03  0.25500000920E-02 0.  1.
        2   -1    0    0  501    0  0.00000000000E+00  0.00000000000E+00 -0.75531974231E+03  0.75531974232E+03  0.25500000920E-02 0. -1.
    10030    2    1    2    0    0  0.00000000000E+00  0.00000000000E+00  0.10402207628E+03  0.16146615609E+04  0.16113073462E+04 0.  0.
        1    1    3    3  502    0 -0.21632773074E+03  0.75615486737E+03 -0.12302360466E+03  0.79605444403E+03  0.50400001928E-02 0. -1.
       -1    1    3    3    0  502  0.21632773074E+03 -0.75615486737E+03  0.22704568094E+03  0.81860711687E+03  0.50400001928E-02 0.  1.
</event>
<event>
 5   0  0.1787688E-04  0.1724461E+04  0.7818609E-02  0.8747535E-01
       -1   -1    0    0    0  501  0.00000000000E+00  0.00000000000E+00  0.43109932398E+03  0.43109932401E+03  0.50400001928E-02 0.  1.
        1   -1    0    0  501    0  0.00000000000E+00  0.00000000000E+00 -0.17245252705E+04  0.17245252705E+04  0.50400001928E-02 0. -1.
    10030    2    1    2    0    0  0.00000000000E+00  0.00000000000E+00 -0.12934259465E+04  0.21556245945E+04  0.17244612821E+04 0.  0.
        4    1    3    3  502    0  0.84236070165E+03 -0.16594310945E+03 -0.54724815442E+03  0.10181310440E+04  0.12699999809E+01 0.  1.
       -4    1    3    3    0  502 -0.84236070165E+03  0.16594310945E+03 -0.74617779212E+03  0.11374935506E+04  0.12699999809E+01 0. -1.
</event>
<event>
 5   0  0.1764099E-04  0.1593425E+04  0.7818609E-02  0.8824597E-01
        1   -1    0    0  501    0  0.00000000000E+00  0.00000000000E+00  0.56964614397E+03  0.56964614400E+03  0.50400001928E-02 0.  1.
       -1   -1    0    0    0  501  0.00000000000E+00  0.00000000000E+00 -0.11142902849E+04  0.11142902849E+04  0.50400001928E-02 0. -1.
    10030    2    1    2    0    0  0.00000000000E+00  0.00000000000E+00 -0.54464414094E+03  0.16839364289E+04  0.15934254474E+04 0.  0.
        5    1    3    3  502    0  0.22680423469E+03  0.64922944575E+03  0.15275711012E+03  0.70448268878E+03  0.46999998093E+01 0.  1.
       -5    1    3    3    0  502 -0.22680423469E+03 -0.64922944575E+03 -0.69740125106E+03  0.97945374014E+03  0.46999998093E+01 0. -1.
</event>
<event>
 5   0  0.1761255E-04  0.1596553E+04  0.7818609E-02  0.8822668E-01
        1   -1    0    0  501    0  0.00000000000E+00  0.00000000000E+00  0.25190918090E+04  0.25190918090E+04  0.50400001928E-02 0. -1.
       -1   -1    0    0    0  501  0.00000000000E+00  0.00000000000E+00 -0.25296637495E+03  0.25296637500E+03  0.50400001928E-02 0.  1.
    10030    2    1    2    0    0  0.00000000000E+00  0.00000000000E+00  0.22661254340E+04  0.27720581840E+04  0.15965531913E+04 0.  0.
        2    1    3    3  502    0  0.25469172147E+03 -0.71381497433E+03  0.69779426434E+03  0.10302021772E+04  0.25500000920E-02 0. -1.
       -2    1    3    3    0  502 -0.25469172147E+03  0.71381497433E+03  0.15683311697E+04  0.17418560068E+04  0.25500000920E-02 0.  1.
</event>
<event>
 5   0  0.1761255E-04  0.1616182E+04  0.7818609E-02  0.8810668E-01
       -1   -1    0    0    0  501  0.00000000000E+00  0.00000000000E+00  0.36414645651E+03  0.36414645654E+03  0.50400001928E-02 0. -1.
        1   -1    0    0  501    0  0.00000000000E+00  0.00000000000E+00 -0.17932650837E+04  0.17932650837E+04  0.50400001928E-02 0.  1.
    10030    2    1    2    0    0  0.00000000000E+00  0.00000000000E+00 -0.14291186272E+04  0.21574115403E+04  0.16161820762E+04 0.  0.
        2    1    3    3  502    0  0.78607724855E+03  0.14584551153E+03 -0.87150171114E+03  0.11826679950E+04  0.25500000920E-02 0.  1.
       -2    1    3    3    0  502 -0.78607724855E+03 -0.14584551153E+03 -0.55761691608E+03  0.97474354526E+03  0.25500000920E-02 0. -1.
</event>
<event>
 5   0  0.1764099E-04  0.1610949E+04  0.7818609E-02  0.8813850E-01
       -1   -1    0    0    0  501  0.00000000000E+00  0.00000000000E+00  0.58287252277E+03  0.58287252279E+03  0.50400001928E-02 0. -1.
        1   -1    0    0  501    0  0.00000000000E+00  0.00000000000E+00 -0.11130894223E+04  0.11130894223E+04  0.50400001928E-02 0.  1.
    10030    2    1    2    0    0  0.00000000000E+00  0.00000000000E+00 -0.53021689956E+03  0.16959619451E+04  0.16109490863E+04 0.  0.
        5    1    3    3  502    0 -0.21055002842E+00  0.15334445451E+03  0.56734898372E+03  0.58772572293E+03  0.46999998093E+01 0. -1.
       -5    1    3    3    0  502  0.21055002842E+00 -0.15334445451E+03 -0.10975658833E+04  0.11082362222E+04  0.46999998093E+01 0.  1.
</event>
<event>
 5   0  0.3210612E-04  0.1595862E+04  0.7818609E-02  0.8823094E-01
        2   -1    0    0  501    0  0.00000000000E+00  0.00000000000E+00  0.80402770069E+03  0.80402770070E+03  0.25500000920E-02 0.  1.
       -2   -1    0    0    0  501  0.00000000000E+00  0.00000000000E+00 -0.79188004285E+03  0.79188004285E+03  0.25500000920E-02 0. -1.
    10030    2    1    2    0    0  0.00000000000E+00  0.00000000000E+00  0.12147657843E+02  0.15959077436E+04  0.15958615104E+04 0.  0.
        2    1    3    3  502    0  0.47310365162E+03 -0.63795831545E+03  0.82728594557E+02  0.79853734903E+03  0.25500000920E-02 0. -1.
       -2    1    3    3    0  502 -0.47310365162E+03  0.63795831545E+03 -0.70580936714E+02  0.79737039452E+03  0.25500000920E-02 0.  1.
</event>
<event>
 5   0  0.1819811E-04  0.1605853E+04  0.7818609E-02  0.8816960E-01
       -1   -1    0    0    0  501  0.00000000000E+00  0.00000000000E+00  0.72504097752E+03  0.72504097754E+03  0.50400001928E-02 0. -1.
        1   -1    0    0  501    0  0.00000000000E+00  0.00000000000E+00 -0.88917874506E+03  0.88917874507E+03  0.50400001928E-02 0.  1.
    10030    2    1    2    0    0  0.00000000000E+00  0.00000000000E+00 -0.16413776754E+03  0.16142197226E+04  0.16058530774E+04 0.  0.
        1    1    3    3  502    0 -0.64947800896E+03 -0.46331270610E+03  0.90160131549E+01  0.79784812858E+03  0.50400001928E-02 0.  1.
       -1    1    3    3    0  502  0.64947800896E+03  0.46331270610E+03 -0.17315378069E+03  0.81637159403E+03  0.50400001928E-02 0. -1.
</event>
<event>
 5   0  0.1819811E-04  0.1600007E+04  0.7818609E-02  0.8820544E-01
       -1   -1    0    0    0  501  0.00000000000E+00  0.00000000000E+00  0.32105201095E+03  0.32105201099E+03  0.50400001928E-02 0.  1.
        1   -1    0    0  501    0  0.00000000000E+00  0.00000000000E+00 -0.19934638774E+04  0.19934638774E+04  0.50400001928E-02 0. -1.
    10030    2    1    2    0    0  0.00000000000E+00  0.00000000000E+00 -0.16724118664E+04  0.23145158884E+04  0.16000069833E+04 0.  0.
        1    1    3    3  502    0 -0.51607555718E+02 -0.50446460641E+03  0.58864034783E+02  0.51050254999E+03  0.50400001928E-02 0.  1.
       -1    1    3    3    0  502  0.51607555718E+02  0.50446460641E+03 -0.17312759012E+04  0.18040133384E+04  0.50400001928E-02 0. -1.
</event>
<event>
 5   0  0.1819811E-04  0.1457139E+04  0.7818609E-02  0.8913466E-01
       -1   -1    0    0    0  501  0.00000000000E+00  0.00000000000E+00  0.88545275940E+03  0.88545275941E+03  0.50400001928E-02 0. -1.
        1   -1    0    0  501    0  0.00000000000E+00  0.00000000000E+00 -0.59948255284E+03  0.59948255286E+03  0.50400001928E-02 0.  1.
    10030    2    1    2    0    0  0.00000000000E+00  0.00000000000E+00  0.28597020656E+03  0.14849353123E+04  0.14571389510E+04 0.  0.
        1    1    3    3  502    0  0.47357358839E+03 -0.51162797405E+03  0.35863071562E+03  0.78399688626E+03  0.50400001928E-02 0. -1.
       -1    1    3    3    0  502 -0.47357358839E+03  0.51162797405E+03 -0.72660509057E+02  0.70093842601E+03  0.50400001928E-02 0.  1.
</event>
<event>
 5   0  0.3263294E-04  0.1581158E+04  0.7818609E-02  0.8832208E-01
        2   -1    0    0  501    0  0.00000000000E+00  0.00000000000E+00  0.10516480187E+04  0.10516480187E+04  0.25500000920E-02 0. -1.
       -2   -1    0    0    0  501  0.00000000000E+00  0.00000000000E+00 -0.59431962126E+03  0.59431962127E+03  0.25500000920E-02 0.  1.
    10030    2    1    2    0    0  0.00000000000E+00  0.00000000000E+00  0.45732839740E+03  0.16459676399E+04  0.15811578696E+04 0.  0.
        4    1    3    3  502    0  0.48886888592E+03 -0.61907044176E+03  0.28347638429E+03  0.83821326214E+03  0.12699999809E+01 0. -1.
       -4    1    3    3    0  502 -0.48886888592E+03  0.61907044176E+03  0.17385201311E+03  0.80775437779E+03  0.12699999809E+01 0.  1.
</event>
<event>
 5   0  0.1736537E-04  0.1619332E+04  0.7818609E-02  0.8808759E-01
        1   -1    0    0  501    0  0.00000000000E+00  0.00000000000E+00  0.11596918450E+04  0.11596918450E+04  0.50400001928E-02 0. -1.
       -1   -1    0    0    0  501  0.00000000000E+00  0.00000000000E+00 -0.56528753332E+03  0.56528753334E+03  0.50400001928E-02 0.  1.
    10030    2    1    2    0    0  0.00000000000E+00  0.00000000000E+00  0.59440431172E+03  0.17249793784E+04  0.16193323841E+04 0.  0.
        3    1    3    3  502    0 -0.23402458268E+03  0.50962726347E+03  0.91931742897E+03  0.10768621074E+04  0.10100000352E+00 0. -1.
       -3    1    3    3    0  502  0.23402458268E+03 -0.50962726347E+03 -0.32491311726E+03  0.64811727098E+03  0.10100000352E+00 0.  1.
</event>
<event>
 5   0  0.3263294E-04  0.1577919E+04  0.7818609E-02  0.8834229E-01
        2   -1    0    0  501    0  0.00000000000E+00  0.00000000000E+00  0.15322422162E+04  0.15322422163E+04  0.25500000920E-02 0. -1.
       -2   -1    0    0    0  501  0.00000000000E+00  0.00000000000E+00 -0.40623927761E+03  0.40623927762E+03  0.25500000920E-02 0.  1.
    10030    2    1    2    0    0  0.00000000000E+00  0.00000000000E+00  0.11260029386E+04  0.19384814939E+04  0.15779188459E+04 0.  0.
        4    1    3    3  502    0  0.26835351389E+03 -0.41075518055E+03 -0.19601386912E+03  0.52835260627E+03  0.12699999809E+01 0.  1.
       -4    1    3    3    0  502 -0.26835351389E+03  0.41075518055E+03  0.13220168078E+04  0.14101288876E+04  0.12699999809E+01 0. -1.
</event>
<event>
 5   0  0.3274900E-04  0.1598021E+04  0.7818609E-02  0.8821764E-01
       -2   -1    0    0    0  501  0.00000000000E+00  0.00000000000E+00  0.81549803524E+03  0.81549803525E+03  0.25500000920E-02 0.  1.
        2   -1    0    0  501    0  0.00000000000E+00  0.00000000000E+00 -0.78285669730E+03  0.78285669731E+03  0.25500000920E-02 0. -1.
    10030    2    1    2    0    0  0.00000000000E+00  0.00000000000E+00  0.32641337941E+02  0.15983547326E+04  0.15980213998E+04 0.  0.
        3    1    3    3  502    0  0.55278714431E+03 -0.45792628015E+02  0.59154713993E+03  0.81092454683E+03  0.10100000352E+00 0.  1.
       -3    1    3    3    0  502 -0.55278714431E+03  0.45792628015E+02 -0.55890580199E+03  0.78743018572E+03  0.10100000352E+00 0. -1.
</event>
<event>
 5   0  0.3228393E-04  0.1609381E+04  0.7818609E-02  0.8814806E-01
       -2   -1    0    0    0  501  0.00000000000E+00  0.00000000000E+00  0.72104725153E+03  0.72104725153E+03  0.25500000920E-02 0.  1.
        2   -1    0    0  501    0  0.00000000000E+00  0.00000000000E+00 -0.89803604853E+03  0.89803604853E+03  0.25500000920E-02 0. -1.
    10030    2    1    2    0    0  0.00000000000E+00  0.00000000000E+00 -0.17698879700E+03  0.16190833001E+04  0.16093805325E+04 0.  0.
        1    1    3    3  502    0  0.29209661313E+03 -0.19391947476E+03  0.64016589113E+03  0.72988873281E+03  0.50400001928E-02 0.  1.
       -1    1    3    3    0  502 -0.29209661313E+03  0.19391947476E+03 -0.81715468813E+03  0.88919456726E+03  0.50400001928E-02 0. -1.
</event>
<event>
 5   0  0.3263294E-04  0.1626752E+04  0.7818609E-02  0.8804280E-01
        2   -1    0    0  501    0  0.00000000000E+00  0.00000000000E+00  0.14163250813E+04  0.14163250813E+04  0.25500000920E-02 0.  1.
       -2   -1    0    0    0  501  0.00000000000E+00  0.00000000000E+00 -0.46711057495E+03  0.46711057496E+03  0.25500000920E-02 0. -1.
    10030    2    1    2    0    0  0.00000000000E+00  0.00000000000E+00  0.94921450638E+03  0.18834356563E+04  0.16267518841E+04 0.  0.
        4    1    3    3  502    0 -0.14032461897E+03 -0.63168639372E+03 -0.95960948870E+02  0.65416268260E+03  0.12699999809E+01 0. -1.
       -4    1    3    3    0  502  0.14032461897E+03  0.63168639372E+03  0.10451754553E+04  0.12292729737E+04  0.12699999809E+01 0.  1.
</event>
<event>
 5   0  0.1736537E-04  0.1599621E+04  0.7818609E-02  0.8820781E-01
       -1   -1    0    0    0  501  0.00000000000E+00  0.00000000000E+00  0.77908824284E+03  0.77908824285E+03  0.50400001928E-02 0. -1.
        1   -1    0    0  501    0  0.00000000000E+00  0.00000000000E+00 -0.82108360329E+03  0.82108360330E+03  0.50400001928E-02 0.  1.
    10030    2    1    2    0    0  0.00000000000E+00  0.00000000000E+00 -0.41995360450E+02  0.16001718462E+04  0.15996206822E+04 0.  0.
        3    1    3    3  502    0 -0.45720011767E+02 -0.49658590707E+03  0.60452465081E+03  0.78366953891E+03  0.10100000352E+00 0. -1.
       -3    1    3    3    0  502  0.45720011767E+02  0.49658590707E+03 -0.64652001126E+03  0.81650230725E+03  0.10100000352E+00 0.  1.
</event>
<event>
 5   0  0.3274900E-04  0.1592802E+04  0.7818609E-02  0.8824982E-01
       -2   -1    0    0    0  501  0.00000000000E+00  0.00000000000E+00  0.92411692594E+03  0.92411692595E+03  0.25500000920E-02 0. -1.
        2   -1    0    0  501    0  0.00000000000E+00  0.00000000000E+00 -0.68633575708E+03  0.68633575708E+03  0.25500000920E-02 0.  1.
    10030    2    1    2    0    0  0.00000000000E+00  0.00000000000E+00  0.23778116887E+03  0.16104526830E+04  0.15928019211E+04 0.  0.
        3    1    3    3  502    0 -0.74002362774E+02 -0.52282588169E+03 -0.48389657050E+03  0.71622563023E+03  0.10100000352E+00 0.  1.
       -3    1    3    3    0  502  0.74002362774E+02  0.52282588169E+03  0.72167773936E+03  0.89422705280E+03  0.10100000352E+00 0. -1.
</event>
<event>
 5   0  0.1736537E-04  0.1612187E+04  0.7818609E-02  0.8813096E-01
       -1   -1    0    0    0  501  0.00000000000E+00  0.00000000000E+00  0.11949559015E+04  0.11949559015E+04  0.50400001928E-02 0. -1.
        1   -1    0    0  501    0  0.00000000000E+00  0.00000000000E+00 -0.54377439744E+03  0.54377439746E+03  0.50400001928E-02 0.  1.
    10030    2    1    2    0    0  0.00000000000E+00  0.00000000000E+00  0.65118150404E+03  0.17387302989E+04  0.16121866211E+04 0.  0.
        3    1    3    3  502    0  0.77494657659E+03 -0.74730930729E+02  0.55094010777E+03  0.95376198348E+03  0.10100000352E+00 0. -1.
       -3    1    3    3    0  502 -0.77494657659E+03  0.74730930729E+02  0.10024139627E+03  0.78496831547E+03  0.10100000352E+00 0.  1.
</event>
<event>
 5   0  0.3263294E-04  0.1599563E+04  0.7818609E-02  0.8820817E-01
       -2   -1    0    0    0  501  0.00000000000E+00  0.00000000000E+00  0.60017270577E+03  0.60017270577E+03  0.25500000920E-02 0.  1.
        2   -1    0    0  501    0  0.00000000000E+00  0.00000000000E+00 -0.10657772715E+04  0.10657772715E+04  0.25500000920E-02 0. -1.
    10030    2    1    2    0    0  0.00000000000E+00  0.00000000000E+00 -0.46560456570E+03  0.16659499772E+04  0.15995629763E+04 0.  0.
        4    1    3    3  502    0 -0.31715575829E+03  0.68786047823E+03 -0.50018478665E+03  0.90770383178E+03  0.12699999809E+01 0. -1.
       -4    1    3    3    0  502  0.31715575829E+03 -0.68786047823E+03  0.34580220941E+02  0.75824614547E+03  0.12699999809E+01 0.  1.
</event>
<event>
 5   0  0.3210612E-04  0.1598847E+04  0.7818609E-02  0.8821257E-01
       -2   -1    0    0    0  501  0.00000000000E+00  0.00000000000E+00  0.70332967737E+03  0.70332967737E+03  0.25500000920E-02 0.  1.
        2   -1    0    0  501    0  0.00000000000E+00  0.00000000000E+00 -0.90864623532E+03  0.90864623532E+03  0.25500000920E-02 0. -1.
    10030    2    1    2    0    0  0.00000000000E+00  0.00000000000E+00 -0.20531655795E+03  0.16119759127E+04  0.15988469139E+04 0.  0.
        2    1    3    3  502    0 -0.47110876931E+03 -0.30001219782E+03  0.47398855023E+03  0.73254074092E+03  0.25500000920E-02 0.  1.
       -2    1    3    3    0  502  0.47110876931E+03  0.30001219782E+03 -0.67930510818E+03  0.87943517178E+03  0.25500000920E-02 0. -1.
</event>
<event>
 5   0  0.3228393E-04  0.1605150E+04  0.7818609E-02  0.8817390E-01
        2   -1    0    0  501    0  0.00000000000E+00  0.00000000000E+00  0.10070694645E+04  0.10070694645E+04  0.25500000920E-02 0. -1.
       -2   -1    0    0    0  501  0.00000000000E+00  0.00000000000E+00 -0.63960509302E+03  0.63960509302E+03  0.25500000920E-02 0.  1.
    10030    2    1    2    0    0  0.00000000000E+00  0.00000000000E+00  0.36746437148E+03  0.16466745575E+04  0.16051501594E+04 0.  0.
        1    1    3    3  502    0  0.23454832352E+02  0.43088405314E+03  0.87793250757E+03  0.97825185115E+03  0.50400001928E-02 0. -1.
       -1    1    3    3    0  502 -0.23454832352E+02 -0.43088405314E+03 -0.51046813609E+03  0.66842270637E+03  0.50400001928E-02 0.  1.
</event>
<event>
 5   0  0.3274900E-04  0.1591674E+04  0.7818609E-02  0.8825679E-01
        2   -1    0    0  501    0  0.00000000000E+00  0.00000000000E+00  0.14540455516E+04  0.14540455516E+04  0.25500000920E-02 0.  1.
       -2   -1    0    0    0  501  0.00000000000E+00  0.00000000000E+00 -0.43558248838E+03  0.43558248839E+03  0.25500000920E-02 0. -1.
    10030    2    1    2    0    0  0.00000000000E+00  0.00000000000E+00  0.10184630632E+04  0.18896280400E+04  0.15916743129E+04 0.  0.
        3    1    3    3  502    0  0.37347550725E+03  0.20436542110E+03  0.13074890471E+04  0.13750551983E+04  0.10100000352E+00 0.  1.
       -3    1    3    3    0  502 -0.37347550725E+03 -0.20436542110E+03 -0.28902598387E+03  0.51457284170E+03  0.10100000352E+00 0. -1.
</event>
<event>
 5   0  0.3210612E-04  0.1629207E+04  0.7818609E-02  0.8802803E-01
       -2   -1    0    0    0  501  0.00000000000E+00  0.00000000000E+00  0.86514056684E+03  0.86514056685E+03  0.25500000920E-02 0.  1.
        2   -1    0    0  501    0  0.00000000000E+00  0.00000000000E+00 -0.76701844007E+03  0.76701844007E+03  0.25500000920E-02 0. -1.
    10030    2    1    2    0    0  0.00000000000E+00  0.00000000000E+00  0.98122126778E+02  0.16321590069E+04  0.16292068844E+04 0.  0.
        2    1    3    3  502    0  0.56057288638E+03  0.16448896832E+03 -0.51966487043E+03  0.78188884070E+03  0.25500000920E-02 0. -1.
       -2    1    3    3    0  502 -0.56057288638E+03 -0.16448896832E+03  0.61778699721E+03  0.85027016622E+03  0.25500000920E-02 0.  1.
</event>
<event>
 5   0  0.1761255E-04  0.1604026E+04  0.7818609E-02  0.8818078E-01
       -1   -1    0    0    0  501  0.00000000000E+00  0.00000000000E+00  0.48426288710E+03  0.48426288713E+03  0.50400001928E-02 0.  1.
        1   -1    0    0  501    0  0.00000000000E+00  0.00000000000E+00 -0.13282561801E+04  0.13282561801E+04  0.50400001928E-02 0. -1.
    10030    2    1    2    0    0  0.00000000000E+00  0.00000000000E+00 -0.84399329302E+03  0.18125190673E+04  0.16040263996E+04 0.  0.
        2    1    3    3  502    0 -0.35482097331E+03  0.36229941126E+03 -0.11241016489E+04  0.12331923222E+04  0.25500000920E-02 0.  1.
       -2    1    3    3    0  502  0.35482097331E+03 -0.36229941126E+03  0.28010835587E+03  0.57932674506E+03  0.25500000920E-02 0. -1.
</event>
<event>
 5   0  0.1761255E-04  0.1600706E+04  0.7818609E-02  0.8820114E-01
        1   -1    0    0  501    0  0.00000000000E+00  0.00000000000E+00  0.56311579536E+03  0.56311579538E+03  0.50400001928E-02 0.  1.
       -1   -1    0    0    0  501  0.00000000000E+00  0.00000000000E+00 -0.11375367480E+04  0.11375367480E+04  0.50400001928E-02 0. -1.
    10030    2    1    2    0    0  0.00000000000E+00  0.00000000000E+00 -0.57442095262E+03  0.17006525434E+04  0.16007059825E+04 0.  0.
        2    1    3    3  502    0 -0.17593550462E+03 -0.18537019617E+03  0.51859859008E+03  0.57815215044E+03  0.25500000920E-02 0.  1.
       -2    1    3    3    0  502  0.17593550462E+03  0.18537019617E+03 -0.10930195427E+04  0.11225003929E+04  0.25500000920E-02 0. -1.
</event>
<event>
 5   0  0.1787688E-04  0.1606425E+04  0.7818609E-02  0.8816611E-01
        1   -1    0    0  501    0  0.00000000000E+00  0.00000000000E+00  0.69643681446E+03  0.69643681448E+03  0.50400001928E-02 0. -1.
       -1   -1    0    0    0  501  0.00000000000E+00  0.00000000000E+00 -0.92635860828E+03  0.92635860829E+03  0.50400001928E-02 0.  1.
    10030    2    1    2    0    0  0.00000000000E+00  0.00000000000E+00 -0.22992179381E+03  0.16227954228E+04  0.16064248980E+04 0.  0.
        4    1    3    3  502    0 -0.52766651081E+03 -0.34989713749E+03  0.38433156763E+03  0.74065668176E+03  0.12699999809E+01 0. -1.
       -4    1    3    3    0  502  0.52766651081E+03  0.34989713749E+03 -0.61425336144E+03  0.88213874101E+03  0.12699999809E+01 0.  1.
</event>
<event>
 5   0  0.1764099E-04  0.1595330E+04  0.7818609E-02  0.8823422E-01
        1   -1    0    0  501    0  0.00000000000E+00  0.00000000000E+00  0.11654679641E+04  0.11654679641E+04  0.50400001928E-02 0. -1.
       -1   -1    0    0    0  501  0.00000000000E+00  0.00000000000E+00 -0.54593444853E+03  0.54593444855E+03  0.50400001928E-02 0.  1.
    10030    2    1    2    0    0  0.00000000000E+00  0.00000000000E+00  0.61953351559E+03  0.17114024127E+04  0.15953295713E+04 0.  0.
        5    1    3    3  502    0  0.31340192120E+03 -0.19252681132E+02  0.10963665138E+04  0.11404530032E+04  0.46999998093E+01 0. -1.
       -5    1    3    3    0  502 -0.31340192120E+03  0.19252681132E+02 -0.47683299824E+03  0.57094940945E+03  0.46999998093E+01 0.  1.
</event>
<event>
 5   0  0.1764099E-04  0.1421169E+04  0.7818609E-02  0.8938637E-01
       -1   -1    0    0    0  501  0.00000000000E+00  0.00000000000E+00  0.37184833501E+03  0.37184833504E+03  0.50400001928E-02 0.  1.
        1   -1    0    0  501    0  0.00000000000E+00  0.00000000000E+00 -0.13578922790E+04  0.13578922790E+04  0.50400001928E-02 0. -1.
    10030    2    1    2    0    0  0.00000000000E+00  0.00000000000E+00 -0.98604394402E+03  0.17297406141E+04  0.14211685095E+04 0.  0.
        5    1    3    3  502    0  0.47856291386E+03  0.52524675800E+03 -0.49164829143E+03  0.86408723621E+03  0.46999998093E+01 0. -1.
       -5    1    3    3    0  502 -0.47856291386E+03 -0.52524675800E+03 -0.49439565259E+03  0.86565337787E+03  0.46999998093E+01 0.  1.
</event>
<event>
 5   0  0.3274900E-04  0.1600239E+04  0.7818609E-02  0.8820401E-01
        2   -1    0    0  501    0  0.00000000000E+00  0.00000000000E+00  0.81885813819E+03  0.81885813820E+03  0.25500000920E-02 0.  1.
       -2   -1    0    0    0  501  0.00000000000E+00  0.00000000000E+00 -0.78181014131E+03  0.78181014131E+03  0.25500000920E-02 0. -1.
    10030    2    1    2    0    0  0.00000000000E+00  0.00000000000E+00  0.37047996884E+02  0.16006682795E+04  0.16002394780E+04 0.  0.
        3    1    3    3  502    0  0.46797727872E+03 -0.10007269183E+03  0.65992457238E+03  0.81517956824E+03  0.10100000352E+00 0.  1.
       -3    1    3    3    0  502 -0.46797727872E+03  0.10007269183E+03 -0.62287657549E+03  0.78548871128E+03  0.10100000352E+00 0. -1.
</event>
<event>
 5   0  0.3274900E-04  0.1475034E+04  0.7818609E-02  0.8901227E-01
        2   -1    0    0  501    0  0.00000000000E+00  0.00000000000E+00  0.14268347171E+04  0.14268347171E+04  0.25500000920E-02 0. -1.
       -2   -1    0    0    0  501  0.00000000000E+00  0.00000000000E+00 -0.38121520272E+03  0.38121520273E+03  0.25500000920E-02 0.  1.
    10030    2    1    2    0    0  0.00000000000E+00  0.00000000000E+00  0.10456195144E+04  0.18080499199E+04  0.14750336755E+04 0.  0.
        3    1    3    3  502    0  0.61978698999E+03 -0.30158479821E+03  0.20119608508E+03  0.71803146054E+03  0.10100000352E+00 0.  1.
       -3    1    3    3    0  502 -0.61978698999E+03  0.30158479821E+03  0.84442342933E+03  0.10900184593E+04  0.10100000352E+00 0. -1.
</event>
<event>
 5   0  0.1764099E-04  0.1603454E+04  0.7818609E-02  0.8818429E-01
        1   -1    0    0  501    0  0.00000000000E+00  0.00000000000E+00  0.14214883143E+04  0.14214883143E+04  0.50400001928E-02 0.  1.
       -1   -1    0    0    0  501  0.00000000000E+00  0.00000000000E+00 -0.45217808400E+03  0.45217808402E+03  0.50400001928E-02 0. -1.
    10030    2    1    2    0    0  0.00000000000E+00  0.00000000000E+00  0.96931023034E+03  0.18736663984E+04  0.16034536007E+04 0.  0.
        5    1    3    3  502    0 -0.54648662049E+03 -0.61973147153E+02  0.11662690057E+04  0.12894548386E+04  0.46999998093E+01 0.  1.
       -5    1    3    3    0  502  0.54648662049E+03  0.61973147153E+02 -0.19695877532E+03  0.58421155973E+03  0.46999998093E+01 0. -1.
</event>
<event>
 5   0  0.3228393E-04  0.1650180E+04  0.7818609E-02  0.8790300E-01
       -2   -1    0    0    0  501  0.00000000000E+00  0.00000000000E+00  0.42119806931E+03  0.42119806932E+03  0.25500000920E-02 0. -1.
        2   -1    0    0  501    0  0.00000000000E+00  0.00000000000E+00 -0.16162790490E+04  0.16162790490E+04  0.25500000920E-02 0.  1.
    10030    2    1    2    0    0  0.00000000000E+00  0.00000000000E+00 -0.11950809797E+04  0.20374771183E+04  0.16501801294E+04 0.  0.
        1    1    3    3  502    0 -0.37194065942E+03 -0.73490137964E+03 -0.53763880225E+03  0.98360326028E+03  0.50400001928E-02 0. -1.
       -1    1    3    3    0  502  0.37194065942E+03  0.73490137964E+03 -0.65744217741E+03  0.10538738580E+04  0.50400001928E-02 0.  1.
</event>
<event>
 5   0  0.1761255E-04  0.1589105E+04  0.7818609E-02  0.8827269E-01
        1   -1    0    0  501    0  0.00000000000E+00  0.00000000000E+00  0.56327582460E+03  0.56327582462E+03  0.50400001928E-02 0.  1.
       -1   -1    0    0    0  501  0.00000000000E+00  0.00000000000E+00 -0.11207901179E+04  0.11207901179E+04  0.50400001928E-02 0. -1.
    10030    2    1    2    0    0  0.00000000000E+00  0.00000000000E+00 -0.55751429329E+03  0.16840659425E+04  0.15891053809E+04 0.  0.
        2    1    3    3  502    0 -0.29689939572E+02  0.72443079554E+03 -0.62319049222E+03  0.95605850221E+03  0.25500000920E-02 0.  1.
       -2    1    3    3    0  502  0.29689939572E+02 -0.72443079554E+03  0.65676198937E+02  0.72800744032E+03  0.25500000920E-02 0. -1.
</event>
<event>
 5   0  0.3274900E-04  0.1593225E+04  0.7818609E-02  0.8824721E-01
        2   -1    0    0  501    0  0.00000000000E+00  0.00000000000E+00  0.11095569082E+04  0.11095569082E+04  0.25500000920E-02 0. -1.
       -2   -1    0    0    0  501  0.00000000000E+00  0.00000000000E+00 -0.57193247903E+03  0.57193247904E+03  0.25500000920E-02 0.  1.
    10030    2    1    2    0    0  0.00000000000E+00  0.00000000000E+00  0.53762442913E+03  0.16814893872E+04  0.15932251983E+04 0.  0.
        3    1    3    3  502    0  0.33668619716E+03  0.72133133323E+03  0.30073932448E+03  0.85095278315E+03  0.10100000352E+00 0. -1.
       -3    1    3    3    0  502 -0.33668619716E+03 -0.72133133323E+03  0.23688510465E+03  0.83053660405E+03  0.10100000352E+00 0.  1.
</event>
<event>
 5   0  0.3263294E-04  0.1553305E+04  0.7818609E-02  0.8849760E-01
       -2   -1    0    0    0  501  0.00000000000E+00  0.00000000000E+00  0.31881905325E+03  0.31881905326E+03  0.25500000920E-02 0.  1.
        2   -1    0    0  501    0  0.00000000000E+00  0.00000000000E+00 -0.18919477742E+04  0.18919477742E+04  0.25500000920E-02 0. -1.
    10030    2    1    2    0    0  0.00000000000E+00  0.00000000000E+00 -0.15731287209E+04  0.22107668274E+04  0.15533048615E+04 0.  0.
        4    1    3    3  502    0  0.91672853518E+02  0.76656254507E+03 -0.90704147836E+03  0.11911120451E+04  0.12699999809E+01 0.  1.
       -4    1    3    3    0  502 -0.91672853518E+02 -0.76656254507E+03 -0.66608724255E+03  0.10196547823E+04  0.12699999809E+01 0. -1.
</event>
<event>
 5   0  0.3380454E-04  0.1598951E+04  0.7818609E-02  0.8821193E-01
       -2   -1    0    0    0  501  0.00000000000E+00  0.00000000000E+00  0.24266797322E+03  0.24266797324E+03  0.25500000920E-02 0.  1.
        2   -1    0    0  501    0  0.00000000000E+00  0.00000000000E+00 -0.26338917712E+04  0.26338917712E+04  0.25500000920E-02 0. -1.
    10030    2    1    2    0    0  0.00000000000E+00  0.00000000000E+00 -0.23912237980E+04  0.28765597444E+04  0.15989511285E+04 0.  0.
        5    1    3    3  502    0 -0.19631372914E+03 -0.69348987512E+03 -0.18179610789E+04  0.19556256956E+04  0.46999998093E+01 0. -1.
       -5    1    3    3    0  502  0.19631372914E+03  0.69348987512E+03 -0.57326271913E+03  0.92093404882E+03  0.46999998093E+01 0.  1.
</event>
<event>
 5   0  0.1819811E-04  0.1603552E+04  0.7818609E-02  0.8818369E-01
       -1   -1    0    0    0  501  0.00000000000E+00  0.00000000000E+00  0.25588678183E+03  0.25588678187E+03  0.50400001928E-02 0. -1.
        1   -1    0    0  501    0  0.00000000000E+00  0.00000000000E+00 -0.25122228117E+04  0.25122228117E+04  0.50400001928E-02 0.  1.
    10030    2    1    2    0    0  0.00000000000E+00  0.00000000000E+00 -0.22563360298E+04  0.27681095935E+04  0.16035518209E+04 0.  0.
        1    1    3    3  502    0  0.17254983009E+03  0.32028567606E+03 -0.23615373809E+04  0.23893964007E+04  0.50400001928E-02 0.  1.
       -1    1    3    3    0  502 -0.17254983009E+03 -0.32028567606E+03  0.10520135107E+03  0.37871319286E+03  0.50400001928E-02 0. -1.
</event>
<event>
 5   0  0.1736537E-04  0.1559961E+04  0.7818609E-02  0.8845530E-01
       -1   -1    0    0    0  501  0.00000000000E+00  0.00000000000E+00  0.43057609874E+03  0.43057609877E+03  0.50400001928E-02 0.  1.
        1   -1    0    0  501    0  0.00000000000E+00  0.00000000000E+00 -0.14129202527E+04  0.14129202527E+04  0.50400001928E-02 0. -1.
    10030    2    1    2    0    0  0.00000000000E+00  0.00000000000E+00 -0.98234415391E+03  0.18434963514E+04  0.15599611409E+04 0.  0.
        3    1    3    3  502    0 -0.50602182311E+03  0.34931044807E+03 -0.10582851131E+04  0.12239457772E+04  0.10100000352E+00 0. -1.
       -3    1    3    3    0  502  0.50602182311E+03 -0.34931044807E+03  0.75940959211E+02  0.61955057427E+03  0.10100000352E+00 0.  1.
</event>
<event>
 5   0  0.1787688E-04  0.1598883E+04  0.7818609E-02  0.8821234E-01
       -1   -1    0    0    0  501  0.00000000000E+00  0.00000000000E+00  0.48255942407E+03  0.48255942409E+03  0.50400001928E-02 0. -1.
        1   -1    0    0  501    0  0.00000000000E+00  0.00000000000E+00 -0.13244108495E+04  0.13244108495E+04  0.50400001928E-02 0.  1.
    10030    2    1    2    0    0  0.00000000000E+00  0.00000000000E+00 -0.84185142540E+03  0.18069702736E+04  0.15988832813E+04 0.  0.
        4    1    3    3  502    0 -0.50864391501E+03  0.59906739776E+03 -0.58665658271E+03  0.98069767935E+03  0.12699999809E+01 0.  1.
       -4    1    3    3    0  502  0.50864391501E+03 -0.59906739776E+03 -0.25519484269E+03  0.82627259423E+03  0.12699999809E+01 0. -1.
</event>
<event>
 5   0  0.1764099E-04  0.1603406E+04  0.7818609E-02  0.8818458E-01
        1   -1    0    0  501    0  0.00000000000E+00  0.00000000000E+00  0.13311168831E+04  0.13311168831E+04  0.50400001928E-02 0. -1.
       -1   -1    0    0    0  501  0.00000000000E+00  0.00000000000E+00 -0.48284843361E+03  0.48284843363E+03  0.50400001928E-02 0.  1.
    10030    2    1    2    0    0  0.00000000000E+00  0.00000000000E+00  0.84826844945E+03  0.18139653167E+04  0.16034060022E+04 0.  0.
        5    1    3    3  502    0  0.64363049547E+03 -0.39245865158E+03  0.73276198506E+03  0.10513069127E+04  0.46999998093E+01 0. -1.
       -5    1    3    3    0  502 -0.64363049547E+03  0.39245865158E+03  0.11550646439E+03  0.76265840402E+03  0.46999998093E+01 0.  1.
</event>
<event>
 5   0  0.3274900E-04  0.1604362E+04  0.7818609E-02  0.8817873E-01
        2   -1    0    0  501    0  0.00000000000E+00  0.00000000000E+00  0.16271278605E+04  0.16271278605E+04  0.25500000920E-02 0. -1.
       -2   -1    0    0    0  501  0.00000000000E+00  0.00000000000E+00 -0.39547871496E+03  0.39547871496E+03  0.25500000920E-02 0.  1.
    10030    2    1    2    0    0  0.00000000000E+00  0.00000000000E+00  0.12316491456E+04  0.20226065755E+04  0.16043620980E+04 0.  0.
        3    1    3    3  502    0 -0.45312256584E+03 -0.64841906017E+03  0.44797210902E+03  0.90909095141E+03  0.10100000352E+00 0. -1.
       -3    1    3    3    0  502  0.45312256584E+03  0.64841906017E+03  0.78367703654E+03  0.11135156241E+04  0.10100000352E+00 0.  1.
</event>
<event>
 5   0  0.1761255E-04  0.1591269E+04  0.7818609E-02  0.8825930E-01
       -1   -1    0    0    0  501  0.00000000000E+00  0.00000000000E+00  0.16670523608E+04  0.16670523608E+04  0.50400001928E-02 0. -1.
        1   -1    0    0  501    0  0.00000000000E+00  0.00000000000E+00 -0.37973268789E+03  0.37973268792E+03  0.50400001928E-02 0.  1.
    10030    2    1    2    0    0  0.00000000000E+00  0.00000000000E+00  0.12873196729E+04  0.20467850488E+04  0.15912690205E+04 0.  0.
        2    1    3    3  502    0 -0.69031704496E+03 -0.13189139560E+03  0.11233869222E+04  0.13251155194E+04  0.25500000920E-02 0. -1.
       -2    1    3    3    0  502  0.69031704496E+03  0.13189139560E+03  0.16393275070E+03  0.72166952932E+03  0.25500000920E-02 0.  1.
</event>
<event>
 5   0  0.1787688E-04  0.1602867E+04  0.7818609E-02  0.8818789E-01
        1   -1    0    0  501    0  0.00000000000E+00  0.00000000000E+00  0.14135018629E+04  0.14135018629E+04  0.50400001928E-02 0.  1.
       -1   -1    0    0    0  501  0.00000000000E+00  0.00000000000E+00 -0.45440003809E+03  0.45440003812E+03  0.50400001928E-02 0. -1.
    10030    2    1    2    0    0  0.00000000000E+00  0.00000000000E+00  0.95910182482E+03  0.18679019010E+04  0.16028665576E+04 0.  0.
        4    1    3    3  502    0 -0.12989567335E+03  0.28687965474E+03 -0.37927460565E+03  0.49297430121E+03  0.12699999809E+01 0. -1.
       -4    1    3    3    0  502  0.12989567335E+03 -0.28687965474E+03  0.13383764305E+04  0.13749275998E+04  0.12699999809E+01 0.  1.
</event>
<event>
 5   0  0.1736537E-04  0.1597561E+04  0.7818609E-02  0.8822048E-01
       -1   -1    0    0    0  501  0.00000000000E+00  0.00000000000E+00  0.28378154540E+03  0.28378154545E+03  0.50400001928E-02 0.  1.
        1   -1    0    0  501    0  0.00000000000E+00  0.00000000000E+00 -0.22483854566E+04  0.22483854566E+04  0.50400001928E-02 0. -1.
    10030    2    1    2    0    0  0.00000000000E+00  0.00000000000E+00 -0.19646039112E+04  0.25321670020E+04  0.15975610155E+04 0.  0.
        3    1    3    3  502    0 -0.27449380136E+03 -0.74284814623E+03 -0.11476316323E+04  0.13943559764E+04  0.10100000352E+00 0. -1.
       -3    1    3    3    0  502  0.27449380136E+03  0.74284814623E+03 -0.81697227889E+03  0.11378110256E+04  0.10100000352E+00 0.  1.
</event>
<event>
 5   0  0.1787688E-04  0.1589928E+04  0.7818609E-02  0.8826760E-01
        1   -1    0    0  501    0  0.00000000000E+00  0.00000000000E+00  0.12846067414E+04  0.12846067414E+04  0.50400001928E-02 0. -1.
       -1   -1    0    0    0  501  0.00000000000E+00  0.00000000000E+00 -0.49195416940E+03  0.49195416943E+03  0.50400001928E-02 0.  1.
    10030    2    1    2    0    0  0.00000000000E+00  0.00000000000E+00  0.79265257203E+03  0.17765609109E+04  0.15899278506E+04 0.  0.
        4    1    3    3  502    0  0.37996302526E+03 -0.56644362270E+03  0.85259117612E+03  0.10918532890E+04  0.12699999809E+01 0. -1.
       -4    1    3    3    0  502 -0.37996302526E+03  0.56644362270E+03 -0.59938604095E+02  0.68470762185E+03  0.12699999809E+01 0.  1.
</event>
<event>
 5   0  0.3210612E-04  0.1602765E+04  0.7818609E-02  0.8818851E-01
        2   -1    0    0  501    0  0.00000000000E+00  0.00000000000E+00  0.12152020732E+04  0.12152020732E+04  0.25500000920E-02 0.  1.
       -2   -1    0    0    0  501  0.00000000000E+00  0.00000000000E+00 -0.52848334211E+03  0.52848334211E+03  0.25500000920E-02 0. -1.
    10030    2    1    2    0    0  0.00000000000E+00  0.00000000000E+00  0.68671873114E+03  0.17436854154E+04  0.16027651768E+04 0.  0.
        2    1    3    3  502    0 -0.17576362202E+03  0.56214157128E+03 -0.24785263040E+03  0.63900463487E+03  0.25500000920E-02 0. -1.
       -2    1    3    3    0  502  0.17576362202E+03 -0.56214157128E+03  0.93457136153E+03  0.11046807805E+04  0.25500000920E-02 0.  1.
</event>
<event>
 5   0  0.3380454E-04  0.1712137E+04  0.7818609E-02  0.8754472E-01
       -2   -1    0    0    0  501  0.00000000000E+00  0.00000000000E+00  0.12521493976E+04  0.12521493976E+04  0.25500000920E-02 0. -1.
        2   -1    0    0  501    0  0.00000000000E+00  0.00000000000E+00 -0.58527655440E+03  0.58527655440E+03  0.25500000920E-02 0.  1.
    10030    2    1    2    0    0  0.00000000000E+00  0.00000000000E+00  0.66687284324E+03  0.18374259520E+04  0.17121374770E+04 0.  0.
        5    1    3    3  502    0  0.43754356022E+03 -0.73364178621E+03  0.27313805067E+03  0.89682836835E+03  0.46999998093E+01 0.  1.
       -5    1    3    3    0  502 -0.43754356022E+03  0.73364178621E+03  0.39373479257E+03  0.94059758369E+03  0.46999998093E+01 0. -1.
</event>
<event>
 5   0  0.3274900E-04  0.1599557E+04  0.7818609E-02  0.8820820E-01
        2   -1    0    0  501    0  0.00000000000E+00  0.00000000000E+00  0.18631971953E+04  0.18631971953E+04  0.25500000920E-02 0. -1.
       -2   -1    0    0    0  501  0.00000000000E+00  0.00000000000E+00 -0.34330536024E+03  0.34330536025E+03  0.25500000920E-02 0.  1.
    10030    2    1    2    0    0  0.00000000000E+00  0.00000000000E+00  0.15198918351E+04  0.22065025556E+04  0.15995569191E+04 0.  0.
        3    1    3    3  502    0  0.64454944898E+02  0.42535158299E+03  0.16899904993E+04  0.17438882725E+04  0.10100000352E+00 0. -1.
       -3    1    3    3    0  502 -0.64454944898E+02 -0.42535158299E+03 -0.17009866425E+03  0.46261428302E+03  0.10100000352E+00 0.  1.
</event>
<event>
 5   0  0.3380454E-04  0.1583132E+04  0.7818609E-02  0.8830978E-01
       -2   -1    0    0    0  501  0.00000000000E+00  0.00000000000E+00  0.28051338109E+03  0.28051338110E+03  0.25500000920E-02 0.  1.
        2   -1    0    0  501    0  0.00000000000E+00  0.00000000000E+00 -0.22336782485E+04  0.22336782485E+04  0.25500000920E-02 0. -1.
    10030    2    1    2    0    0  0.00000000000E+00  0.00000000000E+00 -0.19531648674E+04  0.25141916296E+04  0.15831318805E+04 0.  0.
        5    1    3    3  502    0 -0.63459274022E+03  0.21177448851E+03 -0.30468098979E+03  0.73512514273E+03  0.46999998093E+01 0.  1.
       -5    1    3    3    0  502  0.63459274022E+03 -0.21177448851E+03 -0.16484838776E+04  0.17790664868E+04  0.46999998093E+01 0. -1.
</event>
<event>
 5   0  0.1787688E-04  0.1603270E+04  0.7818609E-02  0.8818542E-01
       -1   -1    0    0    0  501  0.00000000000E+00  0.00000000000E+00  0.88905688763E+03  0.88905688764E+03  0.50400001928E-02 0. -1.
        1   -1    0    0  501    0  0.00000000000E+00  0.00000000000E+00 -0.72280941313E+03  0.72280941315E+03  0.50400001928E-02 0.  1.
    10030    2    1    2    0    0  0.00000000000E+00  0.00000000000E+00  0.16624747450E+03  0.16118663008E+04  0.16032700174E+04 0.  0.
        4    1    3    3  502    0  0.24812480991E+03 -0.72590171289E+03 -0.15075602138E+03  0.78181085242E+03  0.12699999809E+01 0.  1.
       -4    1    3    3    0  502 -0.24812480991E+03  0.72590171289E+03  0.31700349588E+03  0.83005544837E+03  0.12699999809E+01 0. -1.
</event>
<event>
 5   0  0.1764099E-04  0.1597093E+04  0.7818609E-02  0.8822336E-01
        1   -1    0    0  501    0  0.00000000000E+00  0.00000000000E+00  0.53178888765E+03  0.53178888767E+03  0.50400001928E-02 0. -1.
       -1   -1    0    0    0  501  0.00000000000E+00  0.00000000000E+00 -0.11991153728E+04  0.11991153728E+04  0.50400001928E-02 0.  1.
    10030    2    1    2    0    0  0.00000000000E+00  0.00000000000E+00 -0.66732648512E+03  0.17309042604E+04  0.15970926464E+04 0.  0.
        5    1    3    3  502    0 -0.25268586738E+03  0.61702012515E+03  0.14257361698E+03  0.68184551672E+03  0.46999998093E+01 0. -1.
       -5    1    3    3    0  502  0.25268586738E+03 -0.61702012515E+03 -0.80990010210E+03  0.10490587437E+04  0.46999998093E+01 0.  1.
</event>
<event>
 5   0  0.1736537E-04  0.1594726E+04  0.7818609E-02  0.8823795E-01
       -1   -1    0    0    0  501  0.00000000000E+00  0.00000000000E+00  0.37156799616E+03  0.37156799619E+03  0.50400001928E-02 0.  1.
        1   -1    0    0  501    0  0.00000000000E+00  0.00000000000E+00 -0.17110933522E+04  0.17110933522E+04  0.50400001928E-02 0. -1.
    10030    2    1    2    0    0  0.00000000000E+00  0.00000000000E+00 -0.13395253561E+04  0.20826613484E+04  0.15947257171E+04 0.  0.
        3    1    3    3  502    0 -0.61591637064E+03  0.45608396870E+03 -0.95714087979E+03  0.12261664798E+04  0.10100000352E+00 0. -1.
       -3    1    3    3    0  502  0.61591637064E+03 -0.45608396870E+03 -0.38238447627E+03  0.85649486865E+03  0.10100000352E+00 0.  1.
</event>
<event>
 5   0  0.1764099E-04  0.1602217E+04  0.7818609E-02  0.8819187E-01
       -1   -1    0    0    0  501  0.00000000000E+00  0.00000000000E+00  0.19171542400E+04  0.19171542400E+04  0.50400001928E-02 0.  1.
        1   -1    0    0  501    0  0.00000000000E+00  0.00000000000E+00 -0.33475394150E+03  0.33475394154E+03  0.50400001928E-02 0. -1.
    10030    2    1    2    0    0  0.00000000000E+00  0.00000000000E+00  0.15824002985E+04  0.22519081816E+04  0.16022171368E+04 0.  0.
        5    1    3    3  502    0 -0.67677371417E+03  0.29115511842E+03  0.34906330888E+03  0.81526759214E+03  0.46999998093E+01 0. -1.
       -5    1    3    3    0  502  0.67677371417E+03 -0.29115511842E+03  0.12333369896E+04  0.14366405894E+04  0.46999998093E+01 0.  1.
</event>
<event>
 5   0  0.3210612E-04  0.1595919E+04  0.7818609E-02  0.8823059E-01
        2   -1    0    0  501    0  0.00000000000E+00  0.00000000000E+00  0.60119129999E+03  0.60119129999E+03  0.25500000920E-02 0.  1.
       -2   -1    0    0    0  501  0.00000000000E+00  0.00000000000E+00 -0.10591296020E+04  0.10591296020E+04  0.25500000920E-02 0. -1.
    10030    2    1    2    0    0  0.00000000000E+00  0.00000000000E+00 -0.45793830205E+03  0.16603209020E+04  0.15959191738E+04 0.  0.
        2    1    3    3  502    0  0.29542389905E+03 -0.55675308464E+03 -0.73809487279E+03  0.97058400906E+03  0.25500000920E-02 0. -1.
       -2    1    3    3    0  502 -0.29542389905E+03  0.55675308464E+03  0.28015657075E+03  0.68973689297E+03  0.25500000920E-02 0.  1.
</event>
<event>
 5   0  0.3274900E-04  0.1615897E+04  0.7818609E-02  0.8810841E-01
       -2   -1    0    0    0  501  0.00000000000E+00  0.00000000000E+00  0.44987269699E+03  0.44987269699E+03  0.25500000920E-02 0. -1.
        2   -1    0    0  501    0  0.00000000000E+00  0.00000000000E+00 -0.14510339465E+04  0.14510339465E+04  0.25500000920E-02 0.  1.
    10030    2    1    2    0    0  0.00000000000E+00  0.00000000000E+00 -0.10011612495E+04  0.19009066434E+04  0.16158967231E+04 0.  0.
        3    1    3    3  502    0 -0.38747884835E+03 -0.69071487729E+03 -0.68863074586E+03  0.10494947422E+04  0.10100000352E+00 0.  1.
       -3    1    3    3    0  502  0.38747884835E+03  0.69071487729E+03 -0.31253050360E+03  0.85141190121E+03  0.10100000352E+00 0. -1.
</event>
<event>
 5   0  0.3274900E-04  0.1600240E+04  0.7818609E-02  0.8820401E-01
       -2   -1    0    0    0  501  0.00000000000E+00  0.00000000000E+00  0.55063007542E+03  0.55063007543E+03  0.25500000920E-02 0. -1.
        2   -1    0    0  501    0  0.00000000000E+00  0.00000000000E+00 -0.11626534833E+04  0.11626534833E+04  0.25500000920E-02 0.  1.
    10030    2    1    2    0    0  0.00000000000E+00  0.00000000000E+00 -0.61202340791E+03  0.17132835588E+04  0.16002399510E+04 0.  0.
        3    1    3    3  502    0  0.80087044413E+02 -0.74330177141E+03 -0.61124881922E+03  0.96567933977E+03  0.10100000352E+00 0.  1.
       -3    1    3    3    0  502 -0.80087044413E+02  0.74330177141E+03 -0.77458869305E+00  0.74760421899E+03  0.10100000352E+00 0. -1.
</event>
<event>
 5   0  0.1761255E-04  0.1592586E+04  0.7818609E-02  0.8825116E-01
       -1   -1    0    0    0  501  0.00000000000E+00  0.00000000000E+00  0.46311585828E+03  0.46311585831E+03  0.50400001928E-02 0.  1.
        1   -1    0    0  501    0  0.00000000000E+00  0.00000000000E+00 -0.13691655899E+04  0.13691655899E+04  0.50400001928E-02 0. -1.
    10030    2    1    2    0    0  0.00000000000E+00  0.00000000000E+00 -0.90604973159E+03  0.18322814482E+04  0.15925856929E+04 0.  0.
        2    1    3    3  502    0  0.54363471756E+03 -0.38463602766E+03  0.49259154155E+02  0.66776496179E+03  0.25500000920E-02 0. -1.
       -2    1    3    3    0  502 -0.54363471756E+03  0.38463602766E+03 -0.95530888574E+03  0.11645164864E+04  0.25500000920E-02 0.  1.
</event>
<event>
 5   0  0.3263294E-04  0.1601415E+04  0.7818609E-02  0.8819679E-01
       -2   -1    0    0    0  501  0.00000000000E+00  0.00000000000E+00  0.78479883840E+03  0.78479883841E+03  0.25500000920E-02 0. -1.
        2   -1    0    0  501    0  0.00000000000E+00  0.00000000000E+00 -0.81693827854E+03  0.81693827854E+03  0.25500000920E-02 0.  1.
    10030    2    1    2    0    0  0.00000000000E+00  0.00000000000E+00 -0.32139440133E+02  0.16017371169E+04  0.16014146397E+04 0.  0.
        4    1    3    3  502    0 -0.63073585466E+03 -0.48342039414E+02 -0.50705137404E+03  0.81072028465E+03  0.12699999809E+01 0.  1.
       -4    1    3    3    0  502  0.63073585466E+03  0.48342039414E+02  0.47491193390E+03  0.79101683230E+03  0.12699999809E+01 0. -1.
</event>
<event>
 5   0  0.3274900E-04  0.1627250E+04  0.7818609E-02  0.8803980E-01
        2   -1    0    0  501    0  0.00000000000E+00  0.00000000000E+00  0.16333595196E+04  0.16333595196E+04  0.25500000920E-02 0. -1.
       -2   -1    0    0    0  501  0.00000000000E+00  0.00000000000E+00 -0.40529106640E+03  0.40529106641E+03  0.25500000920E-02 0.  1.
    10030    2    1    2    0    0  0.00000000000E+00  0.00000000000E+00  0.12280684532E+04  0.20386505861E+04  0.16272504682E+04 0.  0.
        3    1    3    3  502    0  0.19119454412E+03 -0.37007145655E+03  0.14896443932E+04  0.15467865609E+04  0.10100000352E+00 0. -1.
       -3    1    3    3    0  502 -0.19119454412E+03  0.37007145655E+03 -0.26157593996E+03  0.49186402513E+03  0.10100000352E+00 0.  1.
</event>
<event>
 5   0  0.3274900E-04  0.1590917E+04  0.7818609E-02  0.8826148E-01
        2   -1    0    0  501    0  0.00000000000E+00  0.00000000000E+00  0.24014052778E+04  0.24014052778E+04  0.25500000920E-02 0. -1.
       -2   -1    0    0    0  501  0.00000000000E+00  0.00000000000E+00 -0.26349323791E+03  0.26349323793E+03  0.25500000920E-02 0.  1.
    10030    2    1    2    0    0  0.00000000000E+00  0.00000000000E+00  0.21379120399E+04  0.26648985157E+04  0.15909167825E+04 0.  0.
        3    1    3    3  502    0 -0.74113303275E+02 -0.72471740653E+03  0.16040512493E+04  0.17617288445E+04  0.10100000352E+00 0.  1.
       -3    1    3    3    0  502  0.74113303275E+02  0.72471740653E+03  0.53386079056E+03  0.90316967118E+03  0.10100000352E+00 0. -1.
</event>
<event>
 5   0  0.3274900E-04  0.1599928E+04  0.7818609E-02  0.8820592E-01
        2   -1    0    0  501    0  0.00000000000E+00  0.00000000000E+00  0.90373882436E+03  0.90373882436E+03  0.25500000920E-02 0.  1.
       -2   -1    0    0    0  501  0.00000000000E+00  0.00000000000E+00 -0.70810526289E+03  0.70810526290E+03  0.25500000920E-02 0. -1.
    10030    2    1    2    0    0  0.00000000000E+00  0.00000000000E+00  0.19563356147E+03  0.16118440873E+04  0.15999277706E+04 0.  0.
        3    1    3    3  502    0 -0.31724737189E+03 -0.32229274104E+03 -0.56696435411E+03  0.72523588916E+03  0.10100000352E+00 0. -1.
       -3    1    3    3    0  502  0.31724737189E+03  0.32229274104E+03  0.76259791557E+03  0.88660819810E+03  0.10100000352E+00 0.  1.
</event>
<event>
 5   0  0.3380454E-04  0.1615727E+04  0.7818609E-02  0.8810944E-01
       -2   -1    0    0    0  501  0.00000000000E+00  0.00000000000E+00  0.10690400678E+04  0.10690400678E+04  0.25500000920E-02 0. -1.
        2   -1    0    0  501    0  0.00000000000E+00  0.00000000000E+00 -0.61049482816E+03  0.61049482816E+03  0.25500000920E-02 0.  1.
    10030    2    1    2    0    0  0.00000000000E+00  0.00000000000E+00  0.45854523968E+03  0.16795348960E+04  0.16157269974E+04 0.  0.
        5    1    3    3  502    0 -0.18825507520E+03 -0.21262901344E+03  0.10154268913E+04  0.10544026423E+04  0.46999998093E+01 0. -1.
       -5    1    3    3    0  502  0.18825507520E+03  0.21262901344E+03 -0.55688165158E+03  0.62513225365E+03  0.46999998093E+01 0.  1.
</event>
<event>
 5   0  0.1736537E-04  0.1606861E+04  0.7818609E-02  0.8816344E-01
       -1   -1    0    0    0  501  0.00000000000E+00  0.00000000000E+00  0.32840169309E+03  0.32840169313E+03  0.50400001928E-02 0.  1.
        1   -1    0    0  501    0  0.00000000000E+00  0.00000000000E+00 -0.19655814940E+04  0.19655814940E+04  0.50400001928E-02 0. -1.
    10030    2    1    2    0    0  0.00000000000E+00  0.00000000000E+00 -0.16371798009E+04  0.22939831872E+04  0.16068606543E+04 0.  0.
        3    1    3    3  502    0 -0.65322957085E+03 -0.46763214317E+03 -0.80350930423E+03  0.11362288087E+04  0.10100000352E+00 0.  1.
       -3    1    3    3    0  502  0.65322957085E+03  0.46763214317E+03 -0.83367049671E+03  0.11577543785E+04  0.10100000352E+00 0. -1.
</event>
<event>
 5   0  0.1761255E-04  0.1596237E+04  0.7818609E-02  0.8822863E-01
       -1   -1    0    0    0  501  0.00000000000E+00  0.00000000000E+00  0.37059983858E+03  0.37059983862E+03  0.50400001928E-02 0. -1.
        1   -1    0    0  501    0  0.00000000000E+00  0.00000000000E+00 -0.17188161227E+04  0.17188161227E+04  0.50400001928E-02 0.  1.
    10030    2    1    2    0    0  0.00000000000E+00  0.00000000000E+00 -0.13482162841E+04  0.20894159613E+04  0.15962367965E+04 0.  0.
        2    1    3    3  502    0  0.39025262717E+03 -0.16472886118E+03 -0.15595330651E+04  0.16160371567E+04  0.25500000920E-02 0.  1.
       -2    1    3    3    0  502 -0.39025262717E+03  0.16472886118E+03  0.21131678099E+03  0.47337880461E+03  0.25500000920E-02 0. -1.
</event>
<event>
 5   0  0.1787688E-04  0.1601000E+04  0.7818609E-02  0.8819934E-01
       -1   -1    0    0    0  501  0.00000000000E+00  0.00000000000E+00  0.71826446135E+03  0.71826446137E+03  0.50400001928E-02 0.  1.
        1   -1    0    0  501    0  0.00000000000E+00  0.00000000000E+00 -0.89215078287E+03  0.89215078288E+03  0.50400001928E-02 0. -1.
    10030    2    1    2    0    0  0.00000000000E+00  0.00000000000E+00 -0.17388632152E+03  0.16104152442E+04  0.16009999394E+04 0.  0.
        4    1    3    3  502    0  0.23188094896E+03 -0.15504116885E+03  0.66779739726E+03  0.72371369700E+03  0.12699999809E+01 0.  1.
       -4    1    3    3    0  502 -0.23188094896E+03  0.15504116885E+03 -0.84168371878E+03  0.88670154725E+03  0.12699999809E+01 0. -1.
</event>
<event>
 5   0  0.3274900E-04  0.1607502E+04  0.7818609E-02  0.8815952E-01
       -2   -1    0    0    0  501  0.00000000000E+00  0.00000000000E+00  0.68718939864E+03  0.68718939865E+03  0.25500000920E-02 0. -1.
        2   -1    0    0  501    0  0.00000000000E+00  0.00000000000E+00 -0.94008435301E+03  0.94008435301E+03  0.25500000920E-02 0.  1.
    10030    2    1    2    0    0  0.00000000000E+00  0.00000000000E+00 -0.25289495436E+03  0.16272737517E+04  0.16075024121E+04 0.  0.
        3    1    3    3  502    0  0.47991904842E+03  0.60520087226E+03 -0.35150056224E+03  0.84861242289E+03  0.10100000352E+00 0. -1.
       -3    1    3    3    0  502 -0.47991904842E+03 -0.60520087226E+03  0.98605607874E+02  0.77866132877E+03  0.10100000352E+00 0.  1.
</event>
<event>
 5   0  0.3274900E-04  0.1599503E+04  0.7818609E-02  0.8820853E-01
        2   -1    0    0  501    0  0.00000000000E+00  0.00000000000E+00  0.67296386926E+03  0.67296386926E+03  0.25500000920E-02 0.  1.
       -2   -1    0    0    0  501  0.00000000000E+00  0.00000000000E+00 -0.95042654232E+03  0.95042654233E+03  0.25500000920E-02 0. -1.
    10030    2    1    2    0    0  0.00000000000E+00  0.00000000000E+00 -0.27746267306E+03  0.16233904116E+04  0.15995033271E+04 0.  0.
        3    1    3    3  502    0  0.31147439586E+03 -0.67278447495E+03 -0.44312267530E+03  0.86372042038E+03  0.10100000352E+00 0. -1.
       -3    1    3    3    0  502 -0.31147439586E+03  0.67278447495E+03  0.16566000224E+03  0.75966999121E+03  0.10100000352E+00 0.  1.
</event>
<event>
 5   0  0.3228393E-04  0.1548123E+04  0.7818609E-02  0.8853068E-01
        2   -1    0    0  501    0  0.00000000000E+00  0.00000000000E+00  0.66058440525E+03  0.66058440525E+03  0.25500000920E-02 0. -1.
       -2   -1    0    0    0  501  0.00000000000E+00  0.00000000000E+00 -0.90703196845E+03  0.90703196845E+03  0.25500000920E-02 0.  1.
    10030    2    1    2    0    0  0.00000000000E+00  0.00000000000E+00 -0.24644756320E+03  0.15676163737E+04  0.15481229582E+04 0.  0.
        1    1    3    3  502    0 -0.40327206901E+03  0.52680129119E+03 -0.52702218703E+03  0.84729000212E+03  0.50400001928E-02 0.  1.
       -1    1    3    3    0  502  0.40327206901E+03 -0.52680129119E+03  0.28057462383E+03  0.72032637159E+03  0.50400001928E-02 0. -1.
</event>
<event>
 5   0  0.1819811E-04  0.1606931E+04  0.7818609E-02  0.8816302E-01
        1   -1    0    0  501    0  0.00000000000E+00  0.00000000000E+00  0.80551526685E+03  0.80551526686E+03  0.50400001928E-02 0.  1.
       -1   -1    0    0    0  501  0.00000000000E+00  0.00000000000E+00 -0.80142050399E+03  0.80142050401E+03  0.50400001928E-02 0. -1.
    10030    2    1    2    0    0  0.00000000000E+00  0.00000000000E+00  0.40947628543E+01  0.16069357709E+04  0.16069305538E+04 0.  0.
        1    1    3    3  502    0 -0.65322640152E+03  0.39401537337E+03 -0.25015098899E+03  0.80282523840E+03  0.50400001928E-02 0. -1.
       -1    1    3    3    0  502  0.65322640152E+03 -0.39401537337E+03  0.25424575184E+03  0.80411053248E+03  0.50400001928E-02 0.  1.
</event>
<event>
 5   0  0.3210612E-04  0.1597110E+04  0.7818609E-02  0.8822325E-01
        2   -1    0    0  501    0  0.00000000000E+00  0.00000000000E+00  0.31510452290E+04  0.31510452290E+04  0.25500000920E-02 0.  1.
       -2   -1    0    0    0  501  0.00000000000E+00  0.00000000000E+00 -0.20237411471E+03  0.20237411472E+03  0.25500000920E-02 0. -1.
    10030    2    1    2    0    0  0.00000000000E+00  0.00000000000E+00  0.29486711143E+04  0.33534193437E+04  0.15971098755E+04 0.  0.
        2    1    3    3  502    0  0.22775643956E+03 -0.73232614622E+03  0.19415575236E+04  0.20875392685E+04  0.25500000920E-02 0.  1.
       -2    1    3    3    0  502 -0.22775643956E+03  0.73232614622E+03  0.10071135907E+04  0.12658800752E+04  0.25500000920E-02 0. -1.
</event>
<event>
 5   0  0.3274900E-04  0.1597947E+04  0.7818609E-02  0.8821810E-01
        2   -1    0    0  501    0  0.00000000000E+00  0.00000000000E+00  0.78414521737E+03  0.78414521737E+03  0.25500000920E-02 0. -1.
       -2   -1    0    0    0  501  0.00000000000E+00  0.00000000000E+00 -0.81408203610E+03  0.81408203610E+03  0.25500000920E-02 0.  1.
    10030    2    1    2    0    0  0.00000000000E+00  0.00000000000E+00 -0.29936818729E+02  0.15982272535E+04  0.15979468516E+04 0.  0.
        3    1    3    3  502    0  0.56762990441E+03 -0.15564096476E+03 -0.55536934340E+03  0.80923602001E+03  0.10100000352E+00 0.  1.
       -3    1    3    3    0  502 -0.56762990441E+03  0.15564096476E+03  0.52543252467E+03  0.78899123346E+03  0.10100000352E+00 0. -1.
</event>
<event>
 5   0  0.1819811E-04  0.1613101E+04  0.7818609E-02  0.8812540E-01
        1   -1    0    0  501    0  0.00000000000E+00  0.00000000000E+00  0.72970705099E+03  0.72970705101E+03  0.50400001928E-02 0. -1.
       -1   -1    0    0    0  501  0.00000000000E+00  0.00000000000E+00 -0.89148644260E+03  0.89148644262E+03  0.50400001928E-02 0.  1.
    10030    2    1    2    0    0  0.00000000000E+00  0.00000000000E+00 -0.16177939161E+03  0.16211934936E+04  0.16131012901E+04 0.  0.
        1    1    3    3  502    0  0.35365836418E+03 -0.26046950534E+03 -0.76074854699E+03  0.87844006827E+03  0.50400001928E-02 0.  1.
       -1    1    3    3    0  502 -0.35365836418E+03  0.26046950534E+03  0.59896915537E+03  0.74275342536E+03  0.50400001928E-02 0. -1.
</event>
<event>
 5   0  0.3263294E-04  0.1602692E+04  0.7818609E-02  0.8818896E-01
       -2   -1    0    0    0  501  0.00000000000E+00  0.00000000000E+00  0.32200061547E+03  0.32200061548E+03  0.25500000920E-02 0.  1.
        2   -1    0    0  501    0  0.00000000000E+00  0.00000000000E+00 -0.19942684854E+04  0.19942684854E+04  0.25500000920E-02 0. -1.
    10030    2    1    2    0    0  0.00000000000E+00  0.00000000000E+00 -0.16722678699E+04  0.23162691009E+04  0.16026923345E+04 0.  0.
        4    1    3    3  502    0 -0.35927932547E+03 -0.11733434084E+03 -0.18573599009E+04  0.18954251226E+04  0.12699999809E+01 0. -1.
       -4    1    3    3    0  502  0.35927932547E+03  0.11733434084E+03  0.18509203091E+03  0.42084397829E+03  0.12699999809E+01 0.  1.
</event>
<event>
 5   0  0.1219463E-04  0.1596078E+04  0.7818609E-02  0.8822961E-01
       -3   -1    0    0    0  501  0.00000000000E+00  0.00000000000E+00  0.10094529903E+04  0.10094529954E+04  0.10100000352E+00 0.  1.
        3   -1    0    0  501    0  0.00000000000E+00  0.00000000000E+00 -0.63090199925E+03  0.63090200733E+03  0.10100000352E+00 0. -1.
    10030    2    1    2    0    0  0.00000000000E+00  0.00000000000E+00  0.37855099110E+03  0.16403550027E+04  0.15960775928E+04 0.  0.
        2    1    3    3  502    0 -0.43293503837E+03 -0.26765846305E+03  0.82097464854E+03  0.96595712836E+03  0.25500000920E-02 0.  1.
       -2    1    3    3    0  502  0.43293503837E+03  0.26765846305E+03 -0.44242365744E+03  0.67439787437E+03  0.25500000920E-02 0. -1.
</event>
<event>
 5   0  0.3380454E-04  0.1605530E+04  0.7818609E-02  0.8817158E-01
        2   -1    0    0  501    0  0.00000000000E+00  0.00000000000E+00  0.19082175525E+04  0.19082175525E+04  0.25500000920E-02 0. -1.
       -2   -1    0    0    0  501  0.00000000000E+00  0.00000000000E+00 -0.33771406572E+03  0.33771406573E+03  0.25500000920E-02 0.  1.
    10030    2    1    2    0    0  0.00000000000E+00  0.00000000000E+00  0.15705034868E+04  0.22459316183E+04  0.16055303273E+04 0.  0.
        5    1    3    3  502    0  0.30638627644E+03 -0.53152890641E+03  0.61054295084E+02  0.61655919885E+03  0.46999998093E+01 0.  1.
       -5    1    3    3    0  502 -0.30638627644E+03  0.53152890641E+03  0.15094491917E+04  0.16293724194E+04  0.46999998093E+01 0. -1.
</event>
<event>
 5   0  0.3263294E-04  0.1582730E+04  0.7818609E-02  0.8831228E-01
        2   -1    0    0  501    0  0.00000000000E+00  0.00000000000E+00  0.51636380513E+03  0.51636380514E+03  0.25500000920E-02 0. -1.
       -2   -1    0    0    0  501  0.00000000000E+00  0.00000000000E+00 -0.12128243859E+04  0.12128243859E+04  0.25500000920E-02 0.  1.
    10030    2    1    2    0    0  0.00000000000E+00  0.00000000000E+00 -0.69646058073E+03  0.17291881910E+04  0.15827300652E+04 0.  0.
        4    1    3    3  502    0 -0.43626220729E+03 -0.50200638095E+03  0.12031557495E+03  0.67587910938E+03  0.12699999809E+01 0. -1.
       -4    1    3    3    0  502  0.43626220729E+03  0.50200638095E+03 -0.81677615568E+03  0.10533090816E+04  0.12699999809E+01 0.  1.
</event>
<event>
 5   0  0.3274900E-04  0.1585453E+04  0.7818609E-02  0.8829535E-01
       -2   -1    0    0    0  501  0.00000000000E+00  0.00000000000E+00  0.48451274234E+03  0.48451274235E+03  0.25500000920E-02 0. -1.
        2   -1    0    0  501    0  0.00000000000E+00  0.00000000000E+00 -0.12970049337E+04  0.12970049337E+04  0.25500000920E-02 0.  1.
    10030    2    1    2    0    0  0.00000000000E+00  0.00000000000E+00 -0.81249219134E+03  0.17815176760E+04  0.15854531431E+04 0.  0.
        3    1    3    3  502    0 -0.41511264447E+03 -0.12374000077E+03 -0.11522657708E+04  0.12309941154E+04  0.10100000352E+00 0.  1.
       -3    1    3    3    0  502  0.41511264447E+03  0.12374000077E+03  0.33977357942E+03  0.55052356068E+03  0.10100000352E+00 0. -1.
</event>
<event>
 5   0  0.3274900E-04  0.1608583E+04  0.7818609E-02  0.8815293E-01
        2   -1    0    0  501    0  0.00000000000E+00  0.00000000000E+00  0.91480065092E+03  0.91480065092E+03  0.25500000920E-02 0.  1.
       -2   -1    0    0    0  501  0.00000000000E+00  0.00000000000E+00 -0.70713187893E+03  0.70713187893E+03  0.25500000920E-02 0. -1.
    10030    2    1    2    0    0  0.00000000000E+00  0.00000000000E+00  0.20766877199E+03  0.16219325299E+04  0.16085828585E+04 0.  0.
        3    1    3    3  502    0  0.18476545251E+03 -0.40349920433E+03 -0.57250417049E+03  0.72436932277E+03  0.10100000352E+00 0. -1.
       -3    1    3    3    0  502 -0.18476545251E+03  0.40349920433E+03  0.78017294248E+03  0.89756320709E+03  0.10100000352E+00 0.  1.
</event>
<event>
 5   0  0.3210612E-04  0.1593306E+04  0.7818609E-02  0.8824671E-01
        2   -1    0    0  501    0  0.00000000000E+00  0.00000000000E+00  0.11367511669E+04  0.11367511669E+04  0.25500000920E-02 0. -1.
       -2   -1    0    0    0  501  0.00000000000E+00  0.00000000000E+00 -0.55830697362E+03  0.55830697363E+03  0.25500000920E-02 0.  1.
    10030    2    1    2    0    0  0.00000000000E+00  0.00000000000E+00  0.57844419324E+03  0.16950581405E+04  0.15933061272E+04 0.  0.
        2    1    3    3  502    0 -0.59680414378E+03  0.51107352354E+03  0.14935447471E+03  0.79979878195E+03  0.25500000920E-02 0.  1.
       -2    1    3    3    0  502  0.59680414378E+03 -0.51107352354E+03  0.42908971852E+03  0.89525935853E+03  0.25500000920E-02 0. -1.
</event>
<event>
 5   0  0.3274900E-04  0.1584476E+04  0.7818609E-02  0.8830142E-01
       -2   -1    0    0    0  501  0.00000000000E+00  0.00000000000E+00  0.50068035655E+03  0.50068035656E+03  0.25500000920E-02 0. -1.
        2   -1    0    0  501    0  0.00000000000E+00  0.00000000000E+00 -0.12535770481E+04  0.12535770481E+04  0.25500000920E-02 0.  1.
    10030    2    1    2    0    0  0.00000000000E+00  0.00000000000E+00 -0.75289669156E+03  0.17542574047E+04  0.15844764478E+04 0.  0.
        3    1    3    3  502    0  0.11852470715E+03  0.13401148832E+03  0.47802269057E+03  0.51040463174E+03  0.10100000352E+00 0. -1.
       -3    1    3    3    0  502 -0.11852470715E+03 -0.13401148832E+03 -0.12309193821E+04  0.12438527729E+04  0.10100000352E+00 0.  1.
</event>
<event>
 5   0  0.1764099E-04  0.1613512E+04  0.7818609E-02  0.8812290E-01
       -1   -1    0    0    0  501  0.00000000000E+00  0.00000000000E+00  0.39403840413E+03  0.39403840416E+03  0.50400001928E-02 0. -1.
        1   -1    0    0  501    0  0.00000000000E+00  0.00000000000E+00 -0.16517549510E+04  0.16517549510E+04  0.50400001928E-02 0.  1.
    10030    2    1    2    0    0  0.00000000000E+00  0.00000000000E+00 -0.12577165469E+04  0.20457933552E+04  0.16135115555E+04 0.  0.
        5    1    3    3  502    0  0.76489268883E+03  0.14609072596E+03 -0.89611290880E+03  0.11871999667E+04  0.46999998093E+01 0.  1.
       -5    1    3    3    0  502 -0.76489268883E+03 -0.14609072596E+03 -0.36160363807E+03  0.85859338845E+03  0.46999998093E+01 0. -1.
</event>
<event>
 5   0  0.3228393E-04  0.1590007E+04  0.7818609E-02  0.8826711E-01
       -2   -1    0    0    0  501  0.00000000000E+00  0.00000000000E+00  0.31185673231E+03  0.31185673232E+03  0.25500000920E-02 0. -1.
        2   -1    0    0  501    0  0.00000000000E+00  0.00000000000E+00 -0.20266693886E+04  0.20266693886E+04  0.25500000920E-02 0.  1.
    10030    2    1    2    0    0  0.00000000000E+00  0.00000000000E+00 -0.17148126563E+04  0.23385261209E+04  0.15900069094E+04 0.  0.
        1    1    3    3  502    0 -0.83862552995E+02  0.35918905594E+03  0.17839303703E+03  0.40972403077E+03  0.50400001928E-02 0. -1.
       -1    1    3    3    0  502  0.83862552995E+02 -0.35918905594E+03 -0.18932056933E+04  0.19288020901E+04  0.50400001928E-02 0.  1.
</event>
<event>
 5   0  0.1736537E-04  0.1617549E+04  0.7818609E-02  0.8809839E-01
        1   -1    0    0  501    0  0.00000000000E+00  0.00000000000E+00  0.10497363630E+04  0.10497363630E+04  0.50400001928E-02 0.  1.
       -1   -1    0    0    0  501  0.00000000000E+00  0.00000000000E+00 -0.62312463453E+03  0.62312463455E+03  0.50400001928E-02 0. -1.
    10030    2    1    2    0    0  0.00000000000E+00  0.00000000000E+00  0.42661172845E+03  0.16728609975E+04  0.16175494893E+04 0.  0.
        3    1    3    3  502    0 -0.20921023928E+03  0.33648324379E+03 -0.51587592618E+03  0.65047511788E+03  0.10100000352E+00 0. -1.
       -3    1    3    3    0  502  0.20921023928E+03 -0.33648324379E+03  0.94248765463E+03  0.10223858797E+04  0.10100000352E+00 0.  1.
</event>
<event>
 5   0  0.3263294E-04  0.1582950E+04  0.7818609E-02  0.8831091E-01
       -2   -1    0    0    0  501  0.00000000000E+00  0.00000000000E+00  0.32370547537E+03  0.32370547538E+03  0.25500000920E-02 0. -1.
        2   -1    0    0  501    0  0.00000000000E+00  0.00000000000E+00 -0.19351940308E+04  0.19351940308E+04  0.25500000920E-02 0.  1.
    10030    2    1    2    0    0  0.00000000000E+00  0.00000000000E+00 -0.16114885555E+04  0.22588995062E+04  0.15829502882E+04 0.  0.
        4    1    3    3  502    0  0.19307729759E+03  0.59116995600E+03 -0.15043577450E+04  0.16278373990E+04  0.12699999809E+01 0.  1.
       -4    1    3    3    0  502 -0.19307729759E+03 -0.59116995600E+03 -0.10713081047E+03  0.63106210722E+03  0.12699999809E+01 0. -1.
</event>
<event>
 5   0  0.3263294E-04  0.1603145E+04  0.7818609E-02  0.8818618E-01
       -2   -1    0    0    0  501  0.00000000000E+00  0.00000000000E+00  0.10923012079E+04  0.10923012079E+04  0.25500000920E-02 0.  1.
        2   -1    0    0  501    0  0.00000000000E+00  0.00000000000E+00 -0.58822446049E+03  0.58822446049E+03  0.25500000920E-02 0. -1.
    10030    2    1    2    0    0  0.00000000000E+00  0.00000000000E+00  0.50407674736E+03  0.16805256683E+04  0.16031447704E+04 0.  0.
        4    1    3    3  502    0 -0.38158533700E+02  0.48767904773E+03 -0.41361584704E+03  0.64059863340E+03  0.12699999809E+01 0. -1.
       -4    1    3    3    0  502  0.38158533700E+02 -0.48767904773E+03  0.91769259441E+03  0.10399270349E+04  0.12699999809E+01 0.  1.
</event>
<event>
 5   0  0.1219463E-04  0.1615106E+04  0.7818609E-02  0.8811321E-01
        3   -1    0    0  501    0  0.00000000000E+00  0.00000000000E+00  0.71733195358E+03  0.71733196069E+03  0.10100000352E+00 0. -1.
       -3   -1    0    0    0  501  0.00000000000E+00  0.00000000000E+00 -0.90912118373E+03  0.90912118934E+03  0.10100000352E+00 0.  1.
    10030    2    1    2    0    0  0.00000000000E+00  0.00000000000E+00 -0.19178923016E+03  0.16264531500E+04  0.16151057985E+04 0.  0.
        3    1    3    3  502    0 -0.55867566562E+03  0.46665354401E+03 -0.44800480641E+03  0.85474694867E+03  0.10100000352E+00 0.  1.
       -3    1    3    3    0  502  0.55867566562E+03 -0.46665354401E+03  0.25621557625E+03  0.77170620136E+03  0.10100000352E+00 0. -1.
</event>
<event>
 5   0  0.3263294E-04  0.1600514E+04  0.7818609E-02  0.8820233E-01
       -2   -1    0    0    0  501  0.00000000000E+00  0.00000000000E+00  0.41510721618E+03  0.41510721619E+03  0.25500000920E-02 0. -1.
        2   -1    0    0  501    0  0.00000000000E+00  0.00000000000E+00 -0.15427602702E+04  0.15427602702E+04  0.25500000920E-02 0.  1.
    10030    2    1    2    0    0  0.00000000000E+00  0.00000000000E+00 -0.11276530540E+04  0.19578674864E+04  0.16005135688E+04 0.  0.
        4    1    3    3  502    0  0.39763538899E+03  0.34879311244E+03 -0.12984421169E+04  0.14020428245E+04  0.12699999809E+01 0.  1.
       -4    1    3    3    0  502 -0.39763538899E+03 -0.34879311244E+03  0.17078906289E+03  0.55582466189E+03  0.12699999809E+01 0. -1.
</event>
<event>
 5   0  0.3228393E-04  0.1598460E+04  0.7818609E-02  0.8821495E-01
       -2   -1    0    0    0  501  0.00000000000E+00  0.00000000000E+00  0.53603849776E+03  0.53603849776E+03  0.25500000920E-02 0.  1.
        2   -1    0    0  501    0  0.00000000000E+00  0.00000000000E+00 -0.11916469526E+04  0.11916469526E+04  0.25500000920E-02 0. -1.
    10030    2    1    2    0    0  0.00000000000E+00  0.00000000000E+00 -0.65560845484E+03  0.17276854504E+04  0.15984600619E+04 0.  0.
        1    1    3    3  502    0 -0.60901554860E+03 -0.48801990291E+03 -0.14151845005E+03  0.79315246693E+03  0.50400001928E-02 0. -1.
       -1    1    3    3    0  502  0.60901554860E+03  0.48801990291E+03 -0.51409000479E+03  0.93453298343E+03  0.50400001928E-02 0.  1.
</event>
<event>
 5   0  0.1787688E-04  0.1594722E+04  0.7818609E-02  0.8823797E-01
       -1   -1    0    0    0  501  0.00000000000E+00  0.00000000000E+00  0.72809152553E+03  0.72809152555E+03  0.50400001928E-02 0. -1.
        1   -1    0    0  501    0  0.00000000000E+00  0.00000000000E+00 -0.87322057482E+03  0.87322057483E+03  0.50400001928E-02 0.  1.
    10030    2    1    2    0    0  0.00000000000E+00  0.00000000000E+00 -0.14512904929E+03  0.16013121004E+04  0.15947219199E+04 0.  0.
        4    1    3    3  502    0  0.24605313069E+03  0.74114659739E+03 -0.23429678143E+03  0.81531406012E+03  0.12699999809E+01 0. -1.
       -4    1    3    3    0  502 -0.24605313069E+03 -0.74114659739E+03  0.89167732146E+02  0.78599804026E+03  0.12699999809E+01 0.  1.
</event>
<event>
 5   0  0.1219463E-04  0.1594692E+04  0.7818609E-02  0.8823815E-01
        3   -1    0    0  501    0  0.00000000000E+00  0.00000000000E+00  0.39376245101E+03  0.39376246396E+03  0.10100000352E+00 0. -1.
       -3   -1    0    0    0  501  0.00000000000E+00  0.00000000000E+00 -0.16145800817E+04  0.16145800848E+04  0.10100000352E+00 0.  1.
    10030    2    1    2    0    0  0.00000000000E+00  0.00000000000E+00 -0.12208176307E+04  0.20083425488E+04  0.15946924801E+04 0.  0.
        5    1    3    3  502    0 -0.25157869483E+03  0.37882802948E+03 -0.14352252483E+04  0.15055550866E+04  0.46999998093E+01 0.  1.
       -5    1    3    3    0  502  0.25157869483E+03 -0.37882802948E+03  0.21440761761E+03  0.50278746216E+03  0.46999998093E+01 0. -1.
</event>
<event>
 5   0  0.1764099E-04  0.1607036E+04  0.7818609E-02  0.8816237E-01
       -1   -1    0    0    0  501  0.00000000000E+00  0.00000000000E+00  0.80467875951E+03  0.80467875953E+03  0.50400001928E-02 0. -1.
        1   -1    0    0  501    0  0.00000000000E+00  0.00000000000E+00 -0.80235889735E+03  0.80235889737E+03  0.50400001928E-02 0.  1.
    10030    2    1    2    0    0  0.00000000000E+00  0.00000000000E+00  0.23198621599E+01  0.16070376569E+04  0.16070359825E+04 0.  0.
        5    1    3    3  502    0  0.71312351813E+03 -0.33228435821E+02  0.36990113371E+03  0.80405113008E+03  0.46999998093E+01 0.  1.
       -5    1    3    3    0  502 -0.71312351813E+03  0.33228435821E+02 -0.36758127155E+03  0.80298652682E+03  0.46999998093E+01 0. -1.
</event>
<event>
 5   0  0.3263294E-04  0.1605479E+04  0.7818609E-02  0.8817189E-01
       -2   -1    0    0    0  501  0.00000000000E+00  0.00000000000E+00  0.46281541108E+03  0.46281541109E+03  0.25500000920E-02 0.  1.
        2   -1    0    0  501    0  0.00000000000E+00  0.00000000000E+00 -0.13923272137E+04  0.13923272137E+04  0.25500000920E-02 0. -1.
    10030    2    1    2    0    0  0.00000000000E+00  0.00000000000E+00 -0.92951180260E+03  0.18551426248E+04  0.16054787345E+04 0.  0.
        4    1    3    3  502    0 -0.14483815119E+03  0.24259216978E+03 -0.13329717967E+04  0.13625874191E+04  0.12699999809E+01 0. -1.
       -4    1    3    3    0  502  0.14483815119E+03 -0.24259216978E+03  0.40345999413E+03  0.49255520568E+03  0.12699999809E+01 0.  1.
</event>
<event>
 5   0  0.3228393E-04  0.1591868E+04  0.7818609E-02  0.8825559E-01
       -2   -1    0    0    0  501  0.00000000000E+00  0.00000000000E+00  0.45934430974E+03  0.45934430975E+03  0.25500000920E-02 0. -1.
        2   -1    0    0  501    0  0.00000000000E+00  0.00000000000E+00 -0.13791638429E+04  0.13791638429E+04  0.25500000920E-02 0.  1.
    10030    2    1    2    0    0  0.00000000000E+00  0.00000000000E+00 -0.91981953314E+03  0.18385081526E+04  0.15918681647E+04 0.  0.
        1    1    3    3  502    0 -0.58868034890E+03  0.23568449164E+03  0.95685169933E+02  0.64128572770E+03  0.50400001928E-02 0. -1.
       -1    1    3    3    0  502  0.58868034890E+03 -0.23568449164E+03 -0.10155047031E+04  0.11972224249E+04  0.50400001928E-02 0.  1.
</event>
<event>
 5   0  0.3210612E-04  0.1606935E+04  0.7818609E-02  0.8816299E-01
       -2   -1    0    0    0  501  0.00000000000E+00  0.00000000000E+00  0.10027907010E+04  0.10027907010E+04  0.25500000920E-02 0. -1.
        2   -1    0    0  501    0  0.00000000000E+00  0.00000000000E+00 -0.64376347641E+03  0.64376347641E+03  0.25500000920E-02 0.  1.
    10030    2    1    2    0    0  0.00000000000E+00  0.00000000000E+00  0.35902722463E+03  0.16465541775E+04  0.16069350053E+04 0.  0.
        2    1    3    3  502    0 -0.38674986362E+03  0.58593835017E+03  0.57986515827E+03  0.91057279171E+03  0.25500000920E-02 0. -1.
       -2    1    3    3    0  502  0.38674986362E+03 -0.58593835017E+03 -0.22083793365E+03  0.73598138574E+03  0.25500000920E-02 0.  1.
</event>
<event>
 5   0  0.3380454E-04  0.1596809E+04  0.7818609E-02  0.8822511E-01
        2   -1    0    0  501    0  0.00000000000E+00  0.00000000000E+00  0.13747815293E+04  0.13747815293E+04  0.25500000920E-02 0.  1.
       -2   -1    0    0    0  501  0.00000000000E+00  0.00000000000E+00 -0.46367350213E+03  0.46367350214E+03  0.25500000920E-02 0. -1.
    10030    2    1    2    0    0  0.00000000000E+00  0.00000000000E+00  0.91110802714E+03  0.18384550314E+04  0.15968090260E+04 0.  0.
        5    1    3    3  502    0  0.13931209737E+03 -0.16562534332E+03 -0.42924038495E+03  0.48073798777E+03  0.46999998093E+01 0. -1.
       -5    1    3    3    0  502 -0.13931209737E+03  0.16562534332E+03  0.13403484121E+04  0.13577170436E+04  0.46999998093E+01 0.  1.
</event>
<event>
 5   0  0.3210612E-04  0.1605311E+04  0.7818609E-02  0.8817292E-01
       -2   -1    0    0    0  501  0.00000000000E+00  0.00000000000E+00  0.45120406411E+03  0.45120406412E+03  0.25500000920E-02 0.  1.
        2   -1    0    0  501    0  0.00000000000E+00  0.00000000000E+00 -0.14278589787E+04  0.14278589787E+04  0.25500000920E-02 0. -1.
    10030    2    1    2    0    0  0.00000000000E+00  0.00000000000E+00 -0.97665491459E+03  0.18790630428E+04  0.16053109034E+04 0.  0.
        2    1    3    3  502    0  0.26111497534E+03  0.69210753533E+03 -0.85300296584E+03  0.11290739261E+04  0.25500000920E-02 0. -1.
       -2    1    3    3    0  502 -0.26111497534E+03 -0.69210753533E+03 -0.12365194875E+03  0.74998911675E+03  0.25500000920E-02 0.  1.
</event>
<event>
 5   0  0.1736537E-04  0.1623210E+04  0.7818609E-02  0.8806415E-01
       -1   -1    0    0    0  501  0.00000000000E+00  0.00000000000E+00  0.48391288464E+03  0.48391288467E+03  0.50400001928E-02 0. -1.
        1   -1    0    0  501    0  0.00000000000E+00  0.00000000000E+00 -0.13612015489E+04  0.13612015489E+04  0.50400001928E-02 0.  1.
    10030    2    1    2    0    0  0.00000000000E+00  0.00000000000E+00 -0.87728866422E+03  0.18451144335E+04  0.16232103599E+04 0.  0.
        3    1    3    3  502    0  0.61533455124E+03 -0.37041313287E+03 -0.86828414705E+03  0.11268362211E+04  0.10100000352E+00 0.  1.
       -3    1    3    3    0  502 -0.61533455124E+03  0.37041313287E+03 -0.90045171728E+01  0.71827821245E+03  0.10100000352E+00 0. -1.
</event>
<event>
 5   0  0.3228393E-04  0.1591902E+04  0.7818609E-02  0.8825538E-01
        2   -1    0    0  501    0  0.00000000000E+00  0.00000000000E+00  0.31933326383E+04  0.31933326383E+04  0.25500000920E-02 0. -1.
       -2   -1    0    0    0  501  0.00000000000E+00  0.00000000000E+00 -0.19839405487E+03  0.19839405489E+03  0.25500000920E-02 0.  1.
    10030    2    1    2    0    0  0.00000000000E+00  0.00000000000E+00  0.29949385834E+04  0.33917266932E+04  0.15919022717E+04 0.  0.
        1    1    3    3  502    0  0.44457496218E+03  0.62023480196E+03  0.19795723304E+04  0.21215665717E+04  0.50400001928E-02 0.  1.
       -1    1    3    3    0  502 -0.44457496218E+03 -0.62023480196E+03  0.10153662530E+04  0.12701601215E+04  0.50400001928E-02 0. -1.
</event>
<event>
 5   0  0.1761255E-04  0.1585823E+04  0.7818609E-02  0.8829305E-01
       -1   -1    0    0    0  501  0.00000000000E+00  0.00000000000E+00  0.48560011269E+03  0.48560011271E+03  0.50400001928E-02 0. -1.
        1   -1    0    0  501    0  0.00000000000E+00  0.00000000000E+00 -0.12947040761E+04  0.12947040761E+04  0.50400001928E-02 0.  1.
    10030    2    1    2    0    0  0.00000000000E+00  0.00000000000E+00 -0.80910396345E+03  0.17803041889E+04  0.15858227458E+04 0.  0.
        2    1    3    3  502    0  0.79870723324E+01  0.56686143712E+02  0.48327714439E+03  0.48665584401E+03  0.25500000920E-02 0. -1.
       -2    1    3    3    0  502 -0.79870723324E+01 -0.56686143712E+02 -0.12923811078E+04  0.12936483448E+04  0.25500000920E-02 0.  1.
</event>
<event>
 5   0  0.1787688E-04  0.1618860E+04  0.7818609E-02  0.8809045E-01
        1   -1    0    0  501    0  0.00000000000E+00  0.00000000000E+00  0.60540890971E+03  0.60540890973E+03  0.50400001928E-02 0.  1.
       -1   -1    0    0    0  501  0.00000000000E+00  0.00000000000E+00 -0.10822057728E+04  0.10822057729E+04  0.50400001928E-02 0. -1.
    10030    2    1    2    0    0  0.00000000000E+00  0.00000000000E+00 -0.47679686314E+03  0.16876146826E+04  0.16188601138E+04 0.  0.
        4    1    3    3  502    0  0.10539821086E+03 -0.58202752432E+03 -0.81441490114E+03  0.10065475975E+04  0.12699999809E+01 0. -1.
       -4    1    3    3    0  502 -0.10539821086E+03  0.58202752432E+03  0.33761803800E+03  0.68106708509E+03  0.12699999809E+01 0.  1.
</event>
<event>
 5   0  0.3274900E-04  0.1599738E+04  0.7818609E-02  0.8820709E-01
        2   -1    0    0  501    0  0.00000000000E+00  0.00000000000E+00  0.89022140111E+03  0.89022140111E+03  0.25500000920E-02 0. -1.
       -2   -1    0    0    0  501  0.00000000000E+00  0.00000000000E+00 -0.71868728088E+03  0.71868728088E+03  0.25500000920E-02 0.  1.
    10030    2    1    2    0    0  0.00000000000E+00  0.00000000000E+00  0.17153412023E+03  0.16089086820E+04  0.15997384763E+04 0.  0.
        3    1    3    3  502    0  0.21235667852E+03  0.87104973636E+02  0.85638916140E+03  0.88661437012E+03  0.10100000352E+00 0. -1.
       -3    1    3    3    0  502 -0.21235667852E+03 -0.87104973636E+02 -0.68485504117E+03  0.72229431187E+03  0.10100000352E+00 0.  1.
</event>
<event>
 5   0  0.3380454E-04  0.1598076E+04  0.7818609E-02  0.8821731E-01
        2   -1    0    0  501    0  0.00000000000E+00  0.00000000000E+00  0.59412314283E+03  0.59412314284E+03  0.25500000920E-02 0.  1.
       -2   -1    0    0    0  501  0.00000000000E+00  0.00000000000E+00 -0.10746284299E+04  0.10746284299E+04  0.25500000920E-02 0. -1.
    10030    2    1    2    0    0  0.00000000000E+00  0.00000000000E+00 -0.48050528707E+03  0.16687515727E+04  0.15980758682E+04 0.  0.
        5    1    3    3  502    0  0.17962641356E+03  0.61729005378E+03 -0.73571191800E+03  0.97703980227E+03  0.46999998093E+01 0. -1.
       -5    1    3    3    0  502 -0.17962641356E+03 -0.61729005378E+03  0.25520663092E+03  0.69171177047E+03  0.46999998093E+01 0.  1.
</event>
<event>
 5   0  0.1219463E-04  0.1593177E+04  0.7818609E-02  0.8824751E-01
        3   -1    0    0  501    0  0.00000000000E+00  0.00000000000E+00  0.85098567925E+03  0.85098568525E+03  0.10100000352E+00 0.  1.
       -3   -1    0    0    0  501  0.00000000000E+00  0.00000000000E+00 -0.74566840393E+03  0.74566841077E+03  0.10100000352E+00 0. -1.
    10030    2    1    2    0    0  0.00000000000E+00  0.00000000000E+00  0.10531727532E+03  0.15966540960E+04  0.15931768809E+04 0.  0.
        3    1    3    3  502    0 -0.13348645988E+03 -0.77110773313E+03 -0.96418713078E+02  0.78849372191E+03  0.10100000352E+00 0.  1.
       -3    1    3    3    0  502  0.13348645988E+03  0.77110773313E+03  0.20173598840E+03  0.80816037411E+03  0.10100000352E+00 0. -1.
</event>
<event>
 5   0  0.3380454E-04  0.1596354E+04  0.7818609E-02  0.8822791E-01
        2   -1    0    0  501    0  0.00000000000E+00  0.00000000000E+00  0.10831755704E+04  0.10831755704E+04  0.25500000920E-02 0.  1.
       -2   -1    0    0    0  501  0.00000000000E+00  0.00000000000E+00 -0.58816530930E+03  0.58816530931E+03  0.25500000920E-02 0. -1.
    10030    2    1    2    0    0  0.00000000000E+00  0.00000000000E+00  0.49501026107E+03  0.16713408797E+04  0.15963537132E+04 0.  0.
        5    1    3    3  502    0  0.71449210761E+03  0.35526281318E+03  0.26719175363E+03  0.84150113576E+03  0.46999998093E+01 0. -1.
       -5    1    3    3    0  502 -0.71449210761E+03 -0.35526281318E+03  0.22781850744E+03  0.82983974393E+03  0.46999998093E+01 0.  1.
</event>
<event>
 5   0  0.3228393E-04  0.1605477E+04  0.7818609E-02  0.8817190E-01
       -2   -1    0    0    0  501  0.00000000000E+00  0.00000000000E+00  0.39883138528E+03  0.39883138529E+03  0.25500000920E-02 0. -1.
        2   -1    0    0  501    0  0.00000000000E+00  0.00000000000E+00 -0.16156931390E+04  0.16156931390E+04  0.25500000920E-02 0.  1.
    10030    2    1    2    0    0  0.00000000000E+00  0.00000000000E+00 -0.12168617537E+04  0.20145245243E+04  0.16054770416E+04 0.  0.
        1    1    3    3  502    0 -0.15466590280E+03 -0.66887460368E+02 -0.15932502423E+04  0.16021366386E+04  0.50400001928E-02 0.  1.
       -1    1    3    3    0  502  0.15466590280E+03  0.66887460368E+02  0.37638848867E+03  0.41238788570E+03  0.50400001928E-02 0. -1.
</event>
<event>
 5   0  0.1787688E-04  0.1589891E+04  0.7818609E-02  0.8826783E-01
       -1   -1    0    0    0  501  0.00000000000E+00  0.00000000000E+00  0.55112075324E+03  0.55112075326E+03  0.50400001928E-02 0. -1.
        1   -1    0    0  501    0  0.00000000000E+00  0.00000000000E+00 -0.11466415604E+04  0.11466415605E+04  0.50400001928E-02 0.  1.
    10030    2    1    2    0    0  0.00000000000E+00  0.00000000000E+00 -0.59552080721E+03  0.16977623137E+04  0.15898905126E+04 0.  0.
        4    1    3    3  502    0  0.58850281778E+03  0.97388390838E+02  0.26335950787E+03  0.65205820943E+03  0.12699999809E+01 0. -1.
       -4    1    3    3    0  502 -0.58850281778E+03 -0.97388390838E+02 -0.85888031508E+03  0.10457041043E+04  0.12699999809E+01 0.  1.
</event>
<event>
 5   0  0.1219463E-04  0.1604618E+04  0.7818609E-02  0.8817716E-01
       -3   -1    0    0    0  501  0.00000000000E+00  0.00000000000E+00  0.50238783084E+03  0.50238784099E+03  0.10100000352E+00 0. -1.
        3   -1    0    0  501    0  0.00000000000E+00  0.00000000000E+00 -0.12812808778E+04  0.12812808818E+04  0.10100000352E+00 0.  1.
    10030    2    1    2    0    0  0.00000000000E+00  0.00000000000E+00 -0.77889304695E+03  0.17836687228E+04  0.16046182518E+04 0.  0.
        2    1    3    3  502    0  0.10716916842E+03 -0.43493698709E+03  0.35044176616E+03  0.56873969870E+03  0.25500000920E-02 0. -1.
       -2    1    3    3    0  502 -0.10716916842E+03  0.43493698709E+03 -0.11293348131E+04  0.12149290241E+04  0.25500000920E-02 0.  1.
</event>
<event>
 5   0  0.3380454E-04  0.1599212E+04  0.7818609E-02  0.8821032E-01
       -2   -1    0    0    0  501  0.00000000000E+00  0.00000000000E+00  0.14626697199E+04  0.14626697199E+04  0.25500000920E-02 0.  1.
        2   -1    0    0  501    0  0.00000000000E+00  0.00000000000E+00 -0.43712515928E+03  0.43712515929E+03  0.25500000920E-02 0. -1.
    10030    2    1    2    0    0  0.00000000000E+00  0.00000000000E+00  0.10255445607E+04  0.18997948792E+04  0.15992119738E+04 0.  0.
        5    1    3    3  502    0 -0.12186809643E+03  0.58510666322E+03  0.11437842999E+04  0.12905294476E+04  0.46999998093E+01 0.  1.
       -5    1    3    3    0  502  0.12186809643E+03 -0.58510666322E+03 -0.11823973928E+03  0.60926543166E+03  0.46999998093E+01 0. -1.
</event>
<event>
 5   0  0.3210612E-04  0.1413891E+04  0.7818609E-02  0.8943825E-01
        2   -1    0    0  501    0  0.00000000000E+00  0.00000000000E+00  0.14621541276E+04  0.14621541276E+04  0.25500000920E-02 0.  1.
       -2   -1    0    0    0  501  0.00000000000E+00  0.00000000000E+00 -0.34180507110E+03  0.34180507111E+03  0.25500000920E-02 0. -1.
    10030    2    1    2    0    0  0.00000000000E+00  0.00000000000E+00  0.11203490565E+04  0.18039591987E+04  0.14138906542E+04 0.  0.
        2    1    3    3  502    0  0.14913907104E+03  0.23651191474E+03  0.13886062708E+04  0.14164772231E+04  0.25500000920E-02 0.  1.
       -2    1    3    3    0  502 -0.14913907104E+03 -0.23651191474E+03 -0.26825721434E+03  0.38748197554E+03  0.25500000920E-02 0. -1.
</event>
<event>
 5   0  0.3274900E-04  0.1589343E+04  0.7818609E-02  0.8827122E-01
        2   -1    0    0  501    0  0.00000000000E+00  0.00000000000E+00  0.21732077561E+04  0.21732077561E+04  0.25500000920E-02 0.  1.
       -2   -1    0    0    0  501  0.00000000000E+00  0.00000000000E+00 -0.29058548331E+03  0.29058548332E+03  0.25500000920E-02 0. -1.
    10030    2    1    2    0    0  0.00000000000E+00  0.00000000000E+00  0.18826222728E+04  0.24637932394E+04  0.15893427902E+04 0.  0.
        3    1    3    3  502    0 -0.14109712665E+02 -0.78761784792E+03  0.77900878962E+03  0.11078789026E+04  0.10100000352E+00 0.  1.
       -3    1    3    3    0  502  0.14109712665E+02  0.78761784792E+03  0.11036134832E+04  0.13559143368E+04  0.10100000352E+00 0. -1.
</event>
<event>
 5   0  0.1819811E-04  0.1610666E+04  0.7818609E-02  0.8814022E-01
       -1   -1    0    0    0  501  0.00000000000E+00  0.00000000000E+00  0.14051137701E+04  0.14051137701E+04  0.50400001928E-02 0.  1.
        1   -1    0    0  501    0  0.00000000000E+00  0.00000000000E+00 -0.46157220346E+03  0.46157220349E+03  0.50400001928E-02 0. -1.
    10030    2    1    2    0    0  0.00000000000E+00  0.00000000000E+00  0.94354156663E+03  0.18666859736E+04  0.16106662708E+04 0.  0.
        1    1    3    3  502    0  0.64210894218E+03  0.22815225124E+03 -0.25640193076E+02  0.68191990945E+03  0.50400001928E-02 0. -1.
       -1    1    3    3    0  502 -0.64210894218E+03 -0.22815225124E+03  0.96918175971E+03  0.11847660641E+04  0.50400001928E-02 0.  1.
</event>
<event>
 5   0  0.3274900E-04  0.1601750E+04  0.7818609E-02  0.8819474E-01
        2   -1    0    0  501    0  0.00000000000E+00  0.00000000000E+00  0.10597780908E+04  0.10597780908E+04  0.25500000920E-02 0.  1.
       -2   -1    0    0    0  501  0.00000000000E+00  0.00000000000E+00 -0.60522174920E+03  0.60522174921E+03  0.25500000920E-02 0. -1.
    10030    2    1    2    0    0  0.00000000000E+00  0.00000000000E+00  0.45455634160E+03  0.16649998400E+04  0.16017499803E+04 0.  0.
        3    1    3    3  502    0 -0.94855131386E+02  0.43287566459E+03 -0.46616386065E+03  0.64318550366E+03  0.10100000352E+00 0. -1.
       -3    1    3    3    0  502  0.94855131386E+02 -0.43287566459E+03  0.92072020224E+03  0.10218143363E+04  0.10100000352E+00 0.  1.
</event>
<event>
 5   0  0.3380454E-04  0.1594304E+04  0.7818609E-02  0.8824055E-01
       -2   -1    0    0    0  501  0.00000000000E+00  0.00000000000E+00  0.57669679155E+03  0.57669679155E+03  0.25500000920E-02 0.  1.
        2   -1    0    0  501    0  0.00000000000E+00  0.00000000000E+00 -0.11018809689E+04  0.11018809689E+04  0.25500000920E-02 0. -1.
    10030    2    1    2    0    0  0.00000000000E+00  0.00000000000E+00 -0.52518417735E+03  0.16785777605E+04  0.15943038850E+04 0.  0.
        5    1    3    3  502    0 -0.26365940614E+03 -0.73190053671E+03 -0.79520307681E+02  0.78201038830E+03  0.46999998093E+01 0.  1.
       -5    1    3    3    0  502  0.26365940614E+03  0.73190053671E+03 -0.44566386967E+03  0.89656737215E+03  0.46999998093E+01 0. -1.
</event>
<event>
 5   0  0.1819811E-04  0.1599454E+04  0.7818609E-02  0.8820884E-01
       -1   -1    0    0    0  501  0.00000000000E+00  0.00000000000E+00  0.56838069997E+03  0.56838070000E+03  0.50400001928E-02 0.  1.
        1   -1    0    0  501    0  0.00000000000E+00  0.00000000000E+00 -0.11252375034E+04  0.11252375034E+04  0.50400001928E-02 0. -1.
    10030    2    1    2    0    0  0.00000000000E+00  0.00000000000E+00 -0.55685680339E+03  0.16936182034E+04  0.15994540066E+04 0.  0.
        1    1    3    3  502    0  0.35255774650E+03  0.47395487329E+03  0.29241408437E+03  0.65911773099E+03  0.50400001928E-02 0.  1.
       -1    1    3    3    0  502 -0.35255774650E+03 -0.47395487329E+03 -0.84927088776E+03  0.10345004724E+04  0.50400001928E-02 0. -1.
</event>
<event>
 5   0  0.1761255E-04  0.1607091E+04  0.7818609E-02  0.8816204E-01
        1   -1    0    0  501    0  0.00000000000E+00  0.00000000000E+00  0.18718175526E+04  0.18718175526E+04  0.50400001928E-02 0. -1.
       -1   -1    0    0    0  501  0.00000000000E+00  0.00000000000E+00 -0.34495089583E+03  0.34495089586E+03  0.50400001928E-02 0.  1.
    10030    2    1    2    0    0  0.00000000000E+00  0.00000000000E+00  0.15268666567E+04  0.22167684484E+04  0.16070907151E+04 0.  0.
        2    1    3    3  502    0 -0.57833986916E+03  0.48569643932E+03  0.11419612491E+04  0.13691068365E+04  0.25500000920E-02 0. -1.
       -2    1    3    3    0  502  0.57833986916E+03 -0.48569643932E+03  0.38490540764E+03  0.84766161189E+03  0.25500000920E-02 0.  1.
</event>
<event>
 5   0  0.3263294E-04  0.1471382E+04  0.7818609E-02  0.8903709E-01
        2   -1    0    0  501    0  0.00000000000E+00  0.00000000000E+00  0.10824772006E+04  0.10824772006E+04  0.25500000920E-02 0.  1.
       -2   -1    0    0    0  501  0.00000000000E+00  0.00000000000E+00 -0.50000274446E+03  0.50000274446E+03  0.25500000920E-02 0. -1.
    10030    2    1    2    0    0  0.00000000000E+00  0.00000000000E+00  0.58247445609E+03  0.15824799450E+04  0.14713824399E+04 0.  0.
        4    1    3    3  502    0 -0.19375586274E+02 -0.23738150016E+03  0.10398652274E+04  0.10667927137E+04  0.12699999809E+01 0.  1.
       -4    1    3    3    0  502  0.19375586274E+02  0.23738150016E+03 -0.45739077131E+03  0.51568723131E+03  0.12699999809E+01 0. -1.
</event>
<event>
 5   0  0.3263294E-04  0.1595705E+04  0.7818609E-02  0.8823191E-01
       -2   -1    0    0    0  501  0.00000000000E+00  0.00000000000E+00  0.64616925749E+03  0.64616925749E+03  0.25500000920E-02 0.  1.
        2   -1    0    0  501    0  0.00000000000E+00  0.00000000000E+00 -0.98514185526E+03  0.98514185526E+03  0.25500000920E-02 0. -1.
    10030    2    1    2    0    0  0.00000000000E+00  0.00000000000E+00 -0.33897259777E+03  0.16313111128E+04  0.15957047110E+04 0.  0.
        4    1    3    3  502    0 -0.23616392621E+03 -0.74689598172E+03 -0.14647886759E+02  0.78348144907E+03  0.12699999809E+01 0.  1.
       -4    1    3    3    0  502  0.23616392621E+03  0.74689598172E+03 -0.32432471101E+03  0.84782966368E+03  0.12699999809E+01 0. -1.
</event>
<event>
 5   0  0.3210612E-04  0.1589331E+04  0.7818609E-02  0.8827129E-01
       -2   -1    0    0    0  501  0.00000000000E+00  0.00000000000E+00  0.37838955204E+03  0.37838955205E+03  0.25500000920E-02 0.  1.
        2   -1    0    0  501    0  0.00000000000E+00  0.00000000000E+00 -0.16688972528E+04  0.16688972528E+04  0.25500000920E-02 0. -1.
    10030    2    1    2    0    0  0.00000000000E+00  0.00000000000E+00 -0.12905077007E+04  0.20472868048E+04  0.15893310340E+04 0.  0.
        2    1    3    3  502    0 -0.83929640668E+02  0.19062980457E+03 -0.16331092444E+04  0.16463382736E+04  0.25500000920E-02 0. -1.
       -2    1    3    3    0  502  0.83929640668E+02 -0.19062980457E+03  0.34260154366E+03  0.40094853123E+03  0.25500000920E-02 0.  1.
</event>
<event>
 5   0  0.3228393E-04  0.1605276E+04  0.7818609E-02  0.8817313E-01
       -2   -1    0    0    0  501  0.00000000000E+00  0.00000000000E+00  0.53965979872E+03  0.53965979872E+03  0.25500000920E-02 0. -1.
        2   -1    0    0  501    0  0.00000000000E+00  0.00000000000E+00 -0.11937666179E+04  0.11937666179E+04  0.25500000920E-02 0.  1.
    10030    2    1    2    0    0  0.00000000000E+00  0.00000000000E+00 -0.65410681920E+03  0.17334264166E+04  0.16052761167E+04 0.  0.
        1    1    3    3  502    0 -0.22180968921E+03 -0.33587577026E+02 -0.11592240667E+04  0.11807320189E+04  0.50400001928E-02 0.  1.
       -1    1    3    3    0  502  0.22180968921E+03  0.33587577026E+02  0.50511724750E+03  0.55269439776E+03  0.50400001928E-02 0. -1.
</event>
<event>
 5   0  0.3263294E-04  0.1547912E+04  0.7818609E-02  0.8853203E-01
        2   -1    0    0  501    0  0.00000000000E+00  0.00000000000E+00  0.12878572629E+04  0.12878572629E+04  0.25500000920E-02 0.  1.
       -2   -1    0    0    0  501  0.00000000000E+00  0.00000000000E+00 -0.46511959451E+03  0.46511959451E+03  0.25500000920E-02 0. -1.
    10030    2    1    2    0    0  0.00000000000E+00  0.00000000000E+00  0.82273766838E+03  0.17529768574E+04  0.15479116873E+04 0.  0.
        4    1    3    3  502    0 -0.38181822597E+03 -0.36327929613E+03 -0.23050683840E+03  0.57523214455E+03  0.12699999809E+01 0. -1.
       -4    1    3    3    0  502  0.38181822597E+03  0.36327929613E+03  0.10532445068E+04  0.11777447128E+04  0.12699999809E+01 0.  1.
</event>
<event>
 5   0  0.3274900E-04  0.1616474E+04  0.7818609E-02  0.8810491E-01
        2   -1    0    0  501    0  0.00000000000E+00  0.00000000000E+00  0.45093787712E+03  0.45093787713E+03  0.25500000920E-02 0. -1.
       -2   -1    0    0    0  501  0.00000000000E+00  0.00000000000E+00 -0.14486413834E+04  0.14486413834E+04  0.25500000920E-02 0.  1.
    10030    2    1    2    0    0  0.00000000000E+00  0.00000000000E+00 -0.99770350623E+03  0.18995792605E+04  0.16164742746E+04 0.  0.
        3    1    3    3  502    0 -0.43305627516E+03  0.17715804780E+03 -0.12733060797E+04  0.13565511764E+04  0.10100000352E+00 0.  1.
       -3    1    3    3    0  502  0.43305627516E+03 -0.17715804780E+03  0.27560257350E+03  0.54302808406E+03  0.10100000352E+00 0. -1.
</event>
<event>
 5   0  0.1736537E-04  0.1600695E+04  0.7818609E-02  0.8820121E-01
       -1   -1    0    0    0  501  0.00000000000E+00  0.00000000000E+00  0.57601636174E+03  0.57601636177E+03  0.50400001928E-02 0. -1.
        1   -1    0    0  501    0  0.00000000000E+00  0.00000000000E+00 -0.11120445489E+04  0.11120445489E+04  0.50400001928E-02 0.  1.
    10030    2    1    2    0    0  0.00000000000E+00  0.00000000000E+00 -0.53602818718E+03  0.16880609107E+04  0.16006946682E+04 0.  0.
        3    1    3    3  502    0  0.15981585551E+03 -0.44642599589E+03  0.41193958245E+03  0.62811743111E+03  0.10100000352E+00 0. -1.
       -3    1    3    3    0  502 -0.15981585551E+03  0.44642599589E+03 -0.94796776963E+03  0.10599434796E+04  0.10100000352E+00 0.  1.
</event>
<event>
 5   0  0.1736537E-04  0.1552306E+04  0.7818609E-02  0.8850396E-01
       -1   -1    0    0    0  501  0.00000000000E+00  0.00000000000E+00  0.74932669412E+03  0.74932669414E+03  0.50400001928E-02 0.  1.
        1   -1    0    0  501    0  0.00000000000E+00  0.00000000000E+00 -0.80393999684E+03  0.80393999686E+03  0.50400001928E-02 0. -1.
    10030    2    1    2    0    0  0.00000000000E+00  0.00000000000E+00 -0.54613302725E+02  0.15532666910E+04  0.15523062844E+04 0.  0.
        3    1    3    3  502    0  0.36992580801E+03  0.13389120122E+03  0.64216762964E+03  0.75309443760E+03  0.10100000352E+00 0.  1.
       -3    1    3    3    0  502 -0.36992580801E+03 -0.13389120122E+03 -0.69678093236E+03  0.80017225339E+03  0.10100000352E+00 0. -1.
</event>
<event>
 5   0  0.1787688E-04  0.1606567E+04  0.7818609E-02  0.8816524E-01
        1   -1    0    0  501    0  0.00000000000E+00  0.00000000000E+00  0.10185104541E+04  0.10185104541E+04  0.50400001928E-02 0. -1.
       -1   -1    0    0    0  501  0.00000000000E+00  0.00000000000E+00 -0.63353722126E+03  0.63353722128E+03  0.50400001928E-02 0.  1.
    10030    2    1    2    0    0  0.00000000000E+00  0.00000000000E+00  0.38497323286E+03  0.16520476754E+04  0.16065668775E+04 0.  0.
        4    1    3    3  502    0 -0.52403985102E+01  0.51631768930E+03  0.82525309786E+03  0.97347609446E+03  0.12699999809E+01 0. -1.
       -4    1    3    3    0  502  0.52403985102E+01 -0.51631768930E+03 -0.44027986499E+03  0.67857158096E+03  0.12699999809E+01 0.  1.
</event>
<event>
 5   0  0.1819811E-04  0.1625506E+04  0.7818609E-02  0.8805030E-01
        1   -1    0    0  501    0  0.00000000000E+00  0.00000000000E+00  0.39549116340E+03  0.39549116343E+03  0.50400001928E-02 0.  1.
       -1   -1    0    0    0  501  0.00000000000E+00  0.00000000000E+00 -0.16702466018E+04  0.16702466019E+04  0.50400001928E-02 0. -1.
    10030    2    1    2    0    0  0.00000000000E+00  0.00000000000E+00 -0.12747554384E+04  0.20657377653E+04  0.16255064094E+04 0.  0.
        1    1    3    3  502    0  0.68475050581E+03  0.36731840883E+03 -0.33460676352E+03  0.84603058745E+03  0.50400001928E-02 0.  1.
       -1    1    3    3    0  502 -0.68475050581E+03 -0.36731840883E+03 -0.94014867492E+03  0.12197071778E+04  0.50400001928E-02 0. -1.
</event>
<event>
 5   0  0.3228393E-04  0.1565422E+04  0.7818609E-02  0.8842077E-01
        2   -1    0    0  501    0  0.00000000000E+00  0.00000000000E+00  0.54895280224E+03  0.54895280225E+03  0.25500000920E-02 0.  1.
       -2   -1    0    0    0  501  0.00000000000E+00  0.00000000000E+00 -0.11160096232E+04  0.11160096232E+04  0.25500000920E-02 0. -1.
    10030    2    1    2    0    0  0.00000000000E+00  0.00000000000E+00 -0.56705682094E+03  0.16649624254E+04  0.15654221284E+04 0.  0.
        1    1    3    3  502    0  0.24583801484E+02  0.22870793459E+03  0.51219162368E+03  0.56147301096E+03  0.50400001928E-02 0.  1.
       -1    1    3    3    0  502 -0.24583801484E+02 -0.22870793459E+03 -0.10792484446E+04  0.11034894145E+04  0.50400001928E-02 0. -1.
</event>
<event>
 5   0  0.3263294E-04  0.1615420E+04  0.7818609E-02  0.8811131E-01
        2   -1    0    0  501    0  0.00000000000E+00  0.00000000000E+00  0.26748212870E+04  0.26748212870E+04  0.25500000920E-02 0.  1.
       -2   -1    0    0    0  501  0.00000000000E+00  0.00000000000E+00 -0.24390243333E+03  0.24390243335E+03  0.25500000920E-02 0. -1.
    10030    2    1    2    0    0  0.00000000000E+00  0.00000000000E+00  0.24309188537E+04  0.29187237204E+04  0.16154199710E+04 0.  0.
        4    1    3    3  502    0  0.58889013911E+03 -0.25645964751E+03  0.33062931820E+03  0.72241297448E+03  0.12699999809E+01 0. -1.
       -4    1    3    3    0  502 -0.58889013911E+03  0.25645964751E+03  0.21002895355E+04  0.21963107459E+04  0.12699999809E+01 0.  1.
</event>
<event>
 5   0  0.3210612E-04  0.1597468E+04  0.7818609E-02  0.8822105E-01
       -2   -1    0    0    0  501  0.00000000000E+00  0.00000000000E+00  0.80298686815E+03  0.80298686815E+03  0.25500000920E-02 0.  1.
        2   -1    0    0  501    0  0.00000000000E+00  0.00000000000E+00 -0.79450347540E+03  0.79450347541E+03  0.25500000920E-02 0. -1.
    10030    2    1    2    0    0  0.00000000000E+00  0.00000000000E+00  0.84833927441E+01  0.15974903436E+04  0.15974678181E+04 0.  0.
        2    1    3    3  502    0 -0.51164649568E+03 -0.56147617300E+03 -0.24261847988E+03  0.79743423313E+03  0.25500000920E-02 0. -1.
       -2    1    3    3    0  502  0.51164649568E+03  0.56147617300E+03  0.25110187262E+03  0.80005611043E+03  0.25500000920E-02 0.  1.
</event>
<event>
 5   0  0.1764099E-04  0.1595337E+04  0.7818609E-02  0.8823418E-01
        1   -1    0    0  501    0  0.00000000000E+00  0.00000000000E+00  0.10648740655E+04  0.10648740656E+04  0.50400001928E-02 0. -1.
       -1   -1    0    0    0  501  0.00000000000E+00  0.00000000000E+00 -0.59751164699E+03  0.59751164701E+03  0.50400001928E-02 0.  1.
    10030    2    1    2    0    0  0.00000000000E+00  0.00000000000E+00  0.46736241856E+03  0.16623857126E+04  0.15953365247E+04 0.  0.
        5    1    3    3  502    0  0.20716527998E+03 -0.71953728990E+03 -0.52831465800E+02  0.75064280358E+03  0.46999998093E+01 0.  1.
       -5    1    3    3    0  502 -0.20716527998E+03  0.71953728990E+03  0.52019388436E+03  0.91174290900E+03  0.46999998093E+01 0. -1.
</event>
<event>
 5   0  0.1736537E-04  0.1627160E+04  0.7818609E-02  0.8804034E-01
       -1   -1    0    0    0  501  0.00000000000E+00  0.00000000000E+00  0.83547788554E+03  0.83547788556E+03  0.50400001928E-02 0.  1.
        1   -1    0    0  501    0  0.00000000000E+00  0.00000000000E+00 -0.79225647487E+03  0.79225647489E+03  0.50400001928E-02 0. -1.
    10030    2    1    2    0    0  0.00000000000E+00  0.00000000000E+00  0.43221410668E+02  0.16277343604E+04  0.16271604278E+04 0.  0.
        3    1    3    3  502    0  0.15740331348E+03  0.50666086266E+03 -0.59539832278E+03  0.79748367119E+03  0.10100000352E+00 0. -1.
       -3    1    3    3    0  502 -0.15740331348E+03 -0.50666086266E+03  0.63861973345E+03  0.83025068925E+03  0.10100000352E+00 0.  1.
</event>
<event>
 5   0  0.3228393E-04  0.1590018E+04  0.7818609E-02  0.8826704E-01
       -2   -1    0    0    0  501  0.00000000000E+00  0.00000000000E+00  0.64763300923E+03  0.64763300923E+03  0.25500000920E-02 0. -1.
        2   -1    0    0  501    0  0.00000000000E+00  0.00000000000E+00 -0.97592189832E+03  0.97592189832E+03  0.25500000920E-02 0.  1.
    10030    2    1    2    0    0  0.00000000000E+00  0.00000000000E+00 -0.32828888909E+03  0.16235549076E+04  0.15900179065E+04 0.  0.
        1    1    3    3  502    0 -0.36229331112E+03  0.50966521513E+03  0.33715272826E+03  0.71041328605E+03  0.50400001928E-02 0. -1.
       -1    1    3    3    0  502  0.36229331112E+03 -0.50966521513E+03 -0.66544161735E+03  0.91314162150E+03  0.50400001928E-02 0.  1.
</event>
<event>
 5   0  0.1787688E-04  0.1577136E+04  0.7818609E-02  0.8834719E-01
       -1   -1    0    0    0  501  0.00000000000E+00  0.00000000000E+00  0.37635762695E+03  0.37635762699E+03  0.50400001928E-02 0. -1.
        1   -1    0    0  501    0  0.00000000000E+00  0.00000000000E+00 -0.16522571485E+04  0.16522571485E+04  0.50400001928E-02 0.  1.
    10030    2    1    2    0    0  0.00000000000E+00  0.00000000000E+00 -0.12758995216E+04  0.20286147755E+04  0.15771361128E+04 0.  0.
        4    1    3    3  502    0 -0.47870081861E+03  0.73048754523E+02  0.16258595982E+03  0.51080955503E+03  0.12699999809E+01 0. -1.
       -4    1    3    3    0  502  0.47870081861E+03 -0.73048754523E+02 -0.14384854814E+04  0.15178052205E+04  0.12699999809E+01 0.  1.
</event>
<event>
 5   0  0.1736537E-04  0.1603820E+04  0.7818609E-02  0.8818204E-01
        1   -1    0    0  501    0  0.00000000000E+00  0.00000000000E+00  0.13160162645E+04  0.13160162645E+04  0.50400001928E-02 0. -1.
       -1   -1    0    0    0  501  0.00000000000E+00  0.00000000000E+00 -0.48864139079E+03  0.48864139082E+03  0.50400001928E-02 0.  1.
    10030    2    1    2    0    0  0.00000000000E+00  0.00000000000E+00  0.82737487374E+03  0.18046576554E+04  0.16038204611E+04 0.  0.
        3    1    3    3  502    0 -0.59105575884E+03  0.10408407620E+03 -0.18477913179E+03  0.62795202263E+03  0.10100000352E+00 0.  1.
       -3    1    3    3    0  502  0.59105575884E+03 -0.10408407620E+03  0.10121540055E+04  0.11767056327E+04  0.10100000352E+00 0. -1.
</event>
<event>
 5   0  0.1819811E-04  0.1602221E+04  0.7818609E-02  0.8819185E-01
        1   -1    0    0  501    0  0.00000000000E+00  0.00000000000E+00  0.88545927469E+03  0.88545927470E+03  0.50400001928E-02 0.  1.
       -1   -1    0    0    0  501  0.00000000000E+00  0.00000000000E+00 -0.72479639351E+03  0.72479639353E+03  0.50400001928E-02 0. -1.
    10030    2    1    2    0    0  0.00000000000E+00  0.00000000000E+00  0.16066288118E+03  0.16102556682E+04  0.16022205702E+04 0.  0.
        1    1    3    3  502    0  0.43280178769E+03 -0.12950476397E+03  0.74522979631E+03  0.87146791143E+03  0.50400001928E-02 0.  1.
       -1    1    3    3    0  502 -0.43280178769E+03  0.12950476397E+03 -0.58456691513E+03  0.73878775680E+03  0.50400001928E-02 0. -1.
</event>
<event>
 5   0  0.1764099E-04  0.1601393E+04  0.7818609E-02  0.8819693E-01
       -1   -1    0    0    0  501  0.00000000000E+00  0.00000000000E+00  0.12446343990E+04  0.12446343990E+04  0.50400001928E-02 0. -1.
        1   -1    0    0  501    0  0.00000000000E+00  0.00000000000E+00 -0.51510286321E+03  0.51510286323E+03  0.50400001928E-02 0.  1.
    10030    2    1    2    0    0  0.00000000000E+00  0.00000000000E+00  0.72953153583E+03  0.17597372623E+04  0.16013928220E+04 0.  0.
        5    1    3    3  502    0  0.68556654325E+03 -0.23933074435E+03 -0.59524324963E+01  0.72618056423E+03  0.46999998093E+01 0.  1.
       -5    1    3    3    0  502 -0.68556654325E+03  0.23933074435E+03  0.73548396833E+03  0.10335566980E+04  0.46999998093E+01 0. -1.
</event>
<event>
 5   0  0.1736537E-04  0.1599066E+04  0.7818609E-02  0.8821122E-01
       -1   -1    0    0    0  501  0.00000000000E+00  0.00000000000E+00  0.33773305141E+03  0.33773305145E+03  0.50400001928E-02 0.  1.
        1   -1    0    0  501    0  0.00000000000E+00  0.00000000000E+00 -0.18927750838E+04  0.18927750839E+04  0.50400001928E-02 0. -1.
    10030    2    1    2    0    0  0.00000000000E+00  0.00000000000E+00 -0.15550420324E+04  0.22305081353E+04  0.15990656081E+04 0.  0.
        3    1    3    3  502    0  0.13986222366E+03 -0.37846584568E+03  0.18530631061E+03  0.44400031183E+03  0.10100000352E+00 0.  1.
       -3    1    3    3    0  502 -0.13986222366E+03  0.37846584568E+03 -0.17403483430E+04  0.17865078235E+04  0.10100000352E+00 0. -1.
</event>
<event>
 5   0  0.3263294E-04  0.1600250E+04  0.7818609E-02  0.8820394E-01
       -2   -1    0    0    0  501  0.00000000000E+00  0.00000000000E+00  0.12860849648E+04  0.12860849649E+04  0.25500000920E-02 0. -1.
        2   -1    0    0  501    0  0.00000000000E+00  0.00000000000E+00 -0.49778997604E+03  0.49778997604E+03  0.25500000920E-02 0.  1.
    10030    2    1    2    0    0  0.00000000000E+00  0.00000000000E+00  0.78829498881E+03  0.17838749409E+04  0.16002502352E+04 0.  0.
        4    1    3    3  502    0  0.49428375347E+03  0.24685596084E+03 -0.25100562067E+03  0.60684407294E+03  0.12699999809E+01 0.  1.
       -4    1    3    3    0  502 -0.49428375347E+03 -0.24685596084E+03  0.10393006095E+04  0.11770308680E+04  0.12699999809E+01 0. -1.
</event>
<event>
 5   0  0.3228393E-04  0.1595063E+04  0.7818609E-02  0.8823587E-01
       -2   -1    0    0    0  501  0.00000000000E+00  0.00000000000E+00  0.59653058346E+03  0.59653058347E+03  0.25500000920E-02 0. -1.
        2   -1    0    0  501    0  0.00000000000E+00  0.00000000000E+00 -0.10662594255E+04  0.10662594255E+04  0.25500000920E-02 0.  1.
    10030    2    1    2    0    0  0.00000000000E+00  0.00000000000E+00 -0.46972884201E+03  0.16627900089E+04  0.15950628291E+04 0.  0.
        1    1    3    3  502    0 -0.10366034698E+03 -0.68368570394E+03 -0.64908312053E+03  0.94840946151E+03  0.50400001928E-02 0.  1.
       -1    1    3    3    0  502  0.10366034698E+03  0.68368570394E+03  0.17935427852E+03  0.71438054743E+03  0.50400001928E-02 0. -1.
</event>
<event>
 5   0  0.1787688E-04  0.1593352E+04  0.7818609E-02  0.8824642E-01
       -1   -1    0    0    0  501  0.00000000000E+00  0.00000000000E+00  0.60157576205E+03  0.60157576208E+03  0.50400001928E-02 0.  1.
        1   -1    0    0  501    0  0.00000000000E+00  0.00000000000E+00 -0.10550506369E+04  0.10550506369E+04  0.50400001928E-02 0. -1.
    10030    2    1    2    0    0  0.00000000000E+00  0.00000000000E+00 -0.45347487485E+03  0.16566263990E+04  0.15933523037E+04 0.  0.
        4    1    3    3  502    0  0.68813909319E+03  0.18438600305E+03 -0.59748989884E+03  0.92980073232E+03  0.12699999809E+01 0. -1.
       -4    1    3    3    0  502 -0.68813909319E+03 -0.18438600305E+03  0.14401502399E+03  0.72682566667E+03  0.12699999809E+01 0.  1.
</event>
<event>
 5   0  0.3380454E-04  0.1603514E+04  0.7818609E-02  0.8818392E-01
       -2   -1    0    0    0  501  0.00000000000E+00  0.00000000000E+00  0.35948562964E+03  0.35948562965E+03  0.25500000920E-02 0. -1.
        2   -1    0    0  501    0  0.00000000000E+00  0.00000000000E+00 -0.17881509953E+04  0.17881509953E+04  0.25500000920E-02 0.  1.
    10030    2    1    2    0    0  0.00000000000E+00  0.00000000000E+00 -0.14286653657E+04  0.21476366250E+04  0.16035143734E+04 0.  0.
        5    1    3    3  502    0 -0.72267589803E+03  0.22073808983E+03 -0.10732302756E+04  0.13125665973E+04  0.46999998093E+01 0.  1.
       -5    1    3    3    0  502  0.72267589803E+03 -0.22073808983E+03 -0.35543509014E+03  0.83507002771E+03  0.46999998093E+01 0. -1.
</event>
<event>
 5   0  0.1787688E-04  0.1598522E+04  0.7818609E-02  0.8821457E-01
        1   -1    0    0  501    0  0.00000000000E+00  0.00000000000E+00  0.98041586618E+03  0.98041586619E+03  0.50400001928E-02 0.  1.
       -1   -1    0    0    0  501  0.00000000000E+00  0.00000000000E+00 -0.65157860737E+03  0.65157860739E+03  0.50400001928E-02 0. -1.
    10030    2    1    2    0    0  0.00000000000E+00  0.00000000000E+00  0.32883725881E+03  0.16319944736E+04  0.15985218231E+04 0.  0.
        4    1    3    3  502    0  0.44105223469E+02  0.74360178579E+03 -0.13135011055E+03  0.75640158052E+03  0.12699999809E+01 0.  1.
       -4    1    3    3    0  502 -0.44105223469E+02 -0.74360178579E+03  0.46018736936E+03  0.87559289306E+03  0.12699999809E+01 0. -1.
</event>
<event>
 5   0  0.1819811E-04  0.1569849E+04  0.7818609E-02  0.8839288E-01
       -1   -1    0    0    0  501  0.00000000000E+00  0.00000000000E+00  0.81423532301E+03  0.81423532302E+03  0.50400001928E-02 0.  1.
        1   -1    0    0  501    0  0.00000000000E+00  0.00000000000E+00 -0.75666837172E+03  0.75666837174E+03  0.50400001928E-02 0. -1.
    10030    2    1    2    0    0  0.00000000000E+00  0.00000000000E+00  0.57566951281E+02  0.15709036948E+04  0.15698485482E+04 0.  0.
        1    1    3    3  502    0  0.59930522968E+03 -0.48302113615E+03 -0.12504017452E+03  0.77981486365E+03  0.50400001928E-02 0. -1.
       -1    1    3    3    0  502 -0.59930522968E+03  0.48302113615E+03  0.18260712580E+03  0.79108883111E+03  0.50400001928E-02 0.  1.
</event>
<event>
 5   0  0.1819811E-04  0.1597030E+04  0.7818609E-02  0.8822375E-01
       -1   -1    0    0    0  501  0.00000000000E+00  0.00000000000E+00  0.40619959626E+03  0.40619959629E+03  0.50400001928E-02 0. -1.
        1   -1    0    0  501    0  0.00000000000E+00  0.00000000000E+00 -0.15697361472E+04  0.15697361472E+04  0.50400001928E-02 0.  1.
    10030    2    1    2    0    0  0.00000000000E+00  0.00000000000E+00 -0.11635365509E+04  0.19759357435E+04  0.15970299800E+04 0.  0.
        1    1    3    3  502    0  0.54234133921E+03 -0.36293030631E+03 -0.12396790332E+02  0.65269151663E+03  0.50400001928E-02 0. -1.
       -1    1    3    3    0  502 -0.54234133921E+03  0.36293030631E+03 -0.11511397606E+04  0.13232442269E+04  0.50400001928E-02 0.  1.
</event>
<event>
 5   0  0.1736537E-04  0.1603789E+04  0.7818609E-02  0.8818224E-01
        1   -1    0    0  501    0  0.00000000000E+00  0.00000000000E+00  0.92076406671E+03  0.92076406673E+03  0.50400001928E-02 0.  1.
       -1   -1    0    0    0  501  0.00000000000E+00  0.00000000000E+00 -0.69837049621E+03  0.69837049623E+03  0.50400001928E-02 0. -1.
    10030    2    1    2    0    0  0.00000000000E+00  0.00000000000E+00  0.22239357050E+03  0.16191345630E+04  0.16037885873E+04 0.  0.
        3    1    3    3  502    0  0.39541321229E+02  0.72124323443E+03 -0.24038701735E+03  0.76127606531E+03  0.10100000352E+00 0. -1.
       -3    1    3    3    0  502 -0.39541321229E+02 -0.72124323443E+03  0.46278058785E+03  0.85785849765E+03  0.10100000352E+00 0.  1.
</event>
<event>
 5   0  0.3380454E-04  0.1595599E+04  0.7818609E-02  0.8823256E-01
       -2   -1    0    0    0  501  0.00000000000E+00  0.00000000000E+00  0.72252773148E+03  0.72252773148E+03  0.25500000920E-02 0. -1.
        2   -1    0    0  501    0  0.00000000000E+00  0.00000000000E+00 -0.88091306923E+03  0.88091306923E+03  0.25500000920E-02 0.  1.
    10030    2    1    2    0    0  0.00000000000E+00  0.00000000000E+00 -0.15838533775E+03  0.16034408007E+04  0.15955990995E+04 0.  0.
        5    1    3    3  502    0 -0.74697412156E+03  0.59768099873E+00  0.20234726779E+03  0.77391033220E+03  0.46999998093E+01 0.  1.
       -5    1    3    3    0  502  0.74697412156E+03 -0.59768099873E+00 -0.36073260554E+03  0.82953046852E+03  0.46999998093E+01 0. -1.
</event>
<event>
 5   0  0.3228393E-04  0.1653270E+04  0.7818609E-02  0.8788475E-01
       -2   -1    0    0    0  501  0.00000000000E+00  0.00000000000E+00  0.10162263484E+04  0.10162263484E+04  0.25500000920E-02 0. -1.
        2   -1    0    0  501    0  0.00000000000E+00  0.00000000000E+00 -0.67241423639E+03  0.67241423639E+03  0.25500000920E-02 0.  1.
    10030    2    1    2    0    0  0.00000000000E+00  0.00000000000E+00  0.34381211202E+03  0.16886405848E+04  0.16532695655E+04 0.  0.
        1    1    3    3  502    0 -0.61053016319E+03 -0.47881330659E+02  0.73901957984E+03  0.95978624776E+03  0.50400001928E-02 0. -1.
       -1    1    3    3    0  502  0.61053016319E+03  0.47881330659E+02 -0.39520746781E+03  0.72885433704E+03  0.50400001928E-02 0.  1.
</event>
<event>
 5   0  0.1787688E-04  0.1582292E+04  0.7818609E-02  0.8831501E-01
        1   -1    0    0  501    0  0.00000000000E+00  0.00000000000E+00  0.53531511623E+03  0.53531511625E+03  0.50400001928E-02 0. -1.
       -1   -1    0    0    0  501  0.00000000000E+00  0.00000000000E+00 -0.11692407870E+04  0.11692407870E+04  0.50400001928E-02 0.  1.
    10030    2    1    2    0    0  0.00000000000E+00  0.00000000000E+00 -0.63392567074E+03  0.17045559032E+04  0.15822923470E+04 0.  0.
        4    1    3    3  502    0 -0.47416154811E+03 -0.20611265704E+03 -0.96206587940E+03  0.10921922772E+04  0.12699999809E+01 0.  1.
       -4    1    3    3    0  502  0.47416154811E+03  0.20611265704E+03  0.32814020866E+03  0.61236362607E+03  0.12699999809E+01 0. -1.
</event>
<event>
 5   0  0.1736537E-04  0.1609266E+04  0.7818609E-02  0.8814876E-01
       -1   -1    0    0    0  501  0.00000000000E+00  0.00000000000E+00  0.40825693397E+03  0.40825693400E+03  0.50400001928E-02 0.  1.
        1   -1    0    0  501    0  0.00000000000E+00  0.00000000000E+00 -0.15858500569E+04  0.15858500569E+04  0.50400001928E-02 0. -1.
    10030    2    1    2    0    0  0.00000000000E+00  0.00000000000E+00 -0.11775931229E+04  0.19941069909E+04  0.16092660215E+04 0.  0.
        3    1    3    3  502    0 -0.13801064460E+03  0.69026780147E+02  0.38975012411E+03  0.41918588221E+03  0.10100000352E+00 0.  1.
       -3    1    3    3    0  502  0.13801064460E+03 -0.69026780147E+02 -0.15673432471E+04  0.15749211087E+04  0.10100000352E+00 0. -1.
</event>
<event>
 5   0  0.3380454E-04  0.1612671E+04  0.7818609E-02  0.8812801E-01
       -2   -1    0    0    0  501  0.00000000000E+00  0.00000000000E+00  0.30773231436E+03  0.30773231437E+03  0.25500000920E-02 0.  1.
        2   -1    0    0  501    0  0.00000000000E+00  0.00000000000E+00 -0.21128000930E+04  0.21128000930E+04  0.25500000920E-02 0. -1.
    10030    2    1    2    0    0  0.00000000000E+00  0.00000000000E+00 -0.18050677786E+04  0.24205324073E+04  0.16126709055E+04 0.  0.
        5    1    3    3  502    0  0.59557161146E+03 -0.27024608970E+03 -0.16103956242E+04  0.17381411478E+04  0.46999998093E+01 0. -1.
       -5    1    3    3    0  502 -0.59557161146E+03  0.27024608970E+03 -0.19467215446E+03  0.68239125954E+03  0.46999998093E+01 0.  1.
</event>
<event>
 5   0  0.1736537E-04  0.1598423E+04  0.7818609E-02  0.8821517E-01
       -1   -1    0    0    0  501  0.00000000000E+00  0.00000000000E+00  0.41609889156E+03  0.41609889159E+03  0.50400001928E-02 0.  1.
        1   -1    0    0  501    0  0.00000000000E+00  0.00000000000E+00 -0.15350653723E+04  0.15350653723E+04  0.50400001928E-02 0. -1.
    10030    2    1    2    0    0  0.00000000000E+00  0.00000000000E+00 -0.11189664808E+04  0.19511642639E+04  0.15984229727E+04 0.  0.
        3    1    3    3  502    0 -0.49479733546E+01  0.72417371195E+03 -0.14681558827E+03  0.73892277992E+03  0.10100000352E+00 0. -1.
       -3    1    3    3    0  502  0.49479733546E+01 -0.72417371195E+03 -0.97215089249E+03  0.12122414840E+04  0.10100000352E+00 0.  1.
</event>
<event>
 5   0  0.1736537E-04  0.1597423E+04  0.7818609E-02  0.8822133E-01
       -1   -1    0    0    0  501  0.00000000000E+00  0.00000000000E+00  0.59871297274E+03  0.59871297276E+03  0.50400001928E-02 0.  1.
        1   -1    0    0  501    0  0.00000000000E+00  0.00000000000E+00 -0.10655189306E+04  0.10655189306E+04  0.50400001928E-02 0. -1.
    10030    2    1    2    0    0  0.00000000000E+00  0.00000000000E+00 -0.46680595782E+03  0.16642319033E+04  0.15974229327E+04 0.  0.
        3    1    3    3  502    0 -0.66457776506E+03  0.21826073642E+02 -0.69440230062E+03  0.96142318913E+03  0.10100000352E+00 0. -1.
       -3    1    3    3    0  502  0.66457776506E+03 -0.21826073642E+02  0.22759634280E+03  0.70280871420E+03  0.10100000352E+00 0.  1.
</event>
<event>
 5   0  0.3263294E-04  0.1591947E+04  0.7818609E-02  0.8825511E-01
       -2   -1    0    0    0  501  0.00000000000E+00  0.00000000000E+00  0.60120325682E+03  0.60120325683E+03  0.25500000920E-02 0. -1.
        2   -1    0    0  501    0  0.00000000000E+00  0.00000000000E+00 -0.10538428562E+04  0.10538428562E+04  0.25500000920E-02 0.  1.
    10030    2    1    2    0    0  0.00000000000E+00  0.00000000000E+00 -0.45263959936E+03  0.16550461130E+04  0.15919469304E+04 0.  0.
        4    1    3    3  502    0 -0.46600338892E+03 -0.44500684668E+03  0.25951634882E+03  0.69465142358E+03  0.12699999809E+01 0. -1.
       -4    1    3    3    0  502  0.46600338892E+03  0.44500684668E+03 -0.71215594817E+03  0.96039468944E+03  0.12699999809E+01 0.  1.
</event>
<event>
 5   0  0.3210612E-04  0.1608065E+04  0.7818609E-02  0.8815609E-01
        2   -1    0    0  501    0  0.00000000000E+00  0.00000000000E+00  0.68501961567E+03  0.68501961567E+03  0.25500000920E-02 0.  1.
       -2   -1    0    0    0  501  0.00000000000E+00  0.00000000000E+00 -0.94372188605E+03  0.94372188605E+03  0.25500000920E-02 0. -1.
    10030    2    1    2    0    0  0.00000000000E+00  0.00000000000E+00 -0.25870227038E+03  0.16287415017E+04  0.16080646799E+04 0.  0.
        2    1    3    3  502    0 -0.33822898233E+03 -0.39460263009E+03  0.49201729101E+03  0.71567527191E+03  0.25500000920E-02 0.  1.
       -2    1    3    3    0  502  0.33822898233E+03  0.39460263009E+03 -0.75071956139E+03  0.91306622981E+03  0.25500000920E-02 0. -1.
</event>
<event>
 5   0  0.1761255E-04  0.1631516E+04  0.7818609E-02  0.8801417E-01
        1   -1    0    0  501    0  0.00000000000E+00  0.00000000000E+00  0.59573833444E+03  0.59573833447E+03  0.50400001928E-02 0.  1.
       -1   -1    0    0    0  501  0.00000000000E+00  0.00000000000E+00 -0.11170355722E+04  0.11170355722E+04  0.50400001928E-02 0. -1.
    10030    2    1    2    0    0  0.00000000000E+00  0.00000000000E+00 -0.52129723772E+03  0.17127739066E+04  0.16315157508E+04 0.  0.
        2    1    3    3  502    0 -0.23364048747E+03 -0.24020098199E+03 -0.10414501152E+04  0.10940304985E+04  0.25500000920E-02 0. -1.
       -2    1    3    3    0  502  0.23364048747E+03  0.24020098199E+03  0.52015287751E+03  0.61874340814E+03  0.25500000920E-02 0.  1.
</event>
<event>
 5   0  0.3210612E-04  0.1592829E+04  0.7818609E-02  0.8824965E-01
        2   -1    0    0  501    0  0.00000000000E+00  0.00000000000E+00  0.11329052116E+04  0.11329052116E+04  0.25500000920E-02 0. -1.
       -2   -1    0    0    0  501  0.00000000000E+00  0.00000000000E+00 -0.55986715585E+03  0.55986715586E+03  0.25500000920E-02 0.  1.
    10030    2    1    2    0    0  0.00000000000E+00  0.00000000000E+00  0.57303805571E+03  0.16927723674E+04  0.15928294556E+04 0.  0.
        2    1    3    3  502    0  0.17276313264E+03  0.75097760217E+03  0.50029197236E+03  0.91875269609E+03  0.25500000920E-02 0. -1.
       -2    1    3    3    0  502 -0.17276313264E+03 -0.75097760217E+03  0.72746083351E+02  0.77401967133E+03  0.25500000920E-02 0.  1.
</event>
<event>
 5   0  0.1761255E-04  0.1601366E+04  0.7818609E-02  0.8819709E-01
        1   -1    0    0  501    0  0.00000000000E+00  0.00000000000E+00  0.66442852651E+03  0.66442852653E+03  0.50400001928E-02 0.  1.
       -1   -1    0    0    0  501  0.00000000000E+00  0.00000000000E+00 -0.96487944146E+03  0.96487944147E+03  0.50400001928E-02 0. -1.
    10030    2    1    2    0    0  0.00000000000E+00  0.00000000000E+00 -0.30045091495E+03  0.16293079680E+04  0.16013661987E+04 0.  0.
        2    1    3    3  502    0  0.62436598506E+03 -0.29151249179E+03  0.26466538606E+03  0.73814645075E+03  0.25500000920E-02 0.  1.
       -2    1    3    3    0  502 -0.62436598506E+03  0.29151249179E+03 -0.56511630101E+03  0.89116151725E+03  0.25500000920E-02 0. -1.
</event>
<event>
 5   0  0.1219463E-04  0.1601224E+04  0.7818609E-02  0.8819796E-01
        3   -1    0    0  501    0  0.00000000000E+00  0.00000000000E+00  0.10603581020E+04  0.10603581068E+04  0.10100000352E+00 0.  1.
       -3   -1    0    0    0  501  0.00000000000E+00  0.00000000000E+00 -0.60449377958E+03  0.60449378802E+03  0.10100000352E+00 0. -1.
    10030    2    1    2    0    0  0.00000000000E+00  0.00000000000E+00  0.45586432239E+03  0.16648518948E+04  0.16012243913E+04 0.  0.
        3    1    3    3  502    0 -0.34725563277E+03  0.50316649211E+03 -0.30953923408E+03  0.68525728082E+03  0.10100000352E+00 0. -1.
       -3    1    3    3    0  502  0.34725563277E+03 -0.50316649211E+03  0.76540355648E+03  0.97959461398E+03  0.10100000352E+00 0.  1.
</event>
<event>
 5   0  0.1819811E-04  0.1598335E+04  0.7818609E-02  0.8821571E-01
       -1   -1    0    0    0  501  0.00000000000E+00  0.00000000000E+00  0.23100477994E+03  0.23100478000E+03  0.50400001928E-02 0.  1.
        1   -1    0    0  501    0  0.00000000000E+00  0.00000000000E+00 -0.27647427078E+04  0.27647427078E+04  0.50400001928E-02 0. -1.
    10030    2    1    2    0    0  0.00000000000E+00  0.00000000000E+00 -0.25337379278E+04  0.29957474878E+04  0.15983351099E+04 0.  0.
        1    1    3    3  502    0 -0.53415252830E+03 -0.22780118475E+03 -0.23778769247E+03  0.62749923505E+03  0.50400001928E-02 0. -1.
       -1    1    3    3    0  502  0.53415252830E+03  0.22780118475E+03 -0.22959502353E+04  0.23682482527E+04  0.50400001928E-02 0.  1.
</event>
<event>
 5   0  0.3210612E-04  0.1594604E+04  0.7818609E-02  0.8823870E-01
        2   -1    0    0  501    0  0.00000000000E+00  0.00000000000E+00  0.17514244036E+04  0.17514244036E+04  0.25500000920E-02 0.  1.
       -2   -1    0    0    0  501  0.00000000000E+00  0.00000000000E+00 -0.36295614571E+03  0.36295614572E+03  0.25500000920E-02 0. -1.
    10030    2    1    2    0    0  0.00000000000E+00  0.00000000000E+00  0.13884682579E+04  0.21143805493E+04  0.15946037138E+04 0.  0.
        2    1    3    3  502    0  0.25399363829E+03  0.66141751323E+03  0.11790793976E+04  0.13755777408E+04  0.25500000920E-02 0. -1.
       -2    1    3    3    0  502 -0.25399363829E+03 -0.66141751323E+03  0.20938886032E+03  0.73880280856E+03  0.25500000920E-02 0.  1.
</event>
<event>
 5   0  0.3263294E-04  0.1598507E+04  0.7818609E-02  0.8821466E-01
        2   -1    0    0  501    0  0.00000000000E+00  0.00000000000E+00  0.64978399438E+03  0.64978399439E+03  0.25500000920E-02 0.  1.
       -2   -1    0    0    0  501  0.00000000000E+00  0.00000000000E+00 -0.98310534489E+03  0.98310534489E+03  0.25500000920E-02 0. -1.
    10030    2    1    2    0    0  0.00000000000E+00  0.00000000000E+00 -0.33332135051E+03  0.16328893393E+04  0.15985069508E+04 0.  0.
        4    1    3    3  502    0 -0.44951274305E+03 -0.38694844725E+03  0.38059911137E+03  0.70473264681E+03  0.12699999809E+01 0.  1.
       -4    1    3    3    0  502  0.44951274305E+03  0.38694844725E+03 -0.71392046188E+03  0.92815669248E+03  0.12699999809E+01 0. -1.
</event>
<event>
 5   0  0.3228393E-04  0.1590971E+04  0.7818609E-02  0.8826114E-01
        2   -1    0    0  501    0  0.00000000000E+00  0.00000000000E+00  0.78310799183E+03  0.78310799183E+03  0.25500000920E-02 0. -1.
       -2   -1    0    0    0  501  0.00000000000E+00  0.00000000000E+00 -0.80805903485E+03  0.80805903485E+03  0.25500000920E-02 0.  1.
    10030    2    1    2    0    0  0.00000000000E+00  0.00000000000E+00 -0.24951043022E+02  0.15911670267E+04  0.15909713864E+04 0.  0.
        1    1    3    3  502    0 -0.10701094570E+03  0.66606236995E+03 -0.43408051736E+03  0.80219468880E+03  0.50400001928E-02 0.  1.
       -1    1    3    3    0  502  0.10701094570E+03 -0.66606236995E+03  0.40912947433E+03  0.78897233789E+03  0.50400001928E-02 0. -1.
</event>
<event>
 5   0  0.3228393E-04  0.1603786E+04  0.7818609E-02  0.8818226E-01
        2   -1    0    0  501    0  0.00000000000E+00  0.00000000000E+00  0.15340228346E+04  0.15340228346E+04  0.25500000920E-02 0.  1.
       -2   -1    0    0    0  501  0.00000000000E+00  0.00000000000E+00 -0.41918037199E+03  0.41918037199E+03  0.25500000920E-02 0. -1.
    10030    2    1    2    0    0  0.00000000000E+00  0.00000000000E+00  0.11148424626E+04  0.19532032066E+04  0.16037858491E+04 0.  0.
        1    1    3    3  502    0 -0.23215291223E+03  0.76731776355E+03  0.58055235343E+03  0.98980430390E+03  0.50400001928E-02 0. -1.
       -1    1    3    3    0  502  0.23215291223E+03 -0.76731776355E+03  0.53429010918E+03  0.96339890269E+03  0.50400001928E-02 0.  1.
</event>
<event>
 5   0  0.1761255E-04  0.1648751E+04  0.7818609E-02  0.8791146E-01
       -1   -1    0    0    0  501  0.00000000000E+00  0.00000000000E+00  0.80150556817E+03  0.80150556819E+03  0.50400001928E-02 0. -1.
        1   -1    0    0  501    0  0.00000000000E+00  0.00000000000E+00 -0.84789799388E+03  0.84789799389E+03  0.50400001928E-02 0.  1.
    10030    2    1    2    0    0  0.00000000000E+00  0.00000000000E+00 -0.46392425703E+02  0.16494035621E+04  0.16487509980E+04 0.  0.
        2    1    3    3  502    0  0.46749714985E+03  0.35601139370E+03 -0.60160951075E+03  0.84097068973E+03  0.25500000920E-02 0.  1.
       -2    1    3    3    0  502 -0.46749714985E+03 -0.35601139370E+03  0.55521708505E+03  0.80843287235E+03  0.25500000920E-02 0. -1.
</event>
<event>
 5   0  0.1219463E-04  0.1597309E+04  0.7818609E-02  0.8822203E-01
        4   -1    0    0  501    0  0.00000000000E+00  0.00000000000E+00  0.61547990759E+03  0.61548121787E+03  0.12699999809E+01 0. -1.
       -4   -1    0    0    0  501  0.00000000000E+00  0.00000000000E+00 -0.10363409445E+04  0.10363417227E+04  0.12699999809E+01 0.  1.
    10030    2    1    2    0    0  0.00000000000E+00  0.00000000000E+00 -0.42086103691E+03  0.16518229405E+04  0.15973086785E+04 0.  0.
        4    1    3    3  502    0  0.68881740215E+02  0.32510233106E+03  0.54058550174E+03  0.63456324932E+03  0.12699999809E+01 0. -1.
       -4    1    3    3    0  502 -0.68881740215E+02 -0.32510233106E+03 -0.96144653864E+03  0.10172596912E+04  0.12699999809E+01 0.  1.
</event>
<event>
 5   0  0.3228393E-04  0.1590848E+04  0.7818609E-02  0.8826190E-01
       -2   -1    0    0    0  501  0.00000000000E+00  0.00000000000E+00  0.83159823795E+03  0.83159823795E+03  0.25500000920E-02 0.  1.
        2   -1    0    0  501    0  0.00000000000E+00  0.00000000000E+00 -0.76082352087E+03  0.76082352088E+03  0.25500000920E-02 0. -1.
    10030    2    1    2    0    0  0.00000000000E+00  0.00000000000E+00  0.70774717076E+02  0.15924217588E+04  0.15908482006E+04 0.  0.
        1    1    3    3  502    0  0.20074562980E+03  0.53915923077E+03  0.58521021034E+03  0.82064759448E+03  0.50400001928E-02 0.  1.
       -1    1    3    3    0  502 -0.20074562980E+03 -0.53915923077E+03 -0.51443549326E+03  0.77177416435E+03  0.50400001928E-02 0. -1.
</event>
<event>
 5   0  0.3380454E-04  0.1603824E+04  0.7818609E-02  0.8818202E-01
        2   -1    0    0  501    0  0.00000000000E+00  0.00000000000E+00  0.12970918063E+04  0.12970918063E+04  0.25500000920E-02 0. -1.
       -2   -1    0    0    0  501  0.00000000000E+00  0.00000000000E+00 -0.49577260398E+03  0.49577260398E+03  0.25500000920E-02 0.  1.
    10030    2    1    2    0    0  0.00000000000E+00  0.00000000000E+00  0.80131920231E+03  0.17928644103E+04  0.16038236591E+04 0.  0.
        5    1    3    3  502    0  0.12179761170E+03  0.73995639245E+03  0.71816261993E+03  0.10383399056E+04  0.46999998093E+01 0. -1.
       -5    1    3    3    0  502 -0.12179761170E+03 -0.73995639245E+03  0.83156582381E+02  0.75452450466E+03  0.46999998093E+01 0.  1.
</event>
<event>
 5   0  0.3263294E-04  0.1592209E+04  0.7818609E-02  0.8825349E-01
       -2   -1    0    0    0  501  0.00000000000E+00  0.00000000000E+00  0.69515333267E+03  0.69515333267E+03  0.25500000920E-02 0.  1.
        2   -1    0    0  501    0  0.00000000000E+00  0.00000000000E+00 -0.91171562556E+03  0.91171562556E+03  0.25500000920E-02 0. -1.
    10030    2    1    2    0    0  0.00000000000E+00  0.00000000000E+00 -0.21656229289E+03  0.16068689582E+04  0.15922087245E+04 0.  0.
        4    1    3    3  502    0 -0.69448973815E+03  0.27449899453E+03  0.17014829409E+03  0.76590975270E+03  0.12699999809E+01 0.  1.
       -4    1    3    3    0  502  0.69448973815E+03 -0.27449899453E+03 -0.38671058698E+03  0.84095920554E+03  0.12699999809E+01 0. -1.
</event>
<event>
 5   0  0.1819811E-04  0.1620991E+04  0.7818609E-02  0.8807755E-01
        1   -1    0    0  501    0  0.00000000000E+00  0.00000000000E+00  0.10537270981E+04  0.10537270981E+04  0.50400001928E-02 0.  1.
       -1   -1    0    0    0  501  0.00000000000E+00  0.00000000000E+00 -0.62340926691E+03  0.62340926693E+03  0.50400001928E-02 0. -1.
    10030    2    1    2    0    0  0.00000000000E+00  0.00000000000E+00  0.43031783122E+03  0.16771363651E+04  0.16209913483E+04 0.  0.
        1    1    3    3  502    0  0.35622699074E+03 -0.24643710269E+02 -0.53763990874E+03  0.64541587591E+03  0.50400001928E-02 0. -1.
       -1    1    3    3    0  502 -0.35622699074E+03  0.24643710269E+02  0.96795773995E+03  0.10317204892E+04  0.50400001928E-02 0.  1.
</event>
<event>
 5   0  0.3274900E-04  0.1601183E+04  0.7818609E-02  0.8819821E-01
        2   -1    0    0  501    0  0.00000000000E+00  0.00000000000E+00  0.68363053595E+03  0.68363053596E+03  0.25500000920E-02 0.  1.
       -2   -1    0    0    0  501  0.00000000000E+00  0.00000000000E+00 -0.93756323981E+03  0.93756323982E+03  0.25500000920E-02 0. -1.
    10030    2    1    2    0    0  0.00000000000E+00  0.00000000000E+00 -0.25393270386E+03  0.16211937758E+04  0.16011831377E+04 0.  0.
        3    1    3    3  502    0 -0.79331092298E+03  0.70191758679E+02 -0.20970508782E+03  0.82355651753E+03  0.10100000352E+00 0. -1.
       -3    1    3    3    0  502  0.79331092298E+03 -0.70191758679E+02 -0.44227616043E+02  0.79763725824E+03  0.10100000352E+00 0.  1.
</event>
<event>
 5   0  0.3228393E-04  0.1595022E+04  0.7818609E-02  0.8823612E-01
        2   -1    0    0  501    0  0.00000000000E+00  0.00000000000E+00  0.90635845411E+03  0.90635845412E+03  0.25500000920E-02 0. -1.
       -2   -1    0    0    0  501  0.00000000000E+00  0.00000000000E+00 -0.70173505944E+03  0.70173505944E+03  0.25500000920E-02 0.  1.
    10030    2    1    2    0    0  0.00000000000E+00  0.00000000000E+00  0.20462339468E+03  0.16080935136E+04  0.15950216346E+04 0.  0.
        1    1    3    3  502    0  0.10350393089E+03  0.52489148580E+03 -0.49397378027E+03  0.72817184180E+03  0.50400001928E-02 0.  1.
       -1    1    3    3    0  502 -0.10350393089E+03 -0.52489148580E+03  0.69859717494E+03  0.87992167176E+03  0.50400001928E-02 0. -1.
</event>
<event>
 5   0  0.1787688E-04  0.1592148E+04  0.7818609E-02  0.8825387E-01
       -1   -1    0    0    0  501  0.00000000000E+00  0.00000000000E+00  0.89088997236E+03  0.89088997238E+03  0.50400001928E-02 0. -1.
        1   -1    0    0  501    0  0.00000000000E+00  0.00000000000E+00 -0.71134887330E+03  0.71134887332E+03  0.50400001928E-02 0.  1.
    10030    2    1    2    0    0  0.00000000000E+00  0.00000000000E+00  0.17954109906E+03  0.16022388457E+04  0.15921477043E+04 0.  0.
        4    1    3    3  502    0 -0.25196239737E+03  0.56376530370E+03  0.59536464801E+03  0.85777447173E+03  0.12699999809E+01 0. -1.
       -4    1    3    3    0  502  0.25196239737E+03 -0.56376530370E+03 -0.41582354895E+03  0.74446437397E+03  0.12699999809E+01 0.  1.
</event>
<event>
 5   0  0.3274900E-04  0.1611005E+04  0.7818609E-02  0.8813816E-01
       -2   -1    0    0    0  501  0.00000000000E+00  0.00000000000E+00  0.66025273702E+03  0.66025273702E+03  0.25500000920E-02 0. -1.
        2   -1    0    0  501    0  0.00000000000E+00  0.00000000000E+00 -0.98270548110E+03  0.98270548110E+03  0.25500000920E-02 0.  1.
    10030    2    1    2    0    0  0.00000000000E+00  0.00000000000E+00 -0.32245274408E+03  0.16429582181E+04  0.16110046351E+04 0.  0.
        3    1    3    3  502    0 -0.93146447154E+02  0.12303942086E+03 -0.96748865463E+03  0.97971897335E+03  0.10100000352E+00 0.  1.
       -3    1    3    3    0  502  0.93146447154E+02 -0.12303942086E+03  0.64503591055E+03  0.66323924477E+03  0.10100000352E+00 0. -1.
</event>
<event>
 5   0  0.3228393E-04  0.1586630E+04  0.7818609E-02  0.8828804E-01
        2   -1    0    0  501    0  0.00000000000E+00  0.00000000000E+00  0.44830715757E+03  0.44830715758E+03  0.25500000920E-02 0.  1.
       -2   -1    0    0    0  501  0.00000000000E+00  0.00000000000E+00 -0.14038338751E+04  0.14038338751E+04  0.25500000920E-02 0. -1.
    10030    2    1    2    0    0  0.00000000000E+00  0.00000000000E+00 -0.95552671750E+03  0.18521410326E+04  0.15866301072E+04 0.  0.
        1    1    3    3  502    0 -0.10720239919E+03 -0.77275775534E+03 -0.64572231433E+03  0.10127211907E+04  0.50400001928E-02 0. -1.
       -1    1    3    3    0  502  0.10720239919E+03  0.77275775534E+03 -0.30980440317E+03  0.83941984196E+03  0.50400001928E-02 0.  1.
</event>
<event>
 5   0  0.1761255E-04  0.1604839E+04  0.7818609E-02  0.8817581E-01
        1   -1    0    0  501    0  0.00000000000E+00  0.00000000000E+00  0.71549888389E+03  0.71549888391E+03  0.50400001928E-02 0. -1.
       -1   -1    0    0    0  501  0.00000000000E+00  0.00000000000E+00 -0.89989921004E+03  0.89989921006E+03  0.50400001928E-02 0.  1.
    10030    2    1    2    0    0  0.00000000000E+00  0.00000000000E+00 -0.18440032615E+03  0.16153980940E+04  0.16048387837E+04 0.  0.
        2    1    3    3  502    0  0.24906138051E+03 -0.61024875536E+02  0.67314550828E+03  0.72033359079E+03  0.25500000920E-02 0. -1.
       -2    1    3    3    0  502 -0.24906138051E+03  0.61024875536E+02 -0.85754583443E+03  0.89506450318E+03  0.25500000920E-02 0.  1.
</event>
<event>
 5   0  0.3380454E-04  0.1618575E+04  0.7818609E-02  0.8809218E-01
        2   -1    0    0  501    0  0.00000000000E+00  0.00000000000E+00  0.78142857251E+03  0.78142857251E+03  0.25500000920E-02 0.  1.
       -2   -1    0    0    0  501  0.00000000000E+00  0.00000000000E+00 -0.83813921611E+03  0.83813921612E+03  0.25500000920E-02 0. -1.
    10030    2    1    2    0    0  0.00000000000E+00  0.00000000000E+00 -0.56710643604E+02  0.16195677886E+04  0.16185745966E+04 0.  0.
        5    1    3    3  502    0  0.29058767018E+03 -0.19496185772E+03 -0.75851023327E+03  0.83535093464E+03  0.46999998093E+01 0. -1.
       -5    1    3    3    0  502 -0.29058767018E+03  0.19496185772E+03  0.70179958967E+03  0.78421685399E+03  0.46999998093E+01 0.  1.
</event>
<event>
 5   0  0.1819811E-04  0.1600503E+04  0.7818609E-02  0.8820239E-01
       -1   -1    0    0    0  501  0.00000000000E+00  0.00000000000E+00  0.37102740771E+03  0.37102740774E+03  0.50400001928E-02 0.  1.
        1   -1    0    0  501    0  0.00000000000E+00  0.00000000000E+00 -0.17260237275E+04  0.17260237275E+04  0.50400001928E-02 0. -1.
    10030    2    1    2    0    0  0.00000000000E+00  0.00000000000E+00 -0.13549963198E+04  0.20970511353E+04  0.16005025577E+04 0.  0.
        1    1    3    3  502    0 -0.32374079522E+03  0.17167503412E+02  0.28113175886E+03  0.42911291233E+03  0.50400001928E-02 0.  1.
       -1    1    3    3    0  502  0.32374079522E+03 -0.17167503412E+02 -0.16361280787E+04  0.16679382229E+04  0.50400001928E-02 0. -1.
</event>
<event>
 5   0  0.3228393E-04  0.1601261E+04  0.7818609E-02  0.8819774E-01
        2   -1    0    0  501    0  0.00000000000E+00  0.00000000000E+00  0.54064417115E+03  0.54064417116E+03  0.25500000920E-02 0. -1.
       -2   -1    0    0    0  501  0.00000000000E+00  0.00000000000E+00 -0.11856394787E+04  0.11856394787E+04  0.25500000920E-02 0.  1.
    10030    2    1    2    0    0  0.00000000000E+00  0.00000000000E+00 -0.64499530754E+03  0.17262836499E+04  0.16012608448E+04 0.  0.
        1    1    3    3  502    0 -0.36661843928E+03 -0.65854534532E+03 -0.31380691459E+02  0.75437112861E+03  0.50400001928E-02 0. -1.
       -1    1    3    3    0  502  0.36661843928E+03  0.65854534532E+03 -0.61361461608E+03  0.97191252124E+03  0.50400001928E-02 0.  1.
</event>
<event>
 5   0  0.3210612E-04  0.1603114E+04  0.7818609E-02  0.8818637E-01
        2   -1    0    0  501    0  0.00000000000E+00  0.00000000000E+00  0.18237140067E+04  0.18237140067E+04  0.25500000920E-02 0.  1.
       -2   -1    0    0    0  501  0.00000000000E+00  0.00000000000E+00 -0.35229946551E+03  0.35229946552E+03  0.25500000920E-02 0. -1.
    10030    2    1    2    0    0  0.00000000000E+00  0.00000000000E+00  0.14714145412E+04  0.21760134723E+04  0.16031138073E+04 0.  0.
        2    1    3    3  502    0 -0.44625442561E+02  0.79141518736E+03  0.89725126285E+03  0.11972423554E+04  0.25500000920E-02 0. -1.
       -2    1    3    3    0  502  0.44625442561E+02 -0.79141518736E+03  0.57416327838E+03  0.97877111684E+03  0.25500000920E-02 0.  1.
</event>
<event>
 5   0  0.1764099E-04  0.1593588E+04  0.7818609E-02  0.8824497E-01
        1   -1    0    0  501    0  0.00000000000E+00  0.00000000000E+00  0.63287590399E+03  0.63287590401E+03  0.50400001928E-02 0. -1.
       -1   -1    0    0    0  501  0.00000000000E+00  0.00000000000E+00 -0.10031676477E+04  0.10031676477E+04  0.50400001928E-02 0.  1.
    10030    2    1    2    0    0  0.00000000000E+00  0.00000000000E+00 -0.37029174367E+03  0.16360435517E+04  0.15935879416E+04 0.  0.
        5    1    3    3  502    0  0.73362684890E+03  0.28831037096E+03 -0.65740275272E+02  0.79099626878E+03  0.46999998093E+01 0. -1.
       -5    1    3    3    0  502 -0.73362684890E+03 -0.28831037096E+03 -0.30455146840E+03  0.84504728290E+03  0.46999998093E+01 0.  1.
</event>
<event>
 5   0  0.1736537E-04  0.1599034E+04  0.7818609E-02  0.8821142E-01
       -1   -1    0    0    0  501  0.00000000000E+00  0.00000000000E+00  0.10623296149E+04  0.10623296149E+04  0.50400001928E-02 0. -1.
        1   -1    0    0  501    0  0.00000000000E+00  0.00000000000E+00 -0.60172238075E+03  0.60172238077E+03  0.50400001928E-02 0.  1.
    10030    2    1    2    0    0  0.00000000000E+00  0.00000000000E+00  0.46060723413E+03  0.16640519957E+04  0.15990340897E+04 0.  0.
        3    1    3    3  502    0 -0.65131136049E+03  0.49970897039E+02 -0.24944427433E+03  0.69923246138E+03  0.10100000352E+00 0.  1.
       -3    1    3    3    0  502  0.65131136049E+03 -0.49970897039E+02  0.71005150846E+03  0.96481953427E+03  0.10100000352E+00 0. -1.
</event>
<event>
 5   0  0.3274900E-04  0.1591665E+04  0.7818609E-02  0.8825685E-01
       -2   -1    0    0    0  501  0.00000000000E+00  0.00000000000E+00  0.86966047412E+03  0.86966047412E+03  0.25500000920E-02 0.  1.
        2   -1    0    0  501    0  0.00000000000E+00  0.00000000000E+00 -0.72827227325E+03  0.72827227326E+03  0.25500000920E-02 0. -1.
    10030    2    1    2    0    0  0.00000000000E+00  0.00000000000E+00  0.14138820086E+03  0.15979327474E+04  0.15916653046E+04 0.  0.
        3    1    3    3  502    0  0.59060316903E+03 -0.52756107785E+03  0.14985129780E+03  0.80597035664E+03  0.10100000352E+00 0.  1.
       -3    1    3    3    0  502 -0.59060316903E+03  0.52756107785E+03 -0.84630969381E+01  0.79196239074E+03  0.10100000352E+00 0. -1.
</event>
<event>
 5   0  0.3380454E-04  0.1600103E+04  0.7818609E-02  0.8820485E-01
       -2   -1    0    0    0  501  0.00000000000E+00  0.00000000000E+00  0.43322389975E+03  0.43322389976E+03  0.25500000920E-02 0.  1.
        2   -1    0    0  501    0  0.00000000000E+00  0.00000000000E+00 -0.14774856310E+04  0.14774856310E+04  0.25500000920E-02 0. -1.
    10030    2    1    2    0    0  0.00000000000E+00  0.00000000000E+00 -0.10442617312E+04  0.19107095307E+04  0.16001026053E+04 0.  0.
        5    1    3    3  502    0 -0.29580668192E+03 -0.53840214448E+03  0.89883491079E+02  0.62087003005E+03  0.46999998093E+01 0.  1.
       -5    1    3    3    0  502  0.29580668192E+03  0.53840214448E+03 -0.11341452223E+04  0.12898395007E+04  0.46999998093E+01 0. -1.
</event>
<event>
 5   0  0.1764099E-04  0.1661730E+04  0.7818609E-02  0.8783497E-01
       -1   -1    0    0    0  501  0.00000000000E+00  0.00000000000E+00  0.64404229013E+03  0.64404229015E+03  0.50400001928E-02 0. -1.
        1   -1    0    0  501    0  0.00000000000E+00  0.00000000000E+00 -0.10718806881E+04  0.10718806881E+04  0.50400001928E-02 0.  1.
    10030    2    1    2    0    0  0.00000000000E+00  0.00000000000E+00 -0.42783839799E+03  0.17159229783E+04  0.16617298134E+04 0.  0.
        5    1    3    3  502    0 -0.65988749791E+03 -0.50453782139E+03 -0.23193762253E+03  0.86245409956E+03  0.46999998093E+01 0.  1.
       -5    1    3    3    0  502  0.65988749791E+03  0.50453782139E+03 -0.19590077546E+03  0.85346887871E+03  0.46999998093E+01 0. -1.
</event>
<event>
 5   0  0.3228393E-04  0.1612113E+04  0.7818609E-02  0.8813141E-01
        2   -1    0    0  501    0  0.00000000000E+00  0.00000000000E+00  0.13838653125E+04  0.13838653125E+04  0.25500000920E-02 0.  1.
       -2   -1    0    0    0  501  0.00000000000E+00  0.00000000000E+00 -0.46950177522E+03  0.46950177523E+03  0.25500000920E-02 0. -1.
    10030    2    1    2    0    0  0.00000000000E+00  0.00000000000E+00  0.91436353728E+03  0.18533670877E+04  0.16121131733E+04 0.  0.
        1    1    3    3  502    0 -0.18428864753E+03 -0.75750150567E+03  0.22169584803E+03  0.81050594431E+03  0.50400001928E-02 0.  1.
       -1    1    3    3    0  502  0.18428864753E+03  0.75750150567E+03  0.69266768924E+03  0.10428611434E+04  0.50400001928E-02 0. -1.
</event>
<event>
 5   0  0.1819811E-04  0.1599172E+04  0.7818609E-02  0.8821057E-01
        1   -1    0    0  501    0  0.00000000000E+00  0.00000000000E+00  0.12892114922E+04  0.12892114922E+04  0.50400001928E-02 0. -1.
       -1   -1    0    0    0  501  0.00000000000E+00  0.00000000000E+00 -0.49591353047E+03  0.49591353050E+03  0.50400001928E-02 0.  1.
    10030    2    1    2    0    0  0.00000000000E+00  0.00000000000E+00  0.79329796172E+03  0.17851250227E+04  0.15991715638E+04 0.  0.
        1    1    3    3  502    0  0.17431002796E+03 -0.46592330757E+03  0.10954346383E+04  0.12030983173E+04  0.50400001928E-02 0. -1.
       -1    1    3    3    0  502 -0.17431002796E+03  0.46592330757E+03 -0.30213667658E+03  0.58202670535E+03  0.50400001928E-02 0.  1.
</event>
<event>
 5   0  0.3274900E-04  0.1575431E+04  0.7818609E-02  0.8835785E-01
       -2   -1    0    0    0  501  0.00000000000E+00  0.00000000000E+00  0.37677566071E+03  0.37677566072E+03  0.25500000920E-02 0. -1.
        2   -1    0    0  501    0  0.00000000000E+00  0.00000000000E+00 -0.16468575204E+04  0.16468575204E+04  0.25500000920E-02 0.  1.
    10030    2    1    2    0    0  0.00000000000E+00  0.00000000000E+00 -0.12700818597E+04  0.20236331811E+04  0.15754311541E+04 0.  0.
        3    1    3    3  502    0  0.39596349133E+03 -0.50603143166E+03 -0.12203548310E+04  0.13791739629E+04  0.10100000352E+00 0.  1.
       -3    1    3    3    0  502 -0.39596349133E+03  0.50603143166E+03 -0.49727028655E+02  0.64445921816E+03  0.10100000352E+00 0. -1.
</event>
<event>
 5   0  0.3263294E-04  0.1598878E+04  0.7818609E-02  0.8821238E-01
       -2   -1    0    0    0  501  0.00000000000E+00  0.00000000000E+00  0.54188437122E+03  0.54188437123E+03  0.25500000920E-02 0.  1.
        2   -1    0    0  501    0  0.00000000000E+00  0.00000000000E+00 -0.11794080288E+04  0.11794080288E+04  0.25500000920E-02 0. -1.
    10030    2    1    2    0    0  0.00000000000E+00  0.00000000000E+00 -0.63752365759E+03  0.17212924000E+04  0.15988780793E+04 0.  0.
        4    1    3    3  502    0  0.81323270229E+02  0.45582423240E+03 -0.10203569307E+04  0.11204994798E+04  0.12699999809E+01 0. -1.
       -4    1    3    3    0  502 -0.81323270229E+02 -0.45582423240E+03  0.38283327315E+03  0.60079292028E+03  0.12699999809E+01 0.  1.
</event>
<event>
 5   0  0.3210612E-04  0.1602159E+04  0.7818609E-02  0.8819223E-01
       -2   -1    0    0    0  501  0.00000000000E+00  0.00000000000E+00  0.42843424428E+03  0.42843424429E+03  0.25500000920E-02 0.  1.
        2   -1    0    0  501    0  0.00000000000E+00  0.00000000000E+00 -0.14978463670E+04  0.14978463670E+04  0.25500000920E-02 0. -1.
    10030    2    1    2    0    0  0.00000000000E+00  0.00000000000E+00 -0.10694121227E+04  0.19262806113E+04  0.16021593882E+04 0.  0.
        2    1    3    3  502    0  0.16716670516E+03 -0.63508837301E+03 -0.10862561043E+04  0.12693440325E+04  0.25500000920E-02 0. -1.
       -2    1    3    3    0  502 -0.16716670516E+03  0.63508837301E+03  0.16843981516E+02  0.65693657880E+03  0.25500000920E-02 0.  1.
</event>
<event>
 5   0  0.3210612E-04  0.1600778E+04  0.7818609E-02  0.8820070E-01
        2   -1    0    0  501    0  0.00000000000E+00  0.00000000000E+00  0.52835576880E+03  0.52835576881E+03  0.25500000920E-02 0. -1.
       -2   -1    0    0    0  501  0.00000000000E+00  0.00000000000E+00 -0.12124837760E+04  0.12124837760E+04  0.25500000920E-02 0.  1.
    10030    2    1    2    0    0  0.00000000000E+00  0.00000000000E+00 -0.68412800716E+03  0.17408395448E+04  0.16007783077E+04 0.  0.
        2    1    3    3  502    0  0.27819238523E+03  0.70887371183E+03 -0.61006022784E+03  0.97573891186E+03  0.25500000920E-02 0.  1.
       -2    1    3    3    0  502 -0.27819238523E+03 -0.70887371183E+03 -0.74067779322E+02  0.76510063290E+03  0.25500000920E-02 0. -1.
</event>
<event>
 5   0  0.3228393E-04  0.1603340E+04  0.7818609E-02  0.8818499E-01
       -2   -1    0    0    0  501  0.00000000000E+00  0.00000000000E+00  0.87649663827E+03  0.87649663827E+03  0.25500000920E-02 0. -1.
        2   -1    0    0  501    0  0.00000000000E+00  0.00000000000E+00 -0.73323168078E+03  0.73323168078E+03  0.25500000920E-02 0.  1.
    10030    2    1    2    0    0  0.00000000000E+00  0.00000000000E+00  0.14326495749E+03  0.16097283191E+04  0.16033403922E+04 0.  0.
        1    1    3    3  502    0 -0.76494501763E+03 -0.11359391222E+03  0.28373383182E+03  0.82374106625E+03  0.50400001928E-02 0.  1.
       -1    1    3    3    0  502  0.76494501763E+03  0.11359391222E+03 -0.14046887433E+03  0.78598725280E+03  0.50400001928E-02 0. -1.
</event>
<event>
 5   0  0.1764099E-04  0.1592812E+04  0.7818609E-02  0.8824976E-01
       -1   -1    0    0    0  501  0.00000000000E+00  0.00000000000E+00  0.61400557846E+03  0.61400557848E+03  0.50400001928E-02 0. -1.
        1   -1    0    0  501    0  0.00000000000E+00  0.00000000000E+00 -0.10329917509E+04  0.10329917509E+04  0.50400001928E-02 0.  1.
    10030    2    1    2    0    0  0.00000000000E+00  0.00000000000E+00 -0.41898617244E+03  0.16469973294E+04  0.15928122269E+04 0.  0.
        5    1    3    3  502    0 -0.10327874805E+02 -0.62237551537E+03 -0.72316478090E+03  0.95417364115E+03  0.46999998093E+01 0.  1.
       -5    1    3    3    0  502  0.10327874805E+02  0.62237551537E+03  0.30417860846E+03  0.69282368823E+03  0.46999998093E+01 0. -1.
</event>
<event>
 5   0  0.1819811E-04  0.1593634E+04  0.7818609E-02  0.8824469E-01
        1   -1    0    0  501    0  0.00000000000E+00  0.00000000000E+00  0.14105589554E+04  0.14105589554E+04  0.50400001928E-02 0. -1.
       -1   -1    0    0    0  501  0.00000000000E+00  0.00000000000E+00 -0.45011732721E+03  0.45011732724E+03  0.50400001928E-02 0.  1.
    10030    2    1    2    0    0  0.00000000000E+00  0.00000000000E+00  0.96044162819E+03  0.18606762827E+04  0.15936336178E+04 0.  0.
        1    1    3    3  502    0 -0.58661150954E+03  0.50578677756E+03  0.26183963544E+03  0.81761440924E+03  0.50400001928E-02 0.  1.
       -1    1    3    3    0  502  0.58661150954E+03 -0.50578677756E+03  0.69860199275E+03  0.10430618734E+04  0.50400001928E-02 0. -1.
</event>
<event>
 5   0  0.3228393E-04  0.1602178E+04  0.7818609E-02  0.8819211E-01
       -2   -1    0    0    0  501  0.00000000000E+00  0.00000000000E+00  0.20738437409E+04  0.20738437409E+04  0.25500000920E-02 0. -1.
        2   -1    0    0  501    0  0.00000000000E+00  0.00000000000E+00 -0.30944629838E+03  0.30944629839E+03  0.25500000920E-02 0.  1.
    10030    2    1    2    0    0  0.00000000000E+00  0.00000000000E+00  0.17643974426E+04  0.23832900393E+04  0.16021776045E+04 0.  0.
        1    1    3    3  502    0 -0.41180788645E+03 -0.31457913782E+02  0.19032654005E+04  0.19475611724E+04  0.50400001928E-02 0. -1.
       -1    1    3    3    0  502  0.41180788645E+03  0.31457913782E+02 -0.13886795791E+03  0.43572886689E+03  0.50400001928E-02 0.  1.
</event>
<event>
 5   0  0.1761255E-04  0.1600516E+04  0.7818609E-02  0.8820231E-01
        1   -1    0    0  501    0  0.00000000000E+00  0.00000000000E+00  0.13535778038E+04  0.13535778038E+04  0.50400001928E-02 0. -1.
       -1   -1    0    0    0  501  0.00000000000E+00  0.00000000000E+00 -0.47312617921E+03  0.47312617924E+03  0.50400001928E-02 0.  1.
    10030    2    1    2    0    0  0.00000000000E+00  0.00000000000E+00  0.88045162457E+03  0.18267039830E+04  0.16005162850E+04 0.  0.
        2    1    3    3  502    0 -0.57347197820E+03 -0.45494358603E+03  0.71154561333E+02  0.73546362783E+03  0.25500000920E-02 0.  1.
       -2    1    3    3    0  502  0.57347197820E+03  0.45494358603E+03  0.80929706323E+03  0.10912403552E+04  0.25500000920E-02 0. -1.
</event>
<event>
 5   0  0.1736537E-04  0.1604534E+04  0.7818609E-02  0.8817767E-01
        1   -1    0    0  501    0  0.00000000000E+00  0.00000000000E+00  0.18308348931E+04  0.18308348931E+04  0.50400001928E-02 0. -1.
       -1   -1    0    0    0  501  0.00000000000E+00  0.00000000000E+00 -0.35155126978E+03  0.35155126981E+03  0.50400001928E-02 0.  1.
    10030    2    1    2    0    0  0.00000000000E+00  0.00000000000E+00  0.14792836233E+04  0.21823861629E+04  0.16045339902E+04 0.  0.
        3    1    3    3  502    0 -0.24397284474E+02  0.55521757083E+03 -0.47324780039E+02  0.55776466674E+03  0.10100000352E+00 0.  1.
       -3    1    3    3    0  502  0.24397284474E+02 -0.55521757083E+03  0.15266084033E+04  0.16246214962E+04  0.10100000352E+00 0. -1.
</event>
<event>
 5   0  0.1787688E-04  0.1570347E+04  0.7818609E-02  0.8838975E-01
       -1   -1    0    0    0  501  0.00000000000E+00  0.00000000000E+00  0.14381732243E+04  0.14381732243E+04  0.50400001928E-02 0. -1.
        1   -1    0    0  501    0  0.00000000000E+00  0.00000000000E+00 -0.42866720720E+03  0.42866720723E+03  0.50400001928E-02 0.  1.
    10030    2    1    2    0    0  0.00000000000E+00  0.00000000000E+00  0.10095060171E+04  0.18668404315E+04  0.15703473496E+04 0.  0.
        4    1    3    3  502    0  0.38880752387E+03 -0.16782174578E+03 -0.28126411553E+03  0.50837638080E+03  0.12699999809E+01 0.  1.
       -4    1    3    3    0  502 -0.38880752387E+03  0.16782174578E+03  0.12907701326E+04  0.13584640507E+04  0.12699999809E+01 0. -1.
</event>
<event>
 5   0  0.3228393E-04  0.1582389E+04  0.7818609E-02  0.8831441E-01
       -2   -1    0    0    0  501  0.00000000000E+00  0.00000000000E+00  0.95424142836E+03  0.95424142836E+03  0.25500000920E-02 0. -1.
        2   -1    0    0  501    0  0.00000000000E+00  0.00000000000E+00 -0.65600644351E+03  0.65600644352E+03  0.25500000920E-02 0.  1.
    10030    2    1    2    0    0  0.00000000000E+00  0.00000000000E+00  0.29823498485E+03  0.16102478719E+04  0.15823887331E+04 0.  0.
        1    1    3    3  502    0  0.31764593835E+02  0.36853141627E+03 -0.56259871205E+03  0.67330654611E+03  0.50400001928E-02 0.  1.
       -1    1    3    3    0  502 -0.31764593835E+02 -0.36853141627E+03  0.86083369690E+03  0.93694132577E+03  0.50400001928E-02 0. -1.
</event>
<event>
 5   0  0.1761255E-04  0.1589758E+04  0.7818609E-02  0.8826865E-01
        1   -1    0    0  501    0  0.00000000000E+00  0.00000000000E+00  0.10876956231E+04  0.10876956231E+04  0.50400001928E-02 0. -1.
       -1   -1    0    0    0  501  0.00000000000E+00  0.00000000000E+00 -0.58089089773E+03  0.58089089776E+03  0.50400001928E-02 0.  1.
    10030    2    1    2    0    0  0.00000000000E+00  0.00000000000E+00  0.50680472540E+03  0.16685865209E+04  0.15897578269E+04 0.  0.
        2    1    3    3  502    0 -0.15831538133E+03 -0.70081625088E+03  0.61030044415E+03  0.94269497166E+03  0.25500000920E-02 0. -1.
       -2    1    3    3    0  502  0.15831538133E+03  0.70081625088E+03 -0.10349571875E+03  0.72589154924E+03  0.25500000920E-02 0.  1.
</event>
<event>
 5   0  0.1764099E-04  0.1607086E+04  0.7818609E-02  0.8816207E-01
        1   -1    0    0  501    0  0.00000000000E+00  0.00000000000E+00  0.75463515170E+03  0.75463515172E+03  0.50400001928E-02 0. -1.
       -1   -1    0    0    0  501  0.00000000000E+00  0.00000000000E+00 -0.85562062209E+03  0.85562062210E+03  0.50400001928E-02 0.  1.
    10030    2    1    2    0    0  0.00000000000E+00  0.00000000000E+00 -0.10098547038E+03  0.16102557738E+04  0.16070860562E+04 0.  0.
        5    1    3    3  502    0  0.72180822685E+03 -0.26212346976E+03 -0.28748297719E+03  0.81999047672E+03  0.46999998093E+01 0.  1.
       -5    1    3    3    0  502 -0.72180822685E+03  0.26212346976E+03  0.18649750680E+03  0.79026529709E+03  0.46999998093E+01 0. -1.
</event>
<event>
 5   0  0.1764099E-04  0.1595264E+04  0.7818609E-02  0.8823463E-01
        1   -1    0    0  501    0  0.00000000000E+00  0.00000000000E+00  0.80051317182E+03  0.80051317184E+03  0.50400001928E-02 0. -1.
       -1   -1    0    0    0  501  0.00000000000E+00  0.00000000000E+00 -0.79476146129E+03  0.79476146131E+03  0.50400001928E-02 0.  1.
    10030    2    1    2    0    0  0.00000000000E+00  0.00000000000E+00  0.57517105307E+01  0.15952746331E+04  0.15952642643E+04 0.  0.
        5    1    3    3  502    0 -0.10850170599E+03 -0.42734057310E+03 -0.66181060154E+03  0.79524081128E+03  0.46999998093E+01 0.  1.
       -5    1    3    3    0  502  0.10850170599E+03  0.42734057310E+03  0.66756231207E+03  0.80003382186E+03  0.46999998093E+01 0. -1.
</event>
<event>
 5   0  0.3228393E-04  0.1606657E+04  0.7818609E-02  0.8816469E-01
       -2   -1    0    0    0  501  0.00000000000E+00  0.00000000000E+00  0.56462626674E+03  0.56462626674E+03  0.25500000920E-02 0.  1.
        2   -1    0    0  501    0  0.00000000000E+00  0.00000000000E+00 -0.11429446869E+04  0.11429446869E+04  0.25500000920E-02 0. -1.
    10030    2    1    2    0    0  0.00000000000E+00  0.00000000000E+00 -0.57831842012E+03  0.17075709536E+04  0.16066568914E+04 0.  0.
        1    1    3    3  502    0  0.71375580737E+03  0.31744776942E+03 -0.48832240394E+03  0.92123786780E+03  0.50400001928E-02 0. -1.
       -1    1    3    3    0  502 -0.71375580737E+03 -0.31744776942E+03 -0.89996016181E+02  0.78633308580E+03  0.50400001928E-02 0.  1.
</event>
<event>
 5   0  0.1764099E-04  0.1606668E+04  0.7818609E-02  0.8816462E-01
       -1   -1    0    0    0  501  0.00000000000E+00  0.00000000000E+00  0.47925534854E+03  0.47925534857E+03  0.50400001928E-02 0.  1.
        1   -1    0    0  501    0  0.00000000000E+00  0.00000000000E+00 -0.13465586941E+04  0.13465586941E+04  0.50400001928E-02 0. -1.
    10030    2    1    2    0    0  0.00000000000E+00  0.00000000000E+00 -0.86730334557E+03  0.18258140427E+04  0.16066679263E+04 0.  0.
        5    1    3    3  502    0 -0.16171971588E+03  0.74504391913E+02 -0.13238358846E+04  0.13357648409E+04  0.46999998093E+01 0. -1.
       -5    1    3    3    0  502  0.16171971588E+03 -0.74504391913E+02  0.45653253905E+03  0.49004920174E+03  0.46999998093E+01 0.  1.
</event>
<event>
 5   0  0.3210612E-04  0.1607415E+04  0.7818609E-02  0.8816006E-01
        2   -1    0    0  501    0  0.00000000000E+00  0.00000000000E+00  0.97467980605E+03  0.97467980605E+03  0.25500000920E-02 0. -1.
       -2   -1    0    0    0  501  0.00000000000E+00  0.00000000000E+00 -0.66272618829E+03  0.66272618829E+03  0.25500000920E-02 0.  1.
    10030    2    1    2    0    0  0.00000000000E+00  0.00000000000E+00  0.31195361776E+03  0.16374059943E+04  0.16074151084E+04 0.  0.
        2    1    3    3  502    0 -0.53726564305E+03  0.11072044678E+03  0.75433094473E+03  0.93269961012E+03  0.25500000920E-02 0. -1.
       -2    1    3    3    0  502  0.53726564305E+03 -0.11072044678E+03 -0.44237732697E+03  0.70470638422E+03  0.25500000920E-02 0.  1.
</event>
<event>
 5   0  0.1761255E-04  0.1578316E+04  0.7818609E-02  0.8833981E-01
       -1   -1    0    0    0  501  0.00000000000E+00  0.00000000000E+00  0.40532599236E+03  0.40532599239E+03  0.50400001928E-02 0.  1.
        1   -1    0    0  501    0  0.00000000000E+00  0.00000000000E+00 -0.15364676948E+04  0.15364676948E+04  0.50400001928E-02 0. -1.
    10030    2    1    2    0    0  0.00000000000E+00  0.00000000000E+00 -0.11311417024E+04  0.19417936872E+04  0.15783159293E+04 0.  0.
        2    1    3    3  502    0  0.43392929321E+02 -0.73962691333E+03 -0.89988376586E+03  0.11656421875E+04  0.25500000920E-02 0.  1.
       -2    1    3    3    0  502 -0.43392929321E+02  0.73962691333E+03 -0.23125793657E+03  0.77615149969E+03  0.25500000920E-02 0. -1.
</event>
<event>
 5   0  0.3380454E-04  0.1604449E+04  0.7818609E-02  0.8817820E-01
       -2   -1    0    0    0  501  0.00000000000E+00  0.00000000000E+00  0.13050606981E+04  0.13050606981E+04  0.25500000920E-02 0. -1.
        2   -1    0    0  501    0  0.00000000000E+00  0.00000000000E+00 -0.49312944819E+03  0.49312944819E+03  0.25500000920E-02 0.  1.
    10030    2    1    2    0    0  0.00000000000E+00  0.00000000000E+00  0.81193124990E+03  0.17981901463E+04  0.16044486429E+04 0.  0.
        5    1    3    3  502    0  0.65051792263E+03  0.24252686089E+03 -0.44500181776E+02  0.69569763697E+03  0.46999998093E+01 0.  1.
       -5    1    3    3    0  502 -0.65051792263E+03 -0.24252686089E+03  0.85643143167E+03  0.11024925093E+04  0.46999998093E+01 0. -1.
</event>
<event>
 5   0  0.3263294E-04  0.1554026E+04  0.7818609E-02  0.8849300E-01
        2   -1    0    0  501    0  0.00000000000E+00  0.00000000000E+00  0.13068199773E+04  0.13068199773E+04  0.25500000920E-02 0. -1.
       -2   -1    0    0    0  501  0.00000000000E+00  0.00000000000E+00 -0.46199904121E+03  0.46199904121E+03  0.25500000920E-02 0.  1.
    10030    2    1    2    0    0  0.00000000000E+00  0.00000000000E+00  0.84482093609E+03  0.17688190185E+04  0.15540264818E+04 0.  0.
        4    1    3    3  502    0 -0.69436297651E+03  0.24022589242E+03  0.13468794923E+03  0.74698787079E+03  0.12699999809E+01 0.  1.
       -4    1    3    3    0  502  0.69436297651E+03 -0.24022589242E+03  0.71013298686E+03  0.10218311477E+04  0.12699999809E+01 0. -1.
</event>
<event>
 5   0  0.3263294E-04  0.1589812E+04  0.7818609E-02  0.8826832E-01
        2   -1    0    0  501    0  0.00000000000E+00  0.00000000000E+00  0.71440586310E+03  0.71440586311E+03  0.25500000920E-02 0.  1.
       -2   -1    0    0    0  501  0.00000000000E+00  0.00000000000E+00 -0.88447686586E+03  0.88447686587E+03  0.25500000920E-02 0. -1.
    10030    2    1    2    0    0  0.00000000000E+00  0.00000000000E+00 -0.17007100276E+03  0.15988827290E+04  0.15898118867E+04 0.  0.
        4    1    3    3  502    0 -0.11116010359E+03 -0.68650780193E+03 -0.47223126564E+03  0.84062685652E+03  0.12699999809E+01 0. -1.
       -4    1    3    3    0  502  0.11116010359E+03  0.68650780193E+03  0.30216026288E+03  0.75825587246E+03  0.12699999809E+01 0.  1.
</event>
<event>
 5   0  0.1764099E-04  0.1594201E+04  0.7818609E-02  0.8824118E-01
        1   -1    0    0  501    0  0.00000000000E+00  0.00000000000E+00  0.13132678623E+04  0.13132678623E+04  0.50400001928E-02 0. -1.
       -1   -1    0    0    0  501  0.00000000000E+00  0.00000000000E+00 -0.48380799624E+03  0.48380799627E+03  0.50400001928E-02 0.  1.
    10030    2    1    2    0    0  0.00000000000E+00  0.00000000000E+00  0.82945986608E+03  0.17970758586E+04  0.15942013587E+04 0.  0.
        5    1    3    3  502    0  0.42834986541E+03 -0.67172571386E+03  0.38602663941E+03  0.88528961261E+03  0.46999998093E+01 0. -1.
       -5    1    3    3    0  502 -0.42834986541E+03  0.67172571386E+03  0.44343322666E+03  0.91178624598E+03  0.46999998093E+01 0.  1.
</event>
<event>
 5   0  0.1219463E-04  0.1620794E+04  0.7818609E-02  0.8807874E-01
        3   -1    0    0  501    0  0.00000000000E+00  0.00000000000E+00  0.49573179719E+03  0.49573180748E+03  0.10100000352E+00 0. -1.
       -3   -1    0    0    0  501  0.00000000000E+00  0.00000000000E+00 -0.13247959946E+04  0.13247959984E+04  0.10100000352E+00 0.  1.
    10030    2    1    2    0    0  0.00000000000E+00  0.00000000000E+00 -0.82906419739E+03  0.18205278059E+04  0.16207942648E+04 0.  0.
        4    1    3    3  502    0 -0.73622434719E+03  0.33866101370E+03 -0.42007222641E+03  0.91278686444E+03  0.12699999809E+01 0.  1.
       -4    1    3    3    0  502  0.73622434719E+03 -0.33866101370E+03 -0.40899197098E+03  0.90774094147E+03  0.12699999809E+01 0. -1.
</event>
<event>
 5   0  0.1764099E-04  0.1592297E+04  0.7818609E-02  0.8825294E-01
        1   -1    0    0  501    0  0.00000000000E+00  0.00000000000E+00  0.78254045256E+03  0.78254045257E+03  0.50400001928E-02 0.  1.
       -1   -1    0    0    0  501  0.00000000000E+00  0.00000000000E+00 -0.80999331155E+03  0.80999331156E+03  0.50400001928E-02 0. -1.
    10030    2    1    2    0    0  0.00000000000E+00  0.00000000000E+00 -0.27452858992E+02  0.15925337641E+04  0.15922971238E+04 0.  0.
        5    1    3    3  502    0 -0.35421238592E+03 -0.34654294464E+03 -0.63693380349E+03  0.80701002896E+03  0.46999998093E+01 0. -1.
       -5    1    3    3    0  502  0.35421238592E+03  0.34654294464E+03  0.60948094449E+03  0.78552373517E+03  0.46999998093E+01 0.  1.
</event>
<event>
 5   0  0.3263294E-04  0.1592467E+04  0.7818609E-02  0.8825189E-01
        2   -1    0    0  501    0  0.00000000000E+00  0.00000000000E+00  0.13637974143E+04  0.13637974143E+04  0.25500000920E-02 0.  1.
       -2   -1    0    0    0  501  0.00000000000E+00  0.00000000000E+00 -0.46486971908E+03  0.46486971909E+03  0.25500000920E-02 0. -1.
    10030    2    1    2    0    0  0.00000000000E+00  0.00000000000E+00  0.89892769526E+03  0.18286671334E+04  0.15924674199E+04 0.  0.
        4    1    3    3  502    0  0.64610334921E+03 -0.13182023408E+02 -0.84677017980E+02  0.65176308109E+03  0.12699999809E+01 0. -1.
       -4    1    3    3    0  502 -0.64610334921E+03  0.13182023408E+02  0.98360471324E+03  0.11769040523E+04  0.12699999809E+01 0.  1.
</event>
<event>
 5   0  0.3380454E-04  0.1589712E+04  0.7818609E-02  0.8826893E-01
        2   -1    0    0  501    0  0.00000000000E+00  0.00000000000E+00  0.41869954508E+03  0.41869954509E+03  0.25500000920E-02 0. -1.
       -2   -1    0    0    0  501  0.00000000000E+00  0.00000000000E+00 -0.15089490543E+04  0.15089490543E+04  0.25500000920E-02 0.  1.
    10030    2    1    2    0    0  0.00000000000E+00  0.00000000000E+00 -0.10902495092E+04  0.19276485994E+04  0.15897122791E+04 0.  0.
        5    1    3    3  502    0 -0.13048029956E+03  0.78400481032E+03 -0.53390979792E+03  0.95748128623E+03  0.46999998093E+01 0. -1.
       -5    1    3    3    0  502  0.13048029956E+03 -0.78400481032E+03 -0.55633971132E+03  0.97016731318E+03  0.46999998093E+01 0.  1.
</event>
<event>
 5   0  0.1736537E-04  0.1604109E+04  0.7818609E-02  0.8818027E-01
       -1   -1    0    0    0  501  0.00000000000E+00  0.00000000000E+00  0.40298302625E+03  0.40298302628E+03  0.50400001928E-02 0.  1.
        1   -1    0    0  501    0  0.00000000000E+00  0.00000000000E+00 -0.15963246461E+04  0.15963246461E+04  0.50400001928E-02 0. -1.
    10030    2    1    2    0    0  0.00000000000E+00  0.00000000000E+00 -0.11933416198E+04  0.19993076724E+04  0.16041093938E+04 0.  0.
        3    1    3    3  502    0 -0.49983296520E+03  0.60860125284E+03 -0.78595131666E+03  0.11126310981E+04  0.10100000352E+00 0. -1.
       -3    1    3    3    0  502  0.49983296520E+03 -0.60860125284E+03 -0.40739030317E+03  0.88667657428E+03  0.10100000352E+00 0.  1.
</event>
<event>
 5   0  0.3263294E-04  0.1623339E+04  0.7818609E-02  0.8806337E-01
        2   -1    0    0  501    0  0.00000000000E+00  0.00000000000E+00  0.90179984563E+03  0.90179984564E+03  0.25500000920E-02 0.  1.
       -2   -1    0    0    0  501  0.00000000000E+00  0.00000000000E+00 -0.73054728334E+03  0.73054728335E+03  0.25500000920E-02 0. -1.
    10030    2    1    2    0    0  0.00000000000E+00  0.00000000000E+00  0.17125256229E+03  0.16323471290E+04  0.16233390618E+04 0.  0.
        4    1    3    3  502    0 -0.27457165795E+03 -0.27785022589E+02  0.85317331692E+03  0.89669834640E+03  0.12699999809E+01 0.  1.
       -4    1    3    3    0  502  0.27457165795E+03  0.27785022589E+02 -0.68192075463E+03  0.73564878259E+03  0.12699999809E+01 0. -1.
</event>
<event>
 5   0  0.3228393E-04  0.1580974E+04  0.7818609E-02  0.8832322E-01
        2   -1    0    0  501    0  0.00000000000E+00  0.00000000000E+00  0.76838040141E+03  0.76838040141E+03  0.25500000920E-02 0.  1.
       -2   -1    0    0    0  501  0.00000000000E+00  0.00000000000E+00 -0.81322998633E+03  0.81322998633E+03  0.25500000920E-02 0. -1.
    10030    2    1    2    0    0  0.00000000000E+00  0.00000000000E+00 -0.44849584922E+02  0.15816103877E+04  0.15809743620E+04 0.  0.
        1    1    3    3  502    0 -0.58215369808E+03 -0.44496186814E+03 -0.31915158720E+03  0.79921944917E+03  0.50400001928E-02 0. -1.
       -1    1    3    3    0  502  0.58215369808E+03  0.44496186814E+03  0.27430200228E+03  0.78239093858E+03  0.50400001928E-02 0.  1.
</event>
<event>
 5   0  0.1736537E-04  0.1565546E+04  0.7818609E-02  0.8841998E-01
       -1   -1    0    0    0  501  0.00000000000E+00  0.00000000000E+00  0.60726411938E+03  0.60726411940E+03  0.50400001928E-02 0.  1.
        1   -1    0    0  501    0  0.00000000000E+00  0.00000000000E+00 -0.10090073215E+04  0.10090073215E+04  0.50400001928E-02 0. -1.
    10030    2    1    2    0    0  0.00000000000E+00  0.00000000000E+00 -0.40174320214E+03  0.16162714409E+04  0.15655464766E+04 0.  0.
        3    1    3    3  502    0  0.62287664639E+03 -0.43550762179E+03 -0.39426903431E+03  0.85620691826E+03  0.10100000352E+00 0.  1.
       -3    1    3    3    0  502 -0.62287664639E+03  0.43550762179E+03 -0.74741678321E+01  0.76006452268E+03  0.10100000352E+00 0. -1.
</event>
<event>
 5   0  0.3274900E-04  0.1584924E+04  0.7818609E-02  0.8829864E-01
        2   -1    0    0  501    0  0.00000000000E+00  0.00000000000E+00  0.97601066672E+03  0.97601066672E+03  0.25500000920E-02 0. -1.
       -2   -1    0    0    0  501  0.00000000000E+00  0.00000000000E+00 -0.64343114940E+03  0.64343114941E+03  0.25500000920E-02 0.  1.
    10030    2    1    2    0    0  0.00000000000E+00  0.00000000000E+00  0.33257951732E+03  0.16194418161E+04  0.15849235504E+04 0.  0.
        3    1    3    3  502    0 -0.74883011561E+03  0.19629634349E+03  0.33944095396E+03  0.84528040788E+03  0.10100000352E+00 0. -1.
       -3    1    3    3    0  502  0.74883011561E+03 -0.19629634349E+03 -0.68614366389E+01  0.77416140825E+03  0.10100000352E+00 0.  1.
</event>
<event>
 5   0  0.1736537E-04  0.1580326E+04  0.7818609E-02  0.8832726E-01
       -1   -1    0    0    0  501  0.00000000000E+00  0.00000000000E+00  0.49387778191E+03  0.49387778193E+03  0.50400001928E-02 0.  1.
        1   -1    0    0  501    0  0.00000000000E+00  0.00000000000E+00 -0.12641945842E+04  0.12641945842E+04  0.50400001928E-02 0. -1.
    10030    2    1    2    0    0  0.00000000000E+00  0.00000000000E+00 -0.77031680230E+03  0.17580723662E+04  0.15803260641E+04 0.  0.
        3    1    3    3  502    0  0.29162671887E+03 -0.57911069392E+03 -0.88755150233E+03  0.10991646912E+04  0.10100000352E+00 0. -1.
       -3    1    3    3    0  502 -0.29162671887E+03  0.57911069392E+03  0.11723470002E+03  0.65890767492E+03  0.10100000352E+00 0.  1.
</event>
<event>
 5   0  0.1764099E-04  0.1611470E+04  0.7818609E-02  0.8813533E-01
        1   -1    0    0  501    0  0.00000000000E+00  0.00000000000E+00  0.77285377163E+03  0.77285377164E+03  0.50400001928E-02 0.  1.
       -1   -1    0    0    0  501  0.00000000000E+00  0.00000000000E+00 -0.84001492004E+03  0.84001492006E+03  0.50400001928E-02 0. -1.
    10030    2    1    2    0    0  0.00000000000E+00  0.00000000000E+00 -0.67161148418E+02  0.16128686917E+04  0.16114697629E+04 0.  0.
        5    1    3    3  502    0  0.13929193000E+03  0.29582896419E+03  0.70344825597E+03  0.77574387309E+03  0.46999998093E+01 0.  1.
       -5    1    3    3    0  502 -0.13929193000E+03 -0.29582896419E+03 -0.77060940438E+03  0.83712481861E+03  0.46999998093E+01 0. -1.
</event>
<event>
 5   0  0.1819811E-04  0.1600845E+04  0.7818609E-02  0.8820029E-01
       -1   -1    0    0    0  501  0.00000000000E+00  0.00000000000E+00  0.75319619131E+03  0.75319619133E+03  0.50400001928E-02 0.  1.
        1   -1    0    0  501    0  0.00000000000E+00  0.00000000000E+00 -0.85061021222E+03  0.85061021224E+03  0.50400001928E-02 0. -1.
    10030    2    1    2    0    0  0.00000000000E+00  0.00000000000E+00 -0.97414020910E+02  0.16038064036E+04  0.16008452419E+04 0.  0.
        1    1    3    3  502    0 -0.41292896340E+03  0.46531218928E+03  0.45586197150E+03  0.77125605307E+03  0.50400001928E-02 0.  1.
       -1    1    3    3    0  502  0.41292896340E+03 -0.46531218928E+03 -0.55327599241E+03  0.83255035050E+03  0.50400001928E-02 0. -1.
</event>
<event>
 5   0  0.1819811E-04  0.1581103E+04  0.7818609E-02  0.8832242E-01
       -1   -1    0    0    0  501  0.00000000000E+00  0.00000000000E+00  0.71484201276E+03  0.71484201278E+03  0.50400001928E-02 0. -1.
        1   -1    0    0  501    0  0.00000000000E+00  0.00000000000E+00 -0.87427938356E+03  0.87427938357E+03  0.50400001928E-02 0.  1.
    10030    2    1    2    0    0  0.00000000000E+00  0.00000000000E+00 -0.15943737080E+03  0.15891213963E+04  0.15811029496E+04 0.  0.
        1    1    3    3  502    0  0.69249058412E+03 -0.19855852632E+03  0.24751339621E+03  0.76172933434E+03  0.50400001928E-02 0. -1.
       -1    1    3    3    0  502 -0.69249058412E+03  0.19855852632E+03 -0.40695076701E+03  0.82739206200E+03  0.50400001928E-02 0.  1.
</event>
<event>
 5   0  0.3274900E-04  0.1603516E+04  0.7818609E-02  0.8818391E-01
        2   -1    0    0  501    0  0.00000000000E+00  0.00000000000E+00  0.67108367244E+03  0.67108367245E+03  0.25500000920E-02 0.  1.
       -2   -1    0    0    0  501  0.00000000000E+00  0.00000000000E+00 -0.95787693136E+03  0.95787693136E+03  0.25500000920E-02 0. -1.
    10030    2    1    2    0    0  0.00000000000E+00  0.00000000000E+00 -0.28679325892E+03  0.16289606038E+04  0.16035155987E+04 0.  0.
        3    1    3    3  502    0 -0.57273061277E+03 -0.84509868469E+02 -0.70686322055E+03  0.91368369551E+03  0.10100000352E+00 0. -1.
       -3    1    3    3    0  502  0.57273061277E+03  0.84509868469E+02  0.42006996164E+03  0.71527690830E+03  0.10100000352E+00 0.  1.
</event>
<event>
 5   0  0.1819811E-04  0.1601403E+04  0.7818609E-02  0.8819686E-01
        1   -1    0    0  501    0  0.00000000000E+00  0.00000000000E+00  0.11259862113E+04  0.11259862114E+04  0.50400001928E-02 0.  1.
       -1   -1    0    0    0  501  0.00000000000E+00  0.00000000000E+00 -0.56938797396E+03  0.56938797399E+03  0.50400001928E-02 0. -1.
    10030    2    1    2    0    0  0.00000000000E+00  0.00000000000E+00  0.55659823738E+03  0.16953741853E+04  0.16014031443E+04 0.  0.
        1    1    3    3  502    0 -0.11370750949E+03 -0.79147418282E+03  0.23385688145E+03  0.83309652551E+03  0.50400001928E-02 0. -1.
       -1    1    3    3    0  502  0.11370750949E+03  0.79147418282E+03  0.32274135592E+03  0.86227765983E+03  0.50400001928E-02 0.  1.
</event>
<event>
 5   0  0.1761255E-04  0.1616213E+04  0.7818609E-02  0.8810649E-01
        1   -1    0    0  501    0  0.00000000000E+00  0.00000000000E+00  0.12897305504E+04  0.12897305504E+04  0.50400001928E-02 0. -1.
       -1   -1    0    0    0  501  0.00000000000E+00  0.00000000000E+00 -0.50633542674E+03  0.50633542676E+03  0.50400001928E-02 0.  1.
    10030    2    1    2    0    0  0.00000000000E+00  0.00000000000E+00  0.78339512364E+03  0.17960659772E+04  0.16162131897E+04 0.  0.
        2    1    3    3  502    0 -0.59770208645E+03 -0.51600324462E+03  0.20073465819E+03  0.81474016448E+03  0.25500000920E-02 0.  1.
       -2    1    3    3    0  502  0.59770208645E+03  0.51600324462E+03  0.58266046545E+03  0.98132581267E+03  0.25500000920E-02 0. -1.
</event>
<event>
 5   0  0.1764099E-04  0.1600940E+04  0.7818609E-02  0.8819971E-01
       -1   -1    0    0    0  501  0.00000000000E+00  0.00000000000E+00  0.56308246005E+03  0.56308246008E+03  0.50400001928E-02 0.  1.
        1   -1    0    0  501    0  0.00000000000E+00  0.00000000000E+00 -0.11379371721E+04  0.11379371721E+04  0.50400001928E-02 0. -1.
    10030    2    1    2    0    0  0.00000000000E+00  0.00000000000E+00 -0.57485471203E+03  0.17010196322E+04  0.16009403015E+04 0.  0.
        5    1    3    3  502    0 -0.37678693266E+03 -0.37610392260E+03 -0.92254685818E+03  0.10651466325E+04  0.46999998093E+01 0. -1.
       -5    1    3    3    0  502  0.37678693266E+03  0.37610392260E+03  0.34769214614E+03  0.63587299966E+03  0.46999998093E+01 0.  1.
</event>
<event>
 5   0  0.3263294E-04  0.1603991E+04  0.7818609E-02  0.8818100E-01
        2   -1    0    0  501    0  0.00000000000E+00  0.00000000000E+00  0.78557745956E+03  0.78557745957E+03  0.25500000920E-02 0. -1.
       -2   -1    0    0    0  501  0.00000000000E+00  0.00000000000E+00 -0.81875634600E+03  0.81875634600E+03  0.25500000920E-02 0.  1.
    10030    2    1    2    0    0  0.00000000000E+00  0.00000000000E+00 -0.33178886433E+02  0.16043338056E+04  0.16039906861E+04 0.  0.
        4    1    3    3  502    0 -0.77949433755E+03  0.32107260348E+02  0.16933366792E+03  0.79832186644E+03  0.12699999809E+01 0. -1.
       -4    1    3    3    0  502  0.77949433755E+03 -0.32107260348E+02 -0.20251255436E+03  0.80601193913E+03  0.12699999809E+01 0.  1.
</event>
<event>
 5   0  0.3274900E-04  0.1629578E+04  0.7818609E-02  0.8802580E-01
        2   -1    0    0  501    0  0.00000000000E+00  0.00000000000E+00  0.11130563368E+04  0.11130563368E+04  0.25500000920E-02 0.  1.
       -2   -1    0    0    0  501  0.00000000000E+00  0.00000000000E+00 -0.59644877830E+03  0.59644877830E+03  0.25500000920E-02 0. -1.
    10030    2    1    2    0    0  0.00000000000E+00  0.00000000000E+00  0.51660755851E+03  0.17095051151E+04  0.16295779727E+04 0.  0.
        3    1    3    3  502    0  0.31840307078E+03  0.28794128179E+03  0.98479520458E+03  0.10742961893E+04  0.10100000352E+00 0.  1.
       -3    1    3    3    0  502 -0.31840307078E+03 -0.28794128179E+03 -0.46818764608E+03  0.63520892577E+03  0.10100000352E+00 0. -1.
</event>
<event>
 5   0  0.1787688E-04  0.1602975E+04  0.7818609E-02  0.8818723E-01
       -1   -1    0    0    0  501  0.00000000000E+00  0.00000000000E+00  0.87514077590E+03  0.87514077591E+03  0.50400001928E-02 0.  1.
        1   -1    0    0  501    0  0.00000000000E+00  0.00000000000E+00 -0.73403262937E+03  0.73403262939E+03  0.50400001928E-02 0. -1.
    10030    2    1    2    0    0  0.00000000000E+00  0.00000000000E+00  0.14110814653E+03  0.16091734053E+04  0.16029745910E+04 0.  0.
        4    1    3    3  502    0  0.16720837892E+03  0.25190247294E+03  0.81569584977E+03  0.86992806029E+03  0.12699999809E+01 0.  1.
       -4    1    3    3    0  502 -0.16720837892E+03 -0.25190247294E+03 -0.67458770324E+03  0.73924534501E+03  0.12699999809E+01 0. -1.
</event>
<event>
 5   0  0.1761255E-04  0.1615389E+04  0.7818609E-02  0.8811149E-01
        1   -1    0    0  501    0  0.00000000000E+00  0.00000000000E+00  0.16628534113E+04  0.16628534114E+04  0.50400001928E-02 0. -1.
       -1   -1    0    0    0  501  0.00000000000E+00  0.00000000000E+00 -0.39231987846E+03  0.39231987849E+03  0.50400001928E-02 0.  1.
    10030    2    1    2    0    0  0.00000000000E+00  0.00000000000E+00  0.12705335329E+04  0.20551732898E+04  0.16153890532E+04 0.  0.
        2    1    3    3  502    0 -0.45915034491E+03 -0.72011449355E+02 -0.20515374715E+03  0.50802829454E+03  0.25500000920E-02 0.  1.
       -2    1    3    3    0  502  0.45915034491E+03  0.72011449355E+02  0.14756872800E+04  0.15471449953E+04  0.25500000920E-02 0. -1.
</event>
<event>
 5   0  0.1787688E-04  0.1600260E+04  0.7818609E-02  0.8820388E-01
        1   -1    0    0  501    0  0.00000000000E+00  0.00000000000E+00  0.10192779604E+04  0.10192779604E+04  0.50400001928E-02 0. -1.
       -1   -1    0    0    0  501  0.00000000000E+00  0.00000000000E+00 -0.62809930719E+03  0.62809930721E+03  0.50400001928E-02 0.  1.
    10030    2    1    2    0    0  0.00000000000E+00  0.00000000000E+00  0.39117865320E+03  0.16473772676E+04  0.16002597049E+04 0.  0.
        4    1    3    3  502    0  0.79168904731E+02 -0.14459423443E+03 -0.61042693367E+03  0.63229570800E+03  0.12699999809E+01 0.  1.
       -4    1    3    3    0  502 -0.79168904731E+02  0.14459423443E+03  0.10016055869E+04  0.10150815596E+04  0.12699999809E+01 0. -1.
</event>
<event>
 5   0  0.1819811E-04  0.1599327E+04  0.7818609E-02  0.8820962E-01
        1   -1    0    0  501    0  0.00000000000E+00  0.00000000000E+00  0.66856219334E+03  0.66856219335E+03  0.50400001928E-02 0.  1.
       -1   -1    0    0    0  501  0.00000000000E+00  0.00000000000E+00 -0.95647261865E+03  0.95647261866E+03  0.50400001928E-02 0. -1.
    10030    2    1    2    0    0  0.00000000000E+00  0.00000000000E+00 -0.28791042531E+03  0.16250348120E+04  0.15993266481E+04 0.  0.
        1    1    3    3  502    0  0.16817005165E+03  0.69360831826E+03  0.22251925602E+03  0.74758844611E+03  0.50400001928E-02 0.  1.
       -1    1    3    3    0  502 -0.16817005165E+03 -0.69360831826E+03 -0.51042968134E+03  0.87744636591E+03  0.50400001928E-02 0. -1.
</event>
<event>
 5   0  0.1219463E-04  0.1604892E+04  0.7818609E-02  0.8817548E-01
        3   -1    0    0  501    0  0.00000000000E+00  0.00000000000E+00  0.71391034209E+03  0.71391034924E+03  0.10100000352E+00 0.  1.
       -3   -1    0    0    0  501  0.00000000000E+00  0.00000000000E+00 -0.90196186818E+03  0.90196187384E+03  0.10100000352E+00 0. -1.
    10030    2    1    2    0    0  0.00000000000E+00  0.00000000000E+00 -0.18805152609E+03  0.16158722231E+04  0.16048924153E+04 0.  0.
        3    1    3    3  502    0  0.32936444975E+03  0.32105450447E+03  0.56801592416E+03  0.73088920905E+03  0.10100000352E+00 0.  1.
       -3    1    3    3    0  502 -0.32936444975E+03 -0.32105450447E+03 -0.75606745025E+03  0.88498301403E+03  0.10100000352E+00 0. -1.
</event>
<event>
 5   0  0.1787688E-04  0.1601367E+04  0.7818609E-02  0.8819709E-01
       -1   -1    0    0    0  501  0.00000000000E+00  0.00000000000E+00  0.31757514267E+03  0.31757514271E+03  0.50400001928E-02 0.  1.
        1   -1    0    0  501    0  0.00000000000E+00  0.00000000000E+00 -0.20187155235E+04  0.20187155235E+04  0.50400001928E-02 0. -1.
    10030    2    1    2    0    0  0.00000000000E+00  0.00000000000E+00 -0.17011403808E+04  0.23362906662E+04  0.16013667543E+04 0.  0.
        4    1    3    3  502    0 -0.82491472000E+02  0.17476483022E+03  0.28303733517E+03  0.34272340865E+03  0.12699999809E+01 0.  1.
       -4    1    3    3    0  502  0.82491472000E+02 -0.17476483022E+03 -0.19841777160E+04  0.19935672575E+04  0.12699999809E+01 0. -1.
</event>
<event>
 5   0  0.3263294E-04  0.1600500E+04  0.7818609E-02  0.8820241E-01
       -2   -1    0    0    0  501  0.00000000000E+00  0.00000000000E+00  0.51801551430E+03  0.51801551430E+03  0.25500000920E-02 0.  1.
        2   -1    0    0  501    0  0.00000000000E+00  0.00000000000E+00 -0.12362570814E+04  0.12362570814E+04  0.25500000920E-02 0. -1.
    10030    2    1    2    0    0  0.00000000000E+00  0.00000000000E+00 -0.71824156706E+03  0.17542725957E+04  0.16005003565E+04 0.  0.
        4    1    3    3  502    0 -0.17099647300E+03  0.78030030730E+03 -0.30666489169E+03  0.85565958888E+03  0.12699999809E+01 0.  1.
       -4    1    3    3    0  502  0.17099647300E+03 -0.78030030730E+03 -0.41157667537E+03  0.89861300678E+03  0.12699999809E+01 0. -1.
</event>
<event>
 5   0  0.3263294E-04  0.1606485E+04  0.7818609E-02  0.8816574E-01
       -2   -1    0    0    0  501  0.00000000000E+00  0.00000000000E+00  0.38889541998E+03  0.38889541999E+03  0.25500000920E-02 0.  1.
        2   -1    0    0  501    0  0.00000000000E+00  0.00000000000E+00 -0.16590535089E+04  0.16590535089E+04  0.25500000920E-02 0. -1.
    10030    2    1    2    0    0  0.00000000000E+00  0.00000000000E+00 -0.12701580889E+04  0.20479489289E+04  0.16064847477E+04 0.  0.
        4    1    3    3  502    0  0.22643098996E+02 -0.59894919902E+03  0.46604628141E+02  0.60118753913E+03  0.12699999809E+01 0.  1.
       -4    1    3    3    0  502 -0.22643098996E+02  0.59894919902E+03 -0.13167627171E+04  0.14467613898E+04  0.12699999809E+01 0. -1.
</event>
<event>
 5   0  0.1819811E-04  0.1529531E+04  0.7818609E-02  0.8865049E-01
       -1   -1    0    0    0  501  0.00000000000E+00  0.00000000000E+00  0.62345507668E+03  0.62345507670E+03  0.50400001928E-02 0. -1.
        1   -1    0    0  501    0  0.00000000000E+00  0.00000000000E+00 -0.93810502909E+03  0.93810502910E+03  0.50400001928E-02 0.  1.
    10030    2    1    2    0    0  0.00000000000E+00  0.00000000000E+00 -0.31464995241E+03  0.15615601058E+04  0.15295310953E+04 0.  0.
        1    1    3    3  502    0  0.43745792588E+03 -0.19124499284E+03  0.45261515797E+03  0.65787883797E+03  0.50400001928E-02 0. -1.
       -1    1    3    3    0  502 -0.43745792588E+03  0.19124499284E+03 -0.76726511038E+03  0.90368126783E+03  0.50400001928E-02 0.  1.
</event>
<event>
 5   0  0.1787688E-04  0.1589771E+04  0.7818609E-02  0.8826857E-01
        1   -1    0    0  501    0  0.00000000000E+00  0.00000000000E+00  0.10019518942E+04  0.10019518942E+04  0.50400001928E-02 0. -1.
       -1   -1    0    0    0  501  0.00000000000E+00  0.00000000000E+00 -0.63061195835E+03  0.63061195837E+03  0.50400001928E-02 0.  1.
    10030    2    1    2    0    0  0.00000000000E+00  0.00000000000E+00  0.37133993587E+03  0.16325638526E+04  0.15897708592E+04 0.  0.
        4    1    3    3  502    0  0.20673326023E+03  0.53523792435E+03  0.75058948532E+03  0.94477746846E+03  0.12699999809E+01 0. -1.
       -4    1    3    3    0  502 -0.20673326023E+03 -0.53523792435E+03 -0.37924954945E+03  0.68778638414E+03  0.12699999809E+01 0.  1.
</event>
<event>
 5   0  0.3263294E-04  0.1557424E+04  0.7818609E-02  0.8847140E-01
       -2   -1    0    0    0  501  0.00000000000E+00  0.00000000000E+00  0.68436522459E+03  0.68436522459E+03  0.25500000920E-02 0. -1.
        2   -1    0    0  501    0  0.00000000000E+00  0.00000000000E+00 -0.88606547577E+03  0.88606547577E+03  0.25500000920E-02 0.  1.
    10030    2    1    2    0    0  0.00000000000E+00  0.00000000000E+00 -0.20170025118E+03  0.15704307004E+04  0.15574240249E+04 0.  0.
        4    1    3    3  502    0  0.50927153150E+03 -0.13889394701E+03  0.47641829532E+03  0.71107315119E+03  0.12699999809E+01 0. -1.
       -4    1    3    3    0  502 -0.50927153150E+03  0.13889394701E+03 -0.67811854650E+03  0.85935754918E+03  0.12699999809E+01 0.  1.
</event>
<event>
 5   0  0.3263294E-04  0.1584529E+04  0.7818609E-02  0.8830109E-01
       -2   -1    0    0    0  501  0.00000000000E+00  0.00000000000E+00  0.67944765511E+03  0.67944765512E+03  0.25500000920E-02 0.  1.
        2   -1    0    0  501    0  0.00000000000E+00  0.00000000000E+00 -0.92381372997E+03  0.92381372998E+03  0.25500000920E-02 0. -1.
    10030    2    1    2    0    0  0.00000000000E+00  0.00000000000E+00 -0.24436607486E+03  0.16032613851E+04  0.15845290437E+04 0.  0.
        4    1    3    3  502    0  0.23986833060E+03 -0.44368548786E+03 -0.74037883022E+03  0.89585492871E+03  0.12699999809E+01 0. -1.
       -4    1    3    3    0  502 -0.23986833060E+03  0.44368548786E+03  0.49601275536E+03  0.70740645639E+03  0.12699999809E+01 0.  1.
</event>
<event>
 5   0  0.3380454E-04  0.1613874E+04  0.7818609E-02  0.8812070E-01
       -2   -1    0    0    0  501  0.00000000000E+00  0.00000000000E+00  0.46585504957E+03  0.46585504958E+03  0.25500000920E-02 0.  1.
        2   -1    0    0  501    0  0.00000000000E+00  0.00000000000E+00 -0.13977467817E+04  0.13977467817E+04  0.25500000920E-02 0. -1.
    10030    2    1    2    0    0  0.00000000000E+00  0.00000000000E+00 -0.93189173210E+03  0.18636018313E+04  0.16138740921E+04 0.  0.
        5    1    3    3  502    0  0.35229665400E+03  0.72524907395E+03 -0.50293633809E+03  0.95029795425E+03  0.46999998093E+01 0.  1.
       -5    1    3    3    0  502 -0.35229665400E+03 -0.72524907395E+03 -0.42895539402E+03  0.91330387700E+03  0.46999998093E+01 0. -1.
</event>
<event>
 5   0  0.3228393E-04  0.1585985E+04  0.7818609E-02  0.8829205E-01
       -2   -1    0    0    0  501  0.00000000000E+00  0.00000000000E+00  0.49829924441E+03  0.49829924442E+03  0.25500000920E-02 0. -1.
        2   -1    0    0  501    0  0.00000000000E+00  0.00000000000E+00 -0.12619666609E+04  0.12619666609E+04  0.25500000920E-02 0.  1.
    10030    2    1    2    0    0  0.00000000000E+00  0.00000000000E+00 -0.76366741647E+03  0.17602659053E+04  0.15859849099E+04 0.  0.
        1    1    3    3  502    0 -0.10315811103E+02  0.29417610201E+03 -0.11990845827E+04  0.12346861267E+04  0.50400001928E-02 0.  1.
       -1    1    3    3    0  502  0.10315811103E+02 -0.29417610201E+03  0.43541716626E+03  0.52557977858E+03  0.50400001928E-02 0. -1.
</event>
<event>
 5   0  0.1764099E-04  0.1597976E+04  0.7818609E-02  0.8821792E-01
        1   -1    0    0  501    0  0.00000000000E+00  0.00000000000E+00  0.87968012971E+03  0.87968012973E+03  0.50400001928E-02 0. -1.
       -1   -1    0    0    0  501  0.00000000000E+00  0.00000000000E+00 -0.72569774076E+03  0.72569774077E+03  0.50400001928E-02 0.  1.
    10030    2    1    2    0    0  0.00000000000E+00  0.00000000000E+00  0.15398238896E+03  0.16053778705E+04  0.15979760733E+04 0.  0.
        5    1    3    3  502    0  0.70441392608E+03 -0.17855484719E+03 -0.25662979813E+03  0.77068914356E+03  0.46999998093E+01 0.  1.
       -5    1    3    3    0  502 -0.70441392608E+03  0.17855484719E+03  0.41061218709E+03  0.83468872695E+03  0.46999998093E+01 0. -1.
</event>
<event>
 5   0  0.3380454E-04  0.1605364E+04  0.7818609E-02  0.8817260E-01
       -2   -1    0    0    0  501  0.00000000000E+00  0.00000000000E+00  0.33580191268E+03  0.33580191269E+03  0.25500000920E-02 0. -1.
        2   -1    0    0  501    0  0.00000000000E+00  0.00000000000E+00 -0.19186852920E+04  0.19186852920E+04  0.25500000920E-02 0.  1.
    10030    2    1    2    0    0  0.00000000000E+00  0.00000000000E+00 -0.15828833793E+04  0.22544872047E+04  0.16053637481E+04 0.  0.
        5    1    3    3  502    0  0.63838407585E+03  0.14164735060E+03 -0.13773695155E+03  0.66827521131E+03  0.46999998093E+01 0. -1.
       -5    1    3    3    0  502 -0.63838407585E+03 -0.14164735060E+03 -0.14451464278E+04  0.15862119934E+04  0.46999998093E+01 0.  1.
</event>
<event>
 5   0  0.1761255E-04  0.1602159E+04  0.7818609E-02  0.8819223E-01
        1   -1    0    0  501    0  0.00000000000E+00  0.00000000000E+00  0.18021567342E+04  0.18021567343E+04  0.50400001928E-02 0. -1.
       -1   -1    0    0    0  501  0.00000000000E+00  0.00000000000E+00 -0.35608907302E+03  0.35608907306E+03  0.50400001928E-02 0.  1.
    10030    2    1    2    0    0  0.00000000000E+00  0.00000000000E+00  0.14460676612E+04  0.21582458073E+04  0.16021589447E+04 0.  0.
        2    1    3    3  502    0  0.12999317821E+02 -0.42400879037E+03  0.16384338800E+04  0.16924591622E+04  0.25500000920E-02 0. -1.
       -2    1    3    3    0  502 -0.12999317821E+02  0.42400879037E+03 -0.19236621882E+03  0.46578664507E+03  0.25500000920E-02 0.  1.
</event>
<event>
 5   0  0.3380454E-04  0.1606205E+04  0.7818609E-02  0.8816745E-01
       -2   -1    0    0    0  501  0.00000000000E+00  0.00000000000E+00  0.49971523418E+03  0.49971523419E+03  0.25500000920E-02 0. -1.
        2   -1    0    0  501    0  0.00000000000E+00  0.00000000000E+00 -0.12906826801E+04  0.12906826801E+04  0.25500000920E-02 0.  1.
    10030    2    1    2    0    0  0.00000000000E+00  0.00000000000E+00 -0.79096744592E+03  0.17903979143E+04  0.16062052145E+04 0.  0.
        5    1    3    3  502    0  0.36017523412E+02 -0.19483950529E+03  0.47202620804E+03  0.51194777653E+03  0.46999998093E+01 0. -1.
       -5    1    3    3    0  502 -0.36017523412E+02  0.19483950529E+03 -0.12629936540E+04  0.12784501378E+04  0.46999998093E+01 0.  1.
</event>
<event>
 5   0  0.1736537E-04  0.1567475E+04  0.7818609E-02  0.8840782E-01
       -1   -1    0    0    0  501  0.00000000000E+00  0.00000000000E+00  0.58446485822E+03  0.58446485824E+03  0.50400001928E-02 0. -1.
        1   -1    0    0  501    0  0.00000000000E+00  0.00000000000E+00 -0.10509521782E+04  0.10509521782E+04  0.50400001928E-02 0.  1.
    10030    2    1    2    0    0  0.00000000000E+00  0.00000000000E+00 -0.46648731998E+03  0.16354170365E+04  0.15674751875E+04 0.  0.
        3    1    3    3  502    0 -0.10303588185E+03 -0.50735928953E+03 -0.84714790260E+03  0.99281892644E+03  0.10100000352E+00 0.  1.
       -3    1    3    3    0  502  0.10303588185E+03  0.50735928953E+03  0.38066058262E+03  0.64259811001E+03  0.10100000352E+00 0. -1.
</event>
<event>
 5   0  0.1787688E-04  0.1438115E+04  0.7818609E-02  0.8926682E-01
        1   -1    0    0  501    0  0.00000000000E+00  0.00000000000E+00  0.11480395007E+04  0.11480395007E+04  0.50400001928E-02 0. -1.
       -1   -1    0    0    0  501  0.00000000000E+00  0.00000000000E+00 -0.45037097775E+03  0.45037097778E+03  0.50400001928E-02 0.  1.
    10030    2    1    2    0    0  0.00000000000E+00  0.00000000000E+00  0.69766852294E+03  0.15984104785E+04  0.14381149780E+04 0.  0.
        4    1    3    3  502    0 -0.22551568480E+03  0.19097208549E+03 -0.37975817946E+03  0.48119180094E+03  0.12699999809E+01 0.  1.
       -4    1    3    3    0  502  0.22551568480E+03 -0.19097208549E+03  0.10774267024E+04  0.11172186775E+04  0.12699999809E+01 0. -1.
</event>
<event>
 5   0  0.1736537E-04  0.1598442E+04  0.7818609E-02  0.8821506E-01
       -1   -1    0    0    0  501  0.00000000000E+00  0.00000000000E+00  0.10159876343E+04  0.10159876343E+04  0.50400001928E-02 0. -1.
        1   -1    0    0  501    0  0.00000000000E+00  0.00000000000E+00 -0.62870300173E+03  0.62870300175E+03  0.50400001928E-02 0.  1.
    10030    2    1    2    0    0  0.00000000000E+00  0.00000000000E+00  0.38728463258E+03  0.16446906361E+04  0.15984423361E+04 0.  0.
        3    1    3    3  502    0 -0.59596616227E+03 -0.37001051023E+03  0.58769964021E+03  0.91513623115E+03  0.10100000352E+00 0.  1.
       -3    1    3    3    0  502  0.59596616227E+03  0.37001051023E+03 -0.20041500763E+03  0.72955440492E+03  0.10100000352E+00 0. -1.
</event>
<event>
 5   0  0.1736537E-04  0.1604274E+04  0.7818609E-02  0.8817927E-01
       -1   -1    0    0    0  501  0.00000000000E+00  0.00000000000E+00  0.45241868253E+03  0.45241868255E+03  0.50400001928E-02 0.  1.
        1   -1    0    0  501    0  0.00000000000E+00  0.00000000000E+00 -0.14221858437E+04  0.14221858437E+04  0.50400001928E-02 0. -1.
    10030    2    1    2    0    0  0.00000000000E+00  0.00000000000E+00 -0.96976716120E+03  0.18746045263E+04  0.16042735998E+04 0.  0.
        3    1    3    3  502    0 -0.72710435765E+03  0.19317917939E+03 -0.81002358740E+03  0.11055031274E+04  0.10100000352E+00 0. -1.
       -3    1    3    3    0  502  0.72710435765E+03 -0.19317917939E+03 -0.15974357380E+03  0.76910139893E+03  0.10100000352E+00 0.  1.
</event>
<event>
 5   0  0.3210612E-04  0.1618507E+04  0.7818609E-02  0.8809259E-01
        2   -1    0    0  501    0  0.00000000000E+00  0.00000000000E+00  0.71982293910E+03  0.71982293910E+03  0.25500000920E-02 0.  1.
       -2   -1    0    0    0  501  0.00000000000E+00  0.00000000000E+00 -0.90979447832E+03  0.90979447832E+03  0.25500000920E-02 0. -1.
    10030    2    1    2    0    0  0.00000000000E+00  0.00000000000E+00 -0.18997153922E+03  0.16296174174E+04  0.16185066393E+04 0.  0.
        2    1    3    3  502    0 -0.33922941801E+03 -0.36668298988E+03 -0.73603370398E+03  0.88953843454E+03  0.25500000920E-02 0. -1.
       -2    1    3    3    0  502  0.33922941801E+03  0.36668298988E+03  0.54606216477E+03  0.74007898288E+03  0.25500000920E-02 0.  1.
</event>
<event>
 5   0  0.1764099E-04  0.1600225E+04  0.7818609E-02  0.8820410E-01
       -1   -1    0    0    0  501  0.00000000000E+00  0.00000000000E+00  0.38042526988E+03  0.38042526992E+03  0.50400001928E-02 0.  1.
        1   -1    0    0  501    0  0.00000000000E+00  0.00000000000E+00 -0.16828001982E+04  0.16828001982E+04  0.50400001928E-02 0. -1.
    10030    2    1    2    0    0  0.00000000000E+00  0.00000000000E+00 -0.13023749283E+04  0.20632254681E+04  0.16002246337E+04 0.  0.
        5    1    3    3  502    0  0.79516366093E+02 -0.48030768253E+03 -0.14698281237E+04  0.15483653075E+04  0.46999998093E+01 0. -1.
       -5    1    3    3    0  502 -0.79516366093E+02  0.48030768253E+03  0.16745319534E+03  0.51486016063E+03  0.46999998093E+01 0.  1.
</event>
<event>
 5   0  0.1761255E-04  0.1602786E+04  0.7818609E-02  0.8818838E-01
        1   -1    0    0  501    0  0.00000000000E+00  0.00000000000E+00  0.21029015115E+04  0.21029015115E+04  0.50400001928E-02 0.  1.
       -1   -1    0    0    0  501  0.00000000000E+00  0.00000000000E+00 -0.30540207991E+03  0.30540207995E+03  0.50400001928E-02 0. -1.
    10030    2    1    2    0    0  0.00000000000E+00  0.00000000000E+00  0.17974994316E+04  0.24083035914E+04  0.16027856944E+04 0.  0.
        2    1    3    3  502    0 -0.28983356002E+03  0.73508035691E+03  0.10996897865E+04  0.13541285944E+04  0.25500000920E-02 0.  1.
       -2    1    3    3    0  502  0.28983356002E+03 -0.73508035691E+03  0.69780964505E+03  0.10541749970E+04  0.25500000920E-02 0. -1.
</event>
<event>
 5   0  0.1736537E-04  0.1590333E+04  0.7818609E-02  0.8826509E-01
        1   -1    0    0  501    0  0.00000000000E+00  0.00000000000E+00  0.56766340260E+03  0.56766340263E+03  0.50400001928E-02 0.  1.
       -1   -1    0    0    0  501  0.00000000000E+00  0.00000000000E+00 -0.11138458776E+04  0.11138458776E+04  0.50400001928E-02 0. -1.
    10030    2    1    2    0    0  0.00000000000E+00  0.00000000000E+00 -0.54618247500E+03  0.16815092802E+04  0.15903327210E+04 0.  0.
        3    1    3    3  502    0  0.22918105630E+03 -0.53041851276E+03 -0.85069036539E+03  0.10283685444E+04  0.10100000352E+00 0. -1.
       -3    1    3    3    0  502 -0.22918105630E+03  0.53041851276E+03  0.30450789039E+03  0.65314073579E+03  0.10100000352E+00 0.  1.
</event>
<event>
 5   0  0.3228393E-04  0.1627073E+04  0.7818609E-02  0.8804086E-01
        2   -1    0    0  501    0  0.00000000000E+00  0.00000000000E+00  0.15454746651E+04  0.15454746651E+04  0.25500000920E-02 0. -1.
       -2   -1    0    0    0  501  0.00000000000E+00  0.00000000000E+00 -0.42824510792E+03  0.42824510792E+03  0.25500000920E-02 0.  1.
    10030    2    1    2    0    0  0.00000000000E+00  0.00000000000E+00  0.11172295572E+04  0.19737197730E+04  0.16270734031E+04 0.  0.
        1    1    3    3  502    0 -0.11147039284E+03  0.84259464361E+02  0.15308087842E+04  0.15371730025E+04  0.50400001928E-02 0. -1.
       -1    1    3    3    0  502  0.11147039284E+03 -0.84259464361E+02 -0.41357922701E+03  0.43654677053E+03  0.50400001928E-02 0.  1.
</event>
<event>
 5   0  0.3210612E-04  0.1581984E+04  0.7818609E-02  0.8831693E-01
       -2   -1    0    0    0  501  0.00000000000E+00  0.00000000000E+00  0.16810151273E+04  0.16810151273E+04  0.25500000920E-02 0.  1.
        2   -1    0    0  501    0  0.00000000000E+00  0.00000000000E+00 -0.37219673409E+03  0.37219673410E+03  0.25500000920E-02 0. -1.
    10030    2    1    2    0    0  0.00000000000E+00  0.00000000000E+00  0.13088183932E+04  0.20532118614E+04  0.15819839953E+04 0.  0.
        2    1    3    3  502    0  0.57571475997E+03  0.31351726074E+03  0.79922877426E+02  0.66040004843E+03  0.25500000920E-02 0. -1.
       -2    1    3    3    0  502 -0.57571475997E+03 -0.31351726074E+03  0.12288955157E+04  0.13928118129E+04  0.25500000920E-02 0.  1.
</event>
<event>
 5   0  0.1736537E-04  0.1588930E+04  0.7818609E-02  0.8827378E-01
        1   -1    0    0  501    0  0.00000000000E+00  0.00000000000E+00  0.10128767271E+04  0.10128767272E+04  0.50400001928E-02 0. -1.
       -1   -1    0    0    0  501  0.00000000000E+00  0.00000000000E+00 -0.62315056179E+03  0.62315056181E+03  0.50400001928E-02 0.  1.
    10030    2    1    2    0    0  0.00000000000E+00  0.00000000000E+00  0.38972616535E+03  0.16360272890E+04  0.15889300822E+04 0.  0.
        3    1    3    3  502    0  0.66036581207E+03 -0.11999149387E+03 -0.24281751415E+03  0.71375158125E+03  0.10100000352E+00 0.  1.
       -3    1    3    3    0  502 -0.66036581207E+03  0.11999149387E+03  0.63254367950E+03  0.92227570771E+03  0.10100000352E+00 0. -1.
</event>
<event>
 5   0  0.3228393E-04  0.1602316E+04  0.7818609E-02  0.8819127E-01
        2   -1    0    0  501    0  0.00000000000E+00  0.00000000000E+00  0.21781050834E+04  0.21781050834E+04  0.25500000920E-02 0. -1.
       -2   -1    0    0    0  501  0.00000000000E+00  0.00000000000E+00 -0.29468448607E+03  0.29468448608E+03  0.25500000920E-02 0.  1.
    10030    2    1    2    0    0  0.00000000000E+00  0.00000000000E+00  0.18834205974E+04  0.24727895695E+04  0.16023155459E+04 0.  0.
        1    1    3    3  502    0 -0.79241397743E+03 -0.91887072151E+02  0.82735658829E+03  0.11492963368E+04  0.50400001928E-02 0.  1.
       -1    1    3    3    0  502  0.79241397743E+03  0.91887072151E+02  0.10560640091E+04  0.13234932327E+04  0.50400001928E-02 0. -1.
</event>
<event>
 5   0  0.1819811E-04  0.1597804E+04  0.7818609E-02  0.8821898E-01
       -1   -1    0    0    0  501  0.00000000000E+00  0.00000000000E+00  0.55033383510E+03  0.55033383512E+03  0.50400001928E-02 0. -1.
        1   -1    0    0  501    0  0.00000000000E+00  0.00000000000E+00 -0.11597407780E+04  0.11597407780E+04  0.50400001928E-02 0.  1.
    10030    2    1    2    0    0  0.00000000000E+00  0.00000000000E+00 -0.60940694287E+03  0.17100746131E+04  0.15978042309E+04 0.  0.
        1    1    3    3  502    0  0.27972217615E+03  0.73299619848E+03 -0.14339253914E+03  0.79755209430E+03  0.50400001928E-02 0. -1.
       -1    1    3    3    0  502 -0.27972217615E+03 -0.73299619848E+03 -0.46601440373E+03  0.91252251880E+03  0.50400001928E-02 0.  1.
</event>
<event>
 5   0  0.1736537E-04  0.1589798E+04  0.7818609E-02  0.8826840E-01
        1   -1    0    0  501    0  0.00000000000E+00  0.00000000000E+00  0.12827736890E+04  0.12827736890E+04  0.50400001928E-02 0. -1.
       -1   -1    0    0    0  501  0.00000000000E+00  0.00000000000E+00 -0.49257645075E+03  0.49257645078E+03  0.50400001928E-02 0.  1.
    10030    2    1    2    0    0  0.00000000000E+00  0.00000000000E+00  0.79019723826E+03  0.17753501398E+04  0.15897976109E+04 0.  0.
        3    1    3    3  502    0 -0.28423379972E+03  0.55387721693E+03  0.94704858838E+03  0.11333445475E+04  0.10100000352E+00 0. -1.
       -3    1    3    3    0  502  0.28423379972E+03 -0.55387721693E+03 -0.15685135012E+03  0.64200559232E+03  0.10100000352E+00 0.  1.
</event>
<event>
 5   0  0.3263294E-04  0.1564809E+04  0.7818609E-02  0.8842464E-01
       -2   -1    0    0    0  501  0.00000000000E+00  0.00000000000E+00  0.69299813853E+03  0.69299813854E+03  0.25500000920E-02 0.  1.
        2   -1    0    0  501    0  0.00000000000E+00  0.00000000000E+00 -0.88334510744E+03  0.88334510744E+03  0.25500000920E-02 0. -1.
    10030    2    1    2    0    0  0.00000000000E+00  0.00000000000E+00 -0.19034696891E+03  0.15763432460E+04  0.15648086338E+04 0.  0.
        4    1    3    3  502    0 -0.49910653346E+03 -0.50392299809E+03  0.23757815780E+03  0.74799111874E+03  0.12699999809E+01 0.  1.
       -4    1    3    3    0  502  0.49910653346E+03  0.50392299809E+03 -0.42792512670E+03  0.82835212724E+03  0.12699999809E+01 0. -1.
</event>
<event>
 5   0  0.3380454E-04  0.1576703E+04  0.7818609E-02  0.8834989E-01
       -2   -1    0    0    0  501  0.00000000000E+00  0.00000000000E+00  0.74915335930E+03  0.74915335931E+03  0.25500000920E-02 0.  1.
        2   -1    0    0  501    0  0.00000000000E+00  0.00000000000E+00 -0.82960054814E+03  0.82960054814E+03  0.25500000920E-02 0. -1.
    10030    2    1    2    0    0  0.00000000000E+00  0.00000000000E+00 -0.80447188834E+02  0.15787539074E+04  0.15767029365E+04 0.  0.
        5    1    3    3  502    0  0.74497245350E+01 -0.42515935774E+03 -0.70490933510E+03  0.82324676652E+03  0.46999998093E+01 0. -1.
       -5    1    3    3    0  502 -0.74497245350E+01  0.42515935774E+03  0.62446214627E+03  0.75550714093E+03  0.46999998093E+01 0.  1.
</event>
<event>
 5   0  0.3228393E-04  0.1621186E+04  0.7818609E-02  0.8807637E-01
        2   -1    0    0  501    0  0.00000000000E+00  0.00000000000E+00  0.60643527654E+03  0.60643527655E+03  0.25500000920E-02 0. -1.
       -2   -1    0    0    0  501  0.00000000000E+00  0.00000000000E+00 -0.10834806756E+04  0.10834806756E+04  0.25500000920E-02 0.  1.
    10030    2    1    2    0    0  0.00000000000E+00  0.00000000000E+00 -0.47704539902E+03  0.16899159521E+04  0.16211858661E+04 0.  0.
        1    1    3    3  502    0 -0.47946188766E+03  0.64934949854E+03 -0.16105914670E+03  0.82309083443E+03  0.50400001928E-02 0. -1.
       -1    1    3    3    0  502  0.47946188766E+03 -0.64934949854E+03 -0.31598625232E+03  0.86682511768E+03  0.50400001928E-02 0.  1.
</event>
<event>
 5   0  0.3380454E-04  0.1598288E+04  0.7818609E-02  0.8821600E-01
       -2   -1    0    0    0  501  0.00000000000E+00  0.00000000000E+00  0.51143554744E+03  0.51143554745E+03  0.25500000920E-02 0.  1.
        2   -1    0    0  501    0  0.00000000000E+00  0.00000000000E+00 -0.12487030220E+04  0.12487030220E+04  0.25500000920E-02 0. -1.
    10030    2    1    2    0    0  0.00000000000E+00  0.00000000000E+00 -0.73726747456E+03  0.17601385694E+04  0.15982879761E+04 0.  0.
        5    1    3    3  502    0 -0.43861392989E+03  0.72393311079E+02 -0.10999483550E+04  0.11863943041E+04  0.46999998093E+01 0. -1.
       -5    1    3    3    0  502  0.43861392989E+03 -0.72393311079E+02  0.36268088049E+03  0.57374426537E+03  0.46999998093E+01 0.  1.
</event>
<event>
 5   0  0.3263294E-04  0.1592068E+04  0.7818609E-02  0.8825436E-01
       -2   -1    0    0    0  501  0.00000000000E+00  0.00000000000E+00  0.65996683221E+03  0.65996683222E+03  0.25500000920E-02 0.  1.
        2   -1    0    0  501    0  0.00000000000E+00  0.00000000000E+00 -0.96015468338E+03  0.96015468338E+03  0.25500000920E-02 0. -1.
    10030    2    1    2    0    0  0.00000000000E+00  0.00000000000E+00 -0.30018785117E+03  0.16201215156E+04  0.15920681453E+04 0.  0.
        4    1    3    3  502    0 -0.22173273395E+03  0.40913346341E+03  0.50712917214E+03  0.68828570109E+03  0.12699999809E+01 0.  1.
       -4    1    3    3    0  502  0.22173273395E+03 -0.40913346341E+03 -0.80731702331E+03  0.93183581451E+03  0.12699999809E+01 0. -1.
</event>
<event>
 5   0  0.1736537E-04  0.1407462E+04  0.7818609E-02  0.8948435E-01
       -1   -1    0    0    0  501  0.00000000000E+00  0.00000000000E+00  0.38816644254E+03  0.38816644258E+03  0.50400001928E-02 0.  1.
        1   -1    0    0  501    0  0.00000000000E+00  0.00000000000E+00 -0.12758373857E+04  0.12758373857E+04  0.50400001928E-02 0. -1.
    10030    2    1    2    0    0  0.00000000000E+00  0.00000000000E+00 -0.88767094315E+03  0.16640038283E+04  0.14074619132E+04 0.  0.
        3    1    3    3  502    0  0.23900568288E+03 -0.64685644241E+03 -0.27793654854E+03  0.74350232599E+03  0.10100000352E+00 0. -1.
       -3    1    3    3    0  502 -0.23900568288E+03  0.64685644241E+03 -0.60973439461E+03  0.92050150229E+03  0.10100000352E+00 0.  1.
</event>
<event>
 5   0  0.1736537E-04  0.1600524E+04  0.7818609E-02  0.8820226E-01
        1   -1    0    0  501    0  0.00000000000E+00  0.00000000000E+00  0.78863637791E+03  0.78863637793E+03  0.50400001928E-02 0. -1.
       -1   -1    0    0    0  501  0.00000000000E+00  0.00000000000E+00 -0.81205928710E+03  0.81205928711E+03  0.50400001928E-02 0.  1.
    10030    2    1    2    0    0  0.00000000000E+00  0.00000000000E+00 -0.23422909183E+02  0.16006956650E+04  0.16005242827E+04 0.  0.
        3    1    3    3  502    0  0.53108541764E+03 -0.15807105411E+02 -0.61020506114E+03  0.80910556311E+03  0.10100000352E+00 0.  1.
       -3    1    3    3    0  502 -0.53108541764E+03  0.15807105411E+02  0.58678215196E+03  0.79159010193E+03  0.10100000352E+00 0. -1.
</event>
<event>
 5   0  0.3274900E-04  0.1589598E+04  0.7818609E-02  0.8826964E-01
       -2   -1    0    0    0  501  0.00000000000E+00  0.00000000000E+00  0.82537889274E+03  0.82537889275E+03  0.25500000920E-02 0.  1.
        2   -1    0    0  501    0  0.00000000000E+00  0.00000000000E+00 -0.76535184608E+03  0.76535184608E+03  0.25500000920E-02 0. -1.
    10030    2    1    2    0    0  0.00000000000E+00  0.00000000000E+00  0.60027046665E+02  0.15907307388E+04  0.15895977595E+04 0.  0.
        3    1    3    3  502    0  0.76893542581E+03 -0.16844609556E+03  0.13995297926E+03  0.79951399161E+03  0.10100000352E+00 0.  1.
       -3    1    3    3    0  502 -0.76893542581E+03  0.16844609556E+03 -0.79925932594E+02  0.79121674722E+03  0.10100000352E+00 0. -1.
</event>
<event>
 5   0  0.3263294E-04  0.1599015E+04  0.7818609E-02  0.8821153E-01
        2   -1    0    0  501    0  0.00000000000E+00  0.00000000000E+00  0.11321519850E+04  0.11321519851E+04  0.25500000920E-02 0. -1.
       -2   -1    0    0    0  501  0.00000000000E+00  0.00000000000E+00 -0.56459939103E+03  0.56459939104E+03  0.25500000920E-02 0.  1.
    10030    2    1    2    0    0  0.00000000000E+00  0.00000000000E+00  0.56755259402E+03  0.16967513761E+04  0.15990150985E+04 0.  0.
        4    1    3    3  502    0  0.61905026954E+03  0.50337815885E+03  0.33786131489E+03  0.86646678414E+03  0.12699999809E+01 0.  1.
       -4    1    3    3    0  502 -0.61905026954E+03 -0.50337815885E+03  0.22969127912E+03  0.83028459195E+03  0.12699999809E+01 0. -1.
</event>
<event>
 5   0  0.1761255E-04  0.1610576E+04  0.7818609E-02  0.8814077E-01
        1   -1    0    0  501    0  0.00000000000E+00  0.00000000000E+00  0.94903007614E+03  0.94903007615E+03  0.50400001928E-02 0.  1.
       -1   -1    0    0    0  501  0.00000000000E+00  0.00000000000E+00 -0.68331721776E+03  0.68331721778E+03  0.50400001928E-02 0. -1.
    10030    2    1    2    0    0  0.00000000000E+00  0.00000000000E+00  0.26571285838E+03  0.16323472939E+04  0.16105757868E+04 0.  0.
        2    1    3    3  502    0 -0.68359121894E+02  0.70183930222E+03  0.52700570629E+03  0.88033311318E+03  0.25500000920E-02 0.  1.
       -2    1    3    3    0  502  0.68359121894E+02 -0.70183930222E+03 -0.26129284791E+03  0.75201418076E+03  0.25500000920E-02 0. -1.
</event>
<event>
 5   0  0.1819811E-04  0.1572852E+04  0.7818609E-02  0.8837402E-01
       -1   -1    0    0    0  501  0.00000000000E+00  0.00000000000E+00  0.51718884067E+03  0.51718884070E+03  0.50400001928E-02 0. -1.
        1   -1    0    0  501    0  0.00000000000E+00  0.00000000000E+00 -0.11958225652E+04  0.11958225653E+04  0.50400001928E-02 0.  1.
    10030    2    1    2    0    0  0.00000000000E+00  0.00000000000E+00 -0.67863372458E+03  0.17130114060E+04  0.15728522959E+04 0.  0.
        1    1    3    3  502    0 -0.64145525753E+03  0.37727103435E+03 -0.62357292808E+02  0.74678424780E+03  0.50400001928E-02 0. -1.
       -1    1    3    3    0  502  0.64145525753E+03 -0.37727103435E+03 -0.61627643177E+03  0.96622715815E+03  0.50400001928E-02 0.  1.
</event>
<event>
 5   0  0.1761255E-04  0.1567101E+04  0.7818609E-02  0.8841018E-01
       -1   -1    0    0    0  501  0.00000000000E+00  0.00000000000E+00  0.34872620596E+03  0.34872620600E+03  0.50400001928E-02 0. -1.
        1   -1    0    0  501    0  0.00000000000E+00  0.00000000000E+00 -0.17605551144E+04  0.17605551144E+04  0.50400001928E-02 0.  1.
    10030    2    1    2    0    0  0.00000000000E+00  0.00000000000E+00 -0.14118289084E+04  0.21092813204E+04  0.15671014077E+04 0.  0.
        2    1    3    3  502    0 -0.25868840921E+03 -0.24532350147E+03 -0.16450629686E+04  0.16832514620E+04  0.25500000920E-02 0.  1.
       -2    1    3    3    0  502  0.25868840921E+03  0.24532350147E+03  0.23323406021E+03  0.42602985843E+03  0.25500000920E-02 0. -1.
</event>
<event>
 5   0  0.3263294E-04  0.1588400E+04  0.7818609E-02  0.8827706E-01
        2   -1    0    0  501    0  0.00000000000E+00  0.00000000000E+00  0.76611103468E+03  0.76611103469E+03  0.25500000920E-02 0.  1.
       -2   -1    0    0    0  501  0.00000000000E+00  0.00000000000E+00 -0.82331912565E+03  0.82331912565E+03  0.25500000920E-02 0. -1.
    10030    2    1    2    0    0  0.00000000000E+00  0.00000000000E+00 -0.57208090963E+02  0.15894301603E+04  0.15884002861E+04 0.  0.
        4    1    3    3  502    0 -0.66211787846E+03 -0.24644815153E+03  0.33441965190E+03  0.78164882962E+03  0.12699999809E+01 0.  1.
       -4    1    3    3    0  502  0.66211787846E+03  0.24644815153E+03 -0.39162774286E+03  0.80778133072E+03  0.12699999809E+01 0. -1.
</event>
<event>
 5   0  0.3263294E-04  0.1600218E+04  0.7818609E-02  0.8820414E-01
        2   -1    0    0  501    0  0.00000000000E+00  0.00000000000E+00  0.10959820552E+04  0.10959820552E+04  0.25500000920E-02 0.  1.
       -2   -1    0    0    0  501  0.00000000000E+00  0.00000000000E+00 -0.58411013354E+03  0.58411013354E+03  0.25500000920E-02 0. -1.
    10030    2    1    2    0    0  0.00000000000E+00  0.00000000000E+00  0.51187192165E+03  0.16800921887E+04  0.16002177659E+04 0.  0.
        4    1    3    3  502    0 -0.88853608780E+02 -0.63679961108E+03 -0.24403063266E+03  0.68772179771E+03  0.12699999809E+01 0. -1.
       -4    1    3    3    0  502  0.88853608780E+02  0.63679961108E+03  0.75590255430E+03  0.99237039102E+03  0.12699999809E+01 0.  1.
</event>
<event>
 5   0  0.3380454E-04  0.1603858E+04  0.7818609E-02  0.8818181E-01
       -2   -1    0    0    0  501  0.00000000000E+00  0.00000000000E+00  0.12245810253E+04  0.12245810253E+04  0.25500000920E-02 0.  1.
        2   -1    0    0  501    0  0.00000000000E+00  0.00000000000E+00 -0.52515132905E+03  0.52515132905E+03  0.25500000920E-02 0. -1.
    10030    2    1    2    0    0  0.00000000000E+00  0.00000000000E+00  0.69942969623E+03  0.17497323543E+04  0.16038582892E+04 0.  0.
        5    1    3    3  502    0  0.49492184793E+03  0.46916421239E+02 -0.33673539451E+03  0.60046781933E+03  0.46999998093E+01 0. -1.
       -5    1    3    3    0  502 -0.49492184793E+03 -0.46916421239E+02  0.10361650907E+04  0.11492645350E+04  0.46999998093E+01 0.  1.
</event>
<event>
 5   0  0.1736537E-04  0.1600957E+04  0.7818609E-02  0.8819960E-01
       -1   -1    0    0    0  501  0.00000000000E+00  0.00000000000E+00  0.30439708250E+03  0.30439708255E+03  0.50400001928E-02 0.  1.
        1   -1    0    0  501    0  0.00000000000E+00  0.00000000000E+00 -0.21050320298E+04  0.21050320298E+04  0.50400001928E-02 0. -1.
    10030    2    1    2    0    0  0.00000000000E+00  0.00000000000E+00 -0.18006349473E+04  0.24094291124E+04  0.16009567246E+04 0.  0.
        3    1    3    3  502    0  0.26105323357E+03 -0.39823174427E+03 -0.18687058476E+04  0.19284187481E+04  0.10100000352E+00 0. -1.
       -3    1    3    3    0  502 -0.26105323357E+03  0.39823174427E+03  0.68070900271E+02  0.48101036430E+03  0.10100000352E+00 0.  1.
</event>
<event>
 5   0  0.1761255E-04  0.1608622E+04  0.7818609E-02  0.8815269E-01
       -1   -1    0    0    0  501  0.00000000000E+00  0.00000000000E+00  0.80303494024E+03  0.80303494025E+03  0.50400001928E-02 0. -1.
        1   -1    0    0  501    0  0.00000000000E+00  0.00000000000E+00 -0.80558881913E+03  0.80558881914E+03  0.50400001928E-02 0.  1.
    10030    2    1    2    0    0  0.00000000000E+00  0.00000000000E+00 -0.25538788875E+01  0.16086237594E+04  0.16086217321E+04 0.  0.
        2    1    3    3  502    0 -0.32660098374E+03  0.68196498300E+03  0.27289767297E+03  0.80387659534E+03  0.25500000920E-02 0. -1.
       -2    1    3    3    0  502  0.32660098374E+03 -0.68196498300E+03 -0.27545155186E+03  0.80474716405E+03  0.25500000920E-02 0.  1.
</event>
<event>
 5   0  0.3228393E-04  0.1606002E+04  0.7818609E-02  0.8816869E-01
       -2   -1    0    0    0  501  0.00000000000E+00  0.00000000000E+00  0.34683079850E+03  0.34683079850E+03  0.25500000920E-02 0. -1.
        2   -1    0    0  501    0  0.00000000000E+00  0.00000000000E+00 -0.18591508252E+04  0.18591508252E+04  0.25500000920E-02 0.  1.
    10030    2    1    2    0    0  0.00000000000E+00  0.00000000000E+00 -0.15123200267E+04  0.22059816237E+04  0.16060021983E+04 0.  0.
        1    1    3    3  502    0 -0.56565003595E+03  0.42215906019E+03 -0.23017796886E+03  0.74240159795E+03  0.50400001928E-02 0. -1.
       -1    1    3    3    0  502  0.56565003595E+03 -0.42215906019E+03 -0.12821420578E+04  0.14635800257E+04  0.50400001928E-02 0.  1.
</event>
<event>
 5   0  0.1787688E-04  0.1493008E+04  0.7818609E-02  0.8889116E-01
       -1   -1    0    0    0  501  0.00000000000E+00  0.00000000000E+00  0.69845482088E+03  0.69845482090E+03  0.50400001928E-02 0. -1.
        1   -1    0    0  501    0  0.00000000000E+00  0.00000000000E+00 -0.79785863075E+03  0.79785863076E+03  0.50400001928E-02 0.  1.
    10030    2    1    2    0    0  0.00000000000E+00  0.00000000000E+00 -0.99403809864E+02  0.14963134517E+04  0.14930079800E+04 0.  0.
        4    1    3    3  502    0  0.16006938895E+03 -0.18488077466E+03 -0.75657435366E+03  0.79511601395E+03  0.12699999809E+01 0.  1.
       -4    1    3    3    0  502 -0.16006938895E+03  0.18488077466E+03  0.65717054380E+03  0.70119743772E+03  0.12699999809E+01 0. -1.
</event>
<event>
 5   0  0.3263294E-04  0.1601991E+04  0.7818609E-02  0.8819326E-01
       -2   -1    0    0    0  501  0.00000000000E+00  0.00000000000E+00  0.21696975123E+03  0.21696975125E+03  0.25500000920E-02 0.  1.
        2   -1    0    0  501    0  0.00000000000E+00  0.00000000000E+00 -0.29570666752E+04  0.29570666752E+04  0.25500000920E-02 0. -1.
    10030    2    1    2    0    0  0.00000000000E+00  0.00000000000E+00 -0.27400969240E+04  0.31740364265E+04  0.16019912870E+04 0.  0.
        4    1    3    3  502    0 -0.79495397681E+03  0.85781234005E+02 -0.14646994292E+04  0.16687289403E+04  0.12699999809E+01 0.  1.
       -4    1    3    3    0  502  0.79495397681E+03 -0.85781234005E+02 -0.12753974947E+04  0.15053074862E+04  0.12699999809E+01 0. -1.
</event>
<event>
 5   0  0.1219463E-04  0.1603131E+04  0.7818609E-02  0.8818627E-01
       -3   -1    0    0    0  501  0.00000000000E+00  0.00000000000E+00  0.40202411562E+03  0.40202412830E+03  0.10100000352E+00 0. -1.
        3   -1    0    0  501    0  0.00000000000E+00  0.00000000000E+00 -0.15981814861E+04  0.15981814893E+04  0.10100000352E+00 0.  1.
    10030    2    1    2    0    0  0.00000000000E+00  0.00000000000E+00 -0.11961573705E+04  0.20002056176E+04  0.16031313289E+04 0.  0.
        5    1    3    3  502    0 -0.47026100857E+03  0.66376859540E+02 -0.14037154196E+04  0.14818874359E+04  0.46999998093E+01 0.  1.
       -5    1    3    3    0  502  0.47026100857E+03 -0.66376859540E+02  0.20755804911E+03  0.51831818163E+03  0.46999998093E+01 0. -1.
</event>
<event>
 5   0  0.3210612E-04  0.1586582E+04  0.7818609E-02  0.8828834E-01
        2   -1    0    0  501    0  0.00000000000E+00  0.00000000000E+00  0.77694478622E+03  0.77694478622E+03  0.25500000920E-02 0.  1.
       -2   -1    0    0    0  501  0.00000000000E+00  0.00000000000E+00 -0.80998110046E+03  0.80998110046E+03  0.25500000920E-02 0. -1.
    10030    2    1    2    0    0  0.00000000000E+00  0.00000000000E+00 -0.33036314239E+02  0.15869258867E+04  0.15865819776E+04 0.  0.
        2    1    3    3  502    0  0.22839965435E+03  0.37801672136E+03 -0.67563561664E+03  0.80718432233E+03  0.25500000920E-02 0. -1.
       -2    1    3    3    0  502 -0.22839965435E+03 -0.37801672136E+03  0.64259930240E+03  0.77974156435E+03  0.25500000920E-02 0.  1.
</event>
<event>
 5   0  0.1787688E-04  0.1594869E+04  0.7818609E-02  0.8823706E-01
        1   -1    0    0  501    0  0.00000000000E+00  0.00000000000E+00  0.10237398932E+04  0.10237398933E+04  0.50400001928E-02 0. -1.
       -1   -1    0    0    0  501  0.00000000000E+00  0.00000000000E+00 -0.62115571368E+03  0.62115571370E+03  0.50400001928E-02 0.  1.
    10030    2    1    2    0    0  0.00000000000E+00  0.00000000000E+00  0.40258417956E+03  0.16448956070E+04  0.15948691282E+04 0.  0.
        4    1    3    3  502    0  0.18971238993E+03 -0.73963773923E+03 -0.35800114383E+02  0.76442006598E+03  0.12699999809E+01 0. -1.
       -4    1    3    3    0  502 -0.18971238993E+03  0.73963773923E+03  0.43838429394E+03  0.88047554098E+03  0.12699999809E+01 0.  1.
</event>
<event>
 5   0  0.3263294E-04  0.1587824E+04  0.7818609E-02  0.8828064E-01
       -2   -1    0    0    0  501  0.00000000000E+00  0.00000000000E+00  0.64345251174E+03  0.64345251175E+03  0.25500000920E-02 0. -1.
        2   -1    0    0  501    0  0.00000000000E+00  0.00000000000E+00 -0.97955316522E+03  0.97955316523E+03  0.25500000920E-02 0.  1.
    10030    2    1    2    0    0  0.00000000000E+00  0.00000000000E+00 -0.33610065348E+03  0.16230056770E+04  0.15878235980E+04 0.  0.
        4    1    3    3  502    0 -0.24311314402E+03  0.71016596107E+03  0.96241394635E+02  0.75677190222E+03  0.12699999809E+01 0. -1.
       -4    1    3    3    0  502  0.24311314402E+03 -0.71016596107E+03 -0.43234204811E+03  0.86623377475E+03  0.12699999809E+01 0.  1.
</event>
<event>
 5   0  0.1736537E-04  0.1581187E+04  0.7818609E-02  0.8832189E-01
        1   -1    0    0  501    0  0.00000000000E+00  0.00000000000E+00  0.11272361100E+04  0.11272361100E+04  0.50400001928E-02 0.  1.
       -1   -1    0    0    0  501  0.00000000000E+00  0.00000000000E+00 -0.55448744355E+03  0.55448744358E+03  0.50400001928E-02 0. -1.
    10030    2    1    2    0    0  0.00000000000E+00  0.00000000000E+00  0.57274866648E+03  0.16817235536E+04  0.15811872362E+04 0.  0.
        3    1    3    3  502    0 -0.35675381452E+03 -0.27655069811E+03  0.97670814173E+03  0.10759704351E+04  0.10100000352E+00 0.  1.
       -3    1    3    3    0  502  0.35675381452E+03  0.27655069811E+03 -0.40395947525E+03  0.60575311856E+03  0.10100000352E+00 0. -1.
</event>
<event>
 5   0  0.3380454E-04  0.1602055E+04  0.7818609E-02  0.8819286E-01
       -2   -1    0    0    0  501  0.00000000000E+00  0.00000000000E+00  0.48715484279E+03  0.48715484280E+03  0.25500000920E-02 0.  1.
        2   -1    0    0  501    0  0.00000000000E+00  0.00000000000E+00 -0.13171280712E+04  0.13171280712E+04  0.25500000920E-02 0. -1.
    10030    2    1    2    0    0  0.00000000000E+00  0.00000000000E+00 -0.82997322836E+03  0.18042829140E+04  0.16020553279E+04 0.  0.
        5    1    3    3  502    0 -0.75378809923E+02 -0.48158780914E+02  0.48149677760E+03  0.48975756247E+03  0.46999998093E+01 0.  1.
       -5    1    3    3    0  502  0.75378809923E+02  0.48158780914E+02 -0.13114700060E+04  0.13145253515E+04  0.46999998093E+01 0. -1.
</event>
<event>
 5   0  0.3380454E-04  0.1563455E+04  0.7818609E-02  0.8843319E-01
        2   -1    0    0  501    0  0.00000000000E+00  0.00000000000E+00  0.16455299833E+04  0.16455299833E+04  0.25500000920E-02 0.  1.
       -2   -1    0    0    0  501  0.00000000000E+00  0.00000000000E+00 -0.37136854903E+03  0.37136854904E+03  0.25500000920E-02 0. -1.
    10030    2    1    2    0    0  0.00000000000E+00  0.00000000000E+00  0.12741614343E+04  0.20168985323E+04  0.15634552533E+04 0.  0.
        5    1    3    3  502    0 -0.58204899161E+03  0.51887026212E+03  0.70854183029E+03  0.10535943208E+04  0.46999998093E+01 0. -1.
       -5    1    3    3    0  502  0.58204899161E+03 -0.51887026212E+03  0.56561960397E+03  0.96330421152E+03  0.46999998093E+01 0.  1.
</event>
<event>
 5   0  0.3228393E-04  0.1603736E+04  0.7818609E-02  0.8818256E-01
        2   -1    0    0  501    0  0.00000000000E+00  0.00000000000E+00  0.95897454744E+03  0.95897454744E+03  0.25500000920E-02 0. -1.
       -2   -1    0    0    0  501  0.00000000000E+00  0.00000000000E+00 -0.67050025184E+03  0.67050025185E+03  0.25500000920E-02 0.  1.
    10030    2    1    2    0    0  0.00000000000E+00  0.00000000000E+00  0.28847429560E+03  0.16294747993E+04  0.16037364816E+04 0.  0.
        1    1    3    3  502    0 -0.44039899187E+03 -0.64287978894E+03  0.33634022485E+03  0.84874639436E+03  0.50400001928E-02 0.  1.
       -1    1    3    3    0  502  0.44039899187E+03  0.64287978894E+03 -0.47865929256E+02  0.78072840493E+03  0.50400001928E-02 0. -1.
</event>
<event>
 5   0  0.1761255E-04  0.1606321E+04  0.7818609E-02  0.8816674E-01
       -1   -1    0    0    0  501  0.00000000000E+00  0.00000000000E+00  0.80239750692E+03  0.80239750693E+03  0.50400001928E-02 0.  1.
        1   -1    0    0  501    0  0.00000000000E+00  0.00000000000E+00 -0.80392431243E+03  0.80392431244E+03  0.50400001928E-02 0. -1.
    10030    2    1    2    0    0  0.00000000000E+00  0.00000000000E+00 -0.15268055092E+01  0.16063218194E+04  0.16063210938E+04 0.  0.
        2    1    3    3  502    0  0.12083007209E+03  0.40656302631E+03 -0.68279997335E+03  0.80380918401E+03  0.25500000920E-02 0. -1.
       -2    1    3    3    0  502 -0.12083007209E+03 -0.40656302631E+03  0.68127316784E+03  0.80251263536E+03  0.25500000920E-02 0.  1.
</event>
<event>
 5   0  0.1736537E-04  0.1602154E+04  0.7818609E-02  0.8819226E-01
        1   -1    0    0  501    0  0.00000000000E+00  0.00000000000E+00  0.53401907789E+03  0.53401907791E+03  0.50400001928E-02 0. -1.
       -1   -1    0    0    0  501  0.00000000000E+00  0.00000000000E+00 -0.12016882833E+04  0.12016882833E+04  0.50400001928E-02 0.  1.
    10030    2    1    2    0    0  0.00000000000E+00  0.00000000000E+00 -0.66766920544E+03  0.17357073613E+04  0.16021541362E+04 0.  0.
        3    1    3    3  502    0 -0.52794099709E+03 -0.38627003605E+03 -0.83476138755E+03  0.10605436443E+04  0.10100000352E+00 0. -1.
       -3    1    3    3    0  502  0.52794099709E+03  0.38627003605E+03  0.16709218210E+03  0.67516371694E+03  0.10100000352E+00 0.  1.
</event>
<event>
 5   0  0.1736537E-04  0.1599366E+04  0.7818609E-02  0.8820938E-01
        1   -1    0    0  501    0  0.00000000000E+00  0.00000000000E+00  0.48595650892E+03  0.48595650895E+03  0.50400001928E-02 0.  1.
       -1   -1    0    0    0  501  0.00000000000E+00  0.00000000000E+00 -0.13159462125E+04  0.13159462125E+04  0.50400001928E-02 0. -1.
    10030    2    1    2    0    0  0.00000000000E+00  0.00000000000E+00 -0.82998970360E+03  0.18019027215E+04  0.15993656585E+04 0.  0.
        3    1    3    3  502    0 -0.46530804068E+02  0.10677561391E+03  0.47634891844E+03  0.49038194273E+03  0.10100000352E+00 0.  1.
       -3    1    3    3    0  502  0.46530804068E+02 -0.10677561391E+03 -0.13063386220E+04  0.13115207787E+04  0.10100000352E+00 0. -1.
</event>
<event>
 5   0  0.3263294E-04  0.1591284E+04  0.7818609E-02  0.8825921E-01
       -2   -1    0    0    0  501  0.00000000000E+00  0.00000000000E+00  0.31436527453E+03  0.31436527454E+03  0.25500000920E-02 0. -1.
        2   -1    0    0  501    0  0.00000000000E+00  0.00000000000E+00 -0.20137272651E+04  0.20137272651E+04  0.25500000920E-02 0.  1.
    10030    2    1    2    0    0  0.00000000000E+00  0.00000000000E+00 -0.16993619906E+04  0.23280925397E+04  0.15912836636E+04 0.  0.
        4    1    3    3  502    0  0.14398020309E+03 -0.29714255650E+03  0.20939395576E+03  0.39098777394E+03  0.12699999809E+01 0. -1.
       -4    1    3    3    0  502 -0.14398020309E+03  0.29714255650E+03 -0.19087559464E+04  0.19371047657E+04  0.12699999809E+01 0.  1.
</event>
<event>
 5   0  0.1764099E-04  0.1617315E+04  0.7818609E-02  0.8809981E-01
       -1   -1    0    0    0  501  0.00000000000E+00  0.00000000000E+00  0.67271150921E+03  0.67271150923E+03  0.50400001928E-02 0. -1.
        1   -1    0    0  501    0  0.00000000000E+00  0.00000000000E+00 -0.97207580793E+03  0.97207580795E+03  0.50400001928E-02 0.  1.
    10030    2    1    2    0    0  0.00000000000E+00  0.00000000000E+00 -0.29936429872E+03  0.16447873172E+04  0.16173145444E+04 0.  0.
        5    1    3    3  502    0  0.28619289832E+02 -0.55977245840E+03 -0.74245559632E+03  0.93028311359E+03  0.46999998093E+01 0.  1.
       -5    1    3    3    0  502 -0.28619289832E+02  0.55977245840E+03  0.44309129760E+03  0.71450420358E+03  0.46999998093E+01 0. -1.
</event>
<event>
 5   0  0.1787688E-04  0.1608208E+04  0.7818609E-02  0.8815521E-01
       -1   -1    0    0    0  501  0.00000000000E+00  0.00000000000E+00  0.77874025289E+03  0.77874025290E+03  0.50400001928E-02 0. -1.
        1   -1    0    0  501    0  0.00000000000E+00  0.00000000000E+00 -0.83029371711E+03  0.83029371712E+03  0.50400001928E-02 0.  1.
    10030    2    1    2    0    0  0.00000000000E+00  0.00000000000E+00 -0.51553464222E+02  0.16090339700E+04  0.16082078712E+04 0.  0.
        4    1    3    3  502    0  0.50463323496E+02 -0.12420030334E+03 -0.81903282799E+03  0.82993291813E+03  0.12699999809E+01 0.  1.
       -4    1    3    3    0  502 -0.50463323496E+02  0.12420030334E+03  0.76747936376E+03  0.77910105190E+03  0.12699999809E+01 0. -1.
</event>
<event>
 5   0  0.1761255E-04  0.1570969E+04  0.7818609E-02  0.8838584E-01
        1   -1    0    0  501    0  0.00000000000E+00  0.00000000000E+00  0.75724346220E+03  0.75724346222E+03  0.50400001928E-02 0.  1.
       -1   -1    0    0    0  501  0.00000000000E+00  0.00000000000E+00 -0.81477883344E+03  0.81477883346E+03  0.50400001928E-02 0. -1.
    10030    2    1    2    0    0  0.00000000000E+00  0.00000000000E+00 -0.57535371244E+02  0.15720222957E+04  0.15709690574E+04 0.  0.
        2    1    3    3  502    0  0.21298532503E+03  0.26164561880E+02  0.72734369971E+03  0.75833778126E+03  0.25500000920E-02 0.  1.
       -2    1    3    3    0  502 -0.21298532503E+03 -0.26164561880E+02 -0.78487907095E+03  0.81368451442E+03  0.25500000920E-02 0. -1.
</event>
<event>
 5   0  0.3274900E-04  0.1590388E+04  0.7818609E-02  0.8826475E-01
       -2   -1    0    0    0  501  0.00000000000E+00  0.00000000000E+00  0.29171484566E+03  0.29171484567E+03  0.25500000920E-02 0.  1.
        2   -1    0    0  501    0  0.00000000000E+00  0.00000000000E+00 -0.21676430842E+04  0.21676430842E+04  0.25500000920E-02 0. -1.
    10030    2    1    2    0    0  0.00000000000E+00  0.00000000000E+00 -0.18759282385E+04  0.24593579298E+04  0.15903882139E+04 0.  0.
        3    1    3    3  502    0  0.32400044418E+03 -0.17410171113E+02 -0.20606189598E+04  0.20860081279E+04  0.10100000352E+00 0. -1.
       -3    1    3    3    0  502 -0.32400044418E+03  0.17410171113E+02  0.18469072130E+03  0.37334980196E+03  0.10100000352E+00 0.  1.
</event>
<event>
 5   0  0.3263294E-04  0.1598633E+04  0.7818609E-02  0.8821388E-01
        2   -1    0    0  501    0  0.00000000000E+00  0.00000000000E+00  0.76508016163E+03  0.76508016164E+03  0.25500000920E-02 0.  1.
       -2   -1    0    0    0  501  0.00000000000E+00  0.00000000000E+00 -0.83508499756E+03  0.83508499756E+03  0.25500000920E-02 0. -1.
    10030    2    1    2    0    0  0.00000000000E+00  0.00000000000E+00 -0.70004835926E+02  0.16001651592E+04  0.15986331223E+04 0.  0.
        4    1    3    3  502    0 -0.66319206217E+03 -0.33830207590E+03  0.25619449000E+03  0.78734314977E+03  0.12699999809E+01 0.  1.
       -4    1    3    3    0  502  0.66319206217E+03  0.33830207590E+03 -0.32619932592E+03  0.81282200943E+03  0.12699999809E+01 0. -1.
</event>
<event>
 5   0  0.3228393E-04  0.1599956E+04  0.7818609E-02  0.8820575E-01
        2   -1    0    0  501    0  0.00000000000E+00  0.00000000000E+00  0.11336162437E+04  0.11336162437E+04  0.25500000920E-02 0.  1.
       -2   -1    0    0    0  501  0.00000000000E+00  0.00000000000E+00 -0.56453357641E+03  0.56453357642E+03  0.25500000920E-02 0. -1.
    10030    2    1    2    0    0  0.00000000000E+00  0.00000000000E+00  0.56908266727E+03  0.16981498201E+04  0.15999555398E+04 0.  0.
        1    1    3    3  502    0 -0.39723183878E+03 -0.69425954547E+03  0.27050140566E+03  0.84436986014E+03  0.50400001928E-02 0. -1.
       -1    1    3    3    0  502  0.39723183878E+03  0.69425954547E+03  0.29858126161E+03  0.85377995996E+03  0.50400001928E-02 0.  1.
</event>
<event>
 5   0  0.3274900E-04  0.1601930E+04  0.7818609E-02  0.8819363E-01
       -2   -1    0    0    0  501  0.00000000000E+00  0.00000000000E+00  0.56723410348E+03  0.56723410349E+03  0.25500000920E-02 0.  1.
        2   -1    0    0  501    0  0.00000000000E+00  0.00000000000E+00 -0.11310062701E+04  0.11310062701E+04  0.25500000920E-02 0. -1.
    10030    2    1    2    0    0  0.00000000000E+00  0.00000000000E+00 -0.56377216657E+03  0.16982403735E+04  0.16019304949E+04 0.  0.
        3    1    3    3  502    0  0.37077910325E+03  0.61875037970E+02 -0.10316845537E+04  0.10980340124E+04  0.10100000352E+00 0. -1.
       -3    1    3    3    0  502 -0.37077910325E+03 -0.61875037970E+02  0.46791238716E+03  0.60020636117E+03  0.10100000352E+00 0.  1.
</event>
<event>
 5   0  0.1764099E-04  0.1590144E+04  0.7818609E-02  0.8826626E-01
       -1   -1    0    0    0  501  0.00000000000E+00  0.00000000000E+00  0.10014272467E+04  0.10014272467E+04  0.50400001928E-02 0. -1.
        1   -1    0    0  501    0  0.00000000000E+00  0.00000000000E+00 -0.63123832304E+03  0.63123832306E+03  0.50400001928E-02 0.  1.
    10030    2    1    2    0    0  0.00000000000E+00  0.00000000000E+00  0.37018892366E+03  0.16326655698E+04  0.15901437116E+04 0.  0.
        5    1    3    3  502    0  0.53442987128E+03  0.27828177540E+03  0.71767628587E+03  0.93708984368E+03  0.46999998093E+01 0. -1.
       -5    1    3    3    0  502 -0.53442987128E+03 -0.27828177540E+03 -0.34748736221E+03  0.69557572609E+03  0.46999998093E+01 0.  1.
</event>
<event>
 5   0  0.1787688E-04  0.1621365E+04  0.7818609E-02  0.8807529E-01
        1   -1    0    0  501    0  0.00000000000E+00  0.00000000000E+00  0.14627632288E+04  0.14627632288E+04  0.50400001928E-02 0. -1.
       -1   -1    0    0    0  501  0.00000000000E+00  0.00000000000E+00 -0.44929082607E+03  0.44929082610E+03  0.50400001928E-02 0.  1.
    10030    2    1    2    0    0  0.00000000000E+00  0.00000000000E+00  0.10134724027E+04  0.19120540549E+04  0.16213649798E+04 0.  0.
        4    1    3    3  502    0 -0.45434858518E+03  0.15037601591E+03 -0.26491647586E+03  0.54701730786E+03  0.12699999809E+01 0.  1.
       -4    1    3    3    0  502  0.45434858518E+03 -0.15037601591E+03  0.12783888785E+04  0.13650367470E+04  0.12699999809E+01 0. -1.
</event>
<event>
 5   0  0.1764099E-04  0.1619827E+04  0.7818609E-02  0.8808460E-01
       -1   -1    0    0    0  501  0.00000000000E+00  0.00000000000E+00  0.83370591674E+03  0.83370591676E+03  0.50400001928E-02 0. -1.
        1   -1    0    0  501    0  0.00000000000E+00  0.00000000000E+00 -0.78679971813E+03  0.78679971815E+03  0.50400001928E-02 0.  1.
    10030    2    1    2    0    0  0.00000000000E+00  0.00000000000E+00  0.46906198606E+02  0.16205056349E+04  0.16198266331E+04 0.  0.
        5    1    3    3  502    0 -0.75128315992E+03  0.12281716103E+03  0.30002340861E+03  0.81825825821E+03  0.46999998093E+01 0. -1.
       -5    1    3    3    0  502  0.75128315992E+03 -0.12281716103E+03 -0.25311721000E+03  0.80224737670E+03  0.46999998093E+01 0.  1.
</event>
<event>
 5   0  0.1819811E-04  0.1600201E+04  0.7818609E-02  0.8820424E-01
        1   -1    0    0  501    0  0.00000000000E+00  0.00000000000E+00  0.14062405027E+04  0.14062405027E+04  0.50400001928E-02 0.  1.
       -1   -1    0    0    0  501  0.00000000000E+00  0.00000000000E+00 -0.45522857531E+03  0.45522857533E+03  0.50400001928E-02 0. -1.
    10030    2    1    2    0    0  0.00000000000E+00  0.00000000000E+00  0.95101192737E+03  0.18614690780E+04  0.16002010631E+04 0.  0.
        1    1    3    3  502    0 -0.56918126541E+03 -0.23388832302E+03 -0.11934565563E+03  0.62682888102E+03  0.50400001928E-02 0.  1.
       -1    1    3    3    0  502  0.56918126541E+03  0.23388832302E+03  0.10703575830E+04  0.12346401970E+04  0.50400001928E-02 0. -1.
</event>
<event>
 5   0  0.3263294E-04  0.1579285E+04  0.7818609E-02  0.8833376E-01
        2   -1    0    0  501    0  0.00000000000E+00  0.00000000000E+00  0.21330675672E+04  0.21330675672E+04  0.25500000920E-02 0.  1.
       -2   -1    0    0    0  501  0.00000000000E+00  0.00000000000E+00 -0.29231843855E+03  0.29231843856E+03  0.25500000920E-02 0. -1.
    10030    2    1    2    0    0  0.00000000000E+00  0.00000000000E+00  0.18407491287E+04  0.24253860058E+04  0.15792846236E+04 0.  0.
        4    1    3    3  502    0 -0.45695358663E+03  0.18400483720E+03 -0.27407044908E+02  0.49337320504E+03  0.12699999809E+01 0. -1.
       -4    1    3    3    0  502  0.45695358663E+03 -0.18400483720E+03  0.18681561736E+04  0.19320128007E+04  0.12699999809E+01 0.  1.
</event>
<event>
 5   0  0.3228393E-04  0.1599480E+04  0.7818609E-02  0.8820867E-01
       -2   -1    0    0    0  501  0.00000000000E+00  0.00000000000E+00  0.10003821362E+04  0.10003821362E+04  0.25500000920E-02 0.  1.
        2   -1    0    0  501    0  0.00000000000E+00  0.00000000000E+00 -0.63934009854E+03  0.63934009855E+03  0.25500000920E-02 0. -1.
    10030    2    1    2    0    0  0.00000000000E+00  0.00000000000E+00  0.36104203763E+03  0.16397222347E+04  0.15994804326E+04 0.  0.
        1    1    3    3  502    0 -0.45958176332E+03  0.65309587420E+03  0.13660882060E+03  0.81019231542E+03  0.50400001928E-02 0. -1.
       -1    1    3    3    0  502  0.45958176332E+03 -0.65309587420E+03  0.22443321704E+03  0.82952991930E+03  0.50400001928E-02 0.  1.
</event>
<event>
 5   0  0.3210612E-04  0.1594622E+04  0.7818609E-02  0.8823859E-01
        2   -1    0    0  501    0  0.00000000000E+00  0.00000000000E+00  0.88231468110E+03  0.88231468110E+03  0.25500000920E-02 0. -1.
       -2   -1    0    0    0  501  0.00000000000E+00  0.00000000000E+00 -0.72049688815E+03  0.72049688816E+03  0.25500000920E-02 0.  1.
    10030    2    1    2    0    0  0.00000000000E+00  0.00000000000E+00  0.16181779295E+03  0.16028115693E+04  0.15946221899E+04 0.  0.
        2    1    3    3  502    0 -0.13863811055E+03  0.63343864777E+03  0.54723109773E+03  0.84848507384E+03  0.25500000920E-02 0. -1.
       -2    1    3    3    0  502  0.13863811055E+03 -0.63343864777E+03 -0.38541330479E+03  0.75432649543E+03  0.25500000920E-02 0.  1.
</event>
<event>
 5   0  0.1736537E-04  0.1579576E+04  0.7818609E-02  0.8833195E-01
       -1   -1    0    0    0  501  0.00000000000E+00  0.00000000000E+00  0.40430981533E+03  0.40430981536E+03  0.50400001928E-02 0.  1.
        1   -1    0    0  501    0  0.00000000000E+00  0.00000000000E+00 -0.15427895131E+04  0.15427895132E+04  0.50400001928E-02 0. -1.
    10030    2    1    2    0    0  0.00000000000E+00  0.00000000000E+00 -0.11384796978E+04  0.19470993285E+04  0.15795758205E+04 0.  0.
        3    1    3    3  502    0 -0.70178272106E+03 -0.18435863004E+03 -0.18477681270E+03  0.74875201019E+03  0.10100000352E+00 0.  1.
       -3    1    3    3    0  502  0.70178272106E+03  0.18435863004E+03 -0.95370288512E+03  0.11983473183E+04  0.10100000352E+00 0. -1.
</event>
<event>
 5   0  0.3274900E-04  0.1601131E+04  0.7818609E-02  0.8819854E-01
       -2   -1    0    0    0  501  0.00000000000E+00  0.00000000000E+00  0.62862218641E+03  0.62862218641E+03  0.25500000920E-02 0.  1.
        2   -1    0    0  501    0  0.00000000000E+00  0.00000000000E+00 -0.10195390541E+04  0.10195390541E+04  0.25500000920E-02 0. -1.
    10030    2    1    2    0    0  0.00000000000E+00  0.00000000000E+00 -0.39091686770E+03  0.16481612405E+04  0.16011306871E+04 0.  0.
        3    1    3    3  502    0 -0.21921015472E+02  0.52491848303E+03  0.42634178375E+03  0.67659978682E+03  0.10100000352E+00 0.  1.
       -3    1    3    3    0  502  0.21921015472E+02 -0.52491848303E+03 -0.81725865145E+03  0.97156145370E+03  0.10100000352E+00 0. -1.
</event>
<event>
 5   0  0.3380454E-04  0.1601150E+04  0.7818609E-02  0.8819842E-01
       -2   -1    0    0    0  501  0.00000000000E+00  0.00000000000E+00  0.41749754986E+03  0.41749754987E+03  0.25500000920E-02 0.  1.
        2   -1    0    0  501    0  0.00000000000E+00  0.00000000000E+00 -0.15351480041E+04  0.15351480041E+04  0.25500000920E-02 0. -1.
    10030    2    1    2    0    0  0.00000000000E+00  0.00000000000E+00 -0.11176504542E+04  0.19526455539E+04  0.16011502495E+04 0.  0.
        5    1    3    3  502    0 -0.52553806172E+03 -0.99194821574E+02 -0.12853076312E+04  0.13921449866E+04  0.46999998093E+01 0. -1.
       -5    1    3    3    0  502  0.52553806172E+03  0.99194821574E+02  0.16765717701E+03  0.56050056730E+03  0.46999998093E+01 0.  1.
</event>
<event>
 5   0  0.3228393E-04  0.1598157E+04  0.7818609E-02  0.8821681E-01
       -2   -1    0    0    0  501  0.00000000000E+00  0.00000000000E+00  0.48163182242E+03  0.48163182243E+03  0.25500000920E-02 0.  1.
        2   -1    0    0  501    0  0.00000000000E+00  0.00000000000E+00 -0.13257560971E+04  0.13257560971E+04  0.25500000920E-02 0. -1.
    10030    2    1    2    0    0  0.00000000000E+00  0.00000000000E+00 -0.84412427470E+03  0.18073879196E+04  0.15981568448E+04 0.  0.
        1    1    3    3  502    0 -0.13147525283E+03 -0.62200299659E+02  0.46653587380E+03  0.48868224948E+03  0.50400001928E-02 0.  1.
       -1    1    3    3    0  502  0.13147525283E+03  0.62200299659E+02 -0.13106601485E+04  0.13187056701E+04  0.50400001928E-02 0. -1.
</event>
<event>
 5   0  0.1736537E-04  0.1625193E+04  0.7818609E-02  0.8805219E-01
        1   -1    0    0  501    0  0.00000000000E+00  0.00000000000E+00  0.11687910604E+04  0.11687910604E+04  0.50400001928E-02 0.  1.
       -1   -1    0    0    0  501  0.00000000000E+00  0.00000000000E+00 -0.56495395747E+03  0.56495395749E+03  0.50400001928E-02 0. -1.
    10030    2    1    2    0    0  0.00000000000E+00  0.00000000000E+00  0.60383710291E+03  0.17337450179E+04  0.16251930778E+04 0.  0.
        3    1    3    3  502    0 -0.36994102138E+03 -0.53986641694E+03  0.81575535448E+03  0.10458340767E+04  0.10100000352E+00 0.  1.
       -3    1    3    3    0  502  0.36994102138E+03  0.53986641694E+03 -0.21191825157E+03  0.68791094118E+03  0.10100000352E+00 0. -1.
</event>
<event>
 5   0  0.1787688E-04  0.1601733E+04  0.7818609E-02  0.8819484E-01
       -1   -1    0    0    0  501  0.00000000000E+00  0.00000000000E+00  0.79599790271E+03  0.79599790273E+03  0.50400001928E-02 0. -1.
        1   -1    0    0  501    0  0.00000000000E+00  0.00000000000E+00 -0.80576504644E+03  0.80576504646E+03  0.50400001928E-02 0.  1.
    10030    2    1    2    0    0  0.00000000000E+00  0.00000000000E+00 -0.97671437256E+01  0.16017629492E+04  0.16017331701E+04 0.  0.
        4    1    3    3  502    0 -0.70193004551E+03  0.37695991909E+03 -0.86009088810E+02  0.80137615739E+03  0.12699999809E+01 0. -1.
       -4    1    3    3    0  502  0.70193004551E+03 -0.37695991909E+03  0.76241945084E+02  0.80038679179E+03  0.12699999809E+01 0.  1.
</event>
<event>
 5   0  0.1736537E-04  0.1605349E+04  0.7818609E-02  0.8817269E-01
        1   -1    0    0  501    0  0.00000000000E+00  0.00000000000E+00  0.72171503273E+03  0.72171503275E+03  0.50400001928E-02 0. -1.
       -1   -1    0    0    0  501  0.00000000000E+00  0.00000000000E+00 -0.89271534538E+03  0.89271534540E+03  0.50400001928E-02 0.  1.
    10030    2    1    2    0    0  0.00000000000E+00  0.00000000000E+00 -0.17100031265E+03  0.16144303781E+04  0.16053486659E+04 0.  0.
        3    1    3    3  502    0  0.61574271120E+03 -0.51282508296E+03 -0.13221098213E+03  0.81216279532E+03  0.10100000352E+00 0.  1.
       -3    1    3    3    0  502 -0.61574271120E+03  0.51282508296E+03 -0.38789330520E+02  0.80226758283E+03  0.10100000352E+00 0. -1.
</event>
<event>
 5   0  0.3263294E-04  0.1595921E+04  0.7818609E-02  0.8823058E-01
        2   -1    0    0  501    0  0.00000000000E+00  0.00000000000E+00  0.11960489181E+04  0.11960489181E+04  0.25500000920E-02 0.  1.
       -2   -1    0    0    0  501  0.00000000000E+00  0.00000000000E+00 -0.53237010216E+03  0.53237010216E+03  0.25500000920E-02 0. -1.
    10030    2    1    2    0    0  0.00000000000E+00  0.00000000000E+00  0.66367881592E+03  0.17284190202E+04  0.15959206556E+04 0.  0.
        4    1    3    3  502    0 -0.35314270833E+03 -0.45186546979E+03  0.93274345782E+03  0.10949448142E+04  0.12699999809E+01 0.  1.
       -4    1    3    3    0  502  0.35314270833E+03  0.45186546979E+03 -0.26906464190E+03  0.63347420600E+03  0.12699999809E+01 0. -1.
</event>
<event>
 5   0  0.3380454E-04  0.1601188E+04  0.7818609E-02  0.8819818E-01
        2   -1    0    0  501    0  0.00000000000E+00  0.00000000000E+00  0.86773321990E+03  0.86773321990E+03  0.25500000920E-02 0. -1.
       -2   -1    0    0    0  501  0.00000000000E+00  0.00000000000E+00 -0.73864971106E+03  0.73864971107E+03  0.25500000920E-02 0.  1.
    10030    2    1    2    0    0  0.00000000000E+00  0.00000000000E+00  0.12908350884E+03  0.16063829310E+04  0.16011881740E+04 0.  0.
        5    1    3    3  502    0  0.70929324284E+03 -0.24567305024E+03  0.34379107463E+03  0.82563099805E+03  0.46999998093E+01 0. -1.
       -5    1    3    3    0  502 -0.70929324284E+03  0.24567305024E+03 -0.21470756580E+03  0.78075193292E+03  0.46999998093E+01 0.  1.
</event>
<event>
 5   0  0.3210612E-04  0.1583524E+04  0.7818609E-02  0.8830734E-01
        2   -1    0    0  501    0  0.00000000000E+00  0.00000000000E+00  0.12712072431E+04  0.12712072431E+04  0.25500000920E-02 0. -1.
       -2   -1    0    0    0  501  0.00000000000E+00  0.00000000000E+00 -0.49314314857E+03  0.49314314858E+03  0.25500000920E-02 0.  1.
    10030    2    1    2    0    0  0.00000000000E+00  0.00000000000E+00  0.77806409455E+03  0.17643503917E+04  0.15835240982E+04 0.  0.
        2    1    3    3  502    0  0.35661903567E+03  0.34546951377E+03  0.10761923294E+04  0.11852072609E+04  0.25500000920E-02 0. -1.
       -2    1    3    3    0  502 -0.35661903567E+03 -0.34546951377E+03 -0.29812823481E+03  0.57914313079E+03  0.25500000920E-02 0.  1.
</event>
<event>
 5   0  0.3274900E-04  0.1608121E+04  0.7818609E-02  0.8815575E-01
        2   -1    0    0  501    0  0.00000000000E+00  0.00000000000E+00  0.45544177070E+03  0.45544177071E+03  0.25500000920E-02 0.  1.
       -2   -1    0    0    0  501  0.00000000000E+00  0.00000000000E+00 -0.14195295955E+04  0.14195295955E+04  0.25500000920E-02 0. -1.
    10030    2    1    2    0    0  0.00000000000E+00  0.00000000000E+00 -0.96408782484E+03  0.18749713663E+04  0.16081207325E+04 0.  0.
        3    1    3    3  502    0 -0.47602707079E+02  0.77422180227E+03 -0.23518491928E+03  0.81055374485E+03  0.10100000352E+00 0.  1.
       -3    1    3    3    0  502  0.47602707079E+02 -0.77422180227E+03 -0.72890290556E+03  0.10644176214E+04  0.10100000352E+00 0. -1.
</event>
<event>
 5   0  0.3210612E-04  0.1593913E+04  0.7818609E-02  0.8824296E-01
        2   -1    0    0  501    0  0.00000000000E+00  0.00000000000E+00  0.87392906462E+03  0.87392906462E+03  0.25500000920E-02 0.  1.
       -2   -1    0    0    0  501  0.00000000000E+00  0.00000000000E+00 -0.72676353573E+03  0.72676353573E+03  0.25500000920E-02 0. -1.
    10030    2    1    2    0    0  0.00000000000E+00  0.00000000000E+00  0.14716552889E+03  0.16006926004E+04  0.15939131432E+04 0.  0.
        2    1    3    3  502    0 -0.71218618008E+02 -0.42224036341E+03  0.74858801623E+03  0.86240537689E+03  0.25500000920E-02 0.  1.
       -2    1    3    3    0  502  0.71218618008E+02  0.42224036341E+03 -0.60142248734E+03  0.73828722346E+03  0.25500000920E-02 0. -1.
</event>
<event>
 5   0  0.3274900E-04  0.1600360E+04  0.7818609E-02  0.8820327E-01
       -2   -1    0    0    0  501  0.00000000000E+00  0.00000000000E+00  0.58500278378E+03  0.58500278378E+03  0.25500000920E-02 0.  1.
        2   -1    0    0  501    0  0.00000000000E+00  0.00000000000E+00 -0.10945044076E+04  0.10945044076E+04  0.25500000920E-02 0. -1.
    10030    2    1    2    0    0  0.00000000000E+00  0.00000000000E+00 -0.50950162382E+03  0.16795071914E+04  0.16003601161E+04 0.  0.
        3    1    3    3  502    0 -0.10227799692E+03  0.79361351253E+03 -0.25242320200E+03  0.83904748319E+03  0.10100000352E+00 0. -1.
       -3    1    3    3    0  502  0.10227799692E+03 -0.79361351253E+03 -0.25707842182E+03  0.84045970820E+03  0.10100000352E+00 0.  1.
</event>
<event>
 5   0  0.3274900E-04  0.1491230E+04  0.7818609E-02  0.8890306E-01
        2   -1    0    0  501    0  0.00000000000E+00  0.00000000000E+00  0.55037110851E+03  0.55037110852E+03  0.25500000920E-02 0.  1.
       -2   -1    0    0    0  501  0.00000000000E+00  0.00000000000E+00 -0.10101210595E+04  0.10101210595E+04  0.25500000920E-02 0. -1.
    10030    2    1    2    0    0  0.00000000000E+00  0.00000000000E+00 -0.45974995096E+03  0.15604921680E+04  0.14912296232E+04 0.  0.
        3    1    3    3  502    0 -0.69613605524E+02 -0.70081095721E+03 -0.48611422672E+03  0.85573892248E+03  0.10100000352E+00 0. -1.
       -3    1    3    3    0  502  0.69613605524E+02  0.70081095721E+03  0.26364275765E+02  0.70475324551E+03  0.10100000352E+00 0.  1.
</event>
<event>
 5   0  0.3263294E-04  0.1591213E+04  0.7818609E-02  0.8825964E-01
        2   -1    0    0  501    0  0.00000000000E+00  0.00000000000E+00  0.87984741212E+03  0.87984741213E+03  0.25500000920E-02 0. -1.
       -2   -1    0    0    0  501  0.00000000000E+00  0.00000000000E+00 -0.71943152458E+03  0.71943152458E+03  0.25500000920E-02 0.  1.
    10030    2    1    2    0    0  0.00000000000E+00  0.00000000000E+00  0.16041588754E+03  0.15992789367E+04  0.15912133296E+04 0.  0.
        4    1    3    3  502    0 -0.19268382934E+03  0.28391992681E+03 -0.64124022204E+03  0.72727451364E+03  0.12699999809E+01 0.  1.
       -4    1    3    3    0  502  0.19268382934E+03 -0.28391992681E+03  0.80165610958E+03  0.87200442307E+03  0.12699999809E+01 0. -1.
</event>
<event>
 5   0  0.1764099E-04  0.1567705E+04  0.7818609E-02  0.8840638E-01
       -1   -1    0    0    0  501  0.00000000000E+00  0.00000000000E+00  0.95609742085E+03  0.95609742086E+03  0.50400001928E-02 0.  1.
        1   -1    0    0  501    0  0.00000000000E+00  0.00000000000E+00 -0.64263786657E+03  0.64263786659E+03  0.50400001928E-02 0. -1.
    10030    2    1    2    0    0  0.00000000000E+00  0.00000000000E+00  0.31345955428E+03  0.15987352875E+04  0.15677045727E+04 0.  0.
        5    1    3    3  502    0  0.81296800403E+02 -0.33339881028E+03 -0.56194511956E+03  0.65845906771E+03  0.46999998093E+01 0. -1.
       -5    1    3    3    0  502 -0.81296800403E+02  0.33339881028E+03  0.87540467384E+03  0.94027621975E+03  0.46999998093E+01 0.  1.
</event>
<event>
 5   0  0.1761255E-04  0.1604992E+04  0.7818609E-02  0.8817487E-01
        1   -1    0    0  501    0  0.00000000000E+00  0.00000000000E+00  0.10474715024E+04  0.10474715024E+04  0.50400001928E-02 0. -1.
       -1   -1    0    0    0  501  0.00000000000E+00  0.00000000000E+00 -0.61481342088E+03  0.61481342090E+03  0.50400001928E-02 0.  1.
    10030    2    1    2    0    0  0.00000000000E+00  0.00000000000E+00  0.43265808156E+03  0.16622849233E+04  0.16049916358E+04 0.  0.
        2    1    3    3  502    0 -0.16341110781E+03 -0.23449898891E+02 -0.59703697292E+03  0.61944025939E+03  0.25500000920E-02 0.  1.
       -2    1    3    3    0  502  0.16341110781E+03  0.23449898891E+02  0.10296950545E+04  0.10428446640E+04  0.25500000920E-02 0. -1.
</event>
<event>
 5   0  0.1761255E-04  0.1596456E+04  0.7818609E-02  0.8822728E-01
       -1   -1    0    0    0  501  0.00000000000E+00  0.00000000000E+00  0.49060672632E+03  0.49060672635E+03  0.50400001928E-02 0. -1.
        1   -1    0    0  501    0  0.00000000000E+00  0.00000000000E+00 -0.12987347842E+04  0.12987347842E+04  0.50400001928E-02 0.  1.
    10030    2    1    2    0    0  0.00000000000E+00  0.00000000000E+00 -0.80812805788E+03  0.17893415106E+04  0.15964561013E+04 0.  0.
        2    1    3    3  502    0  0.73365723690E+03 -0.17269686152E+03 -0.69867342805E+03  0.10277264745E+04  0.25500000920E-02 0.  1.
       -2    1    3    3    0  502 -0.73365723690E+03  0.17269686152E+03 -0.10945462983E+03  0.76161503611E+03  0.25500000920E-02 0. -1.
</event>
<event>
 5   0  0.1736537E-04  0.1603937E+04  0.7818609E-02  0.8818133E-01
        1   -1    0    0  501    0  0.00000000000E+00  0.00000000000E+00  0.19548804653E+04  0.19548804653E+04  0.50400001928E-02 0. -1.
       -1   -1    0    0    0  501  0.00000000000E+00  0.00000000000E+00 -0.32899905786E+03  0.32899905790E+03  0.50400001928E-02 0.  1.
    10030    2    1    2    0    0  0.00000000000E+00  0.00000000000E+00  0.16258814074E+04  0.22838795232E+04  0.16039374444E+04 0.  0.
        3    1    3    3  502    0  0.44656635952E+03  0.43697546604E+03  0.97026136409E+02  0.63228407597E+03  0.10100000352E+00 0.  1.
       -3    1    3    3    0  502 -0.44656635952E+03 -0.43697546604E+03  0.15288552710E+04  0.16515954472E+04  0.10100000352E+00 0. -1.
</event>
<event>
 5   0  0.3228393E-04  0.1602779E+04  0.7818609E-02  0.8818843E-01
        2   -1    0    0  501    0  0.00000000000E+00  0.00000000000E+00  0.15860894605E+04  0.15860894605E+04  0.25500000920E-02 0. -1.
       -2   -1    0    0    0  501  0.00000000000E+00  0.00000000000E+00 -0.40491080915E+03  0.40491080916E+03  0.25500000920E-02 0.  1.
    10030    2    1    2    0    0  0.00000000000E+00  0.00000000000E+00  0.11811786513E+04  0.19910002697E+04  0.16027785460E+04 0.  0.
        1    1    3    3  502    0 -0.66505699650E+02 -0.76276849410E+03  0.88451495236E+03  0.11698741320E+04  0.50400001928E-02 0. -1.
       -1    1    3    3    0  502  0.66505699650E+02  0.76276849410E+03  0.29666369899E+03  0.82112613769E+03  0.50400001928E-02 0.  1.
</event>
<event>
 5   0  0.1736537E-04  0.1602458E+04  0.7818609E-02  0.8819039E-01
       -1   -1    0    0    0  501  0.00000000000E+00  0.00000000000E+00  0.39704802017E+03  0.39704802020E+03  0.50400001928E-02 0. -1.
        1   -1    0    0  501    0  0.00000000000E+00  0.00000000000E+00 -0.16168530366E+04  0.16168530366E+04  0.50400001928E-02 0.  1.
    10030    2    1    2    0    0  0.00000000000E+00  0.00000000000E+00 -0.12198050165E+04  0.20139010568E+04  0.16024584826E+04 0.  0.
        3    1    3    3  502    0  0.47169722420E+03  0.37674212251E+03 -0.12719825975E+04  0.14079675553E+04  0.10100000352E+00 0.  1.
       -3    1    3    3    0  502 -0.47169722420E+03 -0.37674212251E+03  0.52177580999E+02  0.60593350159E+03  0.10100000352E+00 0. -1.
</event>
<event>
 5   0  0.3274900E-04  0.1630872E+04  0.7818609E-02  0.8801804E-01
        2   -1    0    0  501    0  0.00000000000E+00  0.00000000000E+00  0.11620269065E+04  0.11620269065E+04  0.25500000920E-02 0. -1.
       -2   -1    0    0    0  501  0.00000000000E+00  0.00000000000E+00 -0.57222047470E+03  0.57222047471E+03  0.25500000920E-02 0.  1.
    10030    2    1    2    0    0  0.00000000000E+00  0.00000000000E+00  0.58980643183E+03  0.17342473812E+04  0.16308716542E+04 0.  0.
        3    1    3    3  502    0  0.21983360762E+03  0.65059854224E+03 -0.17266095600E+03  0.70810810907E+03  0.10100000352E+00 0.  1.
       -3    1    3    3    0  502 -0.21983360762E+03 -0.65059854224E+03  0.76246738782E+03  0.10261392722E+04  0.10100000352E+00 0. -1.
</event>
<event>
 5   0  0.1819811E-04  0.1538745E+04  0.7818609E-02  0.8859089E-01
        1   -1    0    0  501    0  0.00000000000E+00  0.00000000000E+00  0.11997724342E+04  0.11997724342E+04  0.50400001928E-02 0.  1.
       -1   -1    0    0    0  501  0.00000000000E+00  0.00000000000E+00 -0.49337175104E+03  0.49337175106E+03  0.50400001928E-02 0. -1.
    10030    2    1    2    0    0  0.00000000000E+00  0.00000000000E+00  0.70640068319E+03  0.16931441853E+04  0.15387447179E+04 0.  0.
        1    1    3    3  502    0  0.12774402456E+03  0.30922860350E+03 -0.40913280401E+03  0.52851728105E+03  0.50400001928E-02 0. -1.
       -1    1    3    3    0  502 -0.12774402456E+03 -0.30922860350E+03  0.11155334872E+04  0.11646269042E+04  0.50400001928E-02 0.  1.
</event>
<event>
 5   0  0.3263294E-04  0.1602278E+04  0.7818609E-02  0.8819150E-01
        2   -1    0    0  501    0  0.00000000000E+00  0.00000000000E+00  0.60978148387E+03  0.60978148388E+03  0.25500000920E-02 0. -1.
       -2   -1    0    0    0  501  0.00000000000E+00  0.00000000000E+00 -0.10525464901E+04  0.10525464901E+04  0.25500000920E-02 0.  1.
    10030    2    1    2    0    0  0.00000000000E+00  0.00000000000E+00 -0.44276500627E+03  0.16623279740E+04  0.16022775797E+04 0.  0.
        4    1    3    3  502    0  0.50427711699E+03 -0.24523678884E+03 -0.81500248993E+03  0.98927608118E+03  0.12699999809E+01 0.  1.
       -4    1    3    3    0  502 -0.50427711699E+03  0.24523678884E+03  0.37223748366E+03  0.67305189284E+03  0.12699999809E+01 0. -1.
</event>
<event>
 5   0  0.3263294E-04  0.1590259E+04  0.7818609E-02  0.8826555E-01
       -2   -1    0    0    0  501  0.00000000000E+00  0.00000000000E+00  0.29810390082E+03  0.29810390083E+03  0.25500000920E-02 0.  1.
        2   -1    0    0  501    0  0.00000000000E+00  0.00000000000E+00 -0.21208398264E+04  0.21208398264E+04  0.25500000920E-02 0. -1.
    10030    2    1    2    0    0  0.00000000000E+00  0.00000000000E+00 -0.18227359256E+04  0.24189437273E+04  0.15902586271E+04 0.  0.
        4    1    3    3  502    0  0.10511296284E+03 -0.34125038292E+03 -0.19920225448E+04  0.20237727122E+04  0.12699999809E+01 0. -1.
       -4    1    3    3    0  502 -0.10511296284E+03  0.34125038292E+03  0.16928661919E+03  0.39517101505E+03  0.12699999809E+01 0.  1.
</event>
<event>
 5   0  0.1764099E-04  0.1594900E+04  0.7818609E-02  0.8823687E-01
       -1   -1    0    0    0  501  0.00000000000E+00  0.00000000000E+00  0.35422048829E+03  0.35422048832E+03  0.50400001928E-02 0. -1.
        1   -1    0    0  501    0  0.00000000000E+00  0.00000000000E+00 -0.17952848232E+04  0.17952848232E+04  0.50400001928E-02 0.  1.
    10030    2    1    2    0    0  0.00000000000E+00  0.00000000000E+00 -0.14410643349E+04  0.21495053115E+04  0.15949002059E+04 0.  0.
        5    1    3    3  502    0 -0.55100916003E+03  0.55532312849E+03 -0.51213485220E+03  0.93503960788E+03  0.46999998093E+01 0. -1.
       -5    1    3    3    0  502  0.55100916003E+03 -0.55532312849E+03 -0.92892948269E+03  0.12144657036E+04  0.46999998093E+01 0.  1.
</event>
<event>
 5   0  0.1736537E-04  0.1593818E+04  0.7818609E-02  0.8824355E-01
       -1   -1    0    0    0  501  0.00000000000E+00  0.00000000000E+00  0.10370576648E+04  0.10370576648E+04  0.50400001928E-02 0.  1.
        1   -1    0    0  501    0  0.00000000000E+00  0.00000000000E+00 -0.61237055843E+03  0.61237055845E+03  0.50400001928E-02 0. -1.
    10030    2    1    2    0    0  0.00000000000E+00  0.00000000000E+00  0.42468710633E+03  0.16494282232E+04  0.15938175320E+04 0.  0.
        3    1    3    3  502    0 -0.66884979894E+03 -0.11720668904E+03  0.64398898340E+03  0.93585216912E+03  0.10100000352E+00 0.  1.
       -3    1    3    3    0  502  0.66884979894E+03  0.11720668904E+03 -0.21930187707E+03  0.71357605410E+03  0.10100000352E+00 0. -1.
</event>
<event>
 5   0  0.1761255E-04  0.1584658E+04  0.7818609E-02  0.8830029E-01
       -1   -1    0    0    0  501  0.00000000000E+00  0.00000000000E+00  0.47282404997E+03  0.47282405000E+03  0.50400001928E-02 0. -1.
        1   -1    0    0  501    0  0.00000000000E+00  0.00000000000E+00 -0.13277362571E+04  0.13277362571E+04  0.50400001928E-02 0.  1.
    10030    2    1    2    0    0  0.00000000000E+00  0.00000000000E+00 -0.85491220709E+03  0.18005603071E+04  0.15846584924E+04 0.  0.
        2    1    3    3  502    0 -0.61150436685E+03  0.30759172624E+03 -0.88086680400E+03  0.11155611086E+04  0.25500000920E-02 0.  1.
       -2    1    3    3    0  502  0.61150436685E+03 -0.30759172624E+03  0.25954596918E+02  0.68499919842E+03  0.25500000920E-02 0. -1.
</event>
<event>
 5   0  0.3263294E-04  0.1600562E+04  0.7818609E-02  0.8820203E-01
        2   -1    0    0  501    0  0.00000000000E+00  0.00000000000E+00  0.12461957146E+04  0.12461957146E+04  0.25500000920E-02 0.  1.
       -2   -1    0    0    0  501  0.00000000000E+00  0.00000000000E+00 -0.51392357044E+03  0.51392357044E+03  0.25500000920E-02 0. -1.
    10030    2    1    2    0    0  0.00000000000E+00  0.00000000000E+00  0.73227214418E+03  0.17601192851E+04  0.16005615903E+04 0.  0.
        4    1    3    3  502    0  0.50160560661E+03  0.58082992770E+03  0.11663481725E+03  0.77625825793E+03  0.12699999809E+01 0. -1.
       -4    1    3    3    0  502 -0.50160560661E+03 -0.58082992770E+03  0.61563732692E+03  0.98386102713E+03  0.12699999809E+01 0.  1.
</event>
<event>
 5   0  0.1736537E-04  0.1623300E+04  0.7818609E-02  0.8806361E-01
       -1   -1    0    0    0  501  0.00000000000E+00  0.00000000000E+00  0.47677539261E+03  0.47677539264E+03  0.50400001928E-02 0.  1.
        1   -1    0    0  501    0  0.00000000000E+00  0.00000000000E+00 -0.13817312003E+04  0.13817312003E+04  0.50400001928E-02 0. -1.
    10030    2    1    2    0    0  0.00000000000E+00  0.00000000000E+00 -0.90495580771E+03  0.18585065930E+04  0.16232996465E+04 0.  0.
        3    1    3    3  502    0 -0.50645209042E+03 -0.55364794879E+03 -0.98197096260E+02  0.75674464055E+03  0.10100000352E+00 0.  1.
       -3    1    3    3    0  502  0.50645209042E+03  0.55364794879E+03 -0.80675871145E+03  0.11017619524E+04  0.10100000352E+00 0. -1.
</event>
<event>
 5   0  0.3210612E-04  0.1599492E+04  0.7818609E-02  0.8820860E-01
        2   -1    0    0  501    0  0.00000000000E+00  0.00000000000E+00  0.20468381384E+04  0.20468381384E+04  0.25500000920E-02 0. -1.
       -2   -1    0    0    0  501  0.00000000000E+00  0.00000000000E+00 -0.31247874671E+03  0.31247874672E+03  0.25500000920E-02 0.  1.
    10030    2    1    2    0    0  0.00000000000E+00  0.00000000000E+00  0.17343593917E+04  0.23593168851E+04  0.15994916895E+04 0.  0.
        2    1    3    3  502    0 -0.38556655447E+03  0.27239088156E+03 -0.85033740623E+02  0.47967603373E+03  0.25500000920E-02 0.  1.
       -2    1    3    3    0  502  0.38556655447E+03 -0.27239088156E+03  0.18193931323E+04  0.18796408514E+04  0.25500000920E-02 0. -1.
</event>
<event>
 5   0  0.3263294E-04  0.1569405E+04  0.7818609E-02  0.8839567E-01
       -2   -1    0    0    0  501  0.00000000000E+00  0.00000000000E+00  0.35122910277E+03  0.35122910278E+03  0.25500000920E-02 0. -1.
        2   -1    0    0  501    0  0.00000000000E+00  0.00000000000E+00 -0.17531516709E+04  0.17531516709E+04  0.25500000920E-02 0.  1.
    10030    2    1    2    0    0  0.00000000000E+00  0.00000000000E+00 -0.14019225681E+04  0.21043807736E+04  0.15694048405E+04 0.  0.
        4    1    3    3  502    0  0.61591685563E+02 -0.13855536508E+03 -0.17333200956E+04  0.17399400253E+04  0.12699999809E+01 0.  1.
       -4    1    3    3    0  502 -0.61591685563E+02  0.13855536508E+03  0.33139752750E+03  0.36444074835E+03  0.12699999809E+01 0. -1.
</event>
<event>
 5   0  0.1764099E-04  0.1601821E+04  0.7818609E-02  0.8819430E-01
        1   -1    0    0  501    0  0.00000000000E+00  0.00000000000E+00  0.62087151184E+03  0.62087151186E+03  0.50400001928E-02 0. -1.
       -1   -1    0    0    0  501  0.00000000000E+00  0.00000000000E+00 -0.10331573872E+04  0.10331573872E+04  0.50400001928E-02 0.  1.
    10030    2    1    2    0    0  0.00000000000E+00  0.00000000000E+00 -0.41228587534E+03  0.16540288991E+04  0.16018214494E+04 0.  0.
        5    1    3    3  502    0 -0.21346474290E+03 -0.23680899874E+03  0.55250710474E+03  0.63791213276E+03  0.46999998093E+01 0. -1.
       -5    1    3    3    0  502  0.21346474290E+03  0.23680899874E+03 -0.96479298007E+03  0.10161167663E+04  0.46999998093E+01 0.  1.
</event>
<event>
 5   0  0.1219463E-04  0.1585354E+04  0.7818609E-02  0.8829596E-01
       -4   -1    0    0    0  501  0.00000000000E+00  0.00000000000E+00  0.59620725227E+03  0.59620860490E+03  0.12699999809E+01 0. -1.
        4   -1    0    0  501    0  0.00000000000E+00  0.00000000000E+00 -0.10538875685E+04  0.10538883337E+04  0.12699999809E+01 0.  1.
    10030    2    1    2    0    0  0.00000000000E+00  0.00000000000E+00 -0.45768031625E+03  0.16500969386E+04  0.15853544194E+04 0.  0.
        5    1    3    3  502    0 -0.20196806783E+03  0.76646250108E+03 -0.23684871283E+03  0.82726976782E+03  0.46999998093E+01 0.  1.
       -5    1    3    3    0  502  0.20196806783E+03 -0.76646250108E+03 -0.22083160342E+03  0.82282717082E+03  0.46999998093E+01 0. -1.
</event>
<event>
 5   0  0.3210612E-04  0.1592412E+04  0.7818609E-02  0.8825223E-01
       -2   -1    0    0    0  501  0.00000000000E+00  0.00000000000E+00  0.66908857433E+03  0.66908857434E+03  0.25500000920E-02 0.  1.
        2   -1    0    0  501    0  0.00000000000E+00  0.00000000000E+00 -0.94747453363E+03  0.94747453363E+03  0.25500000920E-02 0. -1.
    10030    2    1    2    0    0  0.00000000000E+00  0.00000000000E+00 -0.27838595929E+03  0.16165631080E+04  0.15924124904E+04 0.  0.
        2    1    3    3  502    0  0.77056827319E+02 -0.14857151501E+03 -0.92941556700E+03  0.94436462550E+03  0.25500000920E-02 0. -1.
       -2    1    3    3    0  502 -0.77056827319E+02  0.14857151501E+03  0.65102960771E+03  0.67219848247E+03  0.25500000920E-02 0.  1.
</event>
<event>
 5   0  0.3274900E-04  0.1603056E+04  0.7818609E-02  0.8818673E-01
        2   -1    0    0  501    0  0.00000000000E+00  0.00000000000E+00  0.86771144010E+03  0.86771144011E+03  0.25500000920E-02 0. -1.
       -2   -1    0    0    0  501  0.00000000000E+00  0.00000000000E+00 -0.74039222753E+03  0.74039222753E+03  0.25500000920E-02 0.  1.
    10030    2    1    2    0    0  0.00000000000E+00  0.00000000000E+00  0.12731921258E+03  0.16081036676E+04  0.16030555898E+04 0.  0.
        3    1    3    3  502    0  0.31326193747E+03 -0.51160627705E+03  0.59690930080E+03  0.84627108409E+03  0.10100000352E+00 0. -1.
       -3    1    3    3    0  502 -0.31326193747E+03  0.51160627705E+03 -0.46959008823E+03  0.76183258355E+03  0.10100000352E+00 0.  1.
</event>
<event>
 5   0  0.3380454E-04  0.1611007E+04  0.7818609E-02  0.8813815E-01
        2   -1    0    0  501    0  0.00000000000E+00  0.00000000000E+00  0.90155411186E+03  0.90155411187E+03  0.25500000920E-02 0. -1.
       -2   -1    0    0    0  501  0.00000000000E+00  0.00000000000E+00 -0.71968562060E+03  0.71968562060E+03  0.25500000920E-02 0.  1.
    10030    2    1    2    0    0  0.00000000000E+00  0.00000000000E+00  0.18186849127E+03  0.16212397325E+04  0.16110065555E+04 0.  0.
        5    1    3    3  502    0 -0.44539396549E+03  0.35733790053E+03  0.66265140473E+03  0.87475432770E+03  0.46999998093E+01 0. -1.
       -5    1    3    3    0  502  0.44539396549E+03 -0.35733790053E+03 -0.48078291346E+03  0.74648540476E+03  0.46999998093E+01 0.  1.
</event>
<event>
 5   0  0.1761255E-04  0.1522601E+04  0.7818609E-02  0.8869561E-01
       -1   -1    0    0    0  501  0.00000000000E+00  0.00000000000E+00  0.38882072547E+03  0.38882072550E+03  0.50400001928E-02 0.  1.
        1   -1    0    0  501    0  0.00000000000E+00  0.00000000000E+00 -0.14906052985E+04  0.14906052985E+04  0.50400001928E-02 0. -1.
    10030    2    1    2    0    0  0.00000000000E+00  0.00000000000E+00 -0.11017845730E+04  0.18794260240E+04  0.15226007140E+04 0.  0.
        2    1    3    3  502    0 -0.71032733211E+03 -0.10987417093E+03 -0.86056715522E+03  0.11212551364E+04  0.25500000920E-02 0. -1.
       -2    1    3    3    0  502  0.71032733211E+03  0.10987417093E+03 -0.24121741778E+03  0.75817088762E+03  0.25500000920E-02 0.  1.
</event>
<event>
 5   0  0.3210612E-04  0.1601238E+04  0.7818609E-02  0.8819788E-01
        2   -1    0    0  501    0  0.00000000000E+00  0.00000000000E+00  0.11183263109E+04  0.11183263109E+04  0.25500000920E-02 0. -1.
       -2   -1    0    0    0  501  0.00000000000E+00  0.00000000000E+00 -0.57316969901E+03  0.57316969901E+03  0.25500000920E-02 0.  1.
    10030    2    1    2    0    0  0.00000000000E+00  0.00000000000E+00  0.54515661188E+03  0.16914960099E+04  0.16012379648E+04 0.  0.
        2    1    3    3  502    0  0.47633486868E+03  0.23189197674E+03 -0.36152565224E+03  0.64138100473E+03  0.25500000920E-02 0.  1.
       -2    1    3    3    0  502 -0.47633486868E+03 -0.23189197674E+03  0.90668226412E+03  0.10501150052E+04  0.25500000920E-02 0. -1.
</event>
<event>
 5   0  0.1761255E-04  0.1598249E+04  0.7818609E-02  0.8821625E-01
        1   -1    0    0  501    0  0.00000000000E+00  0.00000000000E+00  0.13908802226E+04  0.13908802226E+04  0.50400001928E-02 0.  1.
       -1   -1    0    0    0  501  0.00000000000E+00  0.00000000000E+00 -0.45913359282E+03  0.45913359284E+03  0.50400001928E-02 0. -1.
    10030    2    1    2    0    0  0.00000000000E+00  0.00000000000E+00  0.93174662981E+03  0.18500138155E+04  0.15982488340E+04 0.  0.
        2    1    3    3  502    0  0.43425040513E+03  0.34370591524E+03 -0.20097859819E+03  0.58915156579E+03  0.25500000920E-02 0. -1.
       -2    1    3    3    0  502 -0.43425040513E+03 -0.34370591524E+03  0.11327252280E+04  0.12608622497E+04  0.25500000920E-02 0.  1.
</event>
<event>
 5   0  0.3380454E-04  0.1599208E+04  0.7818609E-02  0.8821035E-01
        2   -1    0    0  501    0  0.00000000000E+00  0.00000000000E+00  0.48321179381E+03  0.48321179381E+03  0.25500000920E-02 0. -1.
       -2   -1    0    0    0  501  0.00000000000E+00  0.00000000000E+00 -0.13231605483E+04  0.13231605483E+04  0.25500000920E-02 0.  1.
    10030    2    1    2    0    0  0.00000000000E+00  0.00000000000E+00 -0.83994875446E+03  0.18063723421E+04  0.15992082817E+04 0.  0.
        5    1    3    3  502    0 -0.64717560349E+00 -0.16259466932E+03 -0.13042743731E+04  0.13143786272E+04  0.46999998093E+01 0.  1.
       -5    1    3    3    0  502  0.64717560349E+00  0.16259466932E+03  0.46432561865E+03  0.49199371486E+03  0.46999998093E+01 0. -1.
</event>
<event>
 5   0  0.1819811E-04  0.1630678E+04  0.7818609E-02  0.8801920E-01
        1   -1    0    0  501    0  0.00000000000E+00  0.00000000000E+00  0.68366538389E+03  0.68366538390E+03  0.50400001928E-02 0. -1.
       -1   -1    0    0    0  501  0.00000000000E+00  0.00000000000E+00 -0.97237238307E+03  0.97237238309E+03  0.50400001928E-02 0.  1.
    10030    2    1    2    0    0  0.00000000000E+00  0.00000000000E+00 -0.28870699919E+03  0.16560377670E+04  0.16306775752E+04 0.  0.
        1    1    3    3  502    0 -0.37582746265E+03 -0.48066562193E+02  0.58883045147E+03  0.70019852663E+03  0.50400001928E-02 0. -1.
       -1    1    3    3    0  502  0.37582746265E+03  0.48066562193E+02 -0.87753745066E+03  0.95583924037E+03  0.50400001928E-02 0.  1.
</event>
<event>
 5   0  0.1761255E-04  0.1593448E+04  0.7818609E-02  0.8824583E-01
       -1   -1    0    0    0  501  0.00000000000E+00  0.00000000000E+00  0.27485559974E+04  0.27485559974E+04  0.50400001928E-02 0.  1.
        1   -1    0    0  501    0  0.00000000000E+00  0.00000000000E+00 -0.23094641930E+03  0.23094641935E+03  0.50400001928E-02 0. -1.
    10030    2    1    2    0    0  0.00000000000E+00  0.00000000000E+00  0.25176095781E+04  0.29795024168E+04  0.15934480424E+04 0.  0.
        2    1    3    3  502    0  0.89412058037E+02 -0.78811261760E+03  0.13993937295E+04  0.16085455618E+04  0.25500000920E-02 0.  1.
       -2    1    3    3    0  502 -0.89412058037E+02  0.78811261760E+03  0.11182158486E+04  0.13709568550E+04  0.25500000920E-02 0. -1.
</event>
<event>
 5   0  0.1819811E-04  0.1603632E+04  0.7818609E-02  0.8818320E-01
        1   -1    0    0  501    0  0.00000000000E+00  0.00000000000E+00  0.16865451430E+04  0.16865451430E+04  0.50400001928E-02 0. -1.
       -1   -1    0    0    0  501  0.00000000000E+00  0.00000000000E+00 -0.38119874335E+03  0.38119874338E+03  0.50400001928E-02 0.  1.
    10030    2    1    2    0    0  0.00000000000E+00  0.00000000000E+00  0.13053463997E+04  0.20677438864E+04  0.16036319892E+04 0.  0.
        1    1    3    3  502    0  0.79061586966E+03  0.51593806634E+02  0.49384225037E+03  0.93360352534E+03  0.50400001928E-02 0. -1.
       -1    1    3    3    0  502 -0.79061586966E+03 -0.51593806634E+02  0.81150414930E+03  0.11341403611E+04  0.50400001928E-02 0.  1.
</event>
<event>
 5   0  0.3380454E-04  0.1595966E+04  0.7818609E-02  0.8823030E-01
       -2   -1    0    0    0  501  0.00000000000E+00  0.00000000000E+00  0.50087230345E+03  0.50087230345E+03  0.25500000920E-02 0.  1.
        2   -1    0    0  501    0  0.00000000000E+00  0.00000000000E+00 -0.12713358939E+04  0.12713358939E+04  0.25500000920E-02 0. -1.
    10030    2    1    2    0    0  0.00000000000E+00  0.00000000000E+00 -0.77046359042E+03  0.17722081973E+04  0.15959660869E+04 0.  0.
        5    1    3    3  502    0  0.58086172335E+03 -0.53999539464E+03 -0.28741636165E+03  0.84357905547E+03  0.46999998093E+01 0. -1.
       -5    1    3    3    0  502 -0.58086172335E+03  0.53999539464E+03 -0.48304722876E+03  0.92862914185E+03  0.46999998093E+01 0.  1.
</event>
<event>
 5   0  0.1764099E-04  0.1600349E+04  0.7818609E-02  0.8820334E-01
       -1   -1    0    0    0  501  0.00000000000E+00  0.00000000000E+00  0.37626603559E+03  0.37626603562E+03  0.50400001928E-02 0.  1.
        1   -1    0    0  501    0  0.00000000000E+00  0.00000000000E+00 -0.17016655062E+04  0.17016655062E+04  0.50400001928E-02 0. -1.
    10030    2    1    2    0    0  0.00000000000E+00  0.00000000000E+00 -0.13253994706E+04  0.20779315418E+04  0.16003486294E+04 0.  0.
        5    1    3    3  502    0 -0.77846232569E+03 -0.12236916964E+03 -0.48241485324E+03  0.92397185391E+03  0.46999998093E+01 0.  1.
       -5    1    3    3    0  502  0.77846232569E+03  0.12236916964E+03 -0.84298461733E+03  0.11539596879E+04  0.46999998093E+01 0. -1.
</event>
<event>
 5   0  0.1736537E-04  0.1681165E+04  0.7818609E-02  0.8772180E-01
       -1   -1    0    0    0  501  0.00000000000E+00  0.00000000000E+00  0.55809996927E+03  0.55809996930E+03  0.50400001928E-02 0.  1.
        1   -1    0    0  501    0  0.00000000000E+00  0.00000000000E+00 -0.12660435812E+04  0.12660435812E+04  0.50400001928E-02 0. -1.
    10030    2    1    2    0    0  0.00000000000E+00  0.00000000000E+00 -0.70794361193E+03  0.18241435505E+04  0.16811649340E+04 0.  0.
        3    1    3    3  502    0 -0.76843751349E+03 -0.17286242039E+03 -0.35401378269E+02  0.78843572744E+03  0.10100000352E+00 0.  1.
       -3    1    3    3    0  502  0.76843751349E+03  0.17286242039E+03 -0.67254223366E+03  0.10357078231E+04  0.10100000352E+00 0. -1.
</event>
<event>
 5   0  0.3228393E-04  0.1607882E+04  0.7818609E-02  0.8815720E-01
        2   -1    0    0  501    0  0.00000000000E+00  0.00000000000E+00  0.10073132197E+04  0.10073132198E+04  0.25500000920E-02 0.  1.
       -2   -1    0    0    0  501  0.00000000000E+00  0.00000000000E+00 -0.64162909554E+03  0.64162909555E+03  0.25500000920E-02 0. -1.
    10030    2    1    2    0    0  0.00000000000E+00  0.00000000000E+00  0.36568412420E+03  0.16489423153E+04  0.16078824212E+04 0.  0.
        1    1    3    3  502    0 -0.18252358839E+03  0.14901148274E+03 -0.60542290086E+03  0.64965850354E+03  0.50400001928E-02 0. -1.
       -1    1    3    3    0  502  0.18252358839E+03 -0.14901148274E+03  0.97110702506E+03  0.99928381177E+03  0.50400001928E-02 0.  1.
</event>
<event>
 5   0  0.1736537E-04  0.1601409E+04  0.7818609E-02  0.8819683E-01
        1   -1    0    0  501    0  0.00000000000E+00  0.00000000000E+00  0.15414319206E+04  0.15414319206E+04  0.50400001928E-02 0.  1.
       -1   -1    0    0    0  501  0.00000000000E+00  0.00000000000E+00 -0.41593015160E+03  0.41593015163E+03  0.50400001928E-02 0. -1.
    10030    2    1    2    0    0  0.00000000000E+00  0.00000000000E+00  0.11255017690E+04  0.19573620722E+04  0.16014093948E+04 0.  0.
        3    1    3    3  502    0  0.49485026988E+03 -0.12365861928E+03 -0.19166069908E+03  0.54488721539E+03  0.10100000352E+00 0. -1.
       -3    1    3    3    0  502 -0.49485026988E+03  0.12365861928E+03  0.13171624680E+04  0.14124748568E+04  0.10100000352E+00 0.  1.
</event>
<event>
 5   0  0.3274900E-04  0.1593476E+04  0.7818609E-02  0.8824566E-01
        2   -1    0    0  501    0  0.00000000000E+00  0.00000000000E+00  0.72079850037E+03  0.72079850037E+03  0.25500000920E-02 0. -1.
       -2   -1    0    0    0  501  0.00000000000E+00  0.00000000000E+00 -0.88067807178E+03  0.88067807179E+03  0.25500000920E-02 0.  1.
    10030    2    1    2    0    0  0.00000000000E+00  0.00000000000E+00 -0.15987957142E+03  0.16014765722E+04  0.15934759910E+04 0.  0.
        3    1    3    3  502    0  0.24984920082E+03 -0.66369983081E+03  0.28502164716E+03  0.76430323702E+03  0.10100000352E+00 0. -1.
       -3    1    3    3    0  502 -0.24984920082E+03  0.66369983081E+03 -0.44490121858E+03  0.83717333514E+03  0.10100000352E+00 0.  1.
</event>
<event>
 5   0  0.1819811E-04  0.1591459E+04  0.7818609E-02  0.8825812E-01
       -1   -1    0    0    0  501  0.00000000000E+00  0.00000000000E+00  0.50203515340E+03  0.50203515342E+03  0.50400001928E-02 0.  1.
        1   -1    0    0  501    0  0.00000000000E+00  0.00000000000E+00 -0.12612376663E+04  0.12612376663E+04  0.50400001928E-02 0. -1.
    10030    2    1    2    0    0  0.00000000000E+00  0.00000000000E+00 -0.75920251289E+03  0.17632728197E+04  0.15914592616E+04 0.  0.
        1    1    3    3  502    0 -0.39143202436E+03  0.43698456418E+03  0.21603517532E+03  0.62517656388E+03  0.50400001928E-02 0. -1.
       -1    1    3    3    0  502  0.39143202436E+03 -0.43698456418E+03 -0.97523768821E+03  0.11380962558E+04  0.50400001928E-02 0.  1.
</event>
<event>
 5   0  0.1819811E-04  0.1597554E+04  0.7818609E-02  0.8822052E-01
       -1   -1    0    0    0  501  0.00000000000E+00  0.00000000000E+00  0.26464931973E+03  0.26464931978E+03  0.50400001928E-02 0. -1.
        1   -1    0    0  501    0  0.00000000000E+00  0.00000000000E+00 -0.24109047899E+04  0.24109047899E+04  0.50400001928E-02 0.  1.
    10030    2    1    2    0    0  0.00000000000E+00  0.00000000000E+00 -0.21462554702E+04  0.26755541097E+04  0.15975535204E+04 0.  0.
        1    1    3    3  502    0  0.24121673880E+03  0.74092311785E+03 -0.77876729467E+03  0.11016492549E+04  0.50400001928E-02 0.  1.
       -1    1    3    3    0  502 -0.24121673880E+03 -0.74092311785E+03 -0.13674881755E+04  0.15739048548E+04  0.50400001928E-02 0. -1.
</event>
<event>
 5   0  0.3228393E-04  0.1597502E+04  0.7818609E-02  0.8822084E-01
       -2   -1    0    0    0  501  0.00000000000E+00  0.00000000000E+00  0.64155673352E+03  0.64155673352E+03  0.25500000920E-02 0. -1.
        2   -1    0    0  501    0  0.00000000000E+00  0.00000000000E+00 -0.99446119919E+03  0.99446119919E+03  0.25500000920E-02 0.  1.
    10030    2    1    2    0    0  0.00000000000E+00  0.00000000000E+00 -0.35290446567E+03  0.16360179327E+04  0.15975021484E+04 0.  0.
        1    1    3    3  502    0 -0.31236920710E+03 -0.36366118436E+03  0.47784050069E+03  0.67687186578E+03  0.50400001928E-02 0. -1.
       -1    1    3    3    0  502  0.31236920710E+03  0.36366118436E+03 -0.83074496636E+03  0.95914606694E+03  0.50400001928E-02 0.  1.
</event>
<event>
 5   0  0.1736537E-04  0.1602874E+04  0.7818609E-02  0.8818785E-01
       -1   -1    0    0    0  501  0.00000000000E+00  0.00000000000E+00  0.84870922754E+03  0.84870922756E+03  0.50400001928E-02 0. -1.
        1   -1    0    0  501    0  0.00000000000E+00  0.00000000000E+00 -0.75679731807E+03  0.75679731809E+03  0.50400001928E-02 0.  1.
    10030    2    1    2    0    0  0.00000000000E+00  0.00000000000E+00  0.91911909472E+02  0.16055065456E+04  0.16028735037E+04 0.  0.
        3    1    3    3  502    0 -0.17839005011E+03 -0.78070024936E+03  0.77391704924E+02  0.80455290412E+03  0.10100000352E+00 0.  1.
       -3    1    3    3    0  502  0.17839005011E+03  0.78070024936E+03  0.14520204547E+02  0.80095364153E+03  0.10100000352E+00 0. -1.
</event>
<event>
 5   0  0.1819811E-04  0.1610350E+04  0.7818609E-02  0.8814215E-01
        1   -1    0    0  501    0  0.00000000000E+00  0.00000000000E+00  0.11154678987E+04  0.11154678987E+04  0.50400001928E-02 0. -1.
       -1   -1    0    0    0  501  0.00000000000E+00  0.00000000000E+00 -0.58119735830E+03  0.58119735832E+03  0.50400001928E-02 0.  1.
    10030    2    1    2    0    0  0.00000000000E+00  0.00000000000E+00  0.53427054039E+03  0.16966652570E+04  0.16103502675E+04 0.  0.
        1    1    3    3  502    0 -0.38463134522E+03  0.49338129424E+03  0.80119791633E+03  0.10165060130E+04  0.50400001928E-02 0. -1.
       -1    1    3    3    0  502  0.38463134522E+03 -0.49338129424E+03 -0.26692737594E+03  0.68015924406E+03  0.50400001928E-02 0.  1.
</event>
<event>
 5   0  0.3274900E-04  0.1617933E+04  0.7818609E-02  0.8809606E-01
        2   -1    0    0  501    0  0.00000000000E+00  0.00000000000E+00  0.57438414793E+03  0.57438414794E+03  0.25500000920E-02 0.  1.
       -2   -1    0    0    0  501  0.00000000000E+00  0.00000000000E+00 -0.11393534053E+04  0.11393534053E+04  0.25500000920E-02 0. -1.
    10030    2    1    2    0    0  0.00000000000E+00  0.00000000000E+00 -0.56496925737E+03  0.17137375532E+04  0.16179326746E+04 0.  0.
        3    1    3    3  502    0 -0.24371938922E+02  0.76237460303E+02 -0.11351491662E+04  0.11379673904E+04  0.10100000352E+00 0. -1.
       -3    1    3    3    0  502  0.24371938922E+02 -0.76237460303E+02  0.57017990887E+03  0.57577016286E+03  0.10100000352E+00 0.  1.
</event>
<event>
 5   0  0.3380454E-04  0.1599230E+04  0.7818609E-02  0.8821021E-01
       -2   -1    0    0    0  501  0.00000000000E+00  0.00000000000E+00  0.56996875305E+03  0.56996875306E+03  0.25500000920E-02 0. -1.
        2   -1    0    0  501    0  0.00000000000E+00  0.00000000000E+00 -0.11217883198E+04  0.11217883198E+04  0.25500000920E-02 0.  1.
    10030    2    1    2    0    0  0.00000000000E+00  0.00000000000E+00 -0.55181956679E+03  0.16917570729E+04  0.15992301771E+04 0.  0.
        5    1    3    3  502    0  0.34506203502E+03 -0.41280503926E+03  0.34982536452E+03  0.64177541563E+03  0.46999998093E+01 0. -1.
       -5    1    3    3    0  502 -0.34506203502E+03  0.41280503926E+03 -0.90164493130E+03  0.10499816573E+04  0.46999998093E+01 0.  1.
</event>
<event>
 5   0  0.3210612E-04  0.1499520E+04  0.7818609E-02  0.8884772E-01
       -2   -1    0    0    0  501  0.00000000000E+00  0.00000000000E+00  0.24823395998E+03  0.24823395999E+03  0.25500000920E-02 0. -1.
        2   -1    0    0  501    0  0.00000000000E+00  0.00000000000E+00 -0.22645587604E+04  0.22645587604E+04  0.25500000920E-02 0.  1.
    10030    2    1    2    0    0  0.00000000000E+00  0.00000000000E+00 -0.20163248004E+04  0.25127927204E+04  0.14995204416E+04 0.  0.
        2    1    3    3  502    0 -0.31040040450E+03  0.36924374576E+03 -0.46329314551E+02  0.48459855581E+03  0.25500000920E-02 0. -1.
       -2    1    3    3    0  502  0.31040040450E+03 -0.36924374576E+03 -0.19699954859E+04  0.20281941646E+04  0.25500000920E-02 0.  1.
</event>
<event>
 5   0  0.3210612E-04  0.1594924E+04  0.7818609E-02  0.8823672E-01
        2   -1    0    0  501    0  0.00000000000E+00  0.00000000000E+00  0.75658060453E+03  0.75658060453E+03  0.25500000920E-02 0.  1.
       -2   -1    0    0    0  501  0.00000000000E+00  0.00000000000E+00 -0.84055263325E+03  0.84055263326E+03  0.25500000920E-02 0. -1.
    10030    2    1    2    0    0  0.00000000000E+00  0.00000000000E+00 -0.83972028726E+02  0.15971332378E+04  0.15949242232E+04 0.  0.
        2    1    3    3  502    0  0.26744034224E+03  0.75042646385E+03 -0.61369185776E+01  0.79668179098E+03  0.25500000920E-02 0.  1.
       -2    1    3    3    0  502 -0.26744034224E+03 -0.75042646385E+03 -0.77835110148E+02  0.80045144680E+03  0.25500000920E-02 0. -1.
</event>
<event>
 5   0  0.3274900E-04  0.1594989E+04  0.7818609E-02  0.8823632E-01
       -2   -1    0    0    0  501  0.00000000000E+00  0.00000000000E+00  0.92982445671E+03  0.92982445671E+03  0.25500000920E-02 0.  1.
        2   -1    0    0  501    0  0.00000000000E+00  0.00000000000E+00 -0.68399777172E+03  0.68399777172E+03  0.25500000920E-02 0. -1.
    10030    2    1    2    0    0  0.00000000000E+00  0.00000000000E+00  0.24582668499E+03  0.16138222284E+04  0.15949894752E+04 0.  0.
        3    1    3    3  502    0 -0.43596212004E+03  0.26975236536E+03  0.74100144172E+03  0.90106184891E+03  0.10100000352E+00 0.  1.
       -3    1    3    3    0  502  0.43596212004E+03 -0.26975236536E+03 -0.49517475673E+03  0.71276037953E+03  0.10100000352E+00 0. -1.
</event>
<event>
 5   0  0.1761255E-04  0.1607215E+04  0.7818609E-02  0.8816128E-01
       -1   -1    0    0    0  501  0.00000000000E+00  0.00000000000E+00  0.17414720247E+04  0.17414720247E+04  0.50400001928E-02 0.  1.
        1   -1    0    0  501    0  0.00000000000E+00  0.00000000000E+00 -0.37082711070E+03  0.37082711073E+03  0.50400001928E-02 0. -1.
    10030    2    1    2    0    0  0.00000000000E+00  0.00000000000E+00  0.13706449140E+04  0.21122991354E+04  0.16072150314E+04 0.  0.
        2    1    3    3  502    0  0.32832616749E+03  0.63062105890E+03  0.19303753391E+03  0.73671193942E+03  0.25500000920E-02 0. -1.
       -2    1    3    3    0  502 -0.32832616749E+03 -0.63062105890E+03  0.11776073801E+04  0.13755871960E+04  0.25500000920E-02 0.  1.
</event>
<event>
 5   0  0.3228393E-04  0.1602581E+04  0.7818609E-02  0.8818964E-01
       -2   -1    0    0    0  501  0.00000000000E+00  0.00000000000E+00  0.65142481990E+03  0.65142481991E+03  0.25500000920E-02 0. -1.
        2   -1    0    0  501    0  0.00000000000E+00  0.00000000000E+00 -0.98563359408E+03  0.98563359408E+03  0.25500000920E-02 0.  1.
    10030    2    1    2    0    0  0.00000000000E+00  0.00000000000E+00 -0.33420877417E+03  0.16370584140E+04  0.16025806520E+04 0.  0.
        1    1    3    3  502    0  0.39649316513E+03 -0.34495752299E+03 -0.78498407814E+03  0.94467059106E+03  0.50400001928E-02 0.  1.
       -1    1    3    3    0  502 -0.39649316513E+03  0.34495752299E+03  0.45077530396E+03  0.69238782293E+03  0.50400001928E-02 0. -1.
</event>
<event>
 5   0  0.1736537E-04  0.1621186E+04  0.7818609E-02  0.8807637E-01
        1   -1    0    0  501    0  0.00000000000E+00  0.00000000000E+00  0.83351646933E+03  0.83351646935E+03  0.50400001928E-02 0. -1.
       -1   -1    0    0    0  501  0.00000000000E+00  0.00000000000E+00 -0.78829989508E+03  0.78829989509E+03  0.50400001928E-02 0.  1.
    10030    2    1    2    0    0  0.00000000000E+00  0.00000000000E+00  0.45216574255E+02  0.16218163644E+04  0.16211859182E+04 0.  0.
        3    1    3    3  502    0  0.12341753596E+03  0.63831820048E+03  0.50692352304E+03  0.82441099074E+03  0.10100000352E+00 0. -1.
       -3    1    3    3    0  502 -0.12341753596E+03 -0.63831820048E+03 -0.46170694878E+03  0.79740537370E+03  0.10100000352E+00 0.  1.
</event>
<event>
 5   0  0.1736537E-04  0.1593810E+04  0.7818609E-02  0.8824360E-01
       -1   -1    0    0    0  501  0.00000000000E+00  0.00000000000E+00  0.36993212025E+03  0.36993212028E+03  0.50400001928E-02 0. -1.
        1   -1    0    0  501    0  0.00000000000E+00  0.00000000000E+00 -0.17166865093E+04  0.17166865093E+04  0.50400001928E-02 0.  1.
    10030    2    1    2    0    0  0.00000000000E+00  0.00000000000E+00 -0.13467543891E+04  0.20866186296E+04  0.15938098760E+04 0.  0.
        3    1    3    3  502    0  0.62086691754E+03 -0.38855417328E+03 -0.26226409974E+03  0.77796692930E+03  0.10100000352E+00 0. -1.
       -3    1    3    3    0  502 -0.62086691754E+03  0.38855417328E+03 -0.10844902893E+04  0.13086517003E+04  0.10100000352E+00 0.  1.
</event>
<event>
 5   0  0.1787688E-04  0.1616370E+04  0.7818609E-02  0.8810554E-01
        1   -1    0    0  501    0  0.00000000000E+00  0.00000000000E+00  0.18285376668E+04  0.18285376668E+04  0.50400001928E-02 0. -1.
       -1   -1    0    0    0  501  0.00000000000E+00  0.00000000000E+00 -0.35720510097E+03  0.35720510101E+03  0.50400001928E-02 0.  1.
    10030    2    1    2    0    0  0.00000000000E+00  0.00000000000E+00  0.14713325658E+04  0.21857427678E+04  0.16163699848E+04 0.  0.
        4    1    3    3  502    0  0.32624032802E+03 -0.70682131564E+03  0.10292401116E+04  0.12904905827E+04  0.12699999809E+01 0. -1.
       -4    1    3    3    0  502 -0.32624032802E+03  0.70682131564E+03  0.44209245416E+03  0.89525218503E+03  0.12699999809E+01 0.  1.
</event>
<event>
 5   0  0.3263294E-04  0.1590015E+04  0.7818609E-02  0.8826706E-01
       -2   -1    0    0    0  501  0.00000000000E+00  0.00000000000E+00  0.40490708830E+03  0.40490708830E+03  0.25500000920E-02 0. -1.
        2   -1    0    0  501    0  0.00000000000E+00  0.00000000000E+00 -0.15609424735E+04  0.15609424735E+04  0.25500000920E-02 0.  1.
    10030    2    1    2    0    0  0.00000000000E+00  0.00000000000E+00 -0.11560353852E+04  0.19658495618E+04  0.15900146816E+04 0.  0.
        4    1    3    3  502    0  0.30701407288E+02 -0.36011277276E+03 -0.14534976189E+04  0.14977585676E+04  0.12699999809E+01 0.  1.
       -4    1    3    3    0  502 -0.30701407288E+02  0.36011277276E+03  0.29746223373E+03  0.46809099426E+03  0.12699999809E+01 0. -1.
</event>
<event>
 5   0  0.1736537E-04  0.1563497E+04  0.7818609E-02  0.8843293E-01
        1   -1    0    0  501    0  0.00000000000E+00  0.00000000000E+00  0.10107962106E+04  0.10107962106E+04  0.50400001928E-02 0. -1.
       -1   -1    0    0    0  501  0.00000000000E+00  0.00000000000E+00 -0.60460313551E+03  0.60460313554E+03  0.50400001928E-02 0.  1.
    10030    2    1    2    0    0  0.00000000000E+00  0.00000000000E+00  0.40619307511E+03  0.16153993462E+04  0.15634967967E+04 0.  0.
        3    1    3    3  502    0 -0.58013957249E+03 -0.22620906831E+03  0.69143690653E+03  0.93049313381E+03  0.10100000352E+00 0. -1.
       -3    1    3    3    0  502  0.58013957249E+03  0.22620906831E+03 -0.28524383143E+03  0.68490621236E+03  0.10100000352E+00 0.  1.
</event>
<event>
 5   0  0.3380454E-04  0.1584325E+04  0.7818609E-02  0.8830236E-01
       -2   -1    0    0    0  501  0.00000000000E+00  0.00000000000E+00  0.11487402639E+04  0.11487402639E+04  0.25500000920E-02 0.  1.
        2   -1    0    0  501    0  0.00000000000E+00  0.00000000000E+00 -0.54626948108E+03  0.54626948108E+03  0.25500000920E-02 0. -1.
    10030    2    1    2    0    0  0.00000000000E+00  0.00000000000E+00  0.60247078279E+03  0.16950097450E+04  0.15843254058E+04 0.  0.
        5    1    3    3  502    0 -0.10031748094E+02 -0.14802109559E+03  0.11337289116E+04  0.11434046597E+04  0.46999998093E+01 0.  1.
       -5    1    3    3    0  502  0.10031748094E+02  0.14802109559E+03 -0.53125812881E+03  0.55160508530E+03  0.46999998093E+01 0. -1.
</event>
<event>
 5   0  0.1736537E-04  0.1640698E+04  0.7818609E-02  0.8795928E-01
        1   -1    0    0  501    0  0.00000000000E+00  0.00000000000E+00  0.15463128396E+04  0.15463128396E+04  0.50400001928E-02 0.  1.
       -1   -1    0    0    0  501  0.00000000000E+00  0.00000000000E+00 -0.43521121678E+03  0.43521121681E+03  0.50400001928E-02 0. -1.
    10030    2    1    2    0    0  0.00000000000E+00  0.00000000000E+00  0.11111016228E+04  0.19815240564E+04  0.16406982568E+04 0.  0.
        3    1    3    3  502    0  0.70435433291E+03 -0.28584917449E+02  0.10622812603E+04  0.12749014119E+04  0.10100000352E+00 0. -1.
       -3    1    3    3    0  502 -0.70435433291E+03  0.28584917449E+02  0.48820362501E+02  0.70662264455E+03  0.10100000352E+00 0.  1.
</event>
<event>
 5   0  0.3228393E-04  0.1583988E+04  0.7818609E-02  0.8830445E-01
        2   -1    0    0  501    0  0.00000000000E+00  0.00000000000E+00  0.27023136041E+04  0.27023136041E+04  0.25500000920E-02 0.  1.
       -2   -1    0    0    0  501  0.00000000000E+00  0.00000000000E+00 -0.23211771421E+03  0.23211771422E+03  0.25500000920E-02 0. -1.
    10030    2    1    2    0    0  0.00000000000E+00  0.00000000000E+00  0.24701958899E+04  0.29344313184E+04  0.15839884556E+04 0.  0.
        1    1    3    3  502    0  0.34808572789E+02 -0.14860586850E+03  0.26748106966E+04  0.26791617353E+04  0.50400001928E-02 0.  1.
       -1    1    3    3    0  502 -0.34808572789E+02  0.14860586850E+03 -0.20461480672E+03  0.25526958308E+03  0.50400001928E-02 0. -1.
</event>
<event>
 5   0  0.1736537E-04  0.1596145E+04  0.7818609E-02  0.8822920E-01
       -1   -1    0    0    0  501  0.00000000000E+00  0.00000000000E+00  0.13436925191E+04  0.13436925191E+04  0.50400001928E-02 0.  1.
        1   -1    0    0  501    0  0.00000000000E+00  0.00000000000E+00 -0.47400706310E+03  0.47400706313E+03  0.50400001928E-02 0. -1.
    10030    2    1    2    0    0  0.00000000000E+00  0.00000000000E+00  0.86968545597E+03  0.18176995822E+04  0.15961450369E+04 0.  0.
        3    1    3    3  502    0  0.47048667727E+03  0.15156892417E+03 -0.27869797821E+03  0.56745345670E+03  0.10100000352E+00 0. -1.
       -3    1    3    3    0  502 -0.47048667727E+03 -0.15156892417E+03  0.11483834342E+04  0.12502461255E+04  0.10100000352E+00 0.  1.
</event>
<event>
 5   0  0.3380454E-04  0.1601530E+04  0.7818609E-02  0.8819608E-01
        2   -1    0    0  501    0  0.00000000000E+00  0.00000000000E+00  0.13494687754E+04  0.13494687754E+04  0.25500000920E-02 0.  1.
       -2   -1    0    0    0  501  0.00000000000E+00  0.00000000000E+00 -0.47516844516E+03  0.47516844517E+03  0.25500000920E-02 0. -1.
    10030    2    1    2    0    0  0.00000000000E+00  0.00000000000E+00  0.87430033020E+03  0.18246372205E+04  0.16015304927E+04 0.  0.
        5    1    3    3  502    0 -0.37261382691E+03  0.83995603331E+02 -0.36467255803E+03  0.52811408802E+03  0.46999998093E+01 0. -1.
       -5    1    3    3    0  502  0.37261382691E+03 -0.83995603331E+02  0.12389728882E+04  0.12965231325E+04  0.46999998093E+01 0.  1.
</event>
<event>
 5   0  0.3274900E-04  0.1593227E+04  0.7818609E-02  0.8824720E-01
        2   -1    0    0  501    0  0.00000000000E+00  0.00000000000E+00  0.10481002155E+04  0.10481002155E+04  0.25500000920E-02 0.  1.
       -2   -1    0    0    0  501  0.00000000000E+00  0.00000000000E+00 -0.60546960269E+03  0.60546960270E+03  0.25500000920E-02 0. -1.
    10030    2    1    2    0    0  0.00000000000E+00  0.00000000000E+00  0.44263061285E+03  0.16535698182E+04  0.15932266896E+04 0.  0.
        3    1    3    3  502    0 -0.76383639828E+03  0.63679682937E+02 -0.39098976657E+01  0.76649621190E+03  0.10100000352E+00 0. -1.
       -3    1    3    3    0  502  0.76383639828E+03 -0.63679682937E+02  0.44654051051E+03  0.88707360635E+03  0.10100000352E+00 0.  1.
</event>
<event>
 5   0  0.3274900E-04  0.1598030E+04  0.7818609E-02  0.8821759E-01
       -2   -1    0    0    0  501  0.00000000000E+00  0.00000000000E+00  0.35810676836E+03  0.35810676837E+03  0.25500000920E-02 0.  1.
        2   -1    0    0  501    0  0.00000000000E+00  0.00000000000E+00 -0.17827792488E+04  0.17827792488E+04  0.25500000920E-02 0. -1.
    10030    2    1    2    0    0  0.00000000000E+00  0.00000000000E+00 -0.14246724805E+04  0.21408860172E+04  0.15980304322E+04 0.  0.
        3    1    3    3  502    0  0.16047672775E+03  0.67333013526E+02  0.33240768146E+03  0.37520846439E+03  0.10100000352E+00 0.  1.
       -3    1    3    3    0  502 -0.16047672775E+03 -0.67333013526E+02 -0.17570801619E+04  0.17656775528E+04  0.10100000352E+00 0. -1.
</event>
<event>
 5   0  0.1819811E-04  0.1586482E+04  0.7818609E-02  0.8828896E-01
        1   -1    0    0  501    0  0.00000000000E+00  0.00000000000E+00  0.19034623790E+04  0.19034623790E+04  0.50400001928E-02 0. -1.
       -1   -1    0    0    0  501  0.00000000000E+00  0.00000000000E+00 -0.33057183661E+03  0.33057183665E+03  0.50400001928E-02 0.  1.
    10030    2    1    2    0    0  0.00000000000E+00  0.00000000000E+00  0.15728905424E+04  0.22340342156E+04  0.15864817107E+04 0.  0.
        1    1    3    3  502    0 -0.36596179986E+03 -0.47504340422E+03  0.55231576886E+02  0.60219996842E+03  0.50400001928E-02 0.  1.
       -1    1    3    3    0  502  0.36596179986E+03  0.47504340422E+03  0.15176589655E+04  0.16318342472E+04  0.50400001928E-02 0. -1.
</event>
<event>
 5   0  0.1787688E-04  0.1595090E+04  0.7818609E-02  0.8823570E-01
        1   -1    0    0  501    0  0.00000000000E+00  0.00000000000E+00  0.74661475029E+03  0.74661475031E+03  0.50400001928E-02 0.  1.
       -1   -1    0    0    0  501  0.00000000000E+00  0.00000000000E+00 -0.85194964986E+03  0.85194964987E+03  0.50400001928E-02 0. -1.
    10030    2    1    2    0    0  0.00000000000E+00  0.00000000000E+00 -0.10533489957E+03  0.15985644002E+04  0.15950901857E+04 0.  0.
        4    1    3    3  502    0 -0.62792799422E+03  0.49171366027E+03 -0.51845545877E+02  0.79922804202E+03  0.12699999809E+01 0. -1.
       -4    1    3    3    0  502  0.62792799422E+03 -0.49171366027E+03 -0.53489353691E+02  0.79933635816E+03  0.12699999809E+01 0.  1.
</event>
<event>
 5   0  0.1819811E-04  0.1600172E+04  0.7818609E-02  0.8820442E-01
       -1   -1    0    0    0  501  0.00000000000E+00  0.00000000000E+00  0.64889479771E+03  0.64889479773E+03  0.50400001928E-02 0. -1.
        1   -1    0    0  501    0  0.00000000000E+00  0.00000000000E+00 -0.98650458366E+03  0.98650458367E+03  0.50400001928E-02 0.  1.
    10030    2    1    2    0    0  0.00000000000E+00  0.00000000000E+00 -0.33760978595E+03  0.16353993814E+04  0.16001721061E+04 0.  0.
        1    1    3    3  502    0  0.77604710246E+03  0.19299092955E+03 -0.14288743651E+03  0.81234932367E+03  0.50400001928E-02 0.  1.
       -1    1    3    3    0  502 -0.77604710246E+03 -0.19299092955E+03 -0.19472234944E+03  0.82305005773E+03  0.50400001928E-02 0. -1.
</event>
<event>
 5   0  0.1219463E-04  0.1599836E+04  0.7818609E-02  0.8820649E-01
        3   -1    0    0  501    0  0.00000000000E+00  0.00000000000E+00  0.91743594533E+03  0.91743595089E+03  0.10100000352E+00 0. -1.
       -3   -1    0    0    0  501  0.00000000000E+00  0.00000000000E+00 -0.69745369679E+03  0.69745370410E+03  0.10100000352E+00 0.  1.
    10030    2    1    2    0    0  0.00000000000E+00  0.00000000000E+00  0.21998224854E+03  0.16148896550E+04  0.15998363692E+04 0.  0.
        4    1    3    3  502    0  0.40438777165E+03  0.49973032714E+02  0.80482898522E+03  0.90209649273E+03  0.12699999809E+01 0. -1.
       -4    1    3    3    0  502 -0.40438777165E+03 -0.49973032714E+02 -0.58484673667E+03  0.71279316225E+03  0.12699999809E+01 0.  1.
</event>
<event>
 5   0  0.1736537E-04  0.1595055E+04  0.7818609E-02  0.8823592E-01
        1   -1    0    0  501    0  0.00000000000E+00  0.00000000000E+00  0.76909719652E+03  0.76909719653E+03  0.50400001928E-02 0. -1.
       -1   -1    0    0    0  501  0.00000000000E+00  0.00000000000E+00 -0.82700842125E+03  0.82700842127E+03  0.50400001928E-02 0.  1.
    10030    2    1    2    0    0  0.00000000000E+00  0.00000000000E+00 -0.57911224736E+02  0.15961056178E+04  0.15950546803E+04 0.  0.
        3    1    3    3  502    0  0.63205519438E+03 -0.28126766640E+02 -0.51483187723E+03  0.81568177358E+03  0.10100000352E+00 0.  1.
       -3    1    3    3    0  502 -0.63205519438E+03  0.28126766640E+02  0.45692065250E+03  0.78042384422E+03  0.10100000352E+00 0. -1.
</event>
<event>
 5   0  0.1787688E-04  0.1533408E+04  0.7818609E-02  0.8862536E-01
       -1   -1    0    0    0  501  0.00000000000E+00  0.00000000000E+00  0.50939483988E+03  0.50939483991E+03  0.50400001928E-02 0.  1.
        1   -1    0    0  501    0  0.00000000000E+00  0.00000000000E+00 -0.11539874227E+04  0.11539874227E+04  0.50400001928E-02 0. -1.
    10030    2    1    2    0    0  0.00000000000E+00  0.00000000000E+00 -0.64459258282E+03  0.16633822626E+04  0.15334082802E+04 0.  0.
        4    1    3    3  502    0 -0.59479434224E+03  0.37482731271E+03  0.95020924169E+01  0.70311288324E+03  0.12699999809E+01 0. -1.
       -4    1    3    3    0  502  0.59479434224E+03 -0.37482731271E+03 -0.65409467524E+03  0.96026937938E+03  0.12699999809E+01 0.  1.
</event>
<event>
 5   0  0.1761255E-04  0.1606813E+04  0.7818609E-02  0.8816373E-01
       -1   -1    0    0    0  501  0.00000000000E+00  0.00000000000E+00  0.70714307939E+03  0.70714307940E+03  0.50400001928E-02 0. -1.
        1   -1    0    0  501    0  0.00000000000E+00  0.00000000000E+00 -0.91277421299E+03  0.91277421300E+03  0.50400001928E-02 0.  1.
    10030    2    1    2    0    0  0.00000000000E+00  0.00000000000E+00 -0.20563113360E+03  0.16199172924E+04  0.16068129546E+04 0.  0.
        2    1    3    3  502    0 -0.29185035007E+02  0.79580731535E+03  0.43571858604E+01  0.79635421422E+03  0.25500000920E-02 0. -1.
       -2    1    3    3    0  502  0.29185035007E+02 -0.79580731535E+03 -0.20998831946E+03  0.82356307819E+03  0.25500000920E-02 0.  1.
</event>
<event>
 5   0  0.3210612E-04  0.1536967E+04  0.7818609E-02  0.8860236E-01
       -2   -1    0    0    0  501  0.00000000000E+00  0.00000000000E+00  0.97943986988E+03  0.97943986988E+03  0.25500000920E-02 0. -1.
        2   -1    0    0  501    0  0.00000000000E+00  0.00000000000E+00 -0.60296415237E+03  0.60296415238E+03  0.25500000920E-02 0.  1.
    10030    2    1    2    0    0  0.00000000000E+00  0.00000000000E+00  0.37647571751E+03  0.15824040223E+04  0.15369673138E+04 0.  0.
        2    1    3    3  502    0 -0.31363933451E+02 -0.30138052973E+03 -0.53886457597E+03  0.61821432469E+03  0.25500000920E-02 0.  1.
       -2    1    3    3    0  502  0.31363933451E+02  0.30138052973E+03  0.91534029347E+03  0.96418969756E+03  0.25500000920E-02 0. -1.
</event>
<event>
 5   0  0.1764099E-04  0.1574456E+04  0.7818609E-02  0.8836396E-01
        1   -1    0    0  501    0  0.00000000000E+00  0.00000000000E+00  0.11541254002E+04  0.11541254002E+04  0.50400001928E-02 0. -1.
       -1   -1    0    0    0  501  0.00000000000E+00  0.00000000000E+00 -0.53696738429E+03  0.53696738432E+03  0.50400001928E-02 0.  1.
    10030    2    1    2    0    0  0.00000000000E+00  0.00000000000E+00  0.61715801586E+03  0.16910927845E+04  0.15744557120E+04 0.  0.
        5    1    3    3  502    0 -0.18484614866E+03 -0.12470565180E+03  0.11194823408E+04  0.11414825446E+04  0.46999998093E+01 0. -1.
       -5    1    3    3    0  502  0.18484614866E+03  0.12470565180E+03 -0.50232432498E+03  0.54961023984E+03  0.46999998093E+01 0.  1.
</event>
<event>
 5   0  0.1736537E-04  0.1603418E+04  0.7818609E-02  0.8818451E-01
       -1   -1    0    0    0  501  0.00000000000E+00  0.00000000000E+00  0.37630517289E+03  0.37630517293E+03  0.50400001928E-02 0.  1.
        1   -1    0    0  501    0  0.00000000000E+00  0.00000000000E+00 -0.17080213082E+04  0.17080213082E+04  0.50400001928E-02 0. -1.
    10030    2    1    2    0    0  0.00000000000E+00  0.00000000000E+00 -0.13317161353E+04  0.20843264811E+04  0.16034179165E+04 0.  0.
        3    1    3    3  502    0  0.74344207989E+03  0.20772396303E+02 -0.27674832047E+03  0.79355356573E+03  0.10100000352E+00 0.  1.
       -3    1    3    3    0  502 -0.74344207989E+03 -0.20772396303E+02 -0.10549678148E+04  0.12907729154E+04  0.10100000352E+00 0. -1.
</event>
<event>
 5   0  0.3210612E-04  0.1603068E+04  0.7818609E-02  0.8818665E-01
       -2   -1    0    0    0  501  0.00000000000E+00  0.00000000000E+00  0.29892268054E+03  0.29892268055E+03  0.25500000920E-02 0.  1.
        2   -1    0    0  501    0  0.00000000000E+00  0.00000000000E+00 -0.21492407585E+04  0.21492407585E+04  0.25500000920E-02 0. -1.
    10030    2    1    2    0    0  0.00000000000E+00  0.00000000000E+00 -0.18503180780E+04  0.24481634391E+04  0.16030680693E+04 0.  0.
        2    1    3    3  502    0  0.44044151437E+03  0.30938244525E+03 -0.18127654092E+02  0.53854882496E+03  0.25500000920E-02 0.  1.
       -2    1    3    3    0  502 -0.44044151437E+03 -0.30938244525E+03 -0.18321904239E+04  0.19096146141E+04  0.25500000920E-02 0. -1.
</event>
<event>
 5   0  0.1761255E-04  0.1601082E+04  0.7818609E-02  0.8819884E-01
        1   -1    0    0  501    0  0.00000000000E+00  0.00000000000E+00  0.94259550249E+03  0.94259550251E+03  0.50400001928E-02 0. -1.
       -1   -1    0    0    0  501  0.00000000000E+00  0.00000000000E+00 -0.67989480102E+03  0.67989480103E+03  0.50400001928E-02 0.  1.
    10030    2    1    2    0    0  0.00000000000E+00  0.00000000000E+00  0.26270070148E+03  0.16224903035E+04  0.16010818613E+04 0.  0.
        2    1    3    3  502    0 -0.92436558142E+02  0.50011114153E+03 -0.49514760489E+03  0.70980759491E+03  0.25500000920E-02 0.  1.
       -2    1    3    3    0  502  0.92436558142E+02 -0.50011114153E+03  0.75784830637E+03  0.91268270863E+03  0.25500000920E-02 0. -1.
</event>
<event>
 5   0  0.1764099E-04  0.1651384E+04  0.7818609E-02  0.8789588E-01
        1   -1    0    0  501    0  0.00000000000E+00  0.00000000000E+00  0.59064900665E+03  0.59064900667E+03  0.50400001928E-02 0. -1.
       -1   -1    0    0    0  501  0.00000000000E+00  0.00000000000E+00 -0.11542674097E+04  0.11542674097E+04  0.50400001928E-02 0.  1.
    10030    2    1    2    0    0  0.00000000000E+00  0.00000000000E+00 -0.56361840301E+03  0.17449164163E+04  0.16513835399E+04 0.  0.
        5    1    3    3  502    0 -0.67940800984E+03  0.33631250165E+03 -0.62751507580E+03  0.98412326614E+03  0.46999998093E+01 0.  1.
       -5    1    3    3    0  502  0.67940800984E+03 -0.33631250165E+03  0.63896672793E+02  0.76079315020E+03  0.46999998093E+01 0. -1.
</event>
<event>
 5   0  0.3228393E-04  0.1601866E+04  0.7818609E-02  0.8819403E-01
       -2   -1    0    0    0  501  0.00000000000E+00  0.00000000000E+00  0.37705518516E+03  0.37705518517E+03  0.25500000920E-02 0. -1.
        2   -1    0    0  501    0  0.00000000000E+00  0.00000000000E+00 -0.17013254282E+04  0.17013254282E+04  0.25500000920E-02 0.  1.
    10030    2    1    2    0    0  0.00000000000E+00  0.00000000000E+00 -0.13242702430E+04  0.20783806133E+04  0.16018658800E+04 0.  0.
        1    1    3    3  502    0 -0.72189073121E+02 -0.67450482775E+03 -0.10964001880E+03  0.68716006773E+03  0.50400001928E-02 0. -1.
       -1    1    3    3    0  502  0.72189073121E+02  0.67450482775E+03 -0.12146302242E+04  0.13912205456E+04  0.50400001928E-02 0.  1.
</event>
<event>
 5   0  0.3210612E-04  0.1604588E+04  0.7818609E-02  0.8817735E-01
        2   -1    0    0  501    0  0.00000000000E+00  0.00000000000E+00  0.17419224150E+04  0.17419224150E+04  0.25500000920E-02 0.  1.
       -2   -1    0    0    0  501  0.00000000000E+00  0.00000000000E+00 -0.36952009952E+03  0.36952009953E+03  0.25500000920E-02 0. -1.
    10030    2    1    2    0    0  0.00000000000E+00  0.00000000000E+00  0.13724023155E+04  0.21114425145E+04  0.16045876033E+04 0.  0.
        2    1    3    3  502    0  0.13684451549E+03  0.44273774012E+03  0.15480084460E+04  0.16158815788E+04  0.25500000920E-02 0.  1.
       -2    1    3    3    0  502 -0.13684451549E+03 -0.44273774012E+03 -0.17560613048E+03  0.49556093572E+03  0.25500000920E-02 0. -1.
</event>
<event>
 5   0  0.3263294E-04  0.1567864E+04  0.7818609E-02  0.8840537E-01
       -2   -1    0    0    0  501  0.00000000000E+00  0.00000000000E+00  0.34482361791E+03  0.34482361792E+03  0.25500000920E-02 0. -1.
        2   -1    0    0  501    0  0.00000000000E+00  0.00000000000E+00 -0.17822144284E+04  0.17822144284E+04  0.25500000920E-02 0.  1.
    10030    2    1    2    0    0  0.00000000000E+00  0.00000000000E+00 -0.14373908105E+04  0.21270380463E+04  0.15678643144E+04 0.  0.
        4    1    3    3  502    0  0.15232417940E+03 -0.35577849638E+03  0.20618256323E+03  0.43851323400E+03  0.12699999809E+01 0. -1.
       -4    1    3    3    0  502 -0.15232417940E+03  0.35577849638E+03 -0.16435733737E+04  0.16885248123E+04  0.12699999809E+01 0.  1.
</event>
<event>
 5   0  0.3380454E-04  0.1591998E+04  0.7818609E-02  0.8825479E-01
        2   -1    0    0  501    0  0.00000000000E+00  0.00000000000E+00  0.77432692219E+03  0.77432692220E+03  0.25500000920E-02 0.  1.
       -2   -1    0    0    0  501  0.00000000000E+00  0.00000000000E+00 -0.81827790813E+03  0.81827790814E+03  0.25500000920E-02 0. -1.
    10030    2    1    2    0    0  0.00000000000E+00  0.00000000000E+00 -0.43950985941E+02  0.15926048303E+04  0.15919982589E+04 0.  0.
        5    1    3    3  502    0 -0.57867315066E+03  0.37867889272E+03  0.37229674119E+03  0.78542171640E+03  0.46999998093E+01 0.  1.
       -5    1    3    3    0  502  0.57867315066E+03 -0.37867889272E+03 -0.41624772713E+03  0.80718311394E+03  0.46999998093E+01 0. -1.
</event>
<event>
 5   0  0.3263294E-04  0.1610929E+04  0.7818609E-02  0.8813862E-01
        2   -1    0    0  501    0  0.00000000000E+00  0.00000000000E+00  0.12081317435E+04  0.12081317435E+04  0.25500000920E-02 0.  1.
       -2   -1    0    0    0  501  0.00000000000E+00  0.00000000000E+00 -0.53700494945E+03  0.53700494946E+03  0.25500000920E-02 0. -1.
    10030    2    1    2    0    0  0.00000000000E+00  0.00000000000E+00  0.67112679404E+03  0.17451366930E+04  0.16109285842E+04 0.  0.
        4    1    3    3  502    0  0.16007063114E+03  0.65078701149E+02  0.11878154559E+04  0.12003187137E+04  0.12699999809E+01 0.  1.
       -4    1    3    3    0  502 -0.16007063114E+03 -0.65078701149E+02 -0.51668866187E+03  0.54481797924E+03  0.12699999809E+01 0. -1.
</event>
<event>
 5   0  0.3228393E-04  0.1601081E+04  0.7818609E-02  0.8819884E-01
        2   -1    0    0  501    0  0.00000000000E+00  0.00000000000E+00  0.98938297134E+03  0.98938297135E+03  0.25500000920E-02 0.  1.
       -2   -1    0    0    0  501  0.00000000000E+00  0.00000000000E+00 -0.64774233995E+03  0.64774233996E+03  0.25500000920E-02 0. -1.
    10030    2    1    2    0    0  0.00000000000E+00  0.00000000000E+00  0.34164063139E+03  0.16371253113E+04  0.16010811859E+04 0.  0.
        1    1    3    3  502    0  0.23583938463E+03  0.72299982187E+03 -0.84841073108E+02  0.76521040602E+03  0.50400001928E-02 0. -1.
       -1    1    3    3    0  502 -0.23583938463E+03 -0.72299982187E+03  0.42648170450E+03  0.87191490529E+03  0.50400001928E-02 0.  1.
</event>
<event>
 5   0  0.1761255E-04  0.1599602E+04  0.7818609E-02  0.8820792E-01
        1   -1    0    0  501    0  0.00000000000E+00  0.00000000000E+00  0.21551384385E+04  0.21551384385E+04  0.50400001928E-02 0. -1.
       -1   -1    0    0    0  501  0.00000000000E+00  0.00000000000E+00 -0.29681708399E+03  0.29681708404E+03  0.50400001928E-02 0.  1.
    10030    2    1    2    0    0  0.00000000000E+00  0.00000000000E+00  0.18583213545E+04  0.24519555226E+04  0.15996023343E+04 0.  0.
        2    1    3    3  502    0  0.18341162575E+03  0.72060301725E+03  0.47762320122E+03  0.88376040604E+03  0.25500000920E-02 0.  1.
       -2    1    3    3    0  502 -0.18341162575E+03 -0.72060301725E+03  0.13806981533E+04  0.15681951165E+04  0.25500000920E-02 0. -1.
</event>
<event>
 5   0  0.3210612E-04  0.1729967E+04  0.7818609E-02  0.8744455E-01
        2   -1    0    0  501    0  0.00000000000E+00  0.00000000000E+00  0.10060418165E+04  0.10060418165E+04  0.25500000920E-02 0.  1.
       -2   -1    0    0    0  501  0.00000000000E+00  0.00000000000E+00 -0.74370313115E+03  0.74370313116E+03  0.25500000920E-02 0. -1.
    10030    2    1    2    0    0  0.00000000000E+00  0.00000000000E+00  0.26233868532E+03  0.17497449476E+04  0.17299669927E+04 0.  0.
        2    1    3    3  502    0 -0.16389977536E+03  0.11661247421E+03 -0.71971830670E+03  0.74729916801E+03  0.25500000920E-02 0. -1.
       -2    1    3    3    0  502  0.16389977536E+03 -0.11661247421E+03  0.98205699202E+03  0.10024457796E+04  0.25500000920E-02 0.  1.
</event>
<event>
 5   0  0.3274900E-04  0.1596565E+04  0.7818609E-02  0.8822661E-01
        2   -1    0    0  501    0  0.00000000000E+00  0.00000000000E+00  0.10832296235E+04  0.10832296235E+04  0.25500000920E-02 0.  1.
       -2   -1    0    0    0  501  0.00000000000E+00  0.00000000000E+00 -0.58829200893E+03  0.58829200893E+03  0.25500000920E-02 0. -1.
    10030    2    1    2    0    0  0.00000000000E+00  0.00000000000E+00  0.49493761458E+03  0.16715216324E+04  0.15965654780E+04 0.  0.
        3    1    3    3  502    0  0.55990278951E+03 -0.42582769225E+03  0.64259295502E+03  0.95275709036E+03  0.10100000352E+00 0.  1.
       -3    1    3    3    0  502 -0.55990278951E+03  0.42582769225E+03 -0.14765534044E+03  0.71876454208E+03  0.10100000352E+00 0. -1.
</event>
<event>
 5   0  0.3380454E-04  0.1575042E+04  0.7818609E-02  0.8836029E-01
        2   -1    0    0  501    0  0.00000000000E+00  0.00000000000E+00  0.52357954063E+03  0.52357954064E+03  0.25500000920E-02 0.  1.
       -2   -1    0    0    0  501  0.00000000000E+00  0.00000000000E+00 -0.11845174800E+04  0.11845174800E+04  0.25500000920E-02 0. -1.
    10030    2    1    2    0    0  0.00000000000E+00  0.00000000000E+00 -0.66093793936E+03  0.17080970206E+04  0.15750417367E+04 0.  0.
        5    1    3    3  502    0  0.61983898963E+02  0.75323433359E+03 -0.57043775760E+03  0.94690299943E+03  0.46999998093E+01 0.  1.
       -5    1    3    3    0  502 -0.61983898963E+02 -0.75323433359E+03 -0.90500181761E+02  0.76119402121E+03  0.46999998093E+01 0. -1.
</event>
<event>
 5   0  0.3228393E-04  0.1594666E+04  0.7818609E-02  0.8823832E-01
       -2   -1    0    0    0  501  0.00000000000E+00  0.00000000000E+00  0.37921031523E+03  0.37921031523E+03  0.25500000920E-02 0.  1.
        2   -1    0    0  501    0  0.00000000000E+00  0.00000000000E+00 -0.16764827277E+04  0.16764827277E+04  0.25500000920E-02 0. -1.
    10030    2    1    2    0    0  0.00000000000E+00  0.00000000000E+00 -0.12972724125E+04  0.20556930429E+04  0.15946655369E+04 0.  0.
        1    1    3    3  502    0  0.72566608783E+03  0.23994815090E+03 -0.35588376984E+03  0.84310120614E+03  0.50400001928E-02 0.  1.
       -1    1    3    3    0  502 -0.72566608783E+03 -0.23994815090E+03 -0.94138864262E+03  0.12125918368E+04  0.50400001928E-02 0. -1.
</event>
<event>
 5   0  0.1819811E-04  0.1603307E+04  0.7818609E-02  0.8818519E-01
       -1   -1    0    0    0  501  0.00000000000E+00  0.00000000000E+00  0.46859921195E+03  0.46859921198E+03  0.50400001928E-02 0. -1.
        1   -1    0    0  501    0  0.00000000000E+00  0.00000000000E+00 -0.13714247499E+04  0.13714247499E+04  0.50400001928E-02 0.  1.
    10030    2    1    2    0    0  0.00000000000E+00  0.00000000000E+00 -0.90282553792E+03  0.18400239619E+04  0.16033072782E+04 0.  0.
        1    1    3    3  502    0  0.12516651212E+03  0.17289899458E+03 -0.13382130612E+04  0.13551291139E+04  0.50400001928E-02 0.  1.
       -1    1    3    3    0  502 -0.12516651212E+03 -0.17289899458E+03  0.43538752332E+03  0.48489484795E+03  0.50400001928E-02 0. -1.
</event>
<event>
 5   0  0.3210612E-04  0.1602658E+04  0.7818609E-02  0.8818917E-01
        2   -1    0    0  501    0  0.00000000000E+00  0.00000000000E+00  0.20646347996E+04  0.20646347996E+04  0.25500000920E-02 0.  1.
       -2   -1    0    0    0  501  0.00000000000E+00  0.00000000000E+00 -0.31101303994E+03  0.31101303995E+03  0.25500000920E-02 0. -1.
    10030    2    1    2    0    0  0.00000000000E+00  0.00000000000E+00  0.17536217596E+04  0.23756478395E+04  0.16026582236E+04 0.  0.
        2    1    3    3  502    0 -0.62575476244E+03  0.41068036575E+03  0.13010255095E+04  0.15009646105E+04  0.25500000920E-02 0.  1.
       -2    1    3    3    0  502  0.62575476244E+03 -0.41068036575E+03  0.45259625013E+03  0.87468322904E+03  0.25500000920E-02 0. -1.
</event>
<event>
 5   0  0.1764099E-04  0.1597432E+04  0.7818609E-02  0.8822127E-01
       -1   -1    0    0    0  501  0.00000000000E+00  0.00000000000E+00  0.39406448289E+03  0.39406448292E+03  0.50400001928E-02 0.  1.
        1   -1    0    0  501    0  0.00000000000E+00  0.00000000000E+00 -0.16188913224E+04  0.16188913224E+04  0.50400001928E-02 0. -1.
    10030    2    1    2    0    0  0.00000000000E+00  0.00000000000E+00 -0.12248268396E+04  0.20129558054E+04  0.15974324047E+04 0.  0.
        5    1    3    3  502    0  0.19012584379E+02  0.17533548464E+03  0.36920391584E+03  0.40919143687E+03  0.46999998093E+01 0.  1.
       -5    1    3    3    0  502 -0.19012584379E+02 -0.17533548464E+03 -0.15940307554E+04  0.16037643685E+04  0.46999998093E+01 0. -1.
</event>
<event>
 5   0  0.3380454E-04  0.1613220E+04  0.7818609E-02  0.8812467E-01
        2   -1    0    0  501    0  0.00000000000E+00  0.00000000000E+00  0.98776556679E+03  0.98776556679E+03  0.25500000920E-02 0. -1.
       -2   -1    0    0    0  501  0.00000000000E+00  0.00000000000E+00 -0.65867846918E+03  0.65867846919E+03  0.25500000920E-02 0.  1.
    10030    2    1    2    0    0  0.00000000000E+00  0.00000000000E+00  0.32908709761E+03  0.16464440360E+04  0.16132202719E+04 0.  0.
        5    1    3    3  502    0 -0.70871196717E+03 -0.37956385890E+03  0.23112862020E+03  0.83653087478E+03  0.46999998093E+01 0. -1.
       -5    1    3    3    0  502  0.70871196717E+03  0.37956385890E+03  0.97958477409E+02  0.80991316120E+03  0.46999998093E+01 0.  1.
</event>
<event>
 5   0  0.1787688E-04  0.1603631E+04  0.7818609E-02  0.8818320E-01
       -1   -1    0    0    0  501  0.00000000000E+00  0.00000000000E+00  0.62057148386E+03  0.62057148388E+03  0.50400001928E-02 0.  1.
        1   -1    0    0  501    0  0.00000000000E+00  0.00000000000E+00 -0.10359938630E+04  0.10359938630E+04  0.50400001928E-02 0. -1.
    10030    2    1    2    0    0  0.00000000000E+00  0.00000000000E+00 -0.41542237913E+03  0.16565653469E+04  0.16036311906E+04 0.  0.
        4    1    3    3  502    0  0.48462649726E+02  0.23460844104E+03  0.58273769353E+03  0.63005918879E+03  0.12699999809E+01 0.  1.
       -4    1    3    3    0  502 -0.48462649726E+02 -0.23460844104E+03 -0.99816007265E+03  0.10265061581E+04  0.12699999809E+01 0. -1.
</event>
<event>
 5   0  0.3263294E-04  0.1587646E+04  0.7818609E-02  0.8828174E-01
        2   -1    0    0  501    0  0.00000000000E+00  0.00000000000E+00  0.97394908055E+03  0.97394908056E+03  0.25500000920E-02 0. -1.
       -2   -1    0    0    0  501  0.00000000000E+00  0.00000000000E+00 -0.64701021203E+03  0.64701021204E+03  0.25500000920E-02 0.  1.
    10030    2    1    2    0    0  0.00000000000E+00  0.00000000000E+00  0.32693886852E+03  0.16209592926E+04  0.15876460577E+04 0.  0.
        4    1    3    3  502    0  0.65397455307E+03  0.42314152545E+03  0.31972290785E+03  0.84199514091E+03  0.12699999809E+01 0.  1.
       -4    1    3    3    0  502 -0.65397455307E+03 -0.42314152545E+03  0.72159606677E+01  0.77896415168E+03  0.12699999809E+01 0. -1.
</event>
<event>
 5   0  0.1819811E-04  0.1591958E+04  0.7818609E-02  0.8825504E-01
       -1   -1    0    0    0  501  0.00000000000E+00  0.00000000000E+00  0.28724107581E+03  0.28724107586E+03  0.50400001928E-02 0.  1.
        1   -1    0    0  501    0  0.00000000000E+00  0.00000000000E+00 -0.22057521173E+04  0.22057521173E+04  0.50400001928E-02 0. -1.
    10030    2    1    2    0    0  0.00000000000E+00  0.00000000000E+00 -0.19185110415E+04  0.24929931931E+04  0.15919580537E+04 0.  0.
        1    1    3    3  502    0 -0.74690393477E+03  0.22413335043E+03 -0.12092329593E+04  0.14388695550E+04  0.50400001928E-02 0. -1.
       -1    1    3    3    0  502  0.74690393477E+03 -0.22413335043E+03 -0.70927808217E+03  0.10541236381E+04  0.50400001928E-02 0.  1.
</event>
<event>
 5   0  0.3228393E-04  0.1601268E+04  0.7818609E-02  0.8819770E-01
       -2   -1    0    0    0  501  0.00000000000E+00  0.00000000000E+00  0.47091630594E+03  0.47091630595E+03  0.25500000920E-02 0.  1.
        2   -1    0    0  501    0  0.00000000000E+00  0.00000000000E+00 -0.13612069837E+04  0.13612069837E+04  0.25500000920E-02 0. -1.
    10030    2    1    2    0    0  0.00000000000E+00  0.00000000000E+00 -0.89029067771E+03  0.18321232896E+04  0.16012677033E+04 0.  0.
        1    1    3    3  502    0 -0.57597424646E+03 -0.47095163079E+03 -0.10674775885E+03  0.75162281443E+03  0.50400001928E-02 0. -1.
       -1    1    3    3    0  502  0.57597424646E+03  0.47095163079E+03 -0.78354291886E+03  0.10805004752E+04  0.50400001928E-02 0.  1.
</event>
<event>
 5   0  0.1787688E-04  0.1597190E+04  0.7818609E-02  0.8822276E-01
       -1   -1    0    0    0  501  0.00000000000E+00  0.00000000000E+00  0.12430428995E+04  0.12430428995E+04  0.50400001928E-02 0. -1.
        1   -1    0    0  501    0  0.00000000000E+00  0.00000000000E+00 -0.51305866866E+03  0.51305866869E+03  0.50400001928E-02 0.  1.
    10030    2    1    2    0    0  0.00000000000E+00  0.00000000000E+00  0.72998423080E+03  0.17561015682E+04  0.15971899513E+04 0.  0.
        4    1    3    3  502    0  0.69542658366E+02  0.66996101925E+03  0.83671033313E+03  0.10741367432E+04  0.12699999809E+01 0. -1.
       -4    1    3    3    0  502 -0.69542658366E+02 -0.66996101925E+03 -0.10672610234E+03  0.68196482495E+03  0.12699999809E+01 0.  1.
</event>
<event>
 5   0  0.3274900E-04  0.1596946E+04  0.7818609E-02  0.8822426E-01
        2   -1    0    0  501    0  0.00000000000E+00  0.00000000000E+00  0.17141479767E+04  0.17141479767E+04  0.25500000920E-02 0.  1.
       -2   -1    0    0    0  501  0.00000000000E+00  0.00000000000E+00 -0.37193940461E+03  0.37193940462E+03  0.25500000920E-02 0. -1.
    10030    2    1    2    0    0  0.00000000000E+00  0.00000000000E+00  0.13422085721E+04  0.20860873813E+04  0.15969460578E+04 0.  0.
        3    1    3    3  502    0 -0.58366172102E+03 -0.40313363064E+03  0.11499679598E+04  0.13511491581E+04  0.10100000352E+00 0.  1.
       -3    1    3    3    0  502  0.58366172102E+03  0.40313363064E+03  0.19224061233E+03  0.73493822323E+03  0.10100000352E+00 0. -1.
</event>
<event>
 5   0  0.1736537E-04  0.1601665E+04  0.7818609E-02  0.8819526E-01
        1   -1    0    0  501    0  0.00000000000E+00  0.00000000000E+00  0.10922503824E+04  0.10922503824E+04  0.50400001928E-02 0. -1.
       -1   -1    0    0    0  501  0.00000000000E+00  0.00000000000E+00 -0.58716634902E+03  0.58716634904E+03  0.50400001928E-02 0.  1.
    10030    2    1    2    0    0  0.00000000000E+00  0.00000000000E+00  0.50508403334E+03  0.16794167314E+04  0.16016649703E+04 0.  0.
        3    1    3    3  502    0 -0.10636196284E+03 -0.23698725909E+03  0.10468493573E+04  0.10785960389E+04  0.10100000352E+00 0. -1.
       -3    1    3    3    0  502  0.10636196284E+03  0.23698725909E+03 -0.54176532394E+03  0.60082069250E+03  0.10100000352E+00 0.  1.
</event>
<event>
 5   0  0.3228393E-04  0.1609745E+04  0.7818609E-02  0.8814584E-01
        2   -1    0    0  501    0  0.00000000000E+00  0.00000000000E+00  0.98670695466E+03  0.98670695467E+03  0.25500000920E-02 0. -1.
       -2   -1    0    0    0  501  0.00000000000E+00  0.00000000000E+00 -0.65654706046E+03  0.65654706046E+03  0.25500000920E-02 0.  1.
    10030    2    1    2    0    0  0.00000000000E+00  0.00000000000E+00  0.33015989421E+03  0.16432540151E+04  0.16097447632E+04 0.  0.
        1    1    3    3  502    0 -0.37064156716E+03  0.19790895725E+03  0.86586614274E+03  0.96242781747E+03  0.50400001928E-02 0. -1.
       -1    1    3    3    0  502  0.37064156716E+03 -0.19790895725E+03 -0.53570624854E+03  0.68082619766E+03  0.50400001928E-02 0.  1.
</event>
<event>
 5   0  0.1787688E-04  0.1590064E+04  0.7818609E-02  0.8826675E-01
       -1   -1    0    0    0  501  0.00000000000E+00  0.00000000000E+00  0.58771912327E+03  0.58771912329E+03  0.50400001928E-02 0. -1.
        1   -1    0    0  501    0  0.00000000000E+00  0.00000000000E+00 -0.10754727340E+04  0.10754727340E+04  0.50400001928E-02 0.  1.
    10030    2    1    2    0    0  0.00000000000E+00  0.00000000000E+00 -0.48775361068E+03  0.16631918573E+04  0.15900640142E+04 0.  0.
        4    1    3    3  502    0  0.65588403413E+03 -0.27011308695E+03  0.13170419119E+03  0.72145169821E+03  0.12699999809E+01 0. -1.
       -4    1    3    3    0  502 -0.65588403413E+03  0.27011308695E+03 -0.61945780187E+03  0.94174015905E+03  0.12699999809E+01 0.  1.
</event>
<event>
 5   0  0.3274900E-04  0.1598593E+04  0.7818609E-02  0.8821413E-01
        2   -1    0    0  501    0  0.00000000000E+00  0.00000000000E+00  0.16167763602E+04  0.16167763602E+04  0.25500000920E-02 0.  1.
       -2   -1    0    0    0  501  0.00000000000E+00  0.00000000000E+00 -0.39515343471E+03  0.39515343472E+03  0.25500000920E-02 0. -1.
    10030    2    1    2    0    0  0.00000000000E+00  0.00000000000E+00  0.12216229255E+04  0.20119297949E+04  0.15985927960E+04 0.  0.
        3    1    3    3  502    0  0.44762387380E+02 -0.56566608294E+03 -0.97674496352E+02  0.57577956386E+03  0.10100000352E+00 0. -1.
       -3    1    3    3    0  502 -0.44762387380E+02  0.56566608294E+03  0.13192974218E+04  0.14361502310E+04  0.10100000352E+00 0.  1.
</event>
<event>
 5   0  0.1787688E-04  0.1604905E+04  0.7818609E-02  0.8817540E-01
        1   -1    0    0  501    0  0.00000000000E+00  0.00000000000E+00  0.12400476455E+04  0.12400476455E+04  0.50400001928E-02 0.  1.
       -1   -1    0    0    0  501  0.00000000000E+00  0.00000000000E+00 -0.51927828762E+03  0.51927828765E+03  0.50400001928E-02 0. -1.
    10030    2    1    2    0    0  0.00000000000E+00  0.00000000000E+00  0.72076935792E+03  0.17593259332E+04  0.16049047548E+04 0.  0.
        4    1    3    3  502    0 -0.43482950616E+03  0.54599866744E+03 -0.73608347688E+02  0.70186255494E+03  0.12699999809E+01 0. -1.
       -4    1    3    3    0  502  0.43482950616E+03 -0.54599866744E+03  0.79437770561E+03  0.10574633783E+04  0.12699999809E+01 0.  1.
</event>
<event>
 5   0  0.1219463E-04  0.1600677E+04  0.7818609E-02  0.8820132E-01
        3   -1    0    0  501    0  0.00000000000E+00  0.00000000000E+00  0.89950355607E+03  0.89950356174E+03  0.10100000352E+00 0.  1.
       -3   -1    0    0    0  501  0.00000000000E+00  0.00000000000E+00 -0.71210559234E+03  0.71210559950E+03  0.10100000352E+00 0. -1.
    10030    2    1    2    0    0  0.00000000000E+00  0.00000000000E+00  0.18739796373E+03  0.16116091612E+04  0.16006767606E+04 0.  0.
        4    1    3    3  502    0 -0.79949638524E+03 -0.35902771240E+02  0.86135615378E+02  0.80492511213E+03  0.12699999809E+01 0.  1.
       -4    1    3    3    0  502  0.79949638524E+03  0.35902771240E+02  0.10126234835E+03  0.80668404911E+03  0.12699999809E+01 0. -1.
</event>
<event>
 5   0  0.1787688E-04  0.1606735E+04  0.7818609E-02  0.8816421E-01
       -1   -1    0    0    0  501  0.00000000000E+00  0.00000000000E+00  0.49076750689E+03  0.49076750692E+03  0.50400001928E-02 0.  1.
        1   -1    0    0  501    0  0.00000000000E+00  0.00000000000E+00 -0.13150824606E+04  0.13150824606E+04  0.50400001928E-02 0. -1.
    10030    2    1    2    0    0  0.00000000000E+00  0.00000000000E+00 -0.82431495371E+03  0.18058499675E+04  0.16067354986E+04 0.  0.
        4    1    3    3  502    0 -0.65835036443E+03  0.27460195130E+03  0.31881807670E+01  0.71333246905E+03  0.12699999809E+01 0.  1.
       -4    1    3    3    0  502  0.65835036443E+03 -0.27460195130E+03 -0.82750313448E+03  0.10925174985E+04  0.12699999809E+01 0. -1.
</event>
<event>
 5   0  0.1764099E-04  0.1603635E+04  0.7818609E-02  0.8818318E-01
        1   -1    0    0  501    0  0.00000000000E+00  0.00000000000E+00  0.95602882515E+03  0.95602882517E+03  0.50400001928E-02 0. -1.
       -1   -1    0    0    0  501  0.00000000000E+00  0.00000000000E+00 -0.67248147202E+03  0.67248147204E+03  0.50400001928E-02 0.  1.
    10030    2    1    2    0    0  0.00000000000E+00  0.00000000000E+00  0.28354735313E+03  0.16285102972E+04  0.16036354594E+04 0.  0.
        5    1    3    3  502    0 -0.66413069813E+02 -0.97318330491E+02  0.94717613800E+03  0.95448744344E+03  0.46999998093E+01 0. -1.
       -5    1    3    3    0  502  0.66413069813E+02  0.97318330491E+02 -0.66362878487E+03  0.67402285376E+03  0.46999998093E+01 0.  1.
</event>
<event>
 5   0  0.3210612E-04  0.1633704E+04  0.7818609E-02  0.8800106E-01
        2   -1    0    0  501    0  0.00000000000E+00  0.00000000000E+00  0.13540455940E+04  0.13540455940E+04  0.25500000920E-02 0. -1.
       -2   -1    0    0    0  501  0.00000000000E+00  0.00000000000E+00 -0.49278061937E+03  0.49278061937E+03  0.25500000920E-02 0.  1.
    10030    2    1    2    0    0  0.00000000000E+00  0.00000000000E+00  0.86126497464E+03  0.18468262134E+04  0.16337042896E+04 0.  0.
        2    1    3    3  502    0 -0.63242510291E+03 -0.22883139530E+03 -0.93442131114E+02  0.67901159794E+03  0.25500000920E-02 0.  1.
       -2    1    3    3    0  502  0.63242510291E+03  0.22883139530E+03  0.95470710575E+03  0.11678146154E+04  0.25500000920E-02 0. -1.
</event>
<event>
 5   0  0.3263294E-04  0.1677697E+04  0.7818609E-02  0.8774188E-01
       -2   -1    0    0    0  501  0.00000000000E+00  0.00000000000E+00  0.61014163068E+03  0.61014163069E+03  0.25500000920E-02 0.  1.
        2   -1    0    0  501    0  0.00000000000E+00  0.00000000000E+00 -0.11532844493E+04  0.11532844493E+04  0.25500000920E-02 0. -1.
    10030    2    1    2    0    0  0.00000000000E+00  0.00000000000E+00 -0.54314281865E+03  0.17634260800E+04  0.16776970579E+04 0.  0.
        4    1    3    3  502    0 -0.82178258547E+03 -0.14392709207E+03 -0.36334637369E+03  0.90998012384E+03  0.12699999809E+01 0.  1.
       -4    1    3    3    0  502  0.82178258547E+03  0.14392709207E+03 -0.17979644496E+03  0.85344595618E+03  0.12699999809E+01 0. -1.
</event>
<event>
 5   0  0.3380454E-04  0.1592663E+04  0.7818609E-02  0.8825068E-01
       -2   -1    0    0    0  501  0.00000000000E+00  0.00000000000E+00  0.59917128810E+03  0.59917128811E+03  0.25500000920E-02 0.  1.
        2   -1    0    0  501    0  0.00000000000E+00  0.00000000000E+00 -0.10583685295E+04  0.10583685295E+04  0.25500000920E-02 0. -1.
    10030    2    1    2    0    0  0.00000000000E+00  0.00000000000E+00 -0.45919724143E+03  0.16575398176E+04  0.15926632226E+04 0.  0.
        5    1    3    3  502    0 -0.45815233434E+02  0.26580531820E+03  0.55016826734E+03  0.61274686060E+03  0.46999998093E+01 0.  1.
       -5    1    3    3    0  502  0.45815233434E+02 -0.26580531820E+03 -0.10093655088E+04  0.10447929570E+04  0.46999998093E+01 0. -1.
</event>
<event>
 5   0  0.3380454E-04  0.1607261E+04  0.7818609E-02  0.8816100E-01
        2   -1    0    0  501    0  0.00000000000E+00  0.00000000000E+00  0.97932033867E+03  0.97932033867E+03  0.25500000920E-02 0.  1.
       -2   -1    0    0    0  501  0.00000000000E+00  0.00000000000E+00 -0.65945909239E+03  0.65945909240E+03  0.25500000920E-02 0. -1.
    10030    2    1    2    0    0  0.00000000000E+00  0.00000000000E+00  0.31986124628E+03  0.16387794311E+04  0.16072606530E+04 0.  0.
        5    1    3    3  502    0 -0.14953873053E+02 -0.37882524203E+03  0.88239296658E+03  0.96040180123E+03  0.46999998093E+01 0.  1.
       -5    1    3    3    0  502  0.14953873053E+02  0.37882524203E+03 -0.56253172031E+03  0.67837762984E+03  0.46999998093E+01 0. -1.
</event>
<event>
 5   0  0.1787688E-04  0.1598888E+04  0.7818609E-02  0.8821231E-01
        1   -1    0    0  501    0  0.00000000000E+00  0.00000000000E+00  0.36947715112E+03  0.36947715115E+03  0.50400001928E-02 0.  1.
       -1   -1    0    0    0  501  0.00000000000E+00  0.00000000000E+00 -0.17297716255E+04  0.17297716255E+04  0.50400001928E-02 0. -1.
    10030    2    1    2    0    0  0.00000000000E+00  0.00000000000E+00 -0.13602944744E+04  0.20992487766E+04  0.15988884793E+04 0.  0.
        4    1    3    3  502    0 -0.53317705484E+03 -0.18339675227E+03  0.63953448537E+02  0.56745378405E+03  0.12699999809E+01 0.  1.
       -4    1    3    3    0  502  0.53317705484E+03  0.18339675227E+03 -0.14242479229E+04  0.15317949926E+04  0.12699999809E+01 0. -1.
</event>
<event>
 5   0  0.1819811E-04  0.1598498E+04  0.7818609E-02  0.8821472E-01
       -1   -1    0    0    0  501  0.00000000000E+00  0.00000000000E+00  0.15278778821E+04  0.15278778821E+04  0.50400001928E-02 0.  1.
        1   -1    0    0  501    0  0.00000000000E+00  0.00000000000E+00 -0.41809535800E+03  0.41809535803E+03  0.50400001928E-02 0. -1.
    10030    2    1    2    0    0  0.00000000000E+00  0.00000000000E+00  0.11097825241E+04  0.19459732401E+04  0.15984976073E+04 0.  0.
        1    1    3    3  502    0 -0.67866843253E+03 -0.12273049413E+03  0.63178134062E+02  0.69256414299E+03  0.50400001928E-02 0. -1.
       -1    1    3    3    0  502  0.67866843253E+03  0.12273049413E+03  0.10466043900E+04  0.12534090971E+04  0.50400001928E-02 0.  1.
</event>
<event>
 5   0  0.3274900E-04  0.1508751E+04  0.7818609E-02  0.8878654E-01
       -2   -1    0    0    0  501  0.00000000000E+00  0.00000000000E+00  0.62277049470E+03  0.62277049470E+03  0.25500000920E-02 0. -1.
        2   -1    0    0  501    0  0.00000000000E+00  0.00000000000E+00 -0.91379164911E+03  0.91379164911E+03  0.25500000920E-02 0.  1.
    10030    2    1    2    0    0  0.00000000000E+00  0.00000000000E+00 -0.29102115441E+03  0.15365621438E+04  0.15087511092E+04 0.  0.
        3    1    3    3  502    0  0.18361928500E+01  0.66845281812E+03 -0.50159815913E+03  0.83572319885E+03  0.10100000352E+00 0.  1.
       -3    1    3    3    0  502 -0.18361928500E+01 -0.66845281812E+03  0.21057700472E+03  0.70083894496E+03  0.10100000352E+00 0. -1.
</event>
<event>
 5   0  0.3228393E-04  0.1598611E+04  0.7818609E-02  0.8821402E-01
       -2   -1    0    0    0  501  0.00000000000E+00  0.00000000000E+00  0.33908455094E+03  0.33908455095E+03  0.25500000920E-02 0.  1.
        2   -1    0    0  501    0  0.00000000000E+00  0.00000000000E+00 -0.18841600248E+04  0.18841600248E+04  0.25500000920E-02 0. -1.
    10030    2    1    2    0    0  0.00000000000E+00  0.00000000000E+00 -0.15450754738E+04  0.22232445757E+04  0.15986113423E+04 0.  0.
        1    1    3    3  502    0 -0.52059026346E+03  0.25070954764E+03 -0.15406214387E+04  0.16454129929E+04  0.50400001928E-02 0. -1.
       -1    1    3    3    0  502  0.52059026346E+03 -0.25070954764E+03 -0.44540351160E+01  0.57783158285E+03  0.50400001928E-02 0.  1.
</event>
<event>
 5   0  0.3380454E-04  0.1611256E+04  0.7818609E-02  0.8813663E-01
        2   -1    0    0  501    0  0.00000000000E+00  0.00000000000E+00  0.61611659213E+03  0.61611659214E+03  0.25500000920E-02 0. -1.
       -2   -1    0    0    0  501  0.00000000000E+00  0.00000000000E+00 -0.10534309403E+04  0.10534309403E+04  0.25500000920E-02 0.  1.
    10030    2    1    2    0    0  0.00000000000E+00  0.00000000000E+00 -0.43731434817E+03  0.16695475324E+04  0.16112557599E+04 0.  0.
        5    1    3    3  502    0  0.28174247800E+03 -0.54399896617E+03  0.32343369746E+03  0.69278073426E+03  0.46999998093E+01 0. -1.
       -5    1    3    3    0  502 -0.28174247800E+03  0.54399896617E+03 -0.76074804563E+03  0.97676679818E+03  0.46999998093E+01 0.  1.
</event>
<event>
 5   0  0.1736537E-04  0.1599623E+04  0.7818609E-02  0.8820779E-01
        1   -1    0    0  501    0  0.00000000000E+00  0.00000000000E+00  0.80383371778E+03  0.80383371780E+03  0.50400001928E-02 0.  1.
       -1   -1    0    0    0  501  0.00000000000E+00  0.00000000000E+00 -0.79580982690E+03  0.79580982692E+03  0.50400001928E-02 0. -1.
    10030    2    1    2    0    0  0.00000000000E+00  0.00000000000E+00  0.80238908786E+01  0.15996435447E+04  0.15996234205E+04 0.  0.
        3    1    3    3  502    0  0.36716015675E+03 -0.52527056748E+03 -0.47451576891E+03  0.79742145375E+03  0.10100000352E+00 0. -1.
       -3    1    3    3    0  502 -0.36716015675E+03  0.52527056748E+03  0.48253965979E+03  0.80222209096E+03  0.10100000352E+00 0.  1.
</event>
<event>
 5   0  0.3210612E-04  0.1581277E+04  0.7818609E-02  0.8832133E-01
        2   -1    0    0  501    0  0.00000000000E+00  0.00000000000E+00  0.12108862989E+04  0.12108862989E+04  0.25500000920E-02 0.  1.
       -2   -1    0    0    0  501  0.00000000000E+00  0.00000000000E+00 -0.51624113530E+03  0.51624113530E+03  0.25500000920E-02 0. -1.
    10030    2    1    2    0    0  0.00000000000E+00  0.00000000000E+00  0.69464516361E+03  0.17271274342E+04  0.15812771012E+04 0.  0.
        2    1    3    3  502    0 -0.39809649531E+03  0.59197170899E+03 -0.24996860883E+02  0.71381802084E+03  0.25500000920E-02 0. -1.
       -2    1    3    3    0  502  0.39809649531E+03 -0.59197170899E+03  0.71964202449E+03  0.10133094134E+04  0.25500000920E-02 0.  1.
</event>
<event>
 5   0  0.1819811E-04  0.1547825E+04  0.7818609E-02  0.8853258E-01
       -1   -1    0    0    0  501  0.00000000000E+00  0.00000000000E+00  0.62801643706E+03  0.62801643708E+03  0.50400001928E-02 0.  1.
        1   -1    0    0  501    0  0.00000000000E+00  0.00000000000E+00 -0.95370199938E+03  0.95370199939E+03  0.50400001928E-02 0. -1.
    10030    2    1    2    0    0  0.00000000000E+00  0.00000000000E+00 -0.32568556232E+03  0.15817184365E+04  0.15478249664E+04 0.  0.
        1    1    3    3  502    0 -0.48417661738E+02  0.66828554843E+03 -0.55860968837E+03  0.87235006057E+03  0.50400001928E-02 0. -1.
       -1    1    3    3    0  502  0.48417661738E+02 -0.66828554843E+03  0.23292412606E+03  0.70936837590E+03  0.50400001928E-02 0.  1.
</event>
<event>
 5   0  0.3274900E-04  0.1602145E+04  0.7818609E-02  0.8819231E-01
        2   -1    0    0  501    0  0.00000000000E+00  0.00000000000E+00  0.11138589458E+04  0.11138589458E+04  0.25500000920E-02 0. -1.
       -2   -1    0    0    0  501  0.00000000000E+00  0.00000000000E+00 -0.57612085296E+03  0.57612085297E+03  0.25500000920E-02 0.  1.
    10030    2    1    2    0    0  0.00000000000E+00  0.00000000000E+00  0.53773809287E+03  0.16899797988E+04  0.16021452693E+04 0.  0.
        3    1    3    3  502    0 -0.14244132038E+03 -0.78651896314E+03  0.32484176589E+03  0.86279997230E+03  0.10100000352E+00 0.  1.
       -3    1    3    3    0  502  0.14244132038E+03  0.78651896314E+03  0.21289632698E+03  0.82717982650E+03  0.10100000352E+00 0. -1.
</event>
<event>
 5   0  0.3210612E-04  0.1597241E+04  0.7818609E-02  0.8822245E-01
        2   -1    0    0  501    0  0.00000000000E+00  0.00000000000E+00  0.84452404775E+03  0.84452404775E+03  0.25500000920E-02 0. -1.
       -2   -1    0    0    0  501  0.00000000000E+00  0.00000000000E+00 -0.75521193791E+03  0.75521193791E+03  0.25500000920E-02 0.  1.
    10030    2    1    2    0    0  0.00000000000E+00  0.00000000000E+00  0.89312109842E+02  0.15997359857E+04  0.15972409245E+04 0.  0.
        2    1    3    3  502    0  0.14490790462E+03  0.24140262380E+03 -0.70385407691E+03  0.75807921036E+03  0.25500000920E-02 0.  1.
       -2    1    3    3    0  502 -0.14490790462E+03 -0.24140262380E+03  0.79316618675E+03  0.84165677530E+03  0.25500000920E-02 0. -1.
</event>
<event>
 5   0  0.1819811E-04  0.1580303E+04  0.7818609E-02  0.8832741E-01
        1   -1    0    0  501    0  0.00000000000E+00  0.00000000000E+00  0.68323978592E+03  0.68323978594E+03  0.50400001928E-02 0.  1.
       -1   -1    0    0    0  501  0.00000000000E+00  0.00000000000E+00 -0.91379248852E+03  0.91379248854E+03  0.50400001928E-02 0. -1.
    10030    2    1    2    0    0  0.00000000000E+00  0.00000000000E+00 -0.23055270260E+03  0.15970322745E+04  0.15803029890E+04 0.  0.
        1    1    3    3  502    0 -0.13864334261E+03  0.44362337109E+03 -0.76103670417E+03  0.89174017345E+03  0.50400001928E-02 0. -1.
       -1    1    3    3    0  502  0.13864334261E+03 -0.44362337109E+03  0.53048400156E+03  0.70529210103E+03  0.50400001928E-02 0.  1.
</event>
<event>
 5   0  0.3380454E-04  0.1623855E+04  0.7818609E-02  0.8806026E-01
        2   -1    0    0  501    0  0.00000000000E+00  0.00000000000E+00  0.21526816423E+04  0.21526816423E+04  0.25500000920E-02 0.  1.
       -2   -1    0    0    0  501  0.00000000000E+00  0.00000000000E+00 -0.30623486641E+03  0.30623486642E+03  0.25500000920E-02 0. -1.
    10030    2    1    2    0    0  0.00000000000E+00  0.00000000000E+00  0.18464467759E+04  0.24589165088E+04  0.16238548891E+04 0.  0.
        5    1    3    3  502    0 -0.77002054897E+02  0.55616931288E+03  0.35158876142E+02  0.56259386561E+03  0.46999998093E+01 0. -1.
       -5    1    3    3    0  502  0.77002054897E+02 -0.55616931288E+03  0.18112878998E+04  0.18963226432E+04  0.46999998093E+01 0.  1.
</event>
<event>
 5   0  0.3210612E-04  0.1592514E+04  0.7818609E-02  0.8825160E-01
       -2   -1    0    0    0  501  0.00000000000E+00  0.00000000000E+00  0.52085380001E+03  0.52085380002E+03  0.25500000920E-02 0. -1.
        2   -1    0    0  501    0  0.00000000000E+00  0.00000000000E+00 -0.12172805363E+04  0.12172805363E+04  0.25500000920E-02 0.  1.
    10030    2    1    2    0    0  0.00000000000E+00  0.00000000000E+00 -0.69642673630E+03  0.17381343363E+04  0.15925139786E+04 0.  0.
        2    1    3    3  502    0  0.22012726907E+03 -0.74491904310E+03 -0.53933952956E+03  0.94564661662E+03  0.25500000920E-02 0.  1.
       -2    1    3    3    0  502 -0.22012726907E+03  0.74491904310E+03 -0.15708720673E+03  0.79248771971E+03  0.25500000920E-02 0. -1.
</event>
<event>
 5   0  0.3380454E-04  0.1633814E+04  0.7818609E-02  0.8800040E-01
        2   -1    0    0  501    0  0.00000000000E+00  0.00000000000E+00  0.15874862823E+04  0.15874862823E+04  0.25500000920E-02 0.  1.
       -2   -1    0    0    0  501  0.00000000000E+00  0.00000000000E+00 -0.42037358734E+03  0.42037358735E+03  0.25500000920E-02 0. -1.
    10030    2    1    2    0    0  0.00000000000E+00  0.00000000000E+00  0.11671126950E+04  0.20078598697E+04  0.16338143142E+04 0.  0.
        5    1    3    3  502    0  0.75712508469E+03 -0.20459998866E+03  0.86437833333E+03  0.11671638884E+04  0.46999998093E+01 0. -1.
       -5    1    3    3    0  502 -0.75712508469E+03  0.20459998866E+03  0.30273436163E+03  0.84069598127E+03  0.46999998093E+01 0.  1.
</event>
<event>
 5   0  0.1819811E-04  0.1585934E+04  0.7818609E-02  0.8829236E-01
        1   -1    0    0  501    0  0.00000000000E+00  0.00000000000E+00  0.70179902475E+03  0.70179902476E+03  0.50400001928E-02 0.  1.
       -1   -1    0    0    0  501  0.00000000000E+00  0.00000000000E+00 -0.89597835309E+03  0.89597835311E+03  0.50400001928E-02 0. -1.
    10030    2    1    2    0    0  0.00000000000E+00  0.00000000000E+00 -0.19417932835E+03  0.15977773779E+04  0.15859340900E+04 0.  0.
        1    1    3    3  502    0 -0.59764832916E+03  0.44412667568E-01  0.42796748379E+03  0.73507801935E+03  0.50400001928E-02 0.  1.
       -1    1    3    3    0  502  0.59764832916E+03 -0.44412667568E-01 -0.62214681214E+03  0.86269935852E+03  0.50400001928E-02 0. -1.
</event>
<event>
 5   0  0.3263294E-04  0.1630139E+04  0.7818609E-02  0.8802244E-01
       -2   -1    0    0    0  501  0.00000000000E+00  0.00000000000E+00  0.51803800488E+03  0.51803800488E+03  0.25500000920E-02 0. -1.
        2   -1    0    0  501    0  0.00000000000E+00  0.00000000000E+00 -0.12824119218E+04  0.12824119218E+04  0.25500000920E-02 0.  1.
    10030    2    1    2    0    0  0.00000000000E+00  0.00000000000E+00 -0.76437391688E+03  0.18004499266E+04  0.16301387835E+04 0.  0.
        4    1    3    3  502    0  0.61026776631E+03  0.53456488008E+03 -0.29557076970E+03  0.86345240193E+03  0.12699999809E+01 0.  1.
       -4    1    3    3    0  502 -0.61026776631E+03 -0.53456488008E+03 -0.46880314718E+03  0.93699752471E+03  0.12699999809E+01 0. -1.
</event>
<event>
 5   0  0.3274900E-04  0.1667395E+04  0.7818609E-02  0.8780182E-01
       -2   -1    0    0    0  501  0.00000000000E+00  0.00000000000E+00  0.76075516674E+03  0.76075516674E+03  0.25500000920E-02 0. -1.
        2   -1    0    0  501    0  0.00000000000E+00  0.00000000000E+00 -0.91363378548E+03  0.91363378548E+03  0.25500000920E-02 0.  1.
    10030    2    1    2    0    0  0.00000000000E+00  0.00000000000E+00 -0.15287861874E+03  0.16743889522E+04  0.16673951215E+04 0.  0.
        3    1    3    3  502    0 -0.70798696107E+03  0.19286898378E+03  0.32095741487E+03  0.80091051580E+03  0.10100000352E+00 0. -1.
       -3    1    3    3    0  502  0.70798696107E+03 -0.19286898378E+03 -0.47383603361E+03  0.87347843643E+03  0.10100000352E+00 0.  1.
</event>
<event>
 5   0  0.3380454E-04  0.1602570E+04  0.7818609E-02  0.8818971E-01
        2   -1    0    0  501    0  0.00000000000E+00  0.00000000000E+00  0.17548199107E+04  0.17548199107E+04  0.25500000920E-02 0.  1.
       -2   -1    0    0    0  501  0.00000000000E+00  0.00000000000E+00 -0.36588225138E+03  0.36588225139E+03  0.25500000920E-02 0. -1.
    10030    2    1    2    0    0  0.00000000000E+00  0.00000000000E+00  0.13889376593E+04  0.21207021621E+04  0.16025697610E+04 0.  0.
        5    1    3    3  502    0  0.24535526325E+03  0.28091302524E+03  0.16329248653E+04  0.16749856831E+04  0.46999998093E+01 0.  1.
       -5    1    3    3    0  502 -0.24535526325E+03 -0.28091302524E+03 -0.24398720598E+03  0.44571647898E+03  0.46999998093E+01 0. -1.
</event>
<event>
 5   0  0.3274900E-04  0.1625148E+04  0.7818609E-02  0.8805246E-01
       -2   -1    0    0    0  501  0.00000000000E+00  0.00000000000E+00  0.25182082346E+03  0.25182082347E+03  0.25500000920E-02 0. -1.
        2   -1    0    0  501    0  0.00000000000E+00  0.00000000000E+00 -0.26220076876E+04  0.26220076876E+04  0.25500000920E-02 0.  1.
    10030    2    1    2    0    0  0.00000000000E+00  0.00000000000E+00 -0.23701868641E+04  0.28738285110E+04  0.16251475441E+04 0.  0.
        3    1    3    3  502    0  0.35607415034E+03  0.28544756049E+03 -0.23739806023E+04  0.24174476252E+04  0.10100000352E+00 0.  1.
       -3    1    3    3    0  502 -0.35607415034E+03 -0.28544756049E+03  0.37937381482E+01  0.45638088587E+03  0.10100000352E+00 0. -1.
</event>
<event>
 5   0  0.1736537E-04  0.1604965E+04  0.7818609E-02  0.8817503E-01
        1   -1    0    0  501    0  0.00000000000E+00  0.00000000000E+00  0.13743622285E+04  0.13743622285E+04  0.50400001928E-02 0.  1.
       -1   -1    0    0    0  501  0.00000000000E+00  0.00000000000E+00 -0.46856530788E+03  0.46856530790E+03  0.50400001928E-02 0. -1.
    10030    2    1    2    0    0  0.00000000000E+00  0.00000000000E+00  0.90579692060E+03  0.18429275364E+04  0.16049653713E+04 0.  0.
        3    1    3    3  502    0  0.48003817762E+03 -0.32924691760E+03 -0.18139601617E+03  0.60970870881E+03  0.10100000352E+00 0. -1.
       -3    1    3    3    0  502 -0.48003817762E+03  0.32924691760E+03  0.10871929368E+04  0.12332188276E+04  0.10100000352E+00 0.  1.
</event>
<event>
 5   0  0.1736537E-04  0.1627938E+04  0.7818609E-02  0.8803566E-01
        1   -1    0    0  501    0  0.00000000000E+00  0.00000000000E+00  0.84821165267E+03  0.84821165269E+03  0.50400001928E-02 0. -1.
       -1   -1    0    0    0  501  0.00000000000E+00  0.00000000000E+00 -0.78110866060E+03  0.78110866062E+03  0.50400001928E-02 0.  1.
    10030    2    1    2    0    0  0.00000000000E+00  0.00000000000E+00  0.67102992074E+02  0.16293203133E+04  0.16279379201E+04 0.  0.
        3    1    3    3  502    0  0.67144995076E+03 -0.43634582476E+03  0.17963002687E+03  0.82067635029E+03  0.10100000352E+00 0. -1.
       -3    1    3    3    0  502 -0.67144995076E+03  0.43634582476E+03 -0.11252703479E+03  0.80864396302E+03  0.10100000352E+00 0.  1.
</event>
<event>
 5   0  0.3263294E-04  0.1595660E+04  0.7818609E-02  0.8823219E-01
       -2   -1    0    0    0  501  0.00000000000E+00  0.00000000000E+00  0.30283044694E+03  0.30283044695E+03  0.25500000920E-02 0. -1.
        2   -1    0    0  501    0  0.00000000000E+00  0.00000000000E+00 -0.21019442764E+04  0.21019442764E+04  0.25500000920E-02 0.  1.
    10030    2    1    2    0    0  0.00000000000E+00  0.00000000000E+00 -0.17991138295E+04  0.24047747234E+04  0.15956600198E+04 0.  0.
        4    1    3    3  502    0  0.16227654119E+03 -0.29314103049E+03 -0.19907705577E+04  0.20187705084E+04  0.12699999809E+01 0.  1.
       -4    1    3    3    0  502 -0.16227654119E+03  0.29314103049E+03  0.19165672820E+03  0.38600421492E+03  0.12699999809E+01 0. -1.
</event>
<event>
 5   0  0.1764099E-04  0.1601744E+04  0.7818609E-02  0.8819477E-01
        1   -1    0    0  501    0  0.00000000000E+00  0.00000000000E+00  0.18224965912E+04  0.18224965913E+04  0.50400001928E-02 0. -1.
       -1   -1    0    0    0  501  0.00000000000E+00  0.00000000000E+00 -0.35193261520E+03  0.35193261524E+03  0.50400001928E-02 0.  1.
    10030    2    1    2    0    0  0.00000000000E+00  0.00000000000E+00  0.14705639760E+04  0.21744292065E+04  0.16017440390E+04 0.  0.
        5    1    3    3  502    0  0.12861040387E+03 -0.46852113679E+03 -0.12899275492E+03  0.50270658681E+03  0.46999998093E+01 0.  1.
       -5    1    3    3    0  502 -0.12861040387E+03  0.46852113679E+03  0.15995567310E+04  0.16717226197E+04  0.46999998093E+01 0. -1.
</event>
<event>
 5   0  0.1219463E-04  0.1581748E+04  0.7818609E-02  0.8831840E-01
       -3   -1    0    0    0  501  0.00000000000E+00  0.00000000000E+00  0.56546737169E+03  0.56546738071E+03  0.10100000352E+00 0.  1.
        3   -1    0    0  501    0  0.00000000000E+00  0.00000000000E+00 -0.11061324811E+04  0.11061324857E+04  0.10100000352E+00 0. -1.
    10030    2    1    2    0    0  0.00000000000E+00  0.00000000000E+00 -0.54066510938E+03  0.16715998664E+04  0.15817481951E+04 0.  0.
        5    1    3    3  502    0 -0.87173501413E+02 -0.19969834940E+03 -0.10737694992E+04  0.10956649477E+04  0.46999998093E+01 0. -1.
       -5    1    3    3    0  502  0.87173501413E+02  0.19969834940E+03  0.53310438986E+03  0.57593491870E+03  0.46999998093E+01 0.  1.
</event>
<event>
 5   0  0.1736537E-04  0.1617321E+04  0.7818609E-02  0.8809977E-01
       -1   -1    0    0    0  501  0.00000000000E+00  0.00000000000E+00  0.72453224754E+03  0.72453224756E+03  0.50400001928E-02 0.  1.
        1   -1    0    0  501    0  0.00000000000E+00  0.00000000000E+00 -0.90255760836E+03  0.90255760838E+03  0.50400001928E-02 0. -1.
    10030    2    1    2    0    0  0.00000000000E+00  0.00000000000E+00 -0.17802536082E+03  0.16270898559E+04  0.16173213565E+04 0.  0.
        3    1    3    3  502    0  0.25040895042E+02 -0.47121415781E+03 -0.74968473926E+03  0.88583127481E+03  0.10100000352E+00 0. -1.
       -3    1    3    3    0  502 -0.25040895042E+02  0.47121415781E+03  0.57165937844E+03  0.74125858113E+03  0.10100000352E+00 0.  1.
</event>
<event>
 5   0  0.1219463E-04  0.1602905E+04  0.7818609E-02  0.8818765E-01
       -3   -1    0    0    0  501  0.00000000000E+00  0.00000000000E+00  0.51652443267E+03  0.51652444255E+03  0.10100000352E+00 0. -1.
        3   -1    0    0  501    0  0.00000000000E+00  0.00000000000E+00 -0.12435546604E+04  0.12435546645E+04  0.10100000352E+00 0.  1.
    10030    2    1    2    0    0  0.00000000000E+00  0.00000000000E+00 -0.72703022774E+03  0.17600791071E+04  0.16029053344E+04 0.  0.
        1    1    3    3  502    0 -0.10711541373E+03 -0.52460337483E+03  0.29132011445E+03  0.60954886748E+03  0.50400001928E-02 0. -1.
       -1    1    3    3    0  502  0.10711541373E+03  0.52460337483E+03 -0.10183503422E+04  0.11505302396E+04  0.50400001928E-02 0.  1.
</event>
<event>
 5   0  0.1736537E-04  0.1584147E+04  0.7818609E-02  0.8830347E-01
        1   -1    0    0  501    0  0.00000000000E+00  0.00000000000E+00  0.61840922049E+03  0.61840922051E+03  0.50400001928E-02 0.  1.
       -1   -1    0    0    0  501  0.00000000000E+00  0.00000000000E+00 -0.10145068122E+04  0.10145068123E+04  0.50400001928E-02 0. -1.
    10030    2    1    2    0    0  0.00000000000E+00  0.00000000000E+00 -0.39609759176E+03  0.16329160328E+04  0.15841469212E+04 0.  0.
        3    1    3    3  502    0 -0.18495482840E+03 -0.19541033796E+03  0.56986018906E+03  0.63018579324E+03  0.10100000352E+00 0.  1.
       -3    1    3    3    0  502  0.18495482840E+03  0.19541033796E+03 -0.96595778082E+03  0.10027302395E+04  0.10100000352E+00 0. -1.
</event>
<event>
 5   0  0.3228393E-04  0.1622190E+04  0.7818609E-02  0.8807030E-01
       -2   -1    0    0    0  501  0.00000000000E+00  0.00000000000E+00  0.11563730404E+04  0.11563730404E+04  0.25500000920E-02 0.  1.
        2   -1    0    0  501    0  0.00000000000E+00  0.00000000000E+00 -0.56891274969E+03  0.56891274970E+03  0.25500000920E-02 0. -1.
    10030    2    1    2    0    0  0.00000000000E+00  0.00000000000E+00  0.58746029068E+03  0.17252857901E+04  0.16221903292E+04 0.  0.
        1    1    3    3  502    0 -0.29154222004E+03 -0.14835212804E+03  0.10831060321E+04  0.11314256037E+04  0.50400001928E-02 0.  1.
       -1    1    3    3    0  502  0.29154222004E+03  0.14835212804E+03 -0.49564574140E+03  0.59386018637E+03  0.50400001928E-02 0. -1.
</event>
<event>
 5   0  0.1761255E-04  0.1579366E+04  0.7818609E-02  0.8833325E-01
        1   -1    0    0  501    0  0.00000000000E+00  0.00000000000E+00  0.10868637287E+04  0.10868637288E+04  0.50400001928E-02 0. -1.
       -1   -1    0    0    0  501  0.00000000000E+00  0.00000000000E+00 -0.57376054936E+03  0.57376054938E+03  0.50400001928E-02 0.  1.
    10030    2    1    2    0    0  0.00000000000E+00  0.00000000000E+00  0.51310317939E+03  0.16606242781E+04  0.15793663668E+04 0.  0.
        2    1    3    3  502    0 -0.22443292148E+03  0.60242903511E+03 -0.22563715303E+03  0.68132444799E+03  0.25500000920E-02 0.  1.
       -2    1    3    3    0  502  0.22443292148E+03 -0.60242903511E+03  0.73874033242E+03  0.97929983016E+03  0.25500000920E-02 0. -1.
</event>
<event>
 5   0  0.1736537E-04  0.1604906E+04  0.7818609E-02  0.8817540E-01
        1   -1    0    0  501    0  0.00000000000E+00  0.00000000000E+00  0.43548350449E+03  0.43548350452E+03  0.50400001928E-02 0. -1.
       -1   -1    0    0    0  501  0.00000000000E+00  0.00000000000E+00 -0.14786569745E+04  0.14786569745E+04  0.50400001928E-02 0.  1.
    10030    2    1    2    0    0  0.00000000000E+00  0.00000000000E+00 -0.10431734700E+04  0.19141404790E+04  0.16049058804E+04 0.  0.
        3    1    3    3  502    0  0.67489605039E+03 -0.81444462107E+02 -0.10301400678E+04  0.12342230141E+04  0.10100000352E+00 0.  1.
       -3    1    3    3    0  502 -0.67489605039E+03  0.81444462107E+02 -0.13033402222E+02  0.67991746485E+03  0.10100000352E+00 0. -1.
</event>
<event>
 5   0  0.1761255E-04  0.1532316E+04  0.7818609E-02  0.8863243E-01
        1   -1    0    0  501    0  0.00000000000E+00  0.00000000000E+00  0.10630192714E+04  0.10630192714E+04  0.50400001928E-02 0.  1.
       -1   -1    0    0    0  501  0.00000000000E+00  0.00000000000E+00 -0.55219901366E+03  0.55219901368E+03  0.50400001928E-02 0. -1.
    10030    2    1    2    0    0  0.00000000000E+00  0.00000000000E+00  0.51082025776E+03  0.16152182851E+04  0.15323161465E+04 0.  0.
        2    1    3    3  502    0  0.16132463873E+03 -0.65068769078E+03  0.64639276615E+03  0.93125921103E+03  0.25500000920E-02 0. -1.
       -2    1    3    3    0  502 -0.16132463873E+03  0.65068769078E+03 -0.13557250839E+03  0.68395907409E+03  0.25500000920E-02 0.  1.
</event>
<event>
 5   0  0.1736537E-04  0.1591396E+04  0.7818609E-02  0.8825851E-01
       -1   -1    0    0    0  501  0.00000000000E+00  0.00000000000E+00  0.37848567509E+03  0.37848567512E+03  0.50400001928E-02 0. -1.
        1   -1    0    0  501    0  0.00000000000E+00  0.00000000000E+00 -0.16728112627E+04  0.16728112627E+04  0.50400001928E-02 0.  1.
    10030    2    1    2    0    0  0.00000000000E+00  0.00000000000E+00 -0.12943255876E+04  0.20512969379E+04  0.15913957397E+04 0.  0.
        3    1    3    3  502    0 -0.26737851869E+02  0.11240230792E+03 -0.16619411272E+04  0.16659524339E+04  0.10100000352E+00 0.  1.
       -3    1    3    3    0  502  0.26737851869E+02 -0.11240230792E+03  0.36761553960E+03  0.38534450392E+03  0.10100000352E+00 0. -1.
</event>
<event>
 5   0  0.3380454E-04  0.1589227E+04  0.7818609E-02  0.8827194E-01
        2   -1    0    0  501    0  0.00000000000E+00  0.00000000000E+00  0.10550769852E+04  0.10550769852E+04  0.25500000920E-02 0. -1.
       -2   -1    0    0    0  501  0.00000000000E+00  0.00000000000E+00 -0.59844969464E+03  0.59844969465E+03  0.25500000920E-02 0.  1.
    10030    2    1    2    0    0  0.00000000000E+00  0.00000000000E+00  0.45662729058E+03  0.16535266799E+04  0.15892268556E+04 0.  0.
        5    1    3    3  502    0  0.29173530416E+03  0.37251231149E+03 -0.43588243978E+03  0.64334322194E+03  0.46999998093E+01 0.  1.
       -5    1    3    3    0  502 -0.29173530416E+03 -0.37251231149E+03  0.89250973036E+03  0.10101834579E+04  0.46999998093E+01 0. -1.
</event>
<event>
 5   0  0.3228393E-04  0.1563166E+04  0.7818609E-02  0.8843501E-01
        2   -1    0    0  501    0  0.00000000000E+00  0.00000000000E+00  0.60534332544E+03  0.60534332545E+03  0.25500000920E-02 0. -1.
       -2   -1    0    0    0  501  0.00000000000E+00  0.00000000000E+00 -0.10091335373E+04  0.10091335373E+04  0.25500000920E-02 0.  1.
    10030    2    1    2    0    0  0.00000000000E+00  0.00000000000E+00 -0.40379021182E+03  0.16144768627E+04  0.15631663395E+04 0.  0.
        1    1    3    3  502    0  0.11518037103E+03  0.61509773051E+03  0.28172778202E+03  0.68628148681E+03  0.50400001928E-02 0. -1.
       -1    1    3    3    0  502 -0.11518037103E+03 -0.61509773051E+03 -0.68551799383E+03  0.92819537590E+03  0.50400001928E-02 0.  1.
</event>
<event>
 5   0  0.1819811E-04  0.1589563E+04  0.7818609E-02  0.8826985E-01
       -1   -1    0    0    0  501  0.00000000000E+00  0.00000000000E+00  0.60313116130E+03  0.60313116132E+03  0.50400001928E-02 0. -1.
        1   -1    0    0  501    0  0.00000000000E+00  0.00000000000E+00 -0.10473309799E+04  0.10473309799E+04  0.50400001928E-02 0.  1.
    10030    2    1    2    0    0  0.00000000000E+00  0.00000000000E+00 -0.44419981862E+03  0.16504621412E+04  0.15895633994E+04 0.  0.
        1    1    3    3  502    0 -0.21108044763E+03  0.24411487467E+03  0.53203956442E+03  0.62226451412E+03  0.50400001928E-02 0. -1.
       -1    1    3    3    0  502  0.21108044763E+03 -0.24411487467E+03 -0.97623938304E+03  0.10281976271E+04  0.50400001928E-02 0.  1.
</event>
<event>
 5   0  0.3210612E-04  0.1454844E+04  0.7818609E-02  0.8915049E-01
       -2   -1    0    0    0  501  0.00000000000E+00  0.00000000000E+00  0.30001995547E+03  0.30001995548E+03  0.25500000920E-02 0.  1.
        2   -1    0    0  501    0  0.00000000000E+00  0.00000000000E+00 -0.17636925547E+04  0.17636925547E+04  0.25500000920E-02 0. -1.
    10030    2    1    2    0    0  0.00000000000E+00  0.00000000000E+00 -0.14636725993E+04  0.20637125102E+04  0.14548442690E+04 0.  0.
        2    1    3    3  502    0 -0.49575806403E+02 -0.64373620232E+02 -0.17572354997E+04  0.17591129369E+04  0.25500000920E-02 0. -1.
       -2    1    3    3    0  502  0.49575806403E+02  0.64373620232E+02  0.29356290040E+03  0.30459957330E+03  0.25500000920E-02 0.  1.
</event>
<event>
 5   0  0.3380454E-04  0.1604724E+04  0.7818609E-02  0.8817651E-01
       -2   -1    0    0    0  501  0.00000000000E+00  0.00000000000E+00  0.29897357726E+03  0.29897357727E+03  0.25500000920E-02 0. -1.
        2   -1    0    0  501    0  0.00000000000E+00  0.00000000000E+00 -0.21533168387E+04  0.21533168387E+04  0.25500000920E-02 0.  1.
    10030    2    1    2    0    0  0.00000000000E+00  0.00000000000E+00 -0.18543432615E+04  0.24522904160E+04  0.16047240738E+04 0.  0.
        5    1    3    3  502    0 -0.13914440955E+03 -0.72342835190E+03 -0.14129589132E+04  0.15934819508E+04  0.46999998093E+01 0.  1.
       -5    1    3    3    0  502  0.13914440955E+03  0.72342835190E+03 -0.44138434824E+03  0.85880846521E+03  0.46999998093E+01 0. -1.
</event>
<event>
 5   0  0.1761255E-04  0.1585268E+04  0.7818609E-02  0.8829650E-01
       -1   -1    0    0    0  501  0.00000000000E+00  0.00000000000E+00  0.20336134516E+03  0.20336134522E+03  0.50400001928E-02 0.  1.
        1   -1    0    0  501    0  0.00000000000E+00  0.00000000000E+00 -0.30894190754E+04  0.30894190754E+04  0.50400001928E-02 0. -1.
    10030    2    1    2    0    0  0.00000000000E+00  0.00000000000E+00 -0.28860577303E+04  0.32927804207E+04  0.15852676986E+04 0.  0.
        2    1    3    3  502    0 -0.46841684148E+01 -0.17681888238E+03 -0.30479016729E+04  0.30530298829E+04  0.25500000920E-02 0. -1.
       -2    1    3    3    0  502  0.46841684148E+01  0.17681888238E+03  0.16184394257E+03  0.23975053775E+03  0.25500000920E-02 0.  1.
</event>
<event>
 5   0  0.3210612E-04  0.1578906E+04  0.7818609E-02  0.8833612E-01
        2   -1    0    0  501    0  0.00000000000E+00  0.00000000000E+00  0.14653748762E+04  0.14653748762E+04  0.25500000920E-02 0.  1.
       -2   -1    0    0    0  501  0.00000000000E+00  0.00000000000E+00 -0.42530845782E+03  0.42530845782E+03  0.25500000920E-02 0. -1.
    10030    2    1    2    0    0  0.00000000000E+00  0.00000000000E+00  0.10400664184E+04  0.18906833340E+04  0.15789063667E+04 0.  0.
        2    1    3    3  502    0 -0.19713377186E+03  0.66930822314E+03  0.96228679994E+03  0.11886257220E+04  0.25500000920E-02 0.  1.
       -2    1    3    3    0  502  0.19713377186E+03 -0.66930822314E+03  0.77779618415E+02  0.70205761203E+03  0.25500000920E-02 0. -1.
</event>
<event>
 5   0  0.3274900E-04  0.1602420E+04  0.7818609E-02  0.8819063E-01
        2   -1    0    0  501    0  0.00000000000E+00  0.00000000000E+00  0.19454372836E+04  0.19454372836E+04  0.25500000920E-02 0. -1.
       -2   -1    0    0    0  501  0.00000000000E+00  0.00000000000E+00 -0.32997085262E+03  0.32997085263E+03  0.25500000920E-02 0.  1.
    10030    2    1    2    0    0  0.00000000000E+00  0.00000000000E+00  0.16154664310E+04  0.22754081363E+04  0.16024201686E+04 0.  0.
        3    1    3    3  502    0 -0.52357430329E+03 -0.53543548062E+03  0.40330895923E+03  0.85057588243E+03  0.10100000352E+00 0. -1.
       -3    1    3    3    0  502  0.52357430329E+03  0.53543548062E+03  0.12121574718E+04  0.14248322538E+04  0.10100000352E+00 0.  1.
</event>
<event>
 5   0  0.1219463E-04  0.1578897E+04  0.7818609E-02  0.8833618E-01
        3   -1    0    0  501    0  0.00000000000E+00  0.00000000000E+00  0.85451939225E+03  0.85451939822E+03  0.10100000352E+00 0. -1.
       -3   -1    0    0    0  501  0.00000000000E+00  0.00000000000E+00 -0.72933252545E+03  0.72933253245E+03  0.10100000352E+00 0.  1.
    10030    2    1    2    0    0  0.00000000000E+00  0.00000000000E+00  0.12518686679E+03  0.15838519307E+04  0.15788968258E+04 0.  0.
        4    1    3    3  502    0 -0.22345176192E+03 -0.70126460268E+03 -0.22382750798E+03  0.76928739695E+03  0.12699999809E+01 0.  1.
       -4    1    3    3    0  502  0.22345176192E+03  0.70126460268E+03  0.34901437477E+03  0.81456453371E+03  0.12699999809E+01 0. -1.
</event>
<event>
 5   0  0.1764099E-04  0.1600491E+04  0.7818609E-02  0.8820247E-01
        1   -1    0    0  501    0  0.00000000000E+00  0.00000000000E+00  0.38188708223E+03  0.38188708226E+03  0.50400001928E-02 0. -1.
       -1   -1    0    0    0  501  0.00000000000E+00  0.00000000000E+00 -0.16769161832E+04  0.16769161832E+04  0.50400001928E-02 0.  1.
    10030    2    1    2    0    0  0.00000000000E+00  0.00000000000E+00 -0.12950291010E+04  0.20588032655E+04  0.16004907102E+04 0.  0.
        5    1    3    3  502    0  0.46466238037E+03 -0.40847430961E+03 -0.13004067642E+04  0.14400841057E+04  0.46999998093E+01 0.  1.
       -5    1    3    3    0  502 -0.46466238037E+03  0.40847430961E+03  0.53776632050E+01  0.61871915972E+03  0.46999998093E+01 0. -1.
</event>
<event>
 5   0  0.3228393E-04  0.1602114E+04  0.7818609E-02  0.8819251E-01
        2   -1    0    0  501    0  0.00000000000E+00  0.00000000000E+00  0.66909427976E+03  0.66909427976E+03  0.25500000920E-02 0.  1.
       -2   -1    0    0    0  501  0.00000000000E+00  0.00000000000E+00 -0.95904581685E+03  0.95904581685E+03  0.25500000920E-02 0. -1.
    10030    2    1    2    0    0  0.00000000000E+00  0.00000000000E+00 -0.28995153709E+03  0.16281400966E+04  0.16021136915E+04 0.  0.
        1    1    3    3  502    0 -0.49709671594E+03 -0.62694320264E+03 -0.10523622471E+03  0.80699292893E+03  0.50400001928E-02 0.  1.
       -1    1    3    3    0  502  0.49709671594E+03  0.62694320264E+03 -0.18471531238E+03  0.82114716768E+03  0.50400001928E-02 0. -1.
</event>
<event>
 5   0  0.1787688E-04  0.1608256E+04  0.7818609E-02  0.8815492E-01
        1   -1    0    0  501    0  0.00000000000E+00  0.00000000000E+00  0.14283011251E+04  0.14283011251E+04  0.50400001928E-02 0. -1.
       -1   -1    0    0    0  501  0.00000000000E+00  0.00000000000E+00 -0.45272086590E+03  0.45272086593E+03  0.50400001928E-02 0.  1.
    10030    2    1    2    0    0  0.00000000000E+00  0.00000000000E+00  0.97558025919E+03  0.18810219910E+04  0.16082558530E+04 0.  0.
        4    1    3    3  502    0  0.68272055416E+03 -0.38039295963E+03  0.70913264777E+03  0.10553089045E+04  0.12699999809E+01 0. -1.
       -4    1    3    3    0  502 -0.68272055416E+03  0.38039295963E+03  0.26644761142E+03  0.82571308657E+03  0.12699999809E+01 0.  1.
</event>
<event>
 5   0  0.1761255E-04  0.1460396E+04  0.7818609E-02  0.8911225E-01
        1   -1    0    0  501    0  0.00000000000E+00  0.00000000000E+00  0.93673028292E+03  0.93673028293E+03  0.50400001928E-02 0.  1.
       -1   -1    0    0    0  501  0.00000000000E+00  0.00000000000E+00 -0.56920205846E+03  0.56920205848E+03  0.50400001928E-02 0. -1.
    10030    2    1    2    0    0  0.00000000000E+00  0.00000000000E+00  0.36752822446E+03  0.15059323414E+04  0.14603955701E+04 0.  0.
        2    1    3    3  502    0  0.49123206910E+03 -0.41585214605E+03  0.53940479068E+03  0.83976156217E+03  0.25500000920E-02 0.  1.
       -2    1    3    3    0  502 -0.49123206910E+03  0.41585214605E+03 -0.17187656622E+03  0.66617077924E+03  0.25500000920E-02 0. -1.
</event>
<event>
 5   0  0.3263294E-04  0.1581038E+04  0.7818609E-02  0.8832282E-01
       -2   -1    0    0    0  501  0.00000000000E+00  0.00000000000E+00  0.12098092592E+04  0.12098092592E+04  0.25500000920E-02 0.  1.
        2   -1    0    0  501    0  0.00000000000E+00  0.00000000000E+00 -0.51654467874E+03  0.51654467875E+03  0.25500000920E-02 0. -1.
    10030    2    1    2    0    0  0.00000000000E+00  0.00000000000E+00  0.69326458042E+03  0.17263539379E+04  0.15810383109E+04 0.  0.
        4    1    3    3  502    0  0.63740938746E+02  0.69978181162E+03 -0.48816744147E+02  0.70437360723E+03  0.12699999809E+01 0. -1.
       -4    1    3    3    0  502 -0.63740938746E+02 -0.69978181162E+03  0.74208132457E+03  0.10219803307E+04  0.12699999809E+01 0.  1.
</event>
<event>
 5   0  0.3210612E-04  0.1599769E+04  0.7818609E-02  0.8820690E-01
       -2   -1    0    0    0  501  0.00000000000E+00  0.00000000000E+00  0.56209800069E+03  0.56209800070E+03  0.25500000920E-02 0. -1.
        2   -1    0    0  501    0  0.00000000000E+00  0.00000000000E+00 -0.11382627428E+04  0.11382627428E+04  0.25500000920E-02 0.  1.
    10030    2    1    2    0    0  0.00000000000E+00  0.00000000000E+00 -0.57616474207E+03  0.17003607435E+04  0.15997689983E+04 0.  0.
        2    1    3    3  502    0 -0.64207703377E+03 -0.43781760957E+03 -0.48937950355E+03  0.91838960961E+03  0.25500000920E-02 0.  1.
       -2    1    3    3    0  502  0.64207703377E+03  0.43781760957E+03 -0.86785238525E+02  0.78197113385E+03  0.25500000920E-02 0. -1.
</event>
<event>
 5   0  0.3274900E-04  0.1600507E+04  0.7818609E-02  0.8820236E-01
        2   -1    0    0  501    0  0.00000000000E+00  0.00000000000E+00  0.69833719251E+03  0.69833719251E+03  0.25500000920E-02 0.  1.
       -2   -1    0    0    0  501  0.00000000000E+00  0.00000000000E+00 -0.91704380259E+03  0.91704380259E+03  0.25500000920E-02 0. -1.
    10030    2    1    2    0    0  0.00000000000E+00  0.00000000000E+00 -0.21870661008E+03  0.16153809951E+04  0.16005071628E+04 0.  0.
        3    1    3    3  502    0 -0.32945611015E+03  0.50801521484E+03 -0.63746060429E+03  0.87919100271E+03  0.10100000352E+00 0. -1.
       -3    1    3    3    0  502  0.32945611015E+03 -0.50801521484E+03  0.41875399421E+03  0.73618999239E+03  0.10100000352E+00 0.  1.
</event>
<event>
 5   0  0.1219463E-04  0.1602952E+04  0.7818609E-02  0.8818737E-01
       -4   -1    0    0    0  501  0.00000000000E+00  0.00000000000E+00  0.88064608262E+03  0.88064699837E+03  0.12699999809E+01 0. -1.
        4   -1    0    0  501    0  0.00000000000E+00  0.00000000000E+00 -0.72942129124E+03  0.72942239685E+03  0.12699999809E+01 0.  1.
    10030    2    1    2    0    0  0.00000000000E+00  0.00000000000E+00  0.15122479137E+03  0.16100693952E+04  0.16029518146E+04 0.  0.
        1    1    3    3  502    0 -0.25952423183E+03 -0.55354445250E+03  0.59617935498E+03  0.85392863351E+03  0.50400001928E-02 0. -1.
       -1    1    3    3    0  502  0.25952423183E+03  0.55354445250E+03 -0.44495456361E+03  0.75614076170E+03  0.50400001928E-02 0.  1.
</event>
<event>
 5   0  0.3263294E-04  0.1583941E+04  0.7818609E-02  0.8830475E-01
       -2   -1    0    0    0  501  0.00000000000E+00  0.00000000000E+00  0.41927627780E+03  0.41927627781E+03  0.25500000920E-02 0.  1.
        2   -1    0    0  501    0  0.00000000000E+00  0.00000000000E+00 -0.14959524727E+04  0.14959524727E+04  0.25500000920E-02 0. -1.
    10030    2    1    2    0    0  0.00000000000E+00  0.00000000000E+00 -0.10766761949E+04  0.19152287505E+04  0.15839411410E+04 0.  0.
        4    1    3    3  502    0  0.29045949867E+03  0.26836436544E+03 -0.13680235989E+04  0.14240352288E+04  0.12699999809E+01 0. -1.
       -4    1    3    3    0  502 -0.29045949867E+03 -0.26836436544E+03  0.29134740399E+03  0.49119352166E+03  0.12699999809E+01 0.  1.
</event>
<event>
 5   0  0.3274900E-04  0.1593750E+04  0.7818609E-02  0.8824397E-01
       -2   -1    0    0    0  501  0.00000000000E+00  0.00000000000E+00  0.34358895767E+03  0.34358895768E+03  0.25500000920E-02 0.  1.
        2   -1    0    0  501    0  0.00000000000E+00  0.00000000000E+00 -0.18481674252E+04  0.18481674252E+04  0.25500000920E-02 0. -1.
    10030    2    1    2    0    0  0.00000000000E+00  0.00000000000E+00 -0.15045784675E+04  0.21917563828E+04  0.15937501927E+04 0.  0.
        3    1    3    3  502    0 -0.73868865352E+03  0.20017742146E+03 -0.10575693283E+04  0.13054443003E+04  0.10100000352E+00 0. -1.
       -3    1    3    3    0  502  0.73868865352E+03 -0.20017742146E+03 -0.44700913923E+03  0.88631208254E+03  0.10100000352E+00 0.  1.
</event>
<event>
 5   0  0.1736537E-04  0.1633094E+04  0.7818609E-02  0.8800471E-01
        1   -1    0    0  501    0  0.00000000000E+00  0.00000000000E+00  0.90611310772E+03  0.90611310773E+03  0.50400001928E-02 0.  1.
       -1   -1    0    0    0  501  0.00000000000E+00  0.00000000000E+00 -0.73583463673E+03  0.73583463675E+03  0.50400001928E-02 0. -1.
    10030    2    1    2    0    0  0.00000000000E+00  0.00000000000E+00  0.17027847099E+03  0.16419477445E+04  0.16330944975E+04 0.  0.
        3    1    3    3  502    0 -0.56274735753E+03 -0.15731194589E+03 -0.48831914550E+03  0.76150327299E+03  0.10100000352E+00 0. -1.
       -3    1    3    3    0  502  0.56274735753E+03  0.15731194589E+03  0.65859761649E+03  0.88044447148E+03  0.10100000352E+00 0.  1.
</event>
<event>
 5   0  0.3228393E-04  0.1596257E+04  0.7818609E-02  0.8822851E-01
        2   -1    0    0  501    0  0.00000000000E+00  0.00000000000E+00  0.99253472087E+03  0.99253472087E+03  0.25500000920E-02 0. -1.
       -2   -1    0    0    0  501  0.00000000000E+00  0.00000000000E+00 -0.64180015097E+03  0.64180015098E+03  0.25500000920E-02 0.  1.
    10030    2    1    2    0    0  0.00000000000E+00  0.00000000000E+00  0.35073456989E+03  0.16343348718E+04  0.15962567885E+04 0.  0.
        1    1    3    3  502    0 -0.64985575183E+03 -0.21065764982E+02  0.64928332780E+03  0.91887164742E+03  0.50400001928E-02 0. -1.
       -1    1    3    3    0  502  0.64985575183E+03  0.21065764982E+02 -0.29854875791E+03  0.71546322443E+03  0.50400001928E-02 0.  1.
</event>
<event>
 5   0  0.1761255E-04  0.1601623E+04  0.7818609E-02  0.8819551E-01
       -1   -1    0    0    0  501  0.00000000000E+00  0.00000000000E+00  0.92578458525E+03  0.92578458526E+03  0.50400001928E-02 0.  1.
        1   -1    0    0  501    0  0.00000000000E+00  0.00000000000E+00 -0.69270891973E+03  0.69270891975E+03  0.50400001928E-02 0. -1.
    10030    2    1    2    0    0  0.00000000000E+00  0.00000000000E+00  0.23307566552E+03  0.16184935050E+04  0.16016232266E+04 0.  0.
        2    1    3    3  502    0 -0.95298473107E+02 -0.37918688760E+03 -0.58970471437E+03  0.70754232726E+03  0.25500000920E-02 0. -1.
       -2    1    3    3    0  502  0.95298473107E+02  0.37918688760E+03  0.82278037989E+03  0.91095117775E+03  0.25500000920E-02 0.  1.
</event>
<event>
 5   0  0.1819811E-04  0.1607126E+04  0.7818609E-02  0.8816182E-01
       -1   -1    0    0    0  501  0.00000000000E+00  0.00000000000E+00  0.68233487014E+03  0.68233487016E+03  0.50400001928E-02 0. -1.
        1   -1    0    0  501    0  0.00000000000E+00  0.00000000000E+00 -0.94632975060E+03  0.94632975061E+03  0.50400001928E-02 0.  1.
    10030    2    1    2    0    0  0.00000000000E+00  0.00000000000E+00 -0.26399488046E+03  0.16286646208E+04  0.16071263641E+04 0.  0.
        1    1    3    3  502    0  0.35979779832E+03  0.59713081322E+03  0.27297559276E+03  0.74868907969E+03  0.50400001928E-02 0. -1.
       -1    1    3    3    0  502 -0.35979779832E+03 -0.59713081322E+03 -0.53697047322E+03  0.87997554109E+03  0.50400001928E-02 0.  1.
</event>
<event>
 5   0  0.3263294E-04  0.1577794E+04  0.7818609E-02  0.8834307E-01
       -2   -1    0    0    0  501  0.00000000000E+00  0.00000000000E+00  0.44011754610E+03  0.44011754611E+03  0.25500000920E-02 0.  1.
        2   -1    0    0  501    0  0.00000000000E+00  0.00000000000E+00 -0.14140734814E+04  0.14140734814E+04  0.25500000920E-02 0. -1.
    10030    2    1    2    0    0  0.00000000000E+00  0.00000000000E+00 -0.97395593528E+03  0.18541910275E+04  0.15777940938E+04 0.  0.
        4    1    3    3  502    0 -0.30835472276E+03  0.29094479778E+03 -0.12688259661E+04  0.13377789262E+04  0.12699999809E+01 0. -1.
       -4    1    3    3    0  502  0.30835472276E+03 -0.29094479778E+03  0.29487003077E+03  0.51641210128E+03  0.12699999809E+01 0.  1.
</event>
<event>
 5   0  0.3263294E-04  0.1545618E+04  0.7818609E-02  0.8854671E-01
       -2   -1    0    0    0  501  0.00000000000E+00  0.00000000000E+00  0.31802107140E+03  0.31802107141E+03  0.25500000920E-02 0. -1.
        2   -1    0    0  501    0  0.00000000000E+00  0.00000000000E+00 -0.18779701394E+04  0.18779701394E+04  0.25500000920E-02 0.  1.
    10030    2    1    2    0    0  0.00000000000E+00  0.00000000000E+00 -0.15599490680E+04  0.21959912109E+04  0.15456184210E+04 0.  0.
        4    1    3    3  502    0  0.17562769167E+03 -0.26589583365E+03 -0.17802784794E+04  0.18085736805E+04  0.12699999809E+01 0.  1.
       -4    1    3    3    0  502 -0.17562769167E+03  0.26589583365E+03  0.22032941139E+03  0.38741753039E+03  0.12699999809E+01 0. -1.
</event>
<event>
 5   0  0.3263294E-04  0.1602871E+04  0.7818609E-02  0.8818786E-01
       -2   -1    0    0    0  501  0.00000000000E+00  0.00000000000E+00  0.23900714733E+03  0.23900714734E+03  0.25500000920E-02 0. -1.
        2   -1    0    0  501    0  0.00000000000E+00  0.00000000000E+00 -0.26873627818E+04  0.26873627818E+04  0.25500000920E-02 0.  1.
    10030    2    1    2    0    0  0.00000000000E+00  0.00000000000E+00 -0.24483556344E+04  0.29263699291E+04  0.16028710645E+04 0.  0.
        4    1    3    3  502    0 -0.47744283344E+03  0.16442711282E+03 -0.87965127270E+02  0.51256942081E+03  0.12699999809E+01 0. -1.
       -4    1    3    3    0  502  0.47744283344E+03 -0.16442711282E+03 -0.23603905072E+04  0.24138005083E+04  0.12699999809E+01 0.  1.
</event>
<event>
 5   0  0.1819811E-04  0.1608889E+04  0.7818609E-02  0.8815106E-01
        1   -1    0    0  501    0  0.00000000000E+00  0.00000000000E+00  0.60368132898E+03  0.60368132900E+03  0.50400001928E-02 0.  1.
       -1   -1    0    0    0  501  0.00000000000E+00  0.00000000000E+00 -0.10719738841E+04  0.10719738841E+04  0.50400001928E-02 0. -1.
    10030    2    1    2    0    0  0.00000000000E+00  0.00000000000E+00 -0.46829255514E+03  0.16756552131E+04  0.16088885841E+04 0.  0.
        1    1    3    3  502    0 -0.63061686653E+03  0.49879115213E+03 -0.26091042505E+03  0.84530733802E+03  0.50400001928E-02 0.  1.
       -1    1    3    3    0  502  0.63061686653E+03 -0.49879115213E+03 -0.20738213009E+03  0.83034787511E+03  0.50400001928E-02 0. -1.
</event>
<event>
 5   0  0.3274900E-04  0.1602573E+04  0.7818609E-02  0.8818969E-01
        2   -1    0    0  501    0  0.00000000000E+00  0.00000000000E+00  0.16605676243E+04  0.16605676243E+04  0.25500000920E-02 0. -1.
       -2   -1    0    0    0  501  0.00000000000E+00  0.00000000000E+00 -0.38665116421E+03  0.38665116422E+03  0.25500000920E-02 0.  1.
    10030    2    1    2    0    0  0.00000000000E+00  0.00000000000E+00  0.12739164601E+04  0.20472187885E+04  0.16025734369E+04 0.  0.
        3    1    3    3  502    0 -0.31703074285E+03  0.21218954796E+03 -0.26319816579E+03  0.46347187709E+03  0.10100000352E+00 0.  1.
       -3    1    3    3    0  502  0.31703074285E+03 -0.21218954796E+03  0.15371146258E+04  0.15837469114E+04  0.10100000352E+00 0. -1.
</event>
<event>
 5   0  0.3228393E-04  0.1536274E+04  0.7818609E-02  0.8860683E-01
       -2   -1    0    0    0  501  0.00000000000E+00  0.00000000000E+00  0.72854731943E+03  0.72854731944E+03  0.25500000920E-02 0.  1.
        2   -1    0    0  501    0  0.00000000000E+00  0.00000000000E+00 -0.80987763904E+03  0.80987763904E+03  0.25500000920E-02 0. -1.
    10030    2    1    2    0    0  0.00000000000E+00  0.00000000000E+00 -0.81330319603E+02  0.15384249585E+04  0.15362736514E+04 0.  0.
        1    1    3    3  502    0  0.24607988703E+01  0.53666208766E+03  0.50966963901E+03  0.74011849917E+03  0.50400001928E-02 0.  1.
       -1    1    3    3    0  502 -0.24607988703E+01 -0.53666208766E+03 -0.59099995862E+03  0.79830645931E+03  0.50400001928E-02 0. -1.
</event>
<event>
 5   0  0.1219463E-04  0.1586131E+04  0.7818609E-02  0.8829114E-01
       -4   -1    0    0    0  501  0.00000000000E+00  0.00000000000E+00  0.14302679591E+04  0.14302685229E+04  0.12699999809E+01 0. -1.
        4   -1    0    0  501    0  0.00000000000E+00  0.00000000000E+00 -0.43974340525E+03  0.43974523916E+03  0.12699999809E+01 0.  1.
    10030    2    1    2    0    0  0.00000000000E+00  0.00000000000E+00  0.99052455385E+03  0.18700137621E+04  0.15861313245E+04 0.  0.
        3    1    3    3  502    0  0.19474793952E+03  0.24220502427E+03  0.13554824709E+04  0.13906555191E+04  0.10100000352E+00 0. -1.
       -3    1    3    3    0  502 -0.19474793952E+03 -0.24220502427E+03 -0.36495791703E+03  0.47935824301E+03  0.10100000352E+00 0.  1.
</event>
<event>
 5   0  0.1819811E-04  0.1592576E+04  0.7818609E-02  0.8825122E-01
        1   -1    0    0  501    0  0.00000000000E+00  0.00000000000E+00  0.16496559915E+04  0.16496559915E+04  0.50400001928E-02 0.  1.
       -1   -1    0    0    0  501  0.00000000000E+00  0.00000000000E+00 -0.38436797114E+03  0.38436797118E+03  0.50400001928E-02 0. -1.
    10030    2    1    2    0    0  0.00000000000E+00  0.00000000000E+00  0.12652880204E+04  0.20340239627E+04  0.15925764366E+04 0.  0.
        1    1    3    3  502    0  0.15737435761E+03  0.78056007950E+03  0.62517485522E+03  0.10123657075E+04  0.50400001928E-02 0.  1.
       -1    1    3    3    0  502 -0.15737435761E+03 -0.78056007950E+03  0.64011316514E+03  0.10216582552E+04  0.50400001928E-02 0. -1.
</event>
<event>
 5   0  0.1761255E-04  0.1591314E+04  0.7818609E-02  0.8825902E-01
       -1   -1    0    0    0  501  0.00000000000E+00  0.00000000000E+00  0.47258678327E+03  0.47258678330E+03  0.50400001928E-02 0. -1.
        1   -1    0    0  501    0  0.00000000000E+00  0.00000000000E+00 -0.13395853576E+04  0.13395853576E+04  0.50400001928E-02 0.  1.
    10030    2    1    2    0    0  0.00000000000E+00  0.00000000000E+00 -0.86699857433E+03  0.18121721409E+04  0.15913143437E+04 0.  0.
        2    1    3    3  502    0 -0.18683238126E+03  0.77154835793E+03 -0.37241590893E+03  0.87686191418E+03  0.25500000920E-02 0.  1.
       -2    1    3    3    0  502  0.18683238126E+03 -0.77154835793E+03 -0.49458266540E+03  0.93531022673E+03  0.25500000920E-02 0. -1.
</event>
<event>
 5   0  0.3274900E-04  0.1587559E+04  0.7818609E-02  0.8828228E-01
       -2   -1    0    0    0  501  0.00000000000E+00  0.00000000000E+00  0.48144709553E+03  0.48144709554E+03  0.25500000920E-02 0. -1.
        2   -1    0    0  501    0  0.00000000000E+00  0.00000000000E+00 -0.13087336152E+04  0.13087336152E+04  0.25500000920E-02 0.  1.
    10030    2    1    2    0    0  0.00000000000E+00  0.00000000000E+00 -0.82728651967E+03  0.17901807107E+04  0.15875591301E+04 0.  0.
        3    1    3    3  502    0 -0.72910893791E+03 -0.99913727900E+02 -0.74910803109E+03  0.10501168739E+04  0.10100000352E+00 0.  1.
       -3    1    3    3    0  502  0.72910893791E+03  0.99913727900E+02 -0.78178488579E+02  0.74006383687E+03  0.10100000352E+00 0. -1.
</event>
<event>
 5   0  0.1761255E-04  0.1602690E+04  0.7818609E-02  0.8818897E-01
        1   -1    0    0  501    0  0.00000000000E+00  0.00000000000E+00  0.10449616658E+04  0.10449616658E+04  0.50400001928E-02 0. -1.
       -1   -1    0    0    0  501  0.00000000000E+00  0.00000000000E+00 -0.61452360483E+03  0.61452360485E+03  0.50400001928E-02 0.  1.
    10030    2    1    2    0    0  0.00000000000E+00  0.00000000000E+00  0.43043806092E+03  0.16594852706E+04  0.16026897514E+04 0.  0.
        2    1    3    3  502    0 -0.57306628425E+03 -0.48202934263E+03  0.51062986858E+03  0.90636643582E+03  0.25500000920E-02 0.  1.
       -2    1    3    3    0  502  0.57306628425E+03  0.48202934263E+03 -0.80191807659E+02  0.75311883479E+03  0.25500000920E-02 0. -1.
</event>
<event>
 5   0  0.3210612E-04  0.1599724E+04  0.7818609E-02  0.8820717E-01
       -2   -1    0    0    0  501  0.00000000000E+00  0.00000000000E+00  0.55912656492E+03  0.55912656493E+03  0.25500000920E-02 0.  1.
        2   -1    0    0  501    0  0.00000000000E+00  0.00000000000E+00 -0.11442482299E+04  0.11442482299E+04  0.25500000920E-02 0. -1.
    10030    2    1    2    0    0  0.00000000000E+00  0.00000000000E+00 -0.58512166494E+03  0.17033747948E+04  0.15997244540E+04 0.  0.
        2    1    3    3  502    0  0.29046390612E+03  0.72885522718E+03 -0.45813645912E+03  0.90856383272E+03  0.25500000920E-02 0.  1.
       -2    1    3    3    0  502 -0.29046390612E+03 -0.72885522718E+03 -0.12698520583E+03  0.79481096208E+03  0.25500000920E-02 0. -1.
</event>
<event>
 5   0  0.1736537E-04  0.1595237E+04  0.7818609E-02  0.8823479E-01
        1   -1    0    0  501    0  0.00000000000E+00  0.00000000000E+00  0.19886187632E+04  0.19886187632E+04  0.50400001928E-02 0. -1.
       -1   -1    0    0    0  501  0.00000000000E+00  0.00000000000E+00 -0.31991833097E+03  0.31991833101E+03  0.50400001928E-02 0.  1.
    10030    2    1    2    0    0  0.00000000000E+00  0.00000000000E+00  0.16687004322E+04  0.23085370942E+04  0.15952374064E+04 0.  0.
        3    1    3    3  502    0  0.42530207783E+03  0.32689021897E+03  0.16886018647E+04  0.17717548759E+04  0.10100000352E+00 0.  1.
       -3    1    3    3    0  502 -0.42530207783E+03 -0.32689021897E+03 -0.19901432478E+02  0.53678221829E+03  0.10100000352E+00 0. -1.
</event>
<event>
 5   0  0.1819811E-04  0.1607045E+04  0.7818609E-02  0.8816232E-01
       -1   -1    0    0    0  501  0.00000000000E+00  0.00000000000E+00  0.71425301003E+03  0.71425301005E+03  0.50400001928E-02 0. -1.
        1   -1    0    0  501    0  0.00000000000E+00  0.00000000000E+00 -0.90394870330E+03  0.90394870331E+03  0.50400001928E-02 0.  1.
    10030    2    1    2    0    0  0.00000000000E+00  0.00000000000E+00 -0.18969569327E+03  0.16182017134E+04  0.16070445946E+04 0.  0.
        1    1    3    3  502    0  0.54234772500E+03  0.46787459997E+03 -0.46151931919E+03  0.85208437265E+03  0.50400001928E-02 0.  1.
       -1    1    3    3    0  502 -0.54234772500E+03 -0.46787459997E+03  0.27182362592E+03  0.76611734071E+03  0.50400001928E-02 0. -1.
</event>
<event>
 5   0  0.3263294E-04  0.1608915E+04  0.7818609E-02  0.8815090E-01
        2   -1    0    0  501    0  0.00000000000E+00  0.00000000000E+00  0.10137809305E+04  0.10137809305E+04  0.25500000920E-02 0. -1.
       -2   -1    0    0    0  501  0.00000000000E+00  0.00000000000E+00 -0.63835472372E+03  0.63835472373E+03  0.25500000920E-02 0.  1.
    10030    2    1    2    0    0  0.00000000000E+00  0.00000000000E+00  0.37542620676E+03  0.16521356542E+04  0.16089149708E+04 0.  0.
        4    1    3    3  502    0  0.38973454026E+02 -0.76144476451E+03 -0.75759222888E+02  0.76619718889E+03  0.12699999809E+01 0.  1.
       -4    1    3    3    0  502 -0.38973454026E+02  0.76144476451E+03  0.45118542965E+03  0.88593846532E+03  0.12699999809E+01 0. -1.
</event>
<event>
 5   0  0.3380454E-04  0.1588487E+04  0.7818609E-02  0.8827653E-01
       -2   -1    0    0    0  501  0.00000000000E+00  0.00000000000E+00  0.65622192153E+03  0.65622192154E+03  0.25500000920E-02 0. -1.
        2   -1    0    0  501    0  0.00000000000E+00  0.00000000000E+00 -0.96129431576E+03  0.96129431577E+03  0.25500000920E-02 0.  1.
    10030    2    1    2    0    0  0.00000000000E+00  0.00000000000E+00 -0.30507239423E+03  0.16175162373E+04  0.15884865792E+04 0.  0.
        5    1    3    3  502    0 -0.31592849737E+03  0.72563447915E+03 -0.84653822845E+02  0.79595513222E+03  0.46999998093E+01 0. -1.
       -5    1    3    3    0  502  0.31592849737E+03 -0.72563447915E+03 -0.22041857138E+03  0.82156110509E+03  0.46999998093E+01 0.  1.
</event>
<event>
 5   0  0.1761255E-04  0.1611376E+04  0.7818609E-02  0.8813590E-01
       -1   -1    0    0    0  501  0.00000000000E+00  0.00000000000E+00  0.62528622266E+03  0.62528622269E+03  0.50400001928E-02 0. -1.
        1   -1    0    0  501    0  0.00000000000E+00  0.00000000000E+00 -0.10381378472E+04  0.10381378472E+04  0.50400001928E-02 0.  1.
    10030    2    1    2    0    0  0.00000000000E+00  0.00000000000E+00 -0.41285162455E+03  0.16634240699E+04  0.16113761735E+04 0.  0.
        2    1    3    3  502    0 -0.40155450390E+03  0.68344262206E+03 -0.57568771464E+02  0.79476663286E+03  0.25500000920E-02 0. -1.
       -2    1    3    3    0  502  0.40155450390E+03 -0.68344262206E+03 -0.35528285309E+03  0.86865743706E+03  0.25500000920E-02 0.  1.
</event>
<event>
 5   0  0.1761255E-04  0.1601310E+04  0.7818609E-02  0.8819744E-01
       -1   -1    0    0    0  501  0.00000000000E+00  0.00000000000E+00  0.77632976560E+03  0.77632976561E+03  0.50400001928E-02 0.  1.
        1   -1    0    0  501    0  0.00000000000E+00  0.00000000000E+00 -0.82574239723E+03  0.82574239724E+03  0.50400001928E-02 0. -1.
    10030    2    1    2    0    0  0.00000000000E+00  0.00000000000E+00 -0.49412631631E+02  0.16020721629E+04  0.16013099659E+04 0.  0.
        2    1    3    3  502    0 -0.50535208270E+03 -0.26900827260E+03  0.53529417328E+03  0.78376401434E+03  0.25500000920E-02 0.  1.
       -2    1    3    3    0  502  0.50535208270E+03  0.26900827260E+03 -0.58470680491E+03  0.81830814852E+03  0.25500000920E-02 0. -1.
</event>
<event>
 5   0  0.1819811E-04  0.1597779E+04  0.7818609E-02  0.8821914E-01
       -1   -1    0    0    0  501  0.00000000000E+00  0.00000000000E+00  0.22384298061E+04  0.22384298061E+04  0.50400001928E-02 0.  1.
        1   -1    0    0  501    0  0.00000000000E+00  0.00000000000E+00 -0.28512145535E+03  0.28512145539E+03  0.50400001928E-02 0. -1.
    10030    2    1    2    0    0  0.00000000000E+00  0.00000000000E+00  0.19533083508E+04  0.25235512615E+04  0.15977789135E+04 0.  0.
        1    1    3    3  502    0 -0.44110038370E+02  0.22677003093E+03  0.21845213700E+04  0.21967029745E+04  0.50400001928E-02 0.  1.
       -1    1    3    3    0  502  0.44110038370E+02 -0.22677003093E+03 -0.23121301922E+03  0.32684828697E+03  0.50400001928E-02 0. -1.
</event>
<event>
 5   0  0.1764099E-04  0.1607196E+04  0.7818609E-02  0.8816139E-01
       -1   -1    0    0    0  501  0.00000000000E+00  0.00000000000E+00  0.45659995408E+03  0.45659995410E+03  0.50400001928E-02 0.  1.
        1   -1    0    0  501    0  0.00000000000E+00  0.00000000000E+00 -0.14143007436E+04  0.14143007436E+04  0.50400001928E-02 0. -1.
    10030    2    1    2    0    0  0.00000000000E+00  0.00000000000E+00 -0.95770078949E+03  0.18709006977E+04  0.16071958868E+04 0.  0.
        5    1    3    3  502    0 -0.13136940970E+03  0.45099072190E+03  0.28012194851E+03  0.54693779270E+03  0.46999998093E+01 0.  1.
       -5    1    3    3    0  502  0.13136940970E+03 -0.45099072190E+03 -0.12378227380E+04  0.13239629050E+04  0.46999998093E+01 0. -1.
</event>
<event>
 5   0  0.1736537E-04  0.1600487E+04  0.7818609E-02  0.8820249E-01
        1   -1    0    0  501    0  0.00000000000E+00  0.00000000000E+00  0.60348353822E+03  0.60348353824E+03  0.50400001928E-02 0. -1.
       -1   -1    0    0    0  501  0.00000000000E+00  0.00000000000E+00 -0.10611545944E+04  0.10611545944E+04  0.50400001928E-02 0.  1.
    10030    2    1    2    0    0  0.00000000000E+00  0.00000000000E+00 -0.45767105621E+03  0.16646381327E+04  0.16004865876E+04 0.  0.
        3    1    3    3  502    0  0.49813075726E+03 -0.61996174903E+03 -0.13637635973E+03  0.80689859542E+03  0.10100000352E+00 0. -1.
       -3    1    3    3    0  502 -0.49813075726E+03  0.61996174903E+03 -0.32129469648E+03  0.85773953726E+03  0.10100000352E+00 0.  1.
</event>
<event>
 5   0  0.3228393E-04  0.1594495E+04  0.7818609E-02  0.8823937E-01
       -2   -1    0    0    0  501  0.00000000000E+00  0.00000000000E+00  0.54880843315E+03  0.54880843316E+03  0.25500000920E-02 0. -1.
        2   -1    0    0  501    0  0.00000000000E+00  0.00000000000E+00 -0.11581517797E+04  0.11581517797E+04  0.25500000920E-02 0.  1.
    10030    2    1    2    0    0  0.00000000000E+00  0.00000000000E+00 -0.60934334654E+03  0.17069602128E+04  0.15944948587E+04 0.  0.
        1    1    3    3  502    0 -0.41592731263E+03 -0.67063089427E+03 -0.18326100373E+03  0.81013944557E+03  0.50400001928E-02 0.  1.
       -1    1    3    3    0  502  0.41592731263E+03  0.67063089427E+03 -0.42608234280E+03  0.89682076728E+03  0.50400001928E-02 0. -1.
</event>
<event>
 5   0  0.1764099E-04  0.1599185E+04  0.7818609E-02  0.8821049E-01
        1   -1    0    0  501    0  0.00000000000E+00  0.00000000000E+00  0.11839184626E+04  0.11839184626E+04  0.50400001928E-02 0. -1.
       -1   -1    0    0    0  501  0.00000000000E+00  0.00000000000E+00 -0.54002689967E+03  0.54002689969E+03  0.50400001928E-02 0.  1.
    10030    2    1    2    0    0  0.00000000000E+00  0.00000000000E+00  0.64389156292E+03  0.17239453623E+04  0.15991845633E+04 0.  0.
        5    1    3    3  502    0  0.73111254953E+03  0.16740913097E+03  0.62064424013E+03  0.97353620375E+03  0.46999998093E+01 0. -1.
       -5    1    3    3    0  502 -0.73111254953E+03 -0.16740913097E+03  0.23247322794E+02  0.75040915854E+03  0.46999998093E+01 0.  1.
</event>
<event>
 5   0  0.1819811E-04  0.1596850E+04  0.7818609E-02  0.8822486E-01
       -1   -1    0    0    0  501  0.00000000000E+00  0.00000000000E+00  0.63173476270E+03  0.63173476272E+03  0.50400001928E-02 0. -1.
        1   -1    0    0  501    0  0.00000000000E+00  0.00000000000E+00 -0.10090980303E+04  0.10090980303E+04  0.50400001928E-02 0.  1.
    10030    2    1    2    0    0  0.00000000000E+00  0.00000000000E+00 -0.37736326758E+03  0.16408327930E+04  0.15968497797E+04 0.  0.
        1    1    3    3  502    0 -0.67973529089E+03 -0.37298890663E+03  0.71497258579E+01  0.77537855835E+03  0.50400001928E-02 0. -1.
       -1    1    3    3    0  502  0.67973529089E+03  0.37298890663E+03 -0.38451299344E+03  0.86545423466E+03  0.50400001928E-02 0.  1.
</event>
<event>
 5   0  0.1819811E-04  0.1619425E+04  0.7818609E-02  0.8808703E-01
        1   -1    0    0  501    0  0.00000000000E+00  0.00000000000E+00  0.40066819024E+03  0.40066819027E+03  0.50400001928E-02 0. -1.
       -1   -1    0    0    0  501  0.00000000000E+00  0.00000000000E+00 -0.16363521160E+04  0.16363521161E+04  0.50400001928E-02 0.  1.
    10030    2    1    2    0    0  0.00000000000E+00  0.00000000000E+00 -0.12356839258E+04  0.20370203063E+04  0.16194248868E+04 0.  0.
        1    1    3    3  502    0  0.31673258102E+03 -0.92860731232E+01  0.31944034077E+03  0.44994209668E+03  0.50400001928E-02 0. -1.
       -1    1    3    3    0  502 -0.31673258102E+03  0.92860731232E+01 -0.15551242666E+04  0.15870782096E+04  0.50400001928E-02 0.  1.
</event>
<event>
 5   0  0.1787688E-04  0.1608949E+04  0.7818609E-02  0.8815069E-01
        1   -1    0    0  501    0  0.00000000000E+00  0.00000000000E+00  0.10679968576E+04  0.10679968576E+04  0.50400001928E-02 0. -1.
       -1   -1    0    0    0  501  0.00000000000E+00  0.00000000000E+00 -0.60597473223E+03  0.60597473225E+03  0.50400001928E-02 0.  1.
    10030    2    1    2    0    0  0.00000000000E+00  0.00000000000E+00  0.46202212541E+03  0.16739715899E+04  0.16089488617E+04 0.  0.
        4    1    3    3  502    0  0.53372431534E+03  0.54476035593E+03 -0.35367234209E+02  0.76346443554E+03  0.12699999809E+01 0. -1.
       -4    1    3    3    0  502 -0.53372431534E+03 -0.54476035593E+03  0.49738935962E+03  0.91050715436E+03  0.12699999809E+01 0.  1.
</event>
<event>
 5   0  0.1736537E-04  0.1602766E+04  0.7818609E-02  0.8818851E-01
       -1   -1    0    0    0  501  0.00000000000E+00  0.00000000000E+00  0.11640183714E+04  0.11640183714E+04  0.50400001928E-02 0.  1.
        1   -1    0    0  501    0  0.00000000000E+00  0.00000000000E+00 -0.55172209079E+03  0.55172209081E+03  0.50400001928E-02 0. -1.
    10030    2    1    2    0    0  0.00000000000E+00  0.00000000000E+00  0.61229628062E+03  0.17157404622E+04  0.16027659213E+04 0.  0.
        3    1    3    3  502    0 -0.73805068976E+03  0.80399316154E+02  0.62912989092E+03  0.97313272504E+03  0.10100000352E+00 0.  1.
       -3    1    3    3    0  502  0.73805068976E+03 -0.80399316154E+02 -0.16833610302E+02  0.74260773719E+03  0.10100000352E+00 0. -1.
</event>
<event>
 5   0  0.3228393E-04  0.1598565E+04  0.7818609E-02  0.8821430E-01
       -2   -1    0    0    0  501  0.00000000000E+00  0.00000000000E+00  0.10806487341E+04  0.10806487341E+04  0.25500000920E-02 0. -1.
        2   -1    0    0  501    0  0.00000000000E+00  0.00000000000E+00 -0.59117463144E+03  0.59117463145E+03  0.25500000920E-02 0.  1.
    10030    2    1    2    0    0  0.00000000000E+00  0.00000000000E+00  0.48947410262E+03  0.16718233655E+04  0.15985645024E+04 0.  0.
        1    1    3    3  502    0  0.26826099915E+03 -0.33824637886E+03  0.94822836509E+03  0.10418788840E+04  0.50400001928E-02 0. -1.
       -1    1    3    3    0  502 -0.26826099915E+03  0.33824637886E+03 -0.45875426247E+03  0.62994448155E+03  0.50400001928E-02 0.  1.
</event>
<event>
 5   0  0.3274900E-04  0.1598183E+04  0.7818609E-02  0.8821665E-01
        2   -1    0    0  501    0  0.00000000000E+00  0.00000000000E+00  0.62492929095E+03  0.62492929096E+03  0.25500000920E-02 0. -1.
       -2   -1    0    0    0  501  0.00000000000E+00  0.00000000000E+00 -0.10217906433E+04  0.10217906433E+04  0.25500000920E-02 0.  1.
    10030    2    1    2    0    0  0.00000000000E+00  0.00000000000E+00 -0.39686135232E+03  0.16467199342E+04  0.15981825956E+04 0.  0.
        3    1    3    3  502    0 -0.51921850773E+02  0.61305785396E+03  0.32696836340E+03  0.69673820891E+03  0.10100000352E+00 0. -1.
       -3    1    3    3    0  502  0.51921850773E+02 -0.61305785396E+03 -0.72382971572E+03  0.94998172533E+03  0.10100000352E+00 0.  1.
</event>
<event>
 5   0  0.1736537E-04  0.1604355E+04  0.7818609E-02  0.8817877E-01
        1   -1    0    0  501    0  0.00000000000E+00  0.00000000000E+00  0.92757463993E+03  0.92757463994E+03  0.50400001928E-02 0. -1.
       -1   -1    0    0    0  501  0.00000000000E+00  0.00000000000E+00 -0.69373290155E+03  0.69373290157E+03  0.50400001928E-02 0.  1.
    10030    2    1    2    0    0  0.00000000000E+00  0.00000000000E+00  0.23384173838E+03  0.16213075415E+04  0.16043553801E+04 0.  0.
        3    1    3    3  502    0 -0.21570810865E+03  0.58953950555E+03  0.62159957981E+03  0.88344375291E+03  0.10100000352E+00 0. -1.
       -3    1    3    3    0  502  0.21570810865E+03 -0.58953950555E+03 -0.38775784144E+03  0.73786378860E+03  0.10100000352E+00 0.  1.
</event>
<event>
 5   0  0.3380454E-04  0.1599959E+04  0.7818609E-02  0.8820573E-01
       -2   -1    0    0    0  501  0.00000000000E+00  0.00000000000E+00  0.58432916476E+03  0.58432916477E+03  0.25500000920E-02 0.  1.
        2   -1    0    0  501    0  0.00000000000E+00  0.00000000000E+00 -0.10952164085E+04  0.10952164085E+04  0.25500000920E-02 0. -1.
    10030    2    1    2    0    0  0.00000000000E+00  0.00000000000E+00 -0.51088724372E+03  0.16795455732E+04  0.15999586110E+04 0.  0.
        5    1    3    3  502    0 -0.29325980866E+03  0.66360178736E+03  0.98330954090E+02  0.73216098919E+03  0.46999998093E+01 0.  1.
       -5    1    3    3    0  502  0.29325980866E+03 -0.66360178736E+03 -0.60921819781E+03  0.94738458406E+03  0.46999998093E+01 0. -1.
</event>
<event>
 5   0  0.1787688E-04  0.1614411E+04  0.7818609E-02  0.8811743E-01
       -1   -1    0    0    0  501  0.00000000000E+00  0.00000000000E+00  0.84405199115E+03  0.84405199117E+03  0.50400001928E-02 0. -1.
        1   -1    0    0  501    0  0.00000000000E+00  0.00000000000E+00 -0.77196753749E+03  0.77196753750E+03  0.50400001928E-02 0.  1.
    10030    2    1    2    0    0  0.00000000000E+00  0.00000000000E+00  0.72084453668E+02  0.16160195287E+04  0.16144110222E+04 0.  0.
        4    1    3    3  502    0 -0.28896835705E+02  0.43663489718E+03  0.71502038780E+03  0.83829638459E+03  0.12699999809E+01 0. -1.
       -4    1    3    3    0  502  0.28896835705E+02 -0.43663489718E+03 -0.64293593413E+03  0.77772314408E+03  0.12699999809E+01 0.  1.
</event>
<event>
 5   0  0.1761255E-04  0.1602733E+04  0.7818609E-02  0.8818871E-01
        1   -1    0    0  501    0  0.00000000000E+00  0.00000000000E+00  0.16056330876E+04  0.16056330876E+04  0.50400001928E-02 0.  1.
       -1   -1    0    0    0  501  0.00000000000E+00  0.00000000000E+00 -0.39995938304E+03  0.39995938307E+03  0.50400001928E-02 0. -1.
    10030    2    1    2    0    0  0.00000000000E+00  0.00000000000E+00  0.12056737045E+04  0.20055924706E+04  0.16027326903E+04 0.  0.
        2    1    3    3  502    0 -0.54565661420E+03  0.57739603033E+03  0.47123168119E+03  0.92368101303E+03  0.25500000920E-02 0. -1.
       -2    1    3    3    0  502  0.54565661420E+03 -0.57739603033E+03  0.73444202333E+03  0.10819114576E+04  0.25500000920E-02 0.  1.
</event>
<event>
 5   0  0.1819811E-04  0.1598254E+04  0.7818609E-02  0.8821621E-01
       -1   -1    0    0    0  501  0.00000000000E+00  0.00000000000E+00  0.56467961523E+03  0.56467961525E+03  0.50400001928E-02 0.  1.
        1   -1    0    0  501    0  0.00000000000E+00  0.00000000000E+00 -0.11309136599E+04  0.11309136600E+04  0.50400001928E-02 0. -1.
    10030    2    1    2    0    0  0.00000000000E+00  0.00000000000E+00 -0.56623404472E+03  0.16955932752E+04  0.15982539102E+04 0.  0.
        1    1    3    3  502    0 -0.39548008103E+03 -0.22521484198E+03  0.41375827923E+03  0.61507896501E+03  0.50400001928E-02 0.  1.
       -1    1    3    3    0  502  0.39548008103E+03  0.22521484198E+03 -0.97999232395E+03  0.10805143102E+04  0.50400001928E-02 0. -1.
</event>
<event>
 5   0  0.1764099E-04  0.1596842E+04  0.7818609E-02  0.8822491E-01
        1   -1    0    0  501    0  0.00000000000E+00  0.00000000000E+00  0.23141686384E+04  0.23141686384E+04  0.50400001928E-02 0. -1.
       -1   -1    0    0    0  501  0.00000000000E+00  0.00000000000E+00 -0.27546645075E+03  0.27546645080E+03  0.50400001928E-02 0.  1.
    10030    2    1    2    0    0  0.00000000000E+00  0.00000000000E+00  0.20387021877E+04  0.25896350892E+04  0.15968416594E+04 0.  0.
        5    1    3    3  502    0  0.11323326228E+02  0.37249391176E+02 -0.27390372097E+03  0.27669671704E+03  0.46999998093E+01 0.  1.
       -5    1    3    3    0  502 -0.11323326228E+02 -0.37249391176E+02  0.23126059086E+04  0.23129383722E+04  0.46999998093E+01 0. -1.
</event>
<event>
 5   0  0.3380454E-04  0.1657113E+04  0.7818609E-02  0.8786210E-01
       -2   -1    0    0    0  501  0.00000000000E+00  0.00000000000E+00  0.58014898534E+03  0.58014898534E+03  0.25500000920E-02 0.  1.
        2   -1    0    0  501    0  0.00000000000E+00  0.00000000000E+00 -0.11833261667E+04  0.11833261667E+04  0.25500000920E-02 0. -1.
    10030    2    1    2    0    0  0.00000000000E+00  0.00000000000E+00 -0.60317718138E+03  0.17634751521E+04  0.16571125188E+04 0.  0.
        5    1    3    3  502    0  0.63460956625E+03 -0.43975414562E+03 -0.62150048554E+03  0.99115990319E+03  0.46999998093E+01 0.  1.
       -5    1    3    3    0  502 -0.63460956625E+03  0.43975414562E+03  0.18323304153E+02  0.77231524888E+03  0.46999998093E+01 0. -1.
</event>
<event>
 5   0  0.3263294E-04  0.1575751E+04  0.7818609E-02  0.8835585E-01
        2   -1    0    0  501    0  0.00000000000E+00  0.00000000000E+00  0.20710424187E+04  0.20710424187E+04  0.25500000920E-02 0. -1.
       -2   -1    0    0    0  501  0.00000000000E+00  0.00000000000E+00 -0.29972731411E+03  0.29972731412E+03  0.25500000920E-02 0.  1.
    10030    2    1    2    0    0  0.00000000000E+00  0.00000000000E+00  0.17713151046E+04  0.23707697328E+04  0.15757512260E+04 0.  0.
        4    1    3    3  502    0  0.33532233178E+03  0.21246929460E+03 -0.13826763953E+03  0.42036153532E+03  0.12699999809E+01 0.  1.
       -4    1    3    3    0  502 -0.33532233178E+03 -0.21246929460E+03  0.19095827441E+04  0.19504081975E+04  0.12699999809E+01 0. -1.
</event>
<event>
 5   0  0.1764099E-04  0.1588377E+04  0.7818609E-02  0.8827721E-01
       -1   -1    0    0    0  501  0.00000000000E+00  0.00000000000E+00  0.63017891385E+03  0.63017891387E+03  0.50400001928E-02 0. -1.
        1   -1    0    0  501    0  0.00000000000E+00  0.00000000000E+00 -0.10008826752E+04  0.10008826752E+04  0.50400001928E-02 0.  1.
    10030    2    1    2    0    0  0.00000000000E+00  0.00000000000E+00 -0.37070376135E+03  0.16310615891E+04  0.15883767276E+04 0.  0.
        5    1    3    3  502    0 -0.19849739454E+03 -0.64899911733E+03  0.23817825451E+03  0.71927188243E+03  0.46999998093E+01 0. -1.
       -5    1    3    3    0  502  0.19849739454E+03  0.64899911733E+03 -0.60888201585E+03  0.91178970666E+03  0.46999998093E+01 0.  1.
</event>
<event>
 5   0  0.1219463E-04  0.1503051E+04  0.7818609E-02  0.8882427E-01
       -3   -1    0    0    0  501  0.00000000000E+00  0.00000000000E+00  0.52744762789E+03  0.52744763756E+03  0.10100000352E+00 0. -1.
        3   -1    0    0  501    0  0.00000000000E+00  0.00000000000E+00 -0.10707994686E+04  0.10707994733E+04  0.10100000352E+00 0.  1.
    10030    2    1    2    0    0  0.00000000000E+00  0.00000000000E+00 -0.54335184067E+03  0.15982471109E+04  0.15030510985E+04 0.  0.
        1    1    3    3  502    0  0.67203462246E+03 -0.31468565338E+03 -0.14526393952E+03  0.75614760886E+03  0.50400001928E-02 0.  1.
       -1    1    3    3    0  502 -0.67203462246E+03  0.31468565338E+03 -0.39808790115E+03  0.84209950202E+03  0.50400001928E-02 0. -1.
</event>
<event>
 5   0  0.3228393E-04  0.1682543E+04  0.7818609E-02  0.8771384E-01
        2   -1    0    0  501    0  0.00000000000E+00  0.00000000000E+00  0.14080011116E+04  0.14080011116E+04  0.25500000920E-02 0.  1.
       -2   -1    0    0    0  501  0.00000000000E+00  0.00000000000E+00 -0.50265411711E+03  0.50265411712E+03  0.25500000920E-02 0. -1.
    10030    2    1    2    0    0  0.00000000000E+00  0.00000000000E+00  0.90534699453E+03  0.19106552288E+04  0.16825427848E+04 0.  0.
        1    1    3    3  502    0  0.44816236080E+03  0.11915613852E+03 -0.34440854802E+03  0.57763737324E+03  0.50400001928E-02 0. -1.
       -1    1    3    3    0  502 -0.44816236080E+03 -0.11915613852E+03  0.12497555425E+04  0.13330178555E+04  0.50400001928E-02 0.  1.
</event>
<event>
 5   0  0.3263294E-04  0.1597853E+04  0.7818609E-02  0.8821868E-01
       -2   -1    0    0    0  501  0.00000000000E+00  0.00000000000E+00  0.55061241720E+03  0.55061241721E+03  0.25500000920E-02 0.  1.
        2   -1    0    0  501    0  0.00000000000E+00  0.00000000000E+00 -0.11592250406E+04  0.11592250406E+04  0.25500000920E-02 0. -1.
    10030    2    1    2    0    0  0.00000000000E+00  0.00000000000E+00 -0.60861262335E+03  0.17098374578E+04  0.15978531868E+04 0.  0.
        4    1    3    3  502    0 -0.23193963677E+03 -0.46848452381E+03  0.34219491081E+03  0.62479813863E+03  0.12699999809E+01 0.  1.
       -4    1    3    3    0  502  0.23193963677E+03  0.46848452381E+03 -0.95080753416E+03  0.10850393191E+04  0.12699999809E+01 0. -1.
</event>
<event>
 5   0  0.3263294E-04  0.1600944E+04  0.7818609E-02  0.8819969E-01
       -2   -1    0    0    0  501  0.00000000000E+00  0.00000000000E+00  0.34589657876E+03  0.34589657877E+03  0.25500000920E-02 0. -1.
        2   -1    0    0  501    0  0.00000000000E+00  0.00000000000E+00 -0.18524469869E+04  0.18524469869E+04  0.25500000920E-02 0.  1.
    10030    2    1    2    0    0  0.00000000000E+00  0.00000000000E+00 -0.15065504081E+04  0.21983435657E+04  0.16009435657E+04 0.  0.
        4    1    3    3  502    0 -0.62472640115E+03  0.43427442896E+03 -0.41170417198E+03  0.86508918272E+03  0.12699999809E+01 0.  1.
       -4    1    3    3    0  502  0.62472640115E+03 -0.43427442896E+03 -0.10948462362E+04  0.13332543829E+04  0.12699999809E+01 0. -1.
</event>
<event>
 5   0  0.1787688E-04  0.1597029E+04  0.7818609E-02  0.8822375E-01
        1   -1    0    0  501    0  0.00000000000E+00  0.00000000000E+00  0.11098999691E+04  0.11098999691E+04  0.50400001928E-02 0. -1.
       -1   -1    0    0    0  501  0.00000000000E+00  0.00000000000E+00 -0.57448916463E+03  0.57448916466E+03  0.50400001928E-02 0.  1.
    10030    2    1    2    0    0  0.00000000000E+00  0.00000000000E+00  0.53541080443E+03  0.16843891337E+04  0.15970291244E+04 0.  0.
        4    1    3    3  502    0  0.60370363551E+03 -0.32424412505E+03  0.70004501155E+03  0.97962082626E+03  0.12699999809E+01 0. -1.
       -4    1    3    3    0  502 -0.60370363551E+03  0.32424412505E+03 -0.16463420712E+03  0.70476830747E+03  0.12699999809E+01 0.  1.
</event>
<event>
 5   0  0.1736537E-04  0.1604150E+04  0.7818609E-02  0.8818002E-01
        1   -1    0    0  501    0  0.00000000000E+00  0.00000000000E+00  0.74130546477E+03  0.74130546479E+03  0.50400001928E-02 0.  1.
       -1   -1    0    0    0  501  0.00000000000E+00  0.00000000000E+00 -0.86782637678E+03  0.86782637680E+03  0.50400001928E-02 0. -1.
    10030    2    1    2    0    0  0.00000000000E+00  0.00000000000E+00 -0.12652091201E+03  0.16091318416E+04  0.16041501621E+04 0.  0.
        3    1    3    3  502    0 -0.32894903219E+03  0.72300073473E+03  0.48381612910E+02  0.79578786047E+03  0.10100000352E+00 0.  1.
       -3    1    3    3    0  502  0.32894903219E+03 -0.72300073473E+03 -0.17490252492E+03  0.81334398112E+03  0.10100000352E+00 0. -1.
</event>
<event>
 5   0  0.1736537E-04  0.1595568E+04  0.7818609E-02  0.8823275E-01
        1   -1    0    0  501    0  0.00000000000E+00  0.00000000000E+00  0.10131350714E+04  0.10131350714E+04  0.50400001928E-02 0. -1.
       -1   -1    0    0    0  501  0.00000000000E+00  0.00000000000E+00 -0.62820804827E+03  0.62820804829E+03  0.50400001928E-02 0.  1.
    10030    2    1    2    0    0  0.00000000000E+00  0.00000000000E+00  0.38492702314E+03  0.16413431197E+04  0.15955683700E+04 0.  0.
        3    1    3    3  502    0 -0.12228507025E+03  0.67932337891E+03 -0.21904501086E+03  0.72416477304E+03  0.10100000352E+00 0.  1.
       -3    1    3    3    0  502  0.12228507025E+03 -0.67932337891E+03  0.60397203399E+03  0.91717834666E+03  0.10100000352E+00 0. -1.
</event>
<event>
 5   0  0.3263294E-04  0.1596469E+04  0.7818609E-02  0.8822720E-01
       -2   -1    0    0    0  501  0.00000000000E+00  0.00000000000E+00  0.22143308990E+03  0.22143308991E+03  0.25500000920E-02 0. -1.
        2   -1    0    0  501    0  0.00000000000E+00  0.00000000000E+00 -0.28775205406E+04  0.28775205406E+04  0.25500000920E-02 0.  1.
    10030    2    1    2    0    0  0.00000000000E+00  0.00000000000E+00 -0.26560874507E+04  0.30989536305E+04  0.15964689343E+04 0.  0.
        4    1    3    3  502    0  0.19040773057E+03  0.14819654518E+03  0.14894994833E+03  0.28355778930E+03  0.12699999809E+01 0. -1.
       -4    1    3    3    0  502 -0.19040773057E+03 -0.14819654518E+03 -0.28050373990E+04  0.28153958412E+04  0.12699999809E+01 0.  1.
</event>
<event>
 5   0  0.1787688E-04  0.1601032E+04  0.7818609E-02  0.8819914E-01
        1   -1    0    0  501    0  0.00000000000E+00  0.00000000000E+00  0.69433285099E+03  0.69433285101E+03  0.50400001928E-02 0.  1.
       -1   -1    0    0    0  501  0.00000000000E+00  0.00000000000E+00 -0.92293767977E+03  0.92293767979E+03  0.50400001928E-02 0. -1.
    10030    2    1    2    0    0  0.00000000000E+00  0.00000000000E+00 -0.22860482879E+03  0.16172705308E+04  0.16010321052E+04 0.  0.
        4    1    3    3  502    0 -0.57234543438E+03  0.53193493142E+03  0.61503793012E+02  0.78378466237E+03  0.12699999809E+01 0.  1.
       -4    1    3    3    0  502  0.57234543438E+03 -0.53193493142E+03 -0.29010862180E+03  0.83348586842E+03  0.12699999809E+01 0. -1.
</event>
<event>
 5   0  0.3228393E-04  0.1575290E+04  0.7818609E-02  0.8835874E-01
        2   -1    0    0  501    0  0.00000000000E+00  0.00000000000E+00  0.13478421658E+04  0.13478421658E+04  0.25500000920E-02 0.  1.
       -2   -1    0    0    0  501  0.00000000000E+00  0.00000000000E+00 -0.46028003087E+03  0.46028003087E+03  0.25500000920E-02 0. -1.
    10030    2    1    2    0    0  0.00000000000E+00  0.00000000000E+00  0.88756213491E+03  0.18081221967E+04  0.15752902382E+04 0.  0.
        1    1    3    3  502    0  0.76575998022E+03  0.81505987519E+02  0.25394805248E+03  0.81087680118E+03  0.50400001928E-02 0. -1.
       -1    1    3    3    0  502 -0.76575998022E+03 -0.81505987519E+02  0.63361408243E+03  0.99724539547E+03  0.50400001928E-02 0.  1.
</event>
<event>
 5   0  0.1764099E-04  0.1599864E+04  0.7818609E-02  0.8820632E-01
       -1   -1    0    0    0  501  0.00000000000E+00  0.00000000000E+00  0.65874995081E+03  0.65874995083E+03  0.50400001928E-02 0.  1.
        1   -1    0    0  501    0  0.00000000000E+00  0.00000000000E+00 -0.97137131813E+03  0.97137131814E+03  0.50400001928E-02 0. -1.
    10030    2    1    2    0    0  0.00000000000E+00  0.00000000000E+00 -0.31262136732E+03  0.16301212690E+04  0.15998635043E+04 0.  0.
        5    1    3    3  502    0 -0.25547920828E+03 -0.56130865947E+03 -0.67538814537E+03  0.91460826257E+03  0.46999998093E+01 0.  1.
       -5    1    3    3    0  502  0.25547920828E+03  0.56130865947E+03  0.36276677806E+03  0.71551300639E+03  0.46999998093E+01 0. -1.
</event>
<event>
 5   0  0.3274900E-04  0.1622006E+04  0.7818609E-02  0.8807142E-01
       -2   -1    0    0    0  501  0.00000000000E+00  0.00000000000E+00  0.27967666294E+03  0.27967666295E+03  0.25500000920E-02 0. -1.
        2   -1    0    0  501    0  0.00000000000E+00  0.00000000000E+00 -0.23517362349E+04  0.23517362349E+04  0.25500000920E-02 0.  1.
    10030    2    1    2    0    0  0.00000000000E+00  0.00000000000E+00 -0.20720595719E+04  0.26314128978E+04  0.16220058475E+04 0.  0.
        3    1    3    3  502    0 -0.34162180281E+03 -0.64649400301E+03 -0.46690796445E+03  0.86756153070E+03  0.10100000352E+00 0. -1.
       -3    1    3    3    0  502  0.34162180281E+03  0.64649400301E+03 -0.16051516075E+04  0.17638513671E+04  0.10100000352E+00 0.  1.
</event>
<event>
 5   0  0.3228393E-04  0.1599292E+04  0.7818609E-02  0.8820983E-01
        2   -1    0    0  501    0  0.00000000000E+00  0.00000000000E+00  0.16461836029E+04  0.16461836029E+04  0.25500000920E-02 0. -1.
       -2   -1    0    0    0  501  0.00000000000E+00  0.00000000000E+00 -0.38843383691E+03  0.38843383692E+03  0.25500000920E-02 0.  1.
    10030    2    1    2    0    0  0.00000000000E+00  0.00000000000E+00  0.12577497660E+04  0.20346174398E+04  0.15992916096E+04 0.  0.
        1    1    3    3  502    0 -0.53231328952E+03  0.17594536273E+03  0.13542729861E+04  0.14657317387E+04  0.50400001928E-02 0. -1.
       -1    1    3    3    0  502  0.53231328952E+03 -0.17594536273E+03 -0.96523220148E+02  0.56888570110E+03  0.50400001928E-02 0.  1.
</event>
<event>
 5   0  0.1764099E-04  0.1594166E+04  0.7818609E-02  0.8824140E-01
        1   -1    0    0  501    0  0.00000000000E+00  0.00000000000E+00  0.57036808336E+03  0.57036808338E+03  0.50400001928E-02 0.  1.
       -1   -1    0    0    0  501  0.00000000000E+00  0.00000000000E+00 -0.11139142236E+04  0.11139142236E+04  0.50400001928E-02 0. -1.
    10030    2    1    2    0    0  0.00000000000E+00  0.00000000000E+00 -0.54354614027E+03  0.16842823070E+04  0.15941657640E+04 0.  0.
        5    1    3    3  502    0  0.48266647122E+03  0.31056798275E+03  0.31257402420E+03  0.65356254861E+03  0.46999998093E+01 0.  1.
       -5    1    3    3    0  502 -0.48266647122E+03 -0.31056798275E+03 -0.85612016447E+03  0.10307197584E+04  0.46999998093E+01 0. -1.
</event>
<event>
 5   0  0.1761255E-04  0.1593312E+04  0.7818609E-02  0.8824667E-01
       -1   -1    0    0    0  501  0.00000000000E+00  0.00000000000E+00  0.12383655676E+04  0.12383655676E+04  0.50400001928E-02 0. -1.
        1   -1    0    0  501    0  0.00000000000E+00  0.00000000000E+00 -0.51249884407E+03  0.51249884410E+03  0.50400001928E-02 0.  1.
    10030    2    1    2    0    0  0.00000000000E+00  0.00000000000E+00  0.72586672352E+03  0.17508644117E+04  0.15933121753E+04 0.  0.
        2    1    3    3  502    0  0.77006260154E+03 -0.90060049313E+02  0.56422319672E+03  0.95888218176E+03  0.25500000920E-02 0.  1.
       -2    1    3    3    0  502 -0.77006260154E+03  0.90060049313E+02  0.16164352680E+03  0.79198222993E+03  0.25500000920E-02 0. -1.
</event>
<event>
 5   0  0.3210612E-04  0.1579675E+04  0.7818609E-02  0.8833132E-01
       -2   -1    0    0    0  501  0.00000000000E+00  0.00000000000E+00  0.82051956097E+03  0.82051956097E+03  0.25500000920E-02 0. -1.
        2   -1    0    0  501    0  0.00000000000E+00  0.00000000000E+00 -0.76030308516E+03  0.76030308516E+03  0.25500000920E-02 0.  1.
    10030    2    1    2    0    0  0.00000000000E+00  0.00000000000E+00  0.60216475812E+02  0.15808226461E+04  0.15796753510E+04 0.  0.
        2    1    3    3  502    0  0.19419029889E+03  0.76303384977E+03 -0.32491375258E+02  0.78802678733E+03  0.25500000920E-02 0. -1.
       -2    1    3    3    0  502 -0.19419029889E+03 -0.76303384977E+03  0.92707851070E+02  0.79279585880E+03  0.25500000920E-02 0.  1.
</event>
<event>
 5   0  0.3210612E-04  0.1600056E+04  0.7818609E-02  0.8820514E-01
       -2   -1    0    0    0  501  0.00000000000E+00  0.00000000000E+00  0.74490981690E+03  0.74490981690E+03  0.25500000920E-02 0.  1.
        2   -1    0    0  501    0  0.00000000000E+00  0.00000000000E+00 -0.85922427544E+03  0.85922427544E+03  0.25500000920E-02 0. -1.
    10030    2    1    2    0    0  0.00000000000E+00  0.00000000000E+00 -0.11431445854E+03  0.16041340923E+04  0.16000557462E+04 0.  0.
        2    1    3    3  502    0  0.10749327767E+03  0.58383171325E+03 -0.59483600063E+03  0.84038333027E+03  0.25500000920E-02 0. -1.
       -2    1    3    3    0  502 -0.10749327767E+03 -0.58383171325E+03  0.48052154209E+03  0.76375076207E+03  0.25500000920E-02 0.  1.
</event>
<event>
 5   0  0.1736537E-04  0.1602684E+04  0.7818609E-02  0.8818901E-01
       -1   -1    0    0    0  501  0.00000000000E+00  0.00000000000E+00  0.80107225779E+03  0.80107225780E+03  0.50400001928E-02 0. -1.
        1   -1    0    0  501    0  0.00000000000E+00  0.00000000000E+00 -0.80161154053E+03  0.80161154054E+03  0.50400001928E-02 0.  1.
    10030    2    1    2    0    0  0.00000000000E+00  0.00000000000E+00 -0.53928273794E+00  0.16026837983E+04  0.16026837076E+04 0.  0.
        3    1    3    3  502    0  0.78118359818E+03 -0.17481309700E+03  0.36354444619E+02  0.80132957563E+03  0.10100000352E+00 0. -1.
       -3    1    3    3    0  502 -0.78118359818E+03  0.17481309700E+03 -0.36893727357E+02  0.80135422271E+03  0.10100000352E+00 0.  1.
</event>
<event>
 5   0  0.1761255E-04  0.1595649E+04  0.7818609E-02  0.8823225E-01
        1   -1    0    0  501    0  0.00000000000E+00  0.00000000000E+00  0.17982342697E+04  0.17982342697E+04  0.50400001928E-02 0.  1.
       -1   -1    0    0    0  501  0.00000000000E+00  0.00000000000E+00 -0.35397182356E+03  0.35397182360E+03  0.50400001928E-02 0. -1.
    10030    2    1    2    0    0  0.00000000000E+00  0.00000000000E+00  0.14442624461E+04  0.21522060933E+04  0.15956494147E+04 0.  0.
        2    1    3    3  502    0 -0.71215223924E+03 -0.35385001337E+03  0.63520320990E+03  0.10177690120E+04  0.25500000920E-02 0. -1.
       -2    1    3    3    0  502  0.71215223924E+03  0.35385001337E+03  0.80905923625E+03  0.11344370814E+04  0.25500000920E-02 0.  1.
</event>
<event>
 5   0  0.3228393E-04  0.1583890E+04  0.7818609E-02  0.8830507E-01
        2   -1    0    0  501    0  0.00000000000E+00  0.00000000000E+00  0.87474156908E+03  0.87474156909E+03  0.25500000920E-02 0.  1.
       -2   -1    0    0    0  501  0.00000000000E+00  0.00000000000E+00 -0.71698532923E+03  0.71698532923E+03  0.25500000920E-02 0. -1.
    10030    2    1    2    0    0  0.00000000000E+00  0.00000000000E+00  0.15775623986E+03  0.15917268983E+04  0.15838899860E+04 0.  0.
        1    1    3    3  502    0 -0.58717615710E+03 -0.65970741818E+02 -0.45103433607E+03  0.74334376340E+03  0.50400001928E-02 0. -1.
       -1    1    3    3    0  502  0.58717615710E+03  0.65970741818E+02  0.60879057593E+03  0.84838313492E+03  0.50400001928E-02 0.  1.
</event>
<event>
 5   0  0.1787688E-04  0.1608619E+04  0.7818609E-02  0.8815271E-01
        1   -1    0    0  501    0  0.00000000000E+00  0.00000000000E+00  0.15489547592E+04  0.15489547592E+04  0.50400001928E-02 0. -1.
       -1   -1    0    0    0  501  0.00000000000E+00  0.00000000000E+00 -0.41764526168E+03  0.41764526171E+03  0.50400001928E-02 0.  1.
    10030    2    1    2    0    0  0.00000000000E+00  0.00000000000E+00  0.11313094975E+04  0.19666000209E+04  0.16086188060E+04 0.  0.
        4    1    3    3  502    0 -0.23369542878E+03 -0.24863980145E+03  0.14560771016E+04  0.14955258082E+04  0.12699999809E+01 0. -1.
       -4    1    3    3    0  502  0.23369542878E+03  0.24863980145E+03 -0.32476760410E+03  0.47107421270E+03  0.12699999809E+01 0.  1.
</event>
<event>
 5   0  0.3228393E-04  0.1597873E+04  0.7818609E-02  0.8821856E-01
       -2   -1    0    0    0  501  0.00000000000E+00  0.00000000000E+00  0.80625172340E+03  0.80625172340E+03  0.25500000920E-02 0.  1.
        2   -1    0    0  501    0  0.00000000000E+00  0.00000000000E+00 -0.79168740830E+03  0.79168740830E+03  0.25500000920E-02 0. -1.
    10030    2    1    2    0    0  0.00000000000E+00  0.00000000000E+00  0.14564315104E+02  0.15979391317E+04  0.15978727576E+04 0.  0.
        1    1    3    3  502    0 -0.36924976848E+03  0.53638249028E+03  0.47017044816E+03  0.80318853189E+03  0.50400001928E-02 0.  1.
       -1    1    3    3    0  502  0.36924976848E+03 -0.53638249028E+03 -0.45560613306E+03  0.79475059982E+03  0.50400001928E-02 0. -1.
</event>
<event>
 5   0  0.1819811E-04  0.1596167E+04  0.7818609E-02  0.8822906E-01
        1   -1    0    0  501    0  0.00000000000E+00  0.00000000000E+00  0.11333242682E+04  0.11333242682E+04  0.50400001928E-02 0. -1.
       -1   -1    0    0    0  501  0.00000000000E+00  0.00000000000E+00 -0.56200773616E+03  0.56200773618E+03  0.50400001928E-02 0.  1.
    10030    2    1    2    0    0  0.00000000000E+00  0.00000000000E+00  0.57131653205E+03  0.16953320044E+04  0.15961666659E+04 0.  0.
        1    1    3    3  502    0  0.34085287325E+03  0.26562765593E+03  0.99831178907E+03  0.10878258873E+04  0.50400001928E-02 0. -1.
       -1    1    3    3    0  502 -0.34085287325E+03 -0.26562765593E+03 -0.42699525702E+03  0.60750611712E+03  0.50400001928E-02 0.  1.
</event>
<event>
 5   0  0.3263294E-04  0.1596873E+04  0.7818609E-02  0.8822472E-01
        2   -1    0    0  501    0  0.00000000000E+00  0.00000000000E+00  0.84836448805E+03  0.84836448806E+03  0.25500000920E-02 0.  1.
       -2   -1    0    0    0  501  0.00000000000E+00  0.00000000000E+00 -0.75144661136E+03  0.75144661136E+03  0.25500000920E-02 0. -1.
    10030    2    1    2    0    0  0.00000000000E+00  0.00000000000E+00  0.96917876695E+02  0.15998110994E+04  0.15968727185E+04 0.  0.
        4    1    3    3  502    0 -0.75685739429E+03  0.18127311612E+03 -0.13021145064E+03  0.78908155009E+03  0.12699999809E+01 0.  1.
       -4    1    3    3    0  502  0.75685739429E+03 -0.18127311612E+03  0.22712932733E+03  0.81072954933E+03  0.12699999809E+01 0. -1.
</event>
<event>
 5   0  0.1219463E-04  0.1605325E+04  0.7818609E-02  0.8817283E-01
        3   -1    0    0  501    0  0.00000000000E+00  0.00000000000E+00  0.12565545374E+04  0.12565545414E+04  0.10100000352E+00 0.  1.
       -3   -1    0    0    0  501  0.00000000000E+00  0.00000000000E+00 -0.51272527823E+03  0.51272528818E+03  0.10100000352E+00 0. -1.
    10030    2    1    2    0    0  0.00000000000E+00  0.00000000000E+00  0.74382925913E+03  0.17692798296E+04  0.16053252470E+04 0.  0.
        4    1    3    3  502    0  0.93723630391E+02 -0.61958267861E+03  0.92473982075E+03  0.11170551300E+04  0.12699999809E+01 0.  1.
       -4    1    3    3    0  502 -0.93723630391E+02  0.61958267861E+03 -0.18091056162E+03  0.65222469957E+03  0.12699999809E+01 0. -1.
</event>
<event>
 5   0  0.3274900E-04  0.1608435E+04  0.7818609E-02  0.8815383E-01
        2   -1    0    0  501    0  0.00000000000E+00  0.00000000000E+00  0.84155963288E+03  0.84155963288E+03  0.25500000920E-02 0. -1.
       -2   -1    0    0    0  501  0.00000000000E+00  0.00000000000E+00 -0.76853246542E+03  0.76853246542E+03  0.25500000920E-02 0.  1.
    10030    2    1    2    0    0  0.00000000000E+00  0.00000000000E+00  0.73027167460E+02  0.16100920983E+04  0.16084351395E+04 0.  0.
        3    1    3    3  502    0 -0.20727768392E+03  0.57449379408E+03  0.56027217050E+03  0.82880158839E+03  0.10100000352E+00 0. -1.
       -3    1    3    3    0  502  0.20727768392E+03 -0.57449379408E+03 -0.48724500304E+03  0.78129050991E+03  0.10100000352E+00 0.  1.
</event>
<event>
 5   0  0.3210612E-04  0.1595968E+04  0.7818609E-02  0.8823029E-01
        2   -1    0    0  501    0  0.00000000000E+00  0.00000000000E+00  0.57348801102E+03  0.57348801102E+03  0.25500000920E-02 0.  1.
       -2   -1    0    0    0  501  0.00000000000E+00  0.00000000000E+00 -0.11103609105E+04  0.11103609105E+04  0.25500000920E-02 0. -1.
    10030    2    1    2    0    0  0.00000000000E+00  0.00000000000E+00 -0.53687289944E+03  0.16838489215E+04  0.15959682579E+04 0.  0.
        2    1    3    3  502    0  0.34070061983E+02  0.48607328463E+03  0.39830288670E+03  0.62934346482E+03  0.25500000920E-02 0.  1.
       -2    1    3    3    0  502 -0.34070061983E+02 -0.48607328463E+03 -0.93517578614E+03  0.10545054567E+04  0.25500000920E-02 0. -1.
</event>
<event>
 5   0  0.3228393E-04  0.1591778E+04  0.7818609E-02  0.8825615E-01
        2   -1    0    0  501    0  0.00000000000E+00  0.00000000000E+00  0.71776655705E+03  0.71776655705E+03  0.25500000920E-02 0. -1.
       -2   -1    0    0    0  501  0.00000000000E+00  0.00000000000E+00 -0.88251405406E+03  0.88251405406E+03  0.25500000920E-02 0.  1.
    10030    2    1    2    0    0  0.00000000000E+00  0.00000000000E+00 -0.16474749701E+03  0.16002806111E+04  0.15917777158E+04 0.  0.
        1    1    3    3  502    0  0.31968755011E+03  0.52620990395E+03  0.42464361595E+03  0.74794330888E+03  0.50400001928E-02 0. -1.
       -1    1    3    3    0  502 -0.31968755011E+03 -0.52620990395E+03 -0.58939111296E+03  0.85233730223E+03  0.50400001928E-02 0.  1.
</event>
<event>
 5   0  0.1761255E-04  0.1599197E+04  0.7818609E-02  0.8821041E-01
       -1   -1    0    0    0  501  0.00000000000E+00  0.00000000000E+00  0.59307607743E+03  0.59307607745E+03  0.50400001928E-02 0.  1.
        1   -1    0    0  501    0  0.00000000000E+00  0.00000000000E+00 -0.10780366540E+04  0.10780366540E+04  0.50400001928E-02 0. -1.
    10030    2    1    2    0    0  0.00000000000E+00  0.00000000000E+00 -0.48496057656E+03  0.16711127314E+04  0.15991969861E+04 0.  0.
        2    1    3    3  502    0 -0.30606234998E+03 -0.43574064346E+02 -0.10130596137E+04  0.10591801745E+04  0.25500000920E-02 0. -1.
       -2    1    3    3    0  502  0.30606234998E+03  0.43574064346E+02  0.52809903716E+03  0.61193255692E+03  0.25500000920E-02 0.  1.
</event>
<event>
 5   0  0.3210612E-04  0.1602502E+04  0.7818609E-02  0.8819012E-01
        2   -1    0    0  501    0  0.00000000000E+00  0.00000000000E+00  0.18558674384E+04  0.18558674384E+04  0.25500000920E-02 0.  1.
       -2   -1    0    0    0  501  0.00000000000E+00  0.00000000000E+00 -0.34593169759E+03  0.34593169760E+03  0.25500000920E-02 0. -1.
    10030    2    1    2    0    0  0.00000000000E+00  0.00000000000E+00  0.15099357409E+04  0.22017991360E+04  0.16025022602E+04 0.  0.
        2    1    3    3  502    0  0.54772994142E+03  0.56975682058E+03  0.57387156783E+03  0.97670850293E+03  0.25500000920E-02 0. -1.
       -2    1    3    3    0  502 -0.54772994142E+03 -0.56975682058E+03  0.93606417302E+03  0.12250906331E+04  0.25500000920E-02 0.  1.
</event>
<event>
 5   0  0.1736537E-04  0.1589669E+04  0.7818609E-02  0.8826920E-01
       -1   -1    0    0    0  501  0.00000000000E+00  0.00000000000E+00  0.55316679332E+03  0.55316679334E+03  0.50400001928E-02 0. -1.
        1   -1    0    0  501    0  0.00000000000E+00  0.00000000000E+00 -0.11420817535E+04  0.11420817535E+04  0.50400001928E-02 0.  1.
    10030    2    1    2    0    0  0.00000000000E+00  0.00000000000E+00 -0.58891496016E+03  0.16952485468E+04  0.15896687722E+04 0.  0.
        3    1    3    3  502    0 -0.12281841470E+03  0.49446904901E+03 -0.94503927221E+03  0.10736308675E+04  0.10100000352E+00 0.  1.
       -3    1    3    3    0  502  0.12281841470E+03 -0.49446904901E+03  0.35612431205E+03  0.62161767933E+03  0.10100000352E+00 0. -1.
</event>
<event>
 5   0  0.1787688E-04  0.1598076E+04  0.7818609E-02  0.8821731E-01
        1   -1    0    0  501    0  0.00000000000E+00  0.00000000000E+00  0.67839710041E+03  0.67839710043E+03  0.50400001928E-02 0.  1.
       -1   -1    0    0    0  501  0.00000000000E+00  0.00000000000E+00 -0.94113317783E+03  0.94113317784E+03  0.50400001928E-02 0. -1.
    10030    2    1    2    0    0  0.00000000000E+00  0.00000000000E+00 -0.26273607742E+03  0.16195302783E+04  0.15980763673E+04 0.  0.
        4    1    3    3  502    0 -0.57266341222E+03 -0.39854379074E+03  0.26332140912E+03  0.74573474791E+03  0.12699999809E+01 0.  1.
       -4    1    3    3    0  502  0.57266341222E+03  0.39854379074E+03 -0.52605748655E+03  0.87379553036E+03  0.12699999809E+01 0. -1.
</event>
<event>
 5   0  0.1761255E-04  0.1543973E+04  0.7818609E-02  0.8855727E-01
       -1   -1    0    0    0  501  0.00000000000E+00  0.00000000000E+00  0.10724019247E+04  0.10724019247E+04  0.50400001928E-02 0. -1.
        1   -1    0    0  501    0  0.00000000000E+00  0.00000000000E+00 -0.55572755891E+03  0.55572755893E+03  0.50400001928E-02 0.  1.
    10030    2    1    2    0    0  0.00000000000E+00  0.00000000000E+00  0.51667436581E+03  0.16281294837E+04  0.15439731912E+04 0.  0.
        2    1    3    3  502    0 -0.42205528971E+03  0.20604137404E+02  0.93962343464E+03  0.10302656924E+04  0.25500000920E-02 0. -1.
       -2    1    3    3    0  502  0.42205528971E+03 -0.20604137404E+02 -0.42294906882E+03  0.59786379124E+03  0.25500000920E-02 0.  1.
</event>
<event>
 5   0  0.1764099E-04  0.1600976E+04  0.7818609E-02  0.8819949E-01
        1   -1    0    0  501    0  0.00000000000E+00  0.00000000000E+00  0.64612426609E+03  0.64612426611E+03  0.50400001928E-02 0.  1.
       -1   -1    0    0    0  501  0.00000000000E+00  0.00000000000E+00 -0.99173049172E+03  0.99173049174E+03  0.50400001928E-02 0. -1.
    10030    2    1    2    0    0  0.00000000000E+00  0.00000000000E+00 -0.34560622563E+03  0.16378547578E+04  0.16009761224E+04 0.  0.
        5    1    3    3  502    0 -0.10741375221E+03  0.20517953430E+03 -0.95669282433E+03  0.98433714020E+03  0.46999998093E+01 0. -1.
       -5    1    3    3    0  502  0.10741375221E+03 -0.20517953430E+03  0.61108659870E+03  0.65351761764E+03  0.46999998093E+01 0.  1.
</event>
<event>
 5   0  0.3228393E-04  0.1598460E+04  0.7818609E-02  0.8821495E-01
        2   -1    0    0  501    0  0.00000000000E+00  0.00000000000E+00  0.13700027460E+04  0.13700027460E+04  0.25500000920E-02 0.  1.
       -2   -1    0    0    0  501  0.00000000000E+00  0.00000000000E+00 -0.46625336240E+03  0.46625336241E+03  0.25500000920E-02 0. -1.
    10030    2    1    2    0    0  0.00000000000E+00  0.00000000000E+00  0.90374938363E+03  0.18362561084E+04  0.15984597422E+04 0.  0.
        1    1    3    3  502    0  0.44525000580E+03  0.12300888798E+03 -0.29737228851E+03  0.54937148833E+03  0.50400001928E-02 0. -1.
       -1    1    3    3    0  502 -0.44525000580E+03 -0.12300888798E+03  0.12011216721E+04  0.12868846201E+04  0.50400001928E-02 0.  1.
</event>
<event>
 5   0  0.3263294E-04  0.1587858E+04  0.7818609E-02  0.8828042E-01
       -2   -1    0    0    0  501  0.00000000000E+00  0.00000000000E+00  0.12197426469E+04  0.12197426469E+04  0.25500000920E-02 0. -1.
        2   -1    0    0  501    0  0.00000000000E+00  0.00000000000E+00 -0.51676762806E+03  0.51676762807E+03  0.25500000920E-02 0.  1.
    10030    2    1    2    0    0  0.00000000000E+00  0.00000000000E+00  0.70297501882E+03  0.17365102749E+04  0.15878583243E+04 0.  0.
        4    1    3    3  502    0  0.19099728643E+03 -0.41885512270E+03 -0.35590857485E+03  0.58188667607E+03  0.12699999809E+01 0.  1.
       -4    1    3    3    0  502 -0.19099728643E+03  0.41885512270E+03  0.10588835937E+04  0.11546235989E+04  0.12699999809E+01 0. -1.
</event>
<event>
 5   0  0.3274900E-04  0.1603305E+04  0.7818609E-02  0.8818520E-01
       -2   -1    0    0    0  501  0.00000000000E+00  0.00000000000E+00  0.86257792211E+03  0.86257792211E+03  0.25500000920E-02 0. -1.
        2   -1    0    0  501    0  0.00000000000E+00  0.00000000000E+00 -0.74503031954E+03  0.74503031955E+03  0.25500000920E-02 0.  1.
    10030    2    1    2    0    0  0.00000000000E+00  0.00000000000E+00  0.11754760256E+03  0.16076082417E+04  0.16033049678E+04 0.  0.
        3    1    3    3  502    0  0.62632284808E+03 -0.50012692595E+03  0.43258334271E+02  0.80266963675E+03  0.10100000352E+00 0. -1.
       -3    1    3    3    0  502 -0.62632284808E+03  0.50012692595E+03  0.74289268293E+02  0.80493860490E+03  0.10100000352E+00 0.  1.
</event>
<event>
 5   0  0.1761255E-04  0.1587751E+04  0.7818609E-02  0.8828108E-01
       -1   -1    0    0    0  501  0.00000000000E+00  0.00000000000E+00  0.11611689418E+04  0.11611689418E+04  0.50400001928E-02 0.  1.
        1   -1    0    0  501    0  0.00000000000E+00  0.00000000000E+00 -0.54276202221E+03  0.54276202224E+03  0.50400001928E-02 0. -1.
    10030    2    1    2    0    0  0.00000000000E+00  0.00000000000E+00  0.61840691954E+03  0.17039309640E+04  0.15877511178E+04 0.  0.
        2    1    3    3  502    0 -0.30182055453E+03  0.48449741117E+03 -0.28289709635E+03  0.63707468612E+03  0.25500000920E-02 0. -1.
       -2    1    3    3    0  502  0.30182055453E+03 -0.48449741117E+03  0.90130401590E+03  0.10668562779E+04  0.25500000920E-02 0.  1.
</event>
<event>
 5   0  0.1219463E-04  0.1585627E+04  0.7818609E-02  0.8829427E-01
        4   -1    0    0  501    0  0.00000000000E+00  0.00000000000E+00  0.11739305686E+04  0.11739312556E+04  0.12699999809E+01 0. -1.
       -4   -1    0    0    0  501  0.00000000000E+00  0.00000000000E+00 -0.53542489581E+03  0.53542640199E+03  0.12699999809E+01 0.  1.
    10030    2    1    2    0    0  0.00000000000E+00  0.00000000000E+00  0.63850567279E+03  0.17093576576E+04  0.15856273545E+04 0.  0.
        3    1    3    3  502    0 -0.54841497472E+03  0.38018991971E+03  0.78073401189E+03  0.10270584049E+04  0.10100000352E+00 0. -1.
       -3    1    3    3    0  502  0.54841497472E+03 -0.38018991971E+03 -0.14222833910E+03  0.68229925266E+03  0.10100000352E+00 0.  1.
</event>
<event>
 5   0  0.1219463E-04  0.1603219E+04  0.7818609E-02  0.8818573E-01
       -3   -1    0    0    0  501  0.00000000000E+00  0.00000000000E+00  0.80177270618E+03  0.80177271254E+03  0.10100000352E+00 0. -1.
        3   -1    0    0  501    0  0.00000000000E+00  0.00000000000E+00 -0.80144596212E+03  0.80144596849E+03  0.10100000352E+00 0.  1.
    10030    2    1    2    0    0  0.00000000000E+00  0.00000000000E+00  0.32674405506E+00  0.16032186810E+04  0.16032186477E+04 0.  0.
        3    1    3    3  502    0 -0.35572053880E+03  0.46623116284E+03 -0.54634272252E+03  0.80149795982E+03  0.10100000352E+00 0.  1.
       -3    1    3    3    0  502  0.35572053880E+03 -0.46623116284E+03  0.54666946658E+03  0.80172072121E+03  0.10100000352E+00 0. -1.
</event>
<event>
 5   0  0.1219463E-04  0.1625943E+04  0.7818609E-02  0.8804767E-01
       -3   -1    0    0    0  501  0.00000000000E+00  0.00000000000E+00  0.58092111486E+03  0.58092112364E+03  0.10100000352E+00 0.  1.
        3   -1    0    0  501    0  0.00000000000E+00  0.00000000000E+00 -0.11377149228E+04  0.11377149273E+04  0.10100000352E+00 0. -1.
    10030    2    1    2    0    0  0.00000000000E+00  0.00000000000E+00 -0.55679380799E+03  0.17186360510E+04  0.16259429667E+04 0.  0.
        4    1    3    3  502    0  0.27499066958E+03  0.23045618321E+03  0.49270613217E+03  0.60950050559E+03  0.12699999809E+01 0.  1.
       -4    1    3    3    0  502 -0.27499066958E+03 -0.23045618321E+03 -0.10494999402E+04  0.11091355454E+04  0.12699999809E+01 0. -1.
</event>
<event>
 5   0  0.1787688E-04  0.1585713E+04  0.7818609E-02  0.8829373E-01
       -1   -1    0    0    0  501  0.00000000000E+00  0.00000000000E+00  0.86094788136E+03  0.86094788137E+03  0.50400001928E-02 0.  1.
        1   -1    0    0  501    0  0.00000000000E+00  0.00000000000E+00 -0.73015078868E+03  0.73015078869E+03  0.50400001928E-02 0. -1.
    10030    2    1    2    0    0  0.00000000000E+00  0.00000000000E+00  0.13079709268E+03  0.15910986701E+04  0.15857134352E+04 0.  0.
        4    1    3    3  502    0  0.17093104681E+02  0.35820274269E+03 -0.64412296358E+03  0.73722275074E+03  0.12699999809E+01 0. -1.
       -4    1    3    3    0  502 -0.17093104681E+02 -0.35820274269E+03  0.77492005626E+03  0.85387591932E+03  0.12699999809E+01 0.  1.
</event>
<event>
 5   0  0.1819811E-04  0.1623826E+04  0.7818609E-02  0.8806043E-01
        1   -1    0    0  501    0  0.00000000000E+00  0.00000000000E+00  0.17522477131E+04  0.17522477131E+04  0.50400001928E-02 0.  1.
       -1   -1    0    0    0  501  0.00000000000E+00  0.00000000000E+00 -0.37620407055E+03  0.37620407058E+03  0.50400001928E-02 0. -1.
    10030    2    1    2    0    0  0.00000000000E+00  0.00000000000E+00  0.13760436426E+04  0.21284517837E+04  0.16238260034E+04 0.  0.
        1    1    3    3  502    0 -0.31208251911E+03  0.41681878674E+03  0.15045646725E+04  0.15921206780E+04  0.50400001928E-02 0.  1.
       -1    1    3    3    0  502  0.31208251911E+03 -0.41681878674E+03 -0.12852102994E+03  0.53633110564E+03  0.50400001928E-02 0. -1.
</event>
<event>
 5   0  0.3263294E-04  0.1688824E+04  0.7818609E-02  0.8767764E-01
       -2   -1    0    0    0  501  0.00000000000E+00  0.00000000000E+00  0.95969109587E+03  0.95969109588E+03  0.25500000920E-02 0.  1.
        2   -1    0    0  501    0  0.00000000000E+00  0.00000000000E+00 -0.74298010787E+03  0.74298010788E+03  0.25500000920E-02 0. -1.
    10030    2    1    2    0    0  0.00000000000E+00  0.00000000000E+00  0.21671098800E+03  0.17026712038E+04  0.16888237255E+04 0.  0.
        4    1    3    3  502    0 -0.66252979101E+03  0.52339251557E+03  0.96243173615E+02  0.84979398133E+03  0.12699999809E+01 0.  1.
       -4    1    3    3    0  502  0.66252979101E+03 -0.52339251557E+03  0.12046781438E+03  0.85287722243E+03  0.12699999809E+01 0. -1.
</event>
<event>
 5   0  0.3380454E-04  0.1599027E+04  0.7818609E-02  0.8821146E-01
        2   -1    0    0  501    0  0.00000000000E+00  0.00000000000E+00  0.11777273489E+04  0.11777273489E+04  0.25500000920E-02 0.  1.
       -2   -1    0    0    0  501  0.00000000000E+00  0.00000000000E+00 -0.54275894046E+03  0.54275894047E+03  0.25500000920E-02 0. -1.
    10030    2    1    2    0    0  0.00000000000E+00  0.00000000000E+00  0.63496840848E+03  0.17204862894E+04  0.15990272644E+04 0.  0.
        5    1    3    3  502    0 -0.26152099316E+03  0.40376235245E+03  0.10045680550E+04  0.11138206024E+04  0.46999998093E+01 0.  1.
       -5    1    3    3    0  502  0.26152099316E+03 -0.40376235245E+03 -0.36959964653E+03  0.60666568704E+03  0.46999998093E+01 0. -1.
</event>
<event>
 5   0  0.1764099E-04  0.1595790E+04  0.7818609E-02  0.8823139E-01
        1   -1    0    0  501    0  0.00000000000E+00  0.00000000000E+00  0.85169639429E+03  0.85169639430E+03  0.50400001928E-02 0.  1.
       -1   -1    0    0    0  501  0.00000000000E+00  0.00000000000E+00 -0.74749184734E+03  0.74749184736E+03  0.50400001928E-02 0. -1.
    10030    2    1    2    0    0  0.00000000000E+00  0.00000000000E+00  0.10420454695E+03  0.15991882417E+04  0.15957895991E+04 0.  0.
        5    1    3    3  502    0 -0.20877353995E+03  0.73792138179E+01 -0.71958525620E+03  0.74931026599E+03  0.46999998093E+01 0. -1.
       -5    1    3    3    0  502  0.20877353995E+03 -0.73792138179E+01  0.82378980314E+03  0.84987797568E+03  0.46999998093E+01 0.  1.
</event>
<event>
 5   0  0.3228393E-04  0.1501115E+04  0.7818609E-02  0.8883712E-01
       -2   -1    0    0    0  501  0.00000000000E+00  0.00000000000E+00  0.54381085903E+03  0.54381085903E+03  0.25500000920E-02 0. -1.
        2   -1    0    0  501    0  0.00000000000E+00  0.00000000000E+00 -0.10359056544E+04  0.10359056544E+04  0.25500000920E-02 0.  1.
    10030    2    1    2    0    0  0.00000000000E+00  0.00000000000E+00 -0.49209479534E+03  0.15797165134E+04  0.15011152438E+04 0.  0.
        1    1    3    3  502    0 -0.59588981168E+03 -0.16843772660E+03 -0.69237889733E+03  0.92889422051E+03  0.50400001928E-02 0. -1.
       -1    1    3    3    0  502  0.59588981168E+03  0.16843772660E+03  0.20028410198E+03  0.65082229290E+03  0.50400001928E-02 0.  1.
</event>
<event>
 5   0  0.3210612E-04  0.1585901E+04  0.7818609E-02  0.8829257E-01
       -2   -1    0    0    0  501  0.00000000000E+00  0.00000000000E+00  0.88231351810E+03  0.88231351810E+03  0.25500000920E-02 0. -1.
        2   -1    0    0  501    0  0.00000000000E+00  0.00000000000E+00 -0.71263845025E+03  0.71263845026E+03  0.25500000920E-02 0.  1.
    10030    2    1    2    0    0  0.00000000000E+00  0.00000000000E+00  0.16967506785E+03  0.15949519684E+04  0.15859010539E+04 0.  0.
        2    1    3    3  502    0  0.26603335235E+03 -0.67353940885E+03 -0.24002525799E+03  0.76291624987E+03  0.25500000920E-02 0.  1.
       -2    1    3    3    0  502 -0.26603335235E+03  0.67353940885E+03  0.40970032583E+03  0.83203571848E+03  0.25500000920E-02 0. -1.
</event>
<event>
 5   0  0.3210612E-04  0.1583791E+04  0.7818609E-02  0.8830568E-01
        2   -1    0    0  501    0  0.00000000000E+00  0.00000000000E+00  0.13284419130E+04  0.13284419130E+04  0.25500000920E-02 0.  1.
       -2   -1    0    0    0  501  0.00000000000E+00  0.00000000000E+00 -0.47205572972E+03  0.47205572972E+03  0.25500000920E-02 0. -1.
    10030    2    1    2    0    0  0.00000000000E+00  0.00000000000E+00  0.85638618327E+03  0.18004976427E+04  0.15837911689E+04 0.  0.
        2    1    3    3  502    0 -0.46173241011E+03  0.25964555206E+03 -0.24097847076E+03  0.58196499433E+03  0.25500000920E-02 0.  1.
       -2    1    3    3    0  502  0.46173241011E+03 -0.25964555206E+03  0.10973646540E+04  0.12185326484E+04  0.25500000920E-02 0. -1.
</event>
<event>
 5   0  0.1787688E-04  0.1612215E+04  0.7818609E-02  0.8813079E-01
        1   -1    0    0  501    0  0.00000000000E+00  0.00000000000E+00  0.14631494582E+04  0.14631494582E+04  0.50400001928E-02 0.  1.
       -1   -1    0    0    0  501  0.00000000000E+00  0.00000000000E+00 -0.44411678726E+03  0.44411678729E+03  0.50400001928E-02 0. -1.
    10030    2    1    2    0    0  0.00000000000E+00  0.00000000000E+00  0.10190326709E+04  0.19072662455E+04  0.16122149195E+04 0.  0.
        4    1    3    3  502    0  0.66178418297E+03 -0.35549541638E+02  0.10523948696E+04  0.12436875207E+04  0.12699999809E+01 0.  1.
       -4    1    3    3    0  502 -0.66178418297E+03  0.35549541638E+02 -0.33362198693E+02  0.66357872475E+03  0.12699999809E+01 0. -1.
</event>
<event>
 5   0  0.1819811E-04  0.1612661E+04  0.7818609E-02  0.8812807E-01
        1   -1    0    0  501    0  0.00000000000E+00  0.00000000000E+00  0.51319586077E+03  0.51319586079E+03  0.50400001928E-02 0. -1.
       -1   -1    0    0    0  501  0.00000000000E+00  0.00000000000E+00 -0.12669021672E+04  0.12669021672E+04  0.50400001928E-02 0.  1.
    10030    2    1    2    0    0  0.00000000000E+00  0.00000000000E+00 -0.75370630640E+03  0.17800980280E+04  0.16126610905E+04 0.  0.
        1    1    3    3  502    0  0.46945479247E+03 -0.65326539821E+03 -0.43756828129E+03  0.91575623584E+03  0.50400001928E-02 0.  1.
       -1    1    3    3    0  502 -0.46945479247E+03  0.65326539821E+03 -0.31613802511E+03  0.86434179212E+03  0.50400001928E-02 0. -1.
</event>
<event>
 5   0  0.3380454E-04  0.1602909E+04  0.7818609E-02  0.8818763E-01
        2   -1    0    0  501    0  0.00000000000E+00  0.00000000000E+00  0.10642897417E+04  0.10642897417E+04  0.25500000920E-02 0. -1.
       -2   -1    0    0    0  501  0.00000000000E+00  0.00000000000E+00 -0.60352876602E+03  0.60352876603E+03  0.25500000920E-02 0.  1.
    10030    2    1    2    0    0  0.00000000000E+00  0.00000000000E+00  0.46076097564E+03  0.16678185077E+04  0.16029091983E+04 0.  0.
        5    1    3    3  502    0 -0.74080686410E+03  0.29295633072E+03  0.13914172286E+03  0.80870311651E+03  0.46999998093E+01 0. -1.
       -5    1    3    3    0  502  0.74080686410E+03 -0.29295633072E+03  0.32161925278E+03  0.85911539118E+03  0.46999998093E+01 0.  1.
</event>
<event>
 5   0  0.1764099E-04  0.1588619E+04  0.7818609E-02  0.8827570E-01
       -1   -1    0    0    0  501  0.00000000000E+00  0.00000000000E+00  0.44134098604E+03  0.44134098606E+03  0.50400001928E-02 0.  1.
        1   -1    0    0  501    0  0.00000000000E+00  0.00000000000E+00 -0.14295702979E+04  0.14295702979E+04  0.50400001928E-02 0. -1.
    10030    2    1    2    0    0  0.00000000000E+00  0.00000000000E+00 -0.98822931182E+03  0.18709112839E+04  0.15886194823E+04 0.  0.
        5    1    3    3  502    0  0.54561709457E+02  0.76109712097E+03 -0.23432631149E+03  0.79823349839E+03  0.46999998093E+01 0.  1.
       -5    1    3    3    0  502 -0.54561709457E+02 -0.76109712097E+03 -0.75390300033E+03  0.10726777855E+04  0.46999998093E+01 0. -1.
</event>
<event>
 5   0  0.3210612E-04  0.1580971E+04  0.7818609E-02  0.8832324E-01
       -2   -1    0    0    0  501  0.00000000000E+00  0.00000000000E+00  0.54098898869E+03  0.54098898870E+03  0.25500000920E-02 0. -1.
        2   -1    0    0  501    0  0.00000000000E+00  0.00000000000E+00 -0.11550465577E+04  0.11550465577E+04  0.25500000920E-02 0.  1.
    10030    2    1    2    0    0  0.00000000000E+00  0.00000000000E+00 -0.61405756897E+03  0.16960355464E+04  0.15809711814E+04 0.  0.
        2    1    3    3  502    0  0.59637828242E+02 -0.26342892203E+03 -0.11040089065E+04  0.11365681383E+04  0.25500000920E-02 0.  1.
       -2    1    3    3    0  502 -0.59637828242E+02  0.26342892203E+03  0.48995133750E+03  0.55946740802E+03  0.25500000920E-02 0. -1.
</event>
<event>
 5   0  0.3263294E-04  0.1598751E+04  0.7818609E-02  0.8821316E-01
       -2   -1    0    0    0  501  0.00000000000E+00  0.00000000000E+00  0.22469514208E+03  0.22469514209E+03  0.25500000920E-02 0. -1.
        2   -1    0    0  501    0  0.00000000000E+00  0.00000000000E+00 -0.28438568506E+04  0.28438568506E+04  0.25500000920E-02 0.  1.
    10030    2    1    2    0    0  0.00000000000E+00  0.00000000000E+00 -0.26191617085E+04  0.30685519926E+04  0.15987505360E+04 0.  0.
        4    1    3    3  502    0  0.31524208824E+03 -0.48154620227E+02  0.97316201294E+02  0.33341940193E+03  0.12699999809E+01 0. -1.
       -4    1    3    3    0  502 -0.31524208824E+03  0.48154620227E+02 -0.27164779098E+04  0.27351325907E+04  0.12699999809E+01 0.  1.
</event>
<event>
 5   0  0.1787688E-04  0.1603483E+04  0.7818609E-02  0.8818411E-01
        1   -1    0    0  501    0  0.00000000000E+00  0.00000000000E+00  0.96159801029E+03  0.96159801030E+03  0.50400001928E-02 0.  1.
       -1   -1    0    0    0  501  0.00000000000E+00  0.00000000000E+00 -0.66845995851E+03  0.66845995853E+03  0.50400001928E-02 0. -1.
    10030    2    1    2    0    0  0.00000000000E+00  0.00000000000E+00  0.29313805177E+03  0.16300579688E+04  0.16034834157E+04 0.  0.
        4    1    3    3  502    0 -0.11723086317E+03 -0.95534731021E+02 -0.65382855570E+03  0.67109116613E+03  0.12699999809E+01 0. -1.
       -4    1    3    3    0  502  0.11723086317E+03  0.95534731021E+02  0.94696660747E+03  0.95896680270E+03  0.12699999809E+01 0.  1.
</event>
<event>
 5   0  0.3380454E-04  0.1582414E+04  0.7818609E-02  0.8831425E-01
       -2   -1    0    0    0  501  0.00000000000E+00  0.00000000000E+00  0.10141165942E+04  0.10141165942E+04  0.25500000920E-02 0. -1.
        2   -1    0    0  501    0  0.00000000000E+00  0.00000000000E+00 -0.61729457407E+03  0.61729457407E+03  0.25500000920E-02 0.  1.
    10030    2    1    2    0    0  0.00000000000E+00  0.00000000000E+00  0.39682202015E+03  0.16314111683E+04  0.15824141949E+04 0.  0.
        5    1    3    3  502    0 -0.32383529653E+03  0.31619346670E+03  0.86745700934E+03  0.97844333547E+03  0.46999998093E+01 0. -1.
       -5    1    3    3    0  502  0.32383529653E+03 -0.31619346670E+03 -0.47063498919E+03  0.65296783283E+03  0.46999998093E+01 0.  1.
</event>
<event>
 5   0  0.3274900E-04  0.1599811E+04  0.7818609E-02  0.8820664E-01
        2   -1    0    0  501    0  0.00000000000E+00  0.00000000000E+00  0.11314085855E+04  0.11314085855E+04  0.25500000920E-02 0. -1.
       -2   -1    0    0    0  501  0.00000000000E+00  0.00000000000E+00 -0.56553319305E+03  0.56553319306E+03  0.25500000920E-02 0.  1.
    10030    2    1    2    0    0  0.00000000000E+00  0.00000000000E+00  0.56587539242E+03  0.16969417785E+04  0.15998113764E+04 0.  0.
        3    1    3    3  502    0 -0.70700903376E+03 -0.31359809025E+03  0.66480461678E+02  0.77628937775E+03  0.10100000352E+00 0. -1.
       -3    1    3    3    0  502  0.70700903376E+03  0.31359809025E+03  0.49939493075E+03  0.92065240079E+03  0.10100000352E+00 0.  1.
</event>
<event>
 5   0  0.3263294E-04  0.1612388E+04  0.7818609E-02  0.8812974E-01
       -2   -1    0    0    0  501  0.00000000000E+00  0.00000000000E+00  0.50726459964E+03  0.50726459965E+03  0.25500000920E-02 0. -1.
        2   -1    0    0  501    0  0.00000000000E+00  0.00000000000E+00 -0.12812815448E+04  0.12812815448E+04  0.25500000920E-02 0.  1.
    10030    2    1    2    0    0  0.00000000000E+00  0.00000000000E+00 -0.77401694518E+03  0.17885461445E+04  0.16123880053E+04 0.  0.
        4    1    3    3  502    0  0.63597685534E+03 -0.25977560761E+03  0.80982216648E+02  0.69174392599E+03  0.12699999809E+01 0.  1.
       -4    1    3    3    0  502 -0.63597685534E+03  0.25977560761E+03 -0.85499916183E+03  0.10968022185E+04  0.12699999809E+01 0. -1.
</event>
<event>
 5   0  0.1761255E-04  0.1602935E+04  0.7818609E-02  0.8818747E-01
       -1   -1    0    0    0  501  0.00000000000E+00  0.00000000000E+00  0.43587736914E+03  0.43587736917E+03  0.50400001928E-02 0. -1.
        1   -1    0    0  501    0  0.00000000000E+00  0.00000000000E+00 -0.14736955763E+04  0.14736955763E+04  0.50400001928E-02 0.  1.
    10030    2    1    2    0    0  0.00000000000E+00  0.00000000000E+00 -0.10378182071E+04  0.19095729455E+04  0.16029354956E+04 0.  0.
        2    1    3    3  502    0  0.10721828714E+03  0.17716857981E+03  0.40345526050E+03  0.45349819625E+03  0.25500000920E-02 0. -1.
       -2    1    3    3    0  502 -0.10721828714E+03 -0.17716857981E+03 -0.14412734676E+04  0.14560747492E+04  0.25500000920E-02 0.  1.
</event>
<event>
 5   0  0.3274900E-04  0.1665033E+04  0.7818609E-02  0.8781563E-01
       -2   -1    0    0    0  501  0.00000000000E+00  0.00000000000E+00  0.26756576660E+03  0.26756576661E+03  0.25500000920E-02 0.  1.
        2   -1    0    0  501    0  0.00000000000E+00  0.00000000000E+00 -0.25903288274E+04  0.25903288274E+04  0.25500000920E-02 0. -1.
    10030    2    1    2    0    0  0.00000000000E+00  0.00000000000E+00 -0.23227630608E+04  0.28578945940E+04  0.16650325143E+04 0.  0.
        3    1    3    3  502    0  0.92825257322E+02  0.36557710767E+03 -0.24352611837E+04  0.24642970992E+04  0.10100000352E+00 0. -1.
       -3    1    3    3    0  502 -0.92825257322E+02 -0.36557710767E+03  0.11249812292E+03  0.39359749480E+03  0.10100000352E+00 0.  1.
</event>
<event>
 5   0  0.1764099E-04  0.1710949E+04  0.7818609E-02  0.8755144E-01
       -1   -1    0    0    0  501  0.00000000000E+00  0.00000000000E+00  0.40378217627E+03  0.40378217630E+03  0.50400001928E-02 0. -1.
        1   -1    0    0  501    0  0.00000000000E+00  0.00000000000E+00 -0.18124547688E+04  0.18124547688E+04  0.50400001928E-02 0.  1.
    10030    2    1    2    0    0  0.00000000000E+00  0.00000000000E+00 -0.14086725925E+04  0.22162369451E+04  0.17109493633E+04 0.  0.
        5    1    3    3  502    0  0.45431210427E+02  0.32694968694E+03  0.31794972827E+03  0.45833853469E+03  0.46999998093E+01 0. -1.
       -5    1    3    3    0  502 -0.45431210427E+02 -0.32694968694E+03 -0.17266223208E+04  0.17578984104E+04  0.46999998093E+01 0.  1.
</event>
<event>
 5   0  0.3263294E-04  0.1597592E+04  0.7818609E-02  0.8822029E-01
        2   -1    0    0  501    0  0.00000000000E+00  0.00000000000E+00  0.82726478878E+03  0.82726478879E+03  0.25500000920E-02 0. -1.
       -2   -1    0    0    0  501  0.00000000000E+00  0.00000000000E+00 -0.77130695353E+03  0.77130695353E+03  0.25500000920E-02 0.  1.
    10030    2    1    2    0    0  0.00000000000E+00  0.00000000000E+00  0.55957835254E+02  0.15985717423E+04  0.15975920430E+04 0.  0.
        4    1    3    3  502    0 -0.74886139294E+03 -0.81286609085E+02  0.29398507698E+03  0.80859738871E+03  0.12699999809E+01 0.  1.
       -4    1    3    3    0  502  0.74886139294E+03  0.81286609085E+02 -0.23802724172E+03  0.78997435360E+03  0.12699999809E+01 0. -1.
</event>
<event>
 5   0  0.1819811E-04  0.1603019E+04  0.7818609E-02  0.8818695E-01
        1   -1    0    0  501    0  0.00000000000E+00  0.00000000000E+00  0.61327607422E+03  0.61327607424E+03  0.50400001928E-02 0.  1.
       -1   -1    0    0    0  501  0.00000000000E+00  0.00000000000E+00 -0.10475178735E+04  0.10475178735E+04  0.50400001928E-02 0. -1.
    10030    2    1    2    0    0  0.00000000000E+00  0.00000000000E+00 -0.43424179932E+03  0.16607939478E+04  0.16030192128E+04 0.  0.
        1    1    3    3  502    0 -0.32516760263E+03  0.52085675795E+03 -0.75084998696E+03  0.96994919199E+03  0.50400001928E-02 0. -1.
       -1    1    3    3    0  502  0.32516760263E+03 -0.52085675795E+03  0.31660818764E+03  0.69084475580E+03  0.50400001928E-02 0.  1.
</event>
<event>
 5   0  0.3380454E-04  0.1577117E+04  0.7818609E-02  0.8834731E-01
        2   -1    0    0  501    0  0.00000000000E+00  0.00000000000E+00  0.99968302510E+03  0.99968302511E+03  0.25500000920E-02 0.  1.
       -2   -1    0    0    0  501  0.00000000000E+00  0.00000000000E+00 -0.62202130168E+03  0.62202130168E+03  0.25500000920E-02 0. -1.
    10030    2    1    2    0    0  0.00000000000E+00  0.00000000000E+00  0.37766172343E+03  0.16217043268E+04  0.15771165290E+04 0.  0.
        5    1    3    3  502    0  0.25436485418E+03  0.36161993157E+03  0.86023134617E+03  0.96720758521E+03  0.46999998093E+01 0.  1.
       -5    1    3    3    0  502 -0.25436485418E+03 -0.36161993157E+03 -0.48256962275E+03  0.65449674158E+03  0.46999998093E+01 0. -1.
</event>
<event>
 5   0  0.1764099E-04  0.1604615E+04  0.7818609E-02  0.8817718E-01
        1   -1    0    0  501    0  0.00000000000E+00  0.00000000000E+00  0.20910161880E+04  0.20910161880E+04  0.50400001928E-02 0. -1.
       -1   -1    0    0    0  501  0.00000000000E+00  0.00000000000E+00 -0.30783943626E+03  0.30783943630E+03  0.50400001928E-02 0.  1.
    10030    2    1    2    0    0  0.00000000000E+00  0.00000000000E+00  0.17831767518E+04  0.23988556243E+04  0.16046149003E+04 0.  0.
        5    1    3    3  502    0 -0.64507866272E+03  0.25509042194E+03  0.14941895465E+04  0.16473682330E+04  0.46999998093E+01 0. -1.
       -5    1    3    3    0  502  0.64507866272E+03 -0.25509042194E+03  0.28898720530E+03  0.75148739130E+03  0.46999998093E+01 0.  1.
</event>
<event>
 5   0  0.1764099E-04  0.1427673E+04  0.7818609E-02  0.8934028E-01
       -1   -1    0    0    0  501  0.00000000000E+00  0.00000000000E+00  0.45729577562E+03  0.45729577564E+03  0.50400001928E-02 0.  1.
        1   -1    0    0  501    0  0.00000000000E+00  0.00000000000E+00 -0.11142951060E+04  0.11142951061E+04  0.50400001928E-02 0. -1.
    10030    2    1    2    0    0  0.00000000000E+00  0.00000000000E+00 -0.65699933043E+03  0.15715908817E+04  0.14276728544E+04 0.  0.
        5    1    3    3  502    0 -0.35673269185E+03 -0.55116019658E+03 -0.20068472629E+02  0.65685661245E+03  0.46999998093E+01 0.  1.
       -5    1    3    3    0  502  0.35673269185E+03  0.55116019658E+03 -0.63693085780E+03  0.91473426925E+03  0.46999998093E+01 0. -1.
</event>
<event>
 5   0  0.3380454E-04  0.1617326E+04  0.7818609E-02  0.8809974E-01
        2   -1    0    0  501    0  0.00000000000E+00  0.00000000000E+00  0.15601842520E+04  0.15601842520E+04  0.25500000920E-02 0. -1.
       -2   -1    0    0    0  501  0.00000000000E+00  0.00000000000E+00 -0.41913994533E+03  0.41913994534E+03  0.25500000920E-02 0.  1.
    10030    2    1    2    0    0  0.00000000000E+00  0.00000000000E+00  0.11410443067E+04  0.19793241974E+04  0.16173256223E+04 0.  0.
        5    1    3    3  502    0 -0.41547148995E+03 -0.62823352079E+03  0.21033568342E+03  0.78202116679E+03  0.46999998093E+01 0.  1.
       -5    1    3    3    0  502  0.41547148995E+03  0.62823352079E+03  0.93070862328E+03  0.11973030306E+04  0.46999998093E+01 0. -1.
</event>
<event>
 5   0  0.1787688E-04  0.1620449E+04  0.7818609E-02  0.8808083E-01
        1   -1    0    0  501    0  0.00000000000E+00  0.00000000000E+00  0.13921675840E+04  0.13921675840E+04  0.50400001928E-02 0. -1.
       -1   -1    0    0    0  501  0.00000000000E+00  0.00000000000E+00 -0.47154101581E+03  0.47154101584E+03  0.50400001928E-02 0.  1.
    10030    2    1    2    0    0  0.00000000000E+00  0.00000000000E+00  0.92062656814E+03  0.18637085998E+04  0.16204494645E+04 0.  0.
        4    1    3    3  502    0 -0.63167125011E+03  0.24613830798E+00  0.10438823117E+04  0.12201231587E+04  0.12699999809E+01 0. -1.
       -4    1    3    3    0  502  0.63167125011E+03 -0.24613830798E+00 -0.12325574355E+03  0.64358544112E+03  0.12699999809E+01 0.  1.
</event>
<event>
 5   0  0.1787688E-04  0.1605791E+04  0.7818609E-02  0.8816998E-01
       -1   -1    0    0    0  501  0.00000000000E+00  0.00000000000E+00  0.10798220509E+04  0.10798220509E+04  0.50400001928E-02 0.  1.
        1   -1    0    0  501    0  0.00000000000E+00  0.00000000000E+00 -0.59698837083E+03  0.59698837086E+03  0.50400001928E-02 0. -1.
    10030    2    1    2    0    0  0.00000000000E+00  0.00000000000E+00  0.48283368005E+03  0.16768104218E+04  0.16057910287E+04 0.  0.
        4    1    3    3  502    0 -0.45048384537E+03  0.42041382175E+03  0.77892110302E+03  0.99317831938E+03  0.12699999809E+01 0.  1.
       -4    1    3    3    0  502  0.45048384537E+03 -0.42041382175E+03 -0.29608742297E+03  0.68363210237E+03  0.12699999809E+01 0. -1.
</event>
<event>
 5   0  0.1764099E-04  0.1590393E+04  0.7818609E-02  0.8826472E-01
        1   -1    0    0  501    0  0.00000000000E+00  0.00000000000E+00  0.12242261027E+04  0.12242261027E+04  0.50400001928E-02 0. -1.
       -1   -1    0    0    0  501  0.00000000000E+00  0.00000000000E+00 -0.51652032587E+03  0.51652032589E+03  0.50400001928E-02 0.  1.
    10030    2    1    2    0    0  0.00000000000E+00  0.00000000000E+00  0.70770577687E+03  0.17407464286E+04  0.15903932414E+04 0.  0.
        5    1    3    3  502    0  0.22200932570E+03 -0.19609654472E+03 -0.45386420767E+03  0.54199336210E+03  0.46999998093E+01 0.  1.
       -5    1    3    3    0  502 -0.22200932570E+03  0.19609654472E+03  0.11615699845E+04  0.11987530665E+04  0.46999998093E+01 0. -1.
</event>
<event>
 5   0  0.1787688E-04  0.1598327E+04  0.7818609E-02  0.8821576E-01
        1   -1    0    0  501    0  0.00000000000E+00  0.00000000000E+00  0.10996621563E+04  0.10996621563E+04  0.50400001928E-02 0.  1.
       -1   -1    0    0    0  501  0.00000000000E+00  0.00000000000E+00 -0.58078068182E+03  0.58078068184E+03  0.50400001928E-02 0. -1.
    10030    2    1    2    0    0  0.00000000000E+00  0.00000000000E+00  0.51888147444E+03  0.16804428381E+04  0.15983272968E+04 0.  0.
        4    1    3    3  502    0  0.38641887558E+03 -0.12130854893E+03  0.98376596705E+03  0.10638761217E+04  0.12699999809E+01 0.  1.
       -4    1    3    3    0  502 -0.38641887558E+03  0.12130854893E+03 -0.46488449261E+03  0.61656671644E+03  0.12699999809E+01 0. -1.
</event>
<event>
 5   0  0.1787688E-04  0.1594936E+04  0.7818609E-02  0.8823665E-01
        1   -1    0    0  501    0  0.00000000000E+00  0.00000000000E+00  0.77525896534E+03  0.77525896536E+03  0.50400001928E-02 0. -1.
       -1   -1    0    0    0  501  0.00000000000E+00  0.00000000000E+00 -0.82031336396E+03  0.82031336397E+03  0.50400001928E-02 0.  1.
    10030    2    1    2    0    0  0.00000000000E+00  0.00000000000E+00 -0.45054398617E+02  0.15955723293E+04  0.15949360988E+04 0.  0.
        4    1    3    3  502    0 -0.44113626370E+03 -0.66414683120E+03 -0.38703386041E+02  0.79824293391E+03  0.12699999809E+01 0. -1.
       -4    1    3    3    0  502  0.44113626370E+03  0.66414683120E+03 -0.63510125760E+01  0.79732939542E+03  0.12699999809E+01 0.  1.
</event>
<event>
 5   0  0.1787688E-04  0.1603443E+04  0.7818609E-02  0.8818436E-01
       -1   -1    0    0    0  501  0.00000000000E+00  0.00000000000E+00  0.84336677285E+03  0.84336677287E+03  0.50400001928E-02 0.  1.
        1   -1    0    0  501    0  0.00000000000E+00  0.00000000000E+00 -0.76213267572E+03  0.76213267574E+03  0.50400001928E-02 0. -1.
    10030    2    1    2    0    0  0.00000000000E+00  0.00000000000E+00  0.81234097133E+02  0.16054994486E+04  0.16034430146E+04 0.  0.
        4    1    3    3  502    0  0.65230545224E+03  0.27998533314E+03  0.41373631109E+03  0.82162858872E+03  0.12699999809E+01 0.  1.
       -4    1    3    3    0  502 -0.65230545224E+03 -0.27998533314E+03 -0.33250221395E+03  0.78387085988E+03  0.12699999809E+01 0. -1.
</event>
<event>
 5   0  0.1819811E-04  0.1618241E+04  0.7818609E-02  0.8809420E-01
        1   -1    0    0  501    0  0.00000000000E+00  0.00000000000E+00  0.91214820569E+03  0.91214820570E+03  0.50400001928E-02 0.  1.
       -1   -1    0    0    0  501  0.00000000000E+00  0.00000000000E+00 -0.71772984730E+03  0.71772984732E+03  0.50400001928E-02 0. -1.
    10030    2    1    2    0    0  0.00000000000E+00  0.00000000000E+00  0.19441835839E+03  0.16298780530E+04  0.16182410110E+04 0.  0.
        1    1    3    3  502    0 -0.48897624989E+03 -0.49868940836E+03 -0.31424671114E+03  0.76585892595E+03  0.50400001928E-02 0. -1.
       -1    1    3    3    0  502  0.48897624989E+03  0.49868940836E+03  0.50866506953E+03  0.86401912707E+03  0.50400001928E-02 0.  1.
</event>
<event>
 5   0  0.3210612E-04  0.1603205E+04  0.7818609E-02  0.8818581E-01
       -2   -1    0    0    0  501  0.00000000000E+00  0.00000000000E+00  0.97136951923E+03  0.97136951923E+03  0.25500000920E-02 0.  1.
        2   -1    0    0  501    0  0.00000000000E+00  0.00000000000E+00 -0.66150590762E+03  0.66150590763E+03  0.25500000920E-02 0. -1.
    10030    2    1    2    0    0  0.00000000000E+00  0.00000000000E+00  0.30986361161E+03  0.16328754269E+04  0.16032051340E+04 0.  0.
        2    1    3    3  502    0  0.15496602506E+03 -0.18037750788E+03 -0.62475243283E+03  0.66848045342E+03  0.25500000920E-02 0. -1.
       -2    1    3    3    0  502 -0.15496602506E+03  0.18037750788E+03  0.93461604443E+03  0.96439497344E+03  0.25500000920E-02 0.  1.
</event>
<event>
 5   0  0.1819811E-04  0.1599573E+04  0.7818609E-02  0.8820811E-01
        1   -1    0    0  501    0  0.00000000000E+00  0.00000000000E+00  0.14498074023E+04  0.14498074023E+04  0.50400001928E-02 0.  1.
       -1   -1    0    0    0  501  0.00000000000E+00  0.00000000000E+00 -0.44120209618E+03  0.44120209621E+03  0.50400001928E-02 0. -1.
    10030    2    1    2    0    0  0.00000000000E+00  0.00000000000E+00  0.10086053061E+04  0.18910094985E+04  0.15995725241E+04 0.  0.
        1    1    3    3  502    0 -0.45097880989E+03 -0.30147693224E+03 -0.19047092598E+03  0.57493425825E+03  0.50400001928E-02 0. -1.
       -1    1    3    3    0  502  0.45097880989E+03  0.30147693224E+03  0.11990762321E+04  0.13160752403E+04  0.50400001928E-02 0.  1.
</event>
<event>
 5   0  0.1787688E-04  0.1713442E+04  0.7818609E-02  0.8753735E-01
       -1   -1    0    0    0  501  0.00000000000E+00  0.00000000000E+00  0.59556638678E+03  0.59556638680E+03  0.50400001928E-02 0. -1.
        1   -1    0    0  501    0  0.00000000000E+00  0.00000000000E+00 -0.12323914460E+04  0.12323914460E+04  0.50400001928E-02 0.  1.
    10030    2    1    2    0    0  0.00000000000E+00  0.00000000000E+00 -0.63682505924E+03  0.18279578328E+04  0.17134420569E+04 0.  0.
        4    1    3    3  502    0 -0.25578714097E+02 -0.62376761473E+03 -0.94433490686E+03  0.11320381341E+04  0.12699999809E+01 0.  1.
       -4    1    3    3    0  502  0.25578714097E+02  0.62376761473E+03  0.30750984763E+03  0.69591969873E+03  0.12699999809E+01 0. -1.
</event>
<event>
 5   0  0.3380454E-04  0.1612592E+04  0.7818609E-02  0.8812849E-01
       -2   -1    0    0    0  501  0.00000000000E+00  0.00000000000E+00  0.41651565998E+03  0.41651565999E+03  0.25500000920E-02 0. -1.
        2   -1    0    0  501    0  0.00000000000E+00  0.00000000000E+00 -0.15608376047E+04  0.15608376047E+04  0.25500000920E-02 0.  1.
    10030    2    1    2    0    0  0.00000000000E+00  0.00000000000E+00 -0.11443219447E+04  0.19773532646E+04  0.16125920811E+04 0.  0.
        5    1    3    3  502    0  0.48681798637E+02  0.71400721254E+03 -0.10275321000E+04  0.12522062624E+04  0.46999998093E+01 0.  1.
       -5    1    3    3    0  502 -0.48681798637E+02 -0.71400721254E+03 -0.11678984471E+03  0.72514700227E+03  0.46999998093E+01 0. -1.
</event>
<event>
 5   0  0.1219463E-04  0.1597828E+04  0.7818609E-02  0.8821883E-01
       -4   -1    0    0    0  501  0.00000000000E+00  0.00000000000E+00  0.46033328680E+03  0.46033503868E+03  0.12699999809E+01 0.  1.
        4   -1    0    0  501    0  0.00000000000E+00  0.00000000000E+00 -0.13865206107E+04  0.13865211924E+04  0.12699999809E+01 0. -1.
    10030    2    1    2    0    0  0.00000000000E+00  0.00000000000E+00 -0.92618732393E+03  0.18468562310E+04  0.15978282070E+04 0.  0.
        2    1    3    3  502    0  0.46853741596E+03 -0.45791474346E+03 -0.99157375630E+03  0.11884577134E+04  0.25500000920E-02 0. -1.
       -2    1    3    3    0  502 -0.46853741596E+03  0.45791474346E+03  0.65386432369E+02  0.65839851760E+03  0.25500000920E-02 0.  1.
</event>
<event>
 5   0  0.1736537E-04  0.1606565E+04  0.7818609E-02  0.8816525E-01
       -1   -1    0    0    0  501  0.00000000000E+00  0.00000000000E+00  0.74198255587E+03  0.74198255588E+03  0.50400001928E-02 0. -1.
        1   -1    0    0  501    0  0.00000000000E+00  0.00000000000E+00 -0.86964709056E+03  0.86964709057E+03  0.50400001928E-02 0.  1.
    10030    2    1    2    0    0  0.00000000000E+00  0.00000000000E+00 -0.12766453469E+03  0.16116296465E+04  0.16065652442E+04 0.  0.
        3    1    3    3  502    0 -0.46468342437E+03  0.57477960063E+03 -0.37940409878E+03  0.83081270727E+03  0.10100000352E+00 0.  1.
       -3    1    3    3    0  502  0.46468342437E+03 -0.57477960063E+03  0.25173956409E+03  0.78081693918E+03  0.10100000352E+00 0. -1.
</event>
<event>
 5   0  0.1787688E-04  0.1648745E+04  0.7818609E-02  0.8791150E-01
       -1   -1    0    0    0  501  0.00000000000E+00  0.00000000000E+00  0.11293858019E+04  0.11293858019E+04  0.50400001928E-02 0.  1.
        1   -1    0    0  501    0  0.00000000000E+00  0.00000000000E+00 -0.60173382291E+03  0.60173382293E+03  0.50400001928E-02 0. -1.
    10030    2    1    2    0    0  0.00000000000E+00  0.00000000000E+00  0.52765197902E+03  0.17311196249E+04  0.16487445359E+04 0.  0.
        4    1    3    3  502    0 -0.23074085782E+02  0.82006742901E+03  0.34876931436E+03  0.89145086746E+03  0.12699999809E+01 0. -1.
       -4    1    3    3    0  502  0.23074085782E+02 -0.82006742901E+03  0.17888266466E+03  0.83966875741E+03  0.12699999809E+01 0.  1.
</event>
<event>
 5   0  0.1787688E-04  0.1594927E+04  0.7818609E-02  0.8823671E-01
       -1   -1    0    0    0  501  0.00000000000E+00  0.00000000000E+00  0.13229966768E+04  0.13229966768E+04  0.50400001928E-02 0.  1.
        1   -1    0    0  501    0  0.00000000000E+00  0.00000000000E+00 -0.48068741854E+03  0.48068741857E+03  0.50400001928E-02 0. -1.
    10030    2    1    2    0    0  0.00000000000E+00  0.00000000000E+00  0.84230925823E+03  0.18036840954E+04  0.15949267787E+04 0.  0.
        4    1    3    3  502    0  0.68504032948E+03 -0.34605158377E+03  0.66610173517E+03  0.10162308233E+04  0.12699999809E+01 0.  1.
       -4    1    3    3    0  502 -0.68504032948E+03  0.34605158377E+03  0.17620752306E+03  0.78745327209E+03  0.12699999809E+01 0. -1.
</event>
<event>
 5   0  0.3263294E-04  0.1592590E+04  0.7818609E-02  0.8825113E-01
       -2   -1    0    0    0  501  0.00000000000E+00  0.00000000000E+00  0.86861979530E+03  0.86861979530E+03  0.25500000920E-02 0. -1.
        2   -1    0    0  501    0  0.00000000000E+00  0.00000000000E+00 -0.72999189002E+03  0.72999189003E+03  0.25500000920E-02 0.  1.
    10030    2    1    2    0    0  0.00000000000E+00  0.00000000000E+00  0.13862790527E+03  0.15986116853E+04  0.15925895970E+04 0.  0.
        4    1    3    3  502    0  0.58046037754E+03  0.43049033855E+03 -0.26635690145E+03  0.77019724313E+03  0.12699999809E+01 0.  1.
       -4    1    3    3    0  502 -0.58046037754E+03 -0.43049033855E+03  0.40498480672E+03  0.82841444220E+03  0.12699999809E+01 0. -1.
</event>
<event>
 5   0  0.1219463E-04  0.1596360E+04  0.7818609E-02  0.8822788E-01
        3   -1    0    0  501    0  0.00000000000E+00  0.00000000000E+00  0.85353208465E+03  0.85353209062E+03  0.10100000352E+00 0. -1.
       -3   -1    0    0    0  501  0.00000000000E+00  0.00000000000E+00 -0.74641714421E+03  0.74641715104E+03  0.10100000352E+00 0.  1.
    10030    2    1    2    0    0  0.00000000000E+00  0.00000000000E+00  0.10711494044E+03  0.15999492417E+04  0.15963595978E+04 0.  0.
        1    1    3    3  502    0 -0.73847814687E+03 -0.10555819020E+03  0.33809458291E+03  0.81902408508E+03  0.50400001928E-02 0.  1.
       -1    1    3    3    0  502  0.73847814687E+03  0.10555819020E+03 -0.23097964246E+03  0.78092515658E+03  0.50400001928E-02 0. -1.
</event>
<event>
 5   0  0.1736537E-04  0.1620547E+04  0.7818609E-02  0.8808024E-01
        1   -1    0    0  501    0  0.00000000000E+00  0.00000000000E+00  0.73470864970E+03  0.73470864972E+03  0.50400001928E-02 0. -1.
       -1   -1    0    0    0  501  0.00000000000E+00  0.00000000000E+00 -0.89361037036E+03  0.89361037038E+03  0.50400001928E-02 0.  1.
    10030    2    1    2    0    0  0.00000000000E+00  0.00000000000E+00 -0.15890172066E+03  0.16283190201E+04  0.16205471528E+04 0.  0.
        3    1    3    3  502    0 -0.47469531806E+03 -0.30774964352E+03 -0.66231712407E+03  0.87103930515E+03  0.10100000352E+00 0.  1.
       -3    1    3    3    0  502  0.47469531806E+03  0.30774964352E+03  0.50341540341E+03  0.75727971494E+03  0.10100000352E+00 0. -1.
</event>
<event>
 5   0  0.3210612E-04  0.1603453E+04  0.7818609E-02  0.8818430E-01
       -2   -1    0    0    0  501  0.00000000000E+00  0.00000000000E+00  0.13755710948E+04  0.13755710948E+04  0.25500000920E-02 0.  1.
        2   -1    0    0  501    0  0.00000000000E+00  0.00000000000E+00 -0.46727139395E+03  0.46727139396E+03  0.25500000920E-02 0. -1.
    10030    2    1    2    0    0  0.00000000000E+00  0.00000000000E+00  0.90829970087E+03  0.18428424888E+04  0.16034525537E+04 0.  0.
        2    1    3    3  502    0 -0.74073402507E+03  0.91404912409E+02  0.11765264219E+03  0.75556859260E+03  0.25500000920E-02 0. -1.
       -2    1    3    3    0  502  0.74073402507E+03 -0.91404912409E+02  0.79064705868E+03  0.10872738962E+04  0.25500000920E-02 0.  1.
</event>
<event>
 5   0  0.3380454E-04  0.1611335E+04  0.7818609E-02  0.8813614E-01
       -2   -1    0    0    0  501  0.00000000000E+00  0.00000000000E+00  0.28080392011E+03  0.28080392012E+03  0.25500000920E-02 0. -1.
        2   -1    0    0  501    0  0.00000000000E+00  0.00000000000E+00 -0.23115792456E+04  0.23115792456E+04  0.25500000920E-02 0.  1.
    10030    2    1    2    0    0  0.00000000000E+00  0.00000000000E+00 -0.20307753255E+04  0.25923831657E+04  0.16113354881E+04 0.  0.
        5    1    3    3  502    0  0.12304030378E+03  0.76409108129E+03 -0.13755106441E+04  0.15782983618E+04  0.46999998093E+01 0. -1.
       -5    1    3    3    0  502 -0.12304030378E+03 -0.76409108129E+03 -0.65526468140E+03  0.10140848039E+04  0.46999998093E+01 0.  1.
</event>
<event>
 5   0  0.3274900E-04  0.1609792E+04  0.7818609E-02  0.8814555E-01
        2   -1    0    0  501    0  0.00000000000E+00  0.00000000000E+00  0.12094326095E+04  0.12094326095E+04  0.25500000920E-02 0.  1.
       -2   -1    0    0    0  501  0.00000000000E+00  0.00000000000E+00 -0.53567066283E+03  0.53567066284E+03  0.25500000920E-02 0. -1.
    10030    2    1    2    0    0  0.00000000000E+00  0.00000000000E+00  0.67376194666E+03  0.17451032723E+04  0.16097919960E+04 0.  0.
        3    1    3    3  502    0  0.32054213837E+03 -0.80940679375E+01  0.11372079610E+04  0.11815476009E+04  0.10100000352E+00 0.  1.
       -3    1    3    3    0  502 -0.32054213837E+03  0.80940679375E+01 -0.46344601434E+03  0.56355567144E+03  0.10100000352E+00 0. -1.
</event>
<event>
 5   0  0.1761255E-04  0.1599959E+04  0.7818609E-02  0.8820573E-01
        1   -1    0    0  501    0  0.00000000000E+00  0.00000000000E+00  0.21114790097E+04  0.21114790097E+04  0.50400001928E-02 0.  1.
       -1   -1    0    0    0  501  0.00000000000E+00  0.00000000000E+00 -0.30308961050E+03  0.30308961054E+03  0.50400001928E-02 0. -1.
    10030    2    1    2    0    0  0.00000000000E+00  0.00000000000E+00  0.18083893992E+04  0.24145686203E+04  0.15999591878E+04 0.  0.
        2    1    3    3  502    0 -0.21576103374E+03 -0.62667183132E+03  0.15802792723E+04  0.17136373556E+04  0.25500000920E-02 0.  1.
       -2    1    3    3    0  502  0.21576103374E+03  0.62667183132E+03  0.22811012691E+03  0.70093126471E+03  0.25500000920E-02 0. -1.
</event>
<event>
 5   0  0.3274900E-04  0.1595274E+04  0.7818609E-02  0.8823457E-01
        2   -1    0    0  501    0  0.00000000000E+00  0.00000000000E+00  0.12625988218E+04  0.12625988218E+04  0.25500000920E-02 0. -1.
       -2   -1    0    0    0  501  0.00000000000E+00  0.00000000000E+00 -0.50390103412E+03  0.50390103413E+03  0.25500000920E-02 0.  1.
    10030    2    1    2    0    0  0.00000000000E+00  0.00000000000E+00  0.75869778765E+03  0.17664998559E+04  0.15952740855E+04 0.  0.
        3    1    3    3  502    0  0.34417455350E+03  0.40110737429E+03  0.10408649203E+04  0.11673658559E+04  0.10100000352E+00 0. -1.
       -3    1    3    3    0  502 -0.34417455350E+03 -0.40110737429E+03 -0.28216713267E+03  0.59913399999E+03  0.10100000352E+00 0.  1.
</event>
<event>
 5   0  0.1764099E-04  0.1600546E+04  0.7818609E-02  0.8820213E-01
       -1   -1    0    0    0  501  0.00000000000E+00  0.00000000000E+00  0.16215520899E+04  0.16215520899E+04  0.50400001928E-02 0. -1.
        1   -1    0    0  501    0  0.00000000000E+00  0.00000000000E+00 -0.39495301354E+03  0.39495301357E+03  0.50400001928E-02 0.  1.
    10030    2    1    2    0    0  0.00000000000E+00  0.00000000000E+00  0.12265990764E+04  0.20165051035E+04  0.16005460126E+04 0.  0.
        5    1    3    3  502    0 -0.72739413094E+03  0.33180544469E+03  0.56933476555E+03  0.98150967398E+03  0.46999998093E+01 0.  1.
       -5    1    3    3    0  502  0.72739413094E+03 -0.33180544469E+03  0.65726431085E+03  0.10349954295E+04  0.46999998093E+01 0. -1.
</event>
<event>
 5   0  0.1736537E-04  0.1530973E+04  0.7818609E-02  0.8864113E-01
        1   -1    0    0  501    0  0.00000000000E+00  0.00000000000E+00  0.60975752089E+03  0.60975752091E+03  0.50400001928E-02 0.  1.
       -1   -1    0    0    0  501  0.00000000000E+00  0.00000000000E+00 -0.96098822485E+03  0.96098822486E+03  0.50400001928E-02 0. -1.
    10030    2    1    2    0    0  0.00000000000E+00  0.00000000000E+00 -0.35123070396E+03  0.15707457458E+04  0.15309732821E+04 0.  0.
        3    1    3    3  502    0  0.66818616855E+03 -0.17527069452E+03  0.16276664466E+03  0.70970808296E+03  0.10100000352E+00 0.  1.
       -3    1    3    3    0  502 -0.66818616855E+03  0.17527069452E+03 -0.51399734862E+03  0.86103766282E+03  0.10100000352E+00 0. -1.
</event>
<event>
 5   0  0.1787688E-04  0.1590975E+04  0.7818609E-02  0.8826112E-01
       -1   -1    0    0    0  501  0.00000000000E+00  0.00000000000E+00  0.33054312652E+03  0.33054312655E+03  0.50400001928E-02 0.  1.
        1   -1    0    0  501    0  0.00000000000E+00  0.00000000000E+00 -0.19144263287E+04  0.19144263287E+04  0.50400001928E-02 0. -1.
    10030    2    1    2    0    0  0.00000000000E+00  0.00000000000E+00 -0.15838832022E+04  0.22449694553E+04  0.15909751277E+04 0.  0.
        4    1    3    3  502    0  0.24636831672E+03 -0.75356928606E+03 -0.88376752166E+03  0.11872702563E+04  0.12699999809E+01 0. -1.
       -4    1    3    3    0  502 -0.24636831672E+03  0.75356928606E+03 -0.70011568053E+03  0.10576991989E+04  0.12699999809E+01 0.  1.
</event>
<event>
 5   0  0.3263294E-04  0.1591799E+04  0.7818609E-02  0.8825602E-01
       -2   -1    0    0    0  501  0.00000000000E+00  0.00000000000E+00  0.39376113292E+03  0.39376113293E+03  0.25500000920E-02 0. -1.
        2   -1    0    0  501    0  0.00000000000E+00  0.00000000000E+00 -0.16087320190E+04  0.16087320190E+04  0.25500000920E-02 0.  1.
    10030    2    1    2    0    0  0.00000000000E+00  0.00000000000E+00 -0.12149708861E+04  0.20024931520E+04  0.15917991612E+04 0.  0.
        4    1    3    3  502    0  0.65637043040E+03  0.43312071207E+03 -0.45321245725E+03  0.90764466474E+03  0.12699999809E+01 0.  1.
       -4    1    3    3    0  502 -0.65637043040E+03 -0.43312071207E+03 -0.76175842885E+03  0.10948484872E+04  0.12699999809E+01 0. -1.
</event>
<event>
 5   0  0.1787688E-04  0.1598685E+04  0.7818609E-02  0.8821356E-01
       -1   -1    0    0    0  501  0.00000000000E+00  0.00000000000E+00  0.74177501521E+03  0.74177501523E+03  0.50400001928E-02 0. -1.
        1   -1    0    0  501    0  0.00000000000E+00  0.00000000000E+00 -0.86137801719E+03  0.86137801721E+03  0.50400001928E-02 0.  1.
    10030    2    1    2    0    0  0.00000000000E+00  0.00000000000E+00 -0.11960300199E+03  0.16031530324E+04  0.15986853247E+04 0.  0.
        4    1    3    3  502    0 -0.11600713176E+03  0.69405441750E+03  0.32043871262E+03  0.77320874963E+03  0.12699999809E+01 0. -1.
       -4    1    3    3    0  502  0.11600713176E+03 -0.69405441750E+03 -0.44004171460E+03  0.82994428280E+03  0.12699999809E+01 0.  1.
</event>
<event>
 5   0  0.3380454E-04  0.1600840E+04  0.7818609E-02  0.8820032E-01
        2   -1    0    0  501    0  0.00000000000E+00  0.00000000000E+00  0.11733090473E+04  0.11733090473E+04  0.25500000920E-02 0.  1.
       -2   -1    0    0    0  501  0.00000000000E+00  0.00000000000E+00 -0.54603839987E+03  0.54603839988E+03  0.25500000920E-02 0. -1.
    10030    2    1    2    0    0  0.00000000000E+00  0.00000000000E+00  0.62727064745E+03  0.17193474472E+04  0.16008395232E+04 0.  0.
        5    1    3    3  502    0  0.13696053685E+03  0.51682233926E+03 -0.32609833450E+03  0.62627927698E+03  0.46999998093E+01 0. -1.
       -5    1    3    3    0  502 -0.13696053685E+03 -0.51682233926E+03  0.95336898195E+03  0.10930681702E+04  0.46999998093E+01 0.  1.
</event>
<event>
 5   0  0.1736537E-04  0.1535010E+04  0.7818609E-02  0.8861500E-01
        1   -1    0    0  501    0  0.00000000000E+00  0.00000000000E+00  0.91011080277E+03  0.91011080278E+03  0.50400001928E-02 0. -1.
       -1   -1    0    0    0  501  0.00000000000E+00  0.00000000000E+00 -0.64724386815E+03  0.64724386817E+03  0.50400001928E-02 0.  1.
    10030    2    1    2    0    0  0.00000000000E+00  0.00000000000E+00  0.26286693462E+03  0.15573546710E+04  0.15350096240E+04 0.  0.
        3    1    3    3  502    0  0.17668911422E+03 -0.73594699347E+03  0.26067148031E+03  0.80049150597E+03  0.10100000352E+00 0.  1.
       -3    1    3    3    0  502 -0.17668911422E+03  0.73594699347E+03  0.21954543063E+01  0.75686316498E+03  0.10100000352E+00 0. -1.
</event>
<event>
 5   0  0.3210612E-04  0.1657863E+04  0.7818609E-02  0.8785768E-01
       -2   -1    0    0    0  501  0.00000000000E+00  0.00000000000E+00  0.47195168147E+03  0.47195168147E+03  0.25500000920E-02 0. -1.
        2   -1    0    0  501    0  0.00000000000E+00  0.00000000000E+00 -0.14559274765E+04  0.14559274765E+04  0.25500000920E-02 0.  1.
    10030    2    1    2    0    0  0.00000000000E+00  0.00000000000E+00 -0.98397579501E+03  0.19278791580E+04  0.16578629867E+04 0.  0.
        2    1    3    3  502    0 -0.48312900399E+03 -0.26742505499E+03 -0.12108989579E+04  0.13308666653E+04  0.25500000920E-02 0. -1.
       -2    1    3    3    0  502  0.48312900399E+03  0.26742505499E+03  0.22692316289E+03  0.59701249266E+03  0.25500000920E-02 0.  1.
</event>
<event>
 5   0  0.3263294E-04  0.1650532E+04  0.7818609E-02  0.8790092E-01
        2   -1    0    0  501    0  0.00000000000E+00  0.00000000000E+00  0.10635618253E+04  0.10635618253E+04  0.25500000920E-02 0.  1.
       -2   -1    0    0    0  501  0.00000000000E+00  0.00000000000E+00 -0.64036158400E+03  0.64036158401E+03  0.25500000920E-02 0. -1.
    10030    2    1    2    0    0  0.00000000000E+00  0.00000000000E+00  0.42320024128E+03  0.17039234093E+04  0.16505321992E+04 0.  0.
        4    1    3    3  502    0 -0.54323647160E+03  0.36296282514E+03  0.73210685407E+03  0.98123897965E+03  0.12699999809E+01 0. -1.
       -4    1    3    3    0  502  0.54323647160E+03 -0.36296282514E+03 -0.30890661279E+03  0.72268442964E+03  0.12699999809E+01 0.  1.
</event>
<event>
 5   0  0.3210612E-04  0.1696557E+04  0.7818609E-02  0.8763331E-01
        2   -1    0    0  501    0  0.00000000000E+00  0.00000000000E+00  0.61118301747E+03  0.61118301748E+03  0.25500000920E-02 0. -1.
       -2   -1    0    0    0  501  0.00000000000E+00  0.00000000000E+00 -0.11773499534E+04  0.11773499534E+04  0.25500000920E-02 0.  1.
    10030    2    1    2    0    0  0.00000000000E+00  0.00000000000E+00 -0.56616693593E+03  0.17885329709E+04  0.16965568628E+04 0.  0.
        2    1    3    3  502    0  0.60736286831E+03  0.32302151664E+03  0.24015455784E+03  0.72863349200E+03  0.25500000920E-02 0. -1.
       -2    1    3    3    0  502 -0.60736286831E+03 -0.32302151664E+03 -0.80632149377E+03  0.10598994789E+04  0.25500000920E-02 0.  1.
</event>
<event>
 5   0  0.1787688E-04  0.1588548E+04  0.7818609E-02  0.8827614E-01
       -1   -1    0    0    0  501  0.00000000000E+00  0.00000000000E+00  0.36916944345E+03  0.36916944348E+03  0.50400001928E-02 0.  1.
        1   -1    0    0  501    0  0.00000000000E+00  0.00000000000E+00 -0.17088932486E+04  0.17088932486E+04  0.50400001928E-02 0. -1.
    10030    2    1    2    0    0  0.00000000000E+00  0.00000000000E+00 -0.13397238052E+04  0.20780626921E+04  0.15885479779E+04 0.  0.
        4    1    3    3  502    0  0.40013204411E+03 -0.62855268159E+03 -0.10297474878E+04  0.12710490265E+04  0.12699999809E+01 0. -1.
       -4    1    3    3    0  502 -0.40013204411E+03  0.62855268159E+03 -0.30997631739E+03  0.80701366562E+03  0.12699999809E+01 0.  1.
</event>
<event>
 5   0  0.3380454E-04  0.1573693E+04  0.7818609E-02  0.8836875E-01
       -2   -1    0    0    0  501  0.00000000000E+00  0.00000000000E+00  0.53387110982E+03  0.53387110983E+03  0.25500000920E-02 0.  1.
        2   -1    0    0  501    0  0.00000000000E+00  0.00000000000E+00 -0.11596941800E+04  0.11596941800E+04  0.25500000920E-02 0. -1.
    10030    2    1    2    0    0  0.00000000000E+00  0.00000000000E+00 -0.62582307020E+03  0.16935652899E+04  0.15736927514E+04 0.  0.
        5    1    3    3  502    0  0.21993080355E+03  0.72500035760E+03 -0.54148123811E+03  0.93124599225E+03  0.46999998093E+01 0. -1.
       -5    1    3    3    0  502 -0.21993080355E+03 -0.72500035760E+03 -0.84341832090E+02  0.76231929760E+03  0.46999998093E+01 0.  1.
</event>
<event>
 5   0  0.1761255E-04  0.1595299E+04  0.7818609E-02  0.8823441E-01
        1   -1    0    0  501    0  0.00000000000E+00  0.00000000000E+00  0.11401533339E+04  0.11401533339E+04  0.50400001928E-02 0.  1.
       -1   -1    0    0    0  501  0.00000000000E+00  0.00000000000E+00 -0.55803435994E+03  0.55803435997E+03  0.50400001928E-02 0. -1.
    10030    2    1    2    0    0  0.00000000000E+00  0.00000000000E+00  0.58211897399E+03  0.16981876939E+04  0.15952990139E+04 0.  0.
        2    1    3    3  502    0  0.58042057195E+02 -0.25929026232E+03  0.10916590422E+04  0.11235300552E+04  0.25500000920E-02 0.  1.
       -2    1    3    3    0  502 -0.58042057195E+02  0.25929026232E+03 -0.50954006824E+03  0.57465763867E+03  0.25500000920E-02 0. -1.
</event>
<event>
 5   0  0.1819811E-04  0.1598389E+04  0.7818609E-02  0.8821538E-01
        1   -1    0    0  501    0  0.00000000000E+00  0.00000000000E+00  0.13563544421E+04  0.13563544421E+04  0.50400001928E-02 0. -1.
       -1   -1    0    0    0  501  0.00000000000E+00  0.00000000000E+00 -0.47090344383E+03  0.47090344385E+03  0.50400001928E-02 0.  1.
    10030    2    1    2    0    0  0.00000000000E+00  0.00000000000E+00  0.88545099826E+03  0.18272578859E+04  0.15983891615E+04 0.  0.
        1    1    3    3  502    0  0.69358608248E+03  0.24419321495E+03  0.84814814831E+02  0.74019290248E+03  0.50400001928E-02 0. -1.
       -1    1    3    3    0  502 -0.69358608248E+03 -0.24419321495E+03  0.80063618343E+03  0.10870649835E+04  0.50400001928E-02 0.  1.
</event>
<event>
 5   0  0.1764099E-04  0.1598725E+04  0.7818609E-02  0.8821332E-01
       -1   -1    0    0    0  501  0.00000000000E+00  0.00000000000E+00  0.41423791334E+03  0.41423791338E+03  0.50400001928E-02 0.  1.
        1   -1    0    0  501    0  0.00000000000E+00  0.00000000000E+00 -0.15425444221E+04  0.15425444221E+04  0.50400001928E-02 0. -1.
    10030    2    1    2    0    0  0.00000000000E+00  0.00000000000E+00 -0.11283065088E+04  0.19567823355E+04  0.15987249703E+04 0.  0.
        5    1    3    3  502    0  0.77361067752E+03 -0.13862537870E+03 -0.74264996425E+03  0.10813147254E+04  0.46999998093E+01 0.  1.
       -5    1    3    3    0  502 -0.77361067752E+03  0.13862537870E+03 -0.38565654453E+03  0.87546761010E+03  0.46999998093E+01 0. -1.
</event>
<event>
 5   0  0.1787688E-04  0.1585661E+04  0.7818609E-02  0.8829406E-01
       -1   -1    0    0    0  501  0.00000000000E+00  0.00000000000E+00  0.43271109298E+03  0.43271109301E+03  0.50400001928E-02 0.  1.
        1   -1    0    0  501    0  0.00000000000E+00  0.00000000000E+00 -0.14526561335E+04  0.14526561335E+04  0.50400001928E-02 0. -1.
    10030    2    1    2    0    0  0.00000000000E+00  0.00000000000E+00 -0.10199450405E+04  0.18853672265E+04  0.15856612794E+04 0.  0.
        4    1    3    3  502    0 -0.66476374432E+03 -0.42424264711E+03 -0.60719655102E+03  0.99527982188E+03  0.12699999809E+01 0. -1.
       -4    1    3    3    0  502  0.66476374432E+03  0.42424264711E+03 -0.41274848949E+03  0.89008740462E+03  0.12699999809E+01 0.  1.
</event>
<event>
 5   0  0.3228393E-04  0.1586463E+04  0.7818609E-02  0.8828908E-01
       -2   -1    0    0    0  501  0.00000000000E+00  0.00000000000E+00  0.62070528975E+03  0.62070528975E+03  0.25500000920E-02 0. -1.
        2   -1    0    0  501    0  0.00000000000E+00  0.00000000000E+00 -0.10137116435E+04  0.10137116435E+04  0.25500000920E-02 0.  1.
    10030    2    1    2    0    0  0.00000000000E+00  0.00000000000E+00 -0.39300635375E+03  0.16344169333E+04  0.15864629582E+04 0.  0.
        1    1    3    3  502    0 -0.20346555625E+03 -0.72746043389E+03  0.52929356184E+02  0.75723076551E+03  0.50400001928E-02 0.  1.
       -1    1    3    3    0  502  0.20346555625E+03  0.72746043389E+03 -0.44593570993E+03  0.87718616774E+03  0.50400001928E-02 0. -1.
</event>
<event>
 5   0  0.1819811E-04  0.1596553E+04  0.7818609E-02  0.8822668E-01
        1   -1    0    0  501    0  0.00000000000E+00  0.00000000000E+00  0.93108835632E+03  0.93108835633E+03  0.50400001928E-02 0.  1.
       -1   -1    0    0    0  501  0.00000000000E+00  0.00000000000E+00 -0.68440943247E+03  0.68440943249E+03  0.50400001928E-02 0. -1.
    10030    2    1    2    0    0  0.00000000000E+00  0.00000000000E+00  0.24667892384E+03  0.16154977888E+04  0.15965533546E+04 0.  0.
        1    1    3    3  502    0 -0.15630579544E+03  0.22715798695E+03  0.88137042870E+03  0.92349666232E+03  0.50400001928E-02 0.  1.
       -1    1    3    3    0  502  0.15630579544E+03 -0.22715798695E+03 -0.63469150485E+03  0.69200112650E+03  0.50400001928E-02 0. -1.
</event>
<event>
 5   0  0.3274900E-04  0.1595516E+04  0.7818609E-02  0.8823307E-01
        2   -1    0    0  501    0  0.00000000000E+00  0.00000000000E+00  0.13239475327E+04  0.13239475327E+04  0.25500000920E-02 0.  1.
       -2   -1    0    0    0  501  0.00000000000E+00  0.00000000000E+00 -0.48069724501E+03  0.48069724502E+03  0.25500000920E-02 0. -1.
    10030    2    1    2    0    0  0.00000000000E+00  0.00000000000E+00  0.84325028765E+03  0.18046447777E+04  0.15955161315E+04 0.  0.
        3    1    3    3  502    0  0.35560031227E+03  0.10637309016E+03 -0.37708448928E+03  0.52911202845E+03  0.10100000352E+00 0. -1.
       -3    1    3    3    0  502 -0.35560031227E+03 -0.10637309016E+03  0.12203347769E+04  0.12755327492E+04  0.10100000352E+00 0.  1.
</event>
<event>
 5   0  0.3228393E-04  0.1601631E+04  0.7818609E-02  0.8819547E-01
        2   -1    0    0  501    0  0.00000000000E+00  0.00000000000E+00  0.24868594404E+04  0.24868594404E+04  0.25500000920E-02 0. -1.
       -2   -1    0    0    0  501  0.00000000000E+00  0.00000000000E+00 -0.25787756411E+03  0.25787756413E+03  0.25500000920E-02 0.  1.
    10030    2    1    2    0    0  0.00000000000E+00  0.00000000000E+00  0.22289818763E+04  0.27447370046E+04  0.16016307375E+04 0.  0.
        1    1    3    3  502    0 -0.50090041300E+03 -0.88088992603E+02  0.21745644943E+04  0.22332468816E+04  0.50400001928E-02 0.  1.
       -1    1    3    3    0  502  0.50090041300E+03  0.88088992603E+02  0.54417382010E+02  0.51149012293E+03  0.50400001928E-02 0. -1.
</event>
<event>
 5   0  0.3228393E-04  0.1600879E+04  0.7818609E-02  0.8820008E-01
       -2   -1    0    0    0  501  0.00000000000E+00  0.00000000000E+00  0.20823657933E+04  0.20823657933E+04  0.25500000920E-02 0.  1.
        2   -1    0    0  501    0  0.00000000000E+00  0.00000000000E+00 -0.30768039652E+03  0.30768039653E+03  0.25500000920E-02 0. -1.
    10030    2    1    2    0    0  0.00000000000E+00  0.00000000000E+00  0.17746853968E+04  0.23900461898E+04  0.16008786750E+04 0.  0.
        1    1    3    3  502    0 -0.51538471620E+03 -0.11243857531E+03  0.17861477664E+04  0.18624144766E+04  0.50400001928E-02 0.  1.
       -1    1    3    3    0  502  0.51538471620E+03  0.11243857531E+03 -0.11462369657E+02  0.52763171327E+03  0.50400001928E-02 0. -1.
</event>
<event>
 5   0  0.3380454E-04  0.1604559E+04  0.7818609E-02  0.8817752E-01
       -2   -1    0    0    0  501  0.00000000000E+00  0.00000000000E+00  0.78351225230E+03  0.78351225230E+03  0.25500000920E-02 0.  1.
        2   -1    0    0  501    0  0.00000000000E+00  0.00000000000E+00 -0.82149590417E+03  0.82149590417E+03  0.25500000920E-02 0. -1.
    10030    2    1    2    0    0  0.00000000000E+00  0.00000000000E+00 -0.37983651873E+02  0.16050081565E+04  0.16045586386E+04 0.  0.
        5    1    3    3  502    0 -0.25175043561E+02 -0.46840812228E+03 -0.67001212938E+03  0.81791093363E+03  0.46999998093E+01 0. -1.
       -5    1    3    3    0  502  0.25175043561E+02  0.46840812228E+03  0.63202847750E+03  0.78709722285E+03  0.46999998093E+01 0.  1.
</event>
<event>
 5   0  0.1764099E-04  0.1558180E+04  0.7818609E-02  0.8846660E-01
       -1   -1    0    0    0  501  0.00000000000E+00  0.00000000000E+00  0.59704393960E+03  0.59704393962E+03  0.50400001928E-02 0.  1.
        1   -1    0    0  501    0  0.00000000000E+00  0.00000000000E+00 -0.10166441659E+04  0.10166441659E+04  0.50400001928E-02 0. -1.
    10030    2    1    2    0    0  0.00000000000E+00  0.00000000000E+00 -0.41960022633E+03  0.16136881056E+04  0.15581800127E+04 0.  0.
        5    1    3    3  502    0 -0.75580001391E+03  0.18890477462E+03 -0.21638859424E+03  0.80855722656E+03  0.46999998093E+01 0.  1.
       -5    1    3    3    0  502  0.75580001391E+03 -0.18890477462E+03 -0.20321163209E+03  0.80513087900E+03  0.46999998093E+01 0. -1.
</event>
<event>
 5   0  0.3274900E-04  0.1496500E+04  0.7818609E-02  0.8886783E-01
       -2   -1    0    0    0  501  0.00000000000E+00  0.00000000000E+00  0.45063241137E+03  0.45063241138E+03  0.25500000920E-02 0.  1.
        2   -1    0    0  501    0  0.00000000000E+00  0.00000000000E+00 -0.12424279591E+04  0.12424279591E+04  0.25500000920E-02 0. -1.
    10030    2    1    2    0    0  0.00000000000E+00  0.00000000000E+00 -0.79179554775E+03  0.16930603705E+04  0.14965003270E+04 0.  0.
        3    1    3    3  502    0 -0.34478361823E+03 -0.91719256164E+02 -0.11400022760E+04  0.11945264186E+04  0.10100000352E+00 0. -1.
       -3    1    3    3    0  502  0.34478361823E+03  0.91719256164E+02  0.34820672825E+03  0.49853395185E+03  0.10100000352E+00 0.  1.
</event>
<event>
 5   0  0.1761255E-04  0.1596266E+04  0.7818609E-02  0.8822845E-01
        1   -1    0    0  501    0  0.00000000000E+00  0.00000000000E+00  0.91598538236E+03  0.91598538238E+03  0.50400001928E-02 0. -1.
       -1   -1    0    0    0  501  0.00000000000E+00  0.00000000000E+00 -0.69544374538E+03  0.69544374539E+03  0.50400001928E-02 0.  1.
    10030    2    1    2    0    0  0.00000000000E+00  0.00000000000E+00  0.22054163699E+03  0.16114291278E+04  0.15962660243E+04 0.  0.
        2    1    3    3  502    0  0.57287764738E+03 -0.55166421837E+03  0.17794564154E+03  0.81497660092E+03  0.25500000920E-02 0.  1.
       -2    1    3    3    0  502 -0.57287764738E+03  0.55166421837E+03  0.42595995448E+02  0.79645252685E+03  0.25500000920E-02 0. -1.
</event>
<event>
 5   0  0.1819811E-04  0.1574274E+04  0.7818609E-02  0.8836510E-01
       -1   -1    0    0    0  501  0.00000000000E+00  0.00000000000E+00  0.48295762713E+03  0.48295762715E+03  0.50400001928E-02 0. -1.
        1   -1    0    0  501    0  0.00000000000E+00  0.00000000000E+00 -0.12828962938E+04  0.12828962939E+04  0.50400001928E-02 0.  1.
    10030    2    1    2    0    0  0.00000000000E+00  0.00000000000E+00 -0.79993866671E+03  0.17658539210E+04  0.15742738643E+04 0.  0.
        1    1    3    3  502    0  0.48811961191E+03 -0.60885138662E+03 -0.51558430909E+03  0.93530099238E+03  0.50400001928E-02 0. -1.
       -1    1    3    3    0  502 -0.48811961191E+03  0.60885138662E+03 -0.28435435762E+03  0.83055292863E+03  0.50400001928E-02 0.  1.
</event>
<event>
 5   0  0.1736537E-04  0.1573962E+04  0.7818609E-02  0.8836705E-01
       -1   -1    0    0    0  501  0.00000000000E+00  0.00000000000E+00  0.50658716703E+03  0.50658716706E+03  0.50400001928E-02 0.  1.
        1   -1    0    0  501    0  0.00000000000E+00  0.00000000000E+00 -0.12225722710E+04  0.12225722710E+04  0.50400001928E-02 0. -1.
    10030    2    1    2    0    0  0.00000000000E+00  0.00000000000E+00 -0.71598510394E+03  0.17291594380E+04  0.15739624179E+04 0.  0.
        3    1    3    3  502    0  0.35154834193E+03  0.68978965657E+03 -0.20284663633E+03  0.80033916254E+03  0.10100000352E+00 0.  1.
       -3    1    3    3    0  502 -0.35154834193E+03 -0.68978965657E+03 -0.51313846761E+03  0.92882027550E+03  0.10100000352E+00 0. -1.
</event>
<event>
 5   0  0.1736537E-04  0.1590379E+04  0.7818609E-02  0.8826480E-01
        1   -1    0    0  501    0  0.00000000000E+00  0.00000000000E+00  0.15855284999E+04  0.15855284999E+04  0.50400001928E-02 0. -1.
       -1   -1    0    0    0  501  0.00000000000E+00  0.00000000000E+00 -0.39881133192E+03  0.39881133195E+03  0.50400001928E-02 0.  1.
    10030    2    1    2    0    0  0.00000000000E+00  0.00000000000E+00  0.11867171679E+04  0.19843398318E+04  0.15903794929E+04 0.  0.
        3    1    3    3  502    0 -0.59093395097E+03 -0.53134316305E+03  0.55810691600E+03  0.97108796266E+03  0.10100000352E+00 0. -1.
       -3    1    3    3    0  502  0.59093395097E+03  0.53134316305E+03  0.62861025195E+03  0.10132518692E+04  0.10100000352E+00 0.  1.
</event>
<event>
 5   0  0.3210612E-04  0.1597540E+04  0.7818609E-02  0.8822061E-01
        2   -1    0    0  501    0  0.00000000000E+00  0.00000000000E+00  0.66977881514E+03  0.66977881515E+03  0.25500000920E-02 0.  1.
       -2   -1    0    0    0  501  0.00000000000E+00  0.00000000000E+00 -0.95260275023E+03  0.95260275023E+03  0.25500000920E-02 0. -1.
    10030    2    1    2    0    0  0.00000000000E+00  0.00000000000E+00 -0.28282393509E+03  0.16223815654E+04  0.15975395349E+04 0.  0.
        2    1    3    3  502    0 -0.89922588366E+02  0.48169193120E+03 -0.78203012881E+03  0.92286743948E+03  0.25500000920E-02 0. -1.
       -2    1    3    3    0  502  0.89922588366E+02 -0.48169193120E+03  0.49920619372E+03  0.69951412590E+03  0.25500000920E-02 0.  1.
</event>
<event>
 5   0  0.1764099E-04  0.1601950E+04  0.7818609E-02  0.8819351E-01
       -1   -1    0    0    0  501  0.00000000000E+00  0.00000000000E+00  0.68468362032E+03  0.68468362033E+03  0.50400001928E-02 0.  1.
        1   -1    0    0  501    0  0.00000000000E+00  0.00000000000E+00 -0.93701864229E+03  0.93701864231E+03  0.50400001928E-02 0. -1.
    10030    2    1    2    0    0  0.00000000000E+00  0.00000000000E+00 -0.25233502198E+03  0.16217022626E+04  0.16019504566E+04 0.  0.
        5    1    3    3  502    0  0.79692545703E+03 -0.55264413335E+02 -0.67183446378E+02  0.80167327816E+03  0.46999998093E+01 0.  1.
       -5    1    3    3    0  502 -0.79692545703E+03  0.55264413335E+02 -0.18515157560E+03  0.82002898448E+03  0.46999998093E+01 0. -1.
</event>
<event>
 5   0  0.3380454E-04  0.1578052E+04  0.7818609E-02  0.8834146E-01
       -2   -1    0    0    0  501  0.00000000000E+00  0.00000000000E+00  0.68073828269E+03  0.68073828270E+03  0.25500000920E-02 0.  1.
        2   -1    0    0  501    0  0.00000000000E+00  0.00000000000E+00 -0.91453981530E+03  0.91453981530E+03  0.25500000920E-02 0. -1.
    10030    2    1    2    0    0  0.00000000000E+00  0.00000000000E+00 -0.23380153260E+03  0.15952780980E+04  0.15780522974E+04 0.  0.
        5    1    3    3  502    0 -0.30527177984E+03  0.15823545963E+03  0.60099958876E+03  0.69242466445E+03  0.46999998093E+01 0.  1.
       -5    1    3    3    0  502  0.30527177984E+03 -0.15823545963E+03 -0.83480112136E+03  0.90285343355E+03  0.46999998093E+01 0. -1.
</event>
<event>
 5   0  0.1761255E-04  0.1621749E+04  0.7818609E-02  0.8807297E-01
        1   -1    0    0  501    0  0.00000000000E+00  0.00000000000E+00  0.17262425519E+04  0.17262425519E+04  0.50400001928E-02 0. -1.
       -1   -1    0    0    0  501  0.00000000000E+00  0.00000000000E+00 -0.38089511450E+03  0.38089511453E+03  0.50400001928E-02 0.  1.
    10030    2    1    2    0    0  0.00000000000E+00  0.00000000000E+00  0.13453474374E+04  0.21071376665E+04  0.16217488764E+04 0.  0.
        2    1    3    3  502    0  0.78384086304E+02  0.79806464534E+03  0.82894717118E+03  0.11533449856E+04  0.25500000920E-02 0.  1.
       -2    1    3    3    0  502 -0.78384086304E+02 -0.79806464534E+03  0.51640026625E+03  0.95379268089E+03  0.25500000920E-02 0. -1.
</event>
<event>
 5   0  0.1219463E-04  0.1590328E+04  0.7818609E-02  0.8826512E-01
        4   -1    0    0  501    0  0.00000000000E+00  0.00000000000E+00  0.71651340303E+03  0.71651452855E+03  0.12699999809E+01 0.  1.
       -4   -1    0    0    0  501  0.00000000000E+00  0.00000000000E+00 -0.88244536059E+03  0.88244627447E+03  0.12699999809E+01 0. -1.
    10030    2    1    2    0    0  0.00000000000E+00  0.00000000000E+00 -0.16593195755E+03  0.15989608030E+04  0.15903277131E+04 0.  0.
        4    1    3    3  502    0 -0.32690065894E+03  0.47011697863E+02  0.64429306018E+03  0.72400918561E+03  0.12699999809E+01 0.  1.
       -4    1    3    3    0  502  0.32690065894E+03 -0.47011697863E+02 -0.81022501773E+03  0.87495161741E+03  0.12699999809E+01 0. -1.
</event>
<event>
 5   0  0.1819811E-04  0.1567280E+04  0.7818609E-02  0.8840905E-01
        1   -1    0    0  501    0  0.00000000000E+00  0.00000000000E+00  0.91781275297E+03  0.91781275299E+03  0.50400001928E-02 0.  1.
       -1   -1    0    0    0  501  0.00000000000E+00  0.00000000000E+00 -0.66908188072E+03  0.66908188074E+03  0.50400001928E-02 0. -1.
    10030    2    1    2    0    0  0.00000000000E+00  0.00000000000E+00  0.24873087225E+03  0.15868946337E+04  0.15672802978E+04 0.  0.
        1    1    3    3  502    0 -0.39594342604E+03  0.67623326184E+03  0.11888831417E+03  0.79258882929E+03  0.50400001928E-02 0.  1.
       -1    1    3    3    0  502  0.39594342604E+03 -0.67623326184E+03  0.12984255808E+03  0.79430580444E+03  0.50400001928E-02 0. -1.
</event>
<event>
 5   0  0.1761255E-04  0.1597830E+04  0.7818609E-02  0.8821882E-01
       -1   -1    0    0    0  501  0.00000000000E+00  0.00000000000E+00  0.61485800263E+03  0.61485800265E+03  0.50400001928E-02 0. -1.
        1   -1    0    0  501    0  0.00000000000E+00  0.00000000000E+00 -0.10380697875E+04  0.10380697875E+04  0.50400001928E-02 0.  1.
    10030    2    1    2    0    0  0.00000000000E+00  0.00000000000E+00 -0.42321178485E+03  0.16529277902E+04  0.15978304242E+04 0.  0.
        2    1    3    3  502    0  0.44077026807E+02  0.20073178609E+03 -0.10102569410E+04  0.10309486510E+04  0.25500000920E-02 0.  1.
       -2    1    3    3    0  502 -0.44077026807E+02 -0.20073178609E+03  0.58704515610E+03  0.62197913916E+03  0.25500000920E-02 0. -1.
</event>
<event>
 5   0  0.3228393E-04  0.1598919E+04  0.7818609E-02  0.8821213E-01
        2   -1    0    0  501    0  0.00000000000E+00  0.00000000000E+00  0.12106111385E+04  0.12106111385E+04  0.25500000920E-02 0.  1.
       -2   -1    0    0    0  501  0.00000000000E+00  0.00000000000E+00 -0.52794426793E+03  0.52794426794E+03  0.25500000920E-02 0. -1.
    10030    2    1    2    0    0  0.00000000000E+00  0.00000000000E+00  0.68266687058E+03  0.17385554064E+04  0.15989186487E+04 0.  0.
        1    1    3    3  502    0  0.11186449197E+03 -0.30689272117E+03  0.11347419458E+04  0.11808200924E+04  0.50400001928E-02 0.  1.
       -1    1    3    3    0  502 -0.11186449197E+03  0.30689272117E+03 -0.45207507526E+03  0.55773531408E+03  0.50400001928E-02 0. -1.
</event>
<event>
 5   0  0.3228393E-04  0.1602848E+04  0.7818609E-02  0.8818800E-01
        2   -1    0    0  501    0  0.00000000000E+00  0.00000000000E+00  0.17109423660E+04  0.17109423660E+04  0.25500000920E-02 0. -1.
       -2   -1    0    0    0  501  0.00000000000E+00  0.00000000000E+00 -0.37539583246E+03  0.37539583247E+03  0.25500000920E-02 0.  1.
    10030    2    1    2    0    0  0.00000000000E+00  0.00000000000E+00  0.13355465336E+04  0.20863381985E+04  0.16028482571E+04 0.  0.
        1    1    3    3  502    0  0.68992567195E+03 -0.40624569454E+03  0.71374981423E+03  0.10726004822E+04  0.50400001928E-02 0.  1.
       -1    1    3    3    0  502 -0.68992567195E+03  0.40624569454E+03  0.62179671932E+03  0.10137377162E+04  0.50400001928E-02 0. -1.
</event>
<event>
 5   0  0.1219463E-04  0.1618328E+04  0.7818609E-02  0.8809367E-01
        3   -1    0    0  501    0  0.00000000000E+00  0.00000000000E+00  0.28689215198E+03  0.28689216976E+03  0.10100000352E+00 0.  1.
       -3   -1    0    0    0  501  0.00000000000E+00  0.00000000000E+00 -0.22822026985E+04  0.22822027008E+04  0.10100000352E+00 0. -1.
    10030    2    1    2    0    0  0.00000000000E+00  0.00000000000E+00 -0.19953105466E+04  0.25690948705E+04  0.16183276172E+04 0.  0.
        3    1    3    3  502    0  0.42894094344E+03 -0.52091173782E+03 -0.17065529547E+04  0.18351191703E+04  0.10100000352E+00 0. -1.
       -3    1    3    3    0  502 -0.42894094344E+03  0.52091173782E+03 -0.28875759182E+03  0.73397570027E+03  0.10100000352E+00 0.  1.
</event>
<event>
 5   0  0.1787688E-04  0.1592451E+04  0.7818609E-02  0.8825199E-01
       -1   -1    0    0    0  501  0.00000000000E+00  0.00000000000E+00  0.26038263923E+03  0.26038263928E+03  0.50400001928E-02 0. -1.
        1   -1    0    0  501    0  0.00000000000E+00  0.00000000000E+00 -0.24347809713E+04  0.24347809713E+04  0.50400001928E-02 0.  1.
    10030    2    1    2    0    0  0.00000000000E+00  0.00000000000E+00 -0.21743983321E+04  0.26951636106E+04  0.15924505585E+04 0.  0.
        4    1    3    3  502    0 -0.30396184760E+03  0.25391548479E+03 -0.22562332244E+04  0.22907326020E+04  0.12699999809E+01 0.  1.
       -4    1    3    3    0  502  0.30396184760E+03 -0.25391548479E+03  0.81834892296E+02  0.40443100859E+03  0.12699999809E+01 0. -1.
</event>
<event>
 5   0  0.3380454E-04  0.1756212E+04  0.7818609E-02  0.8729938E-01
        2   -1    0    0  501    0  0.00000000000E+00  0.00000000000E+00  0.20020115409E+04  0.20020115409E+04  0.25500000920E-02 0. -1.
       -2   -1    0    0    0  501  0.00000000000E+00  0.00000000000E+00 -0.38514771821E+03  0.38514771821E+03  0.25500000920E-02 0.  1.
    10030    2    1    2    0    0  0.00000000000E+00  0.00000000000E+00  0.16168638227E+04  0.23871592592E+04  0.17562120337E+04 0.  0.
        5    1    3    3  502    0 -0.78545217184E+03 -0.37797946914E+03  0.95256855132E+03  0.12912058427E+04  0.46999998093E+01 0. -1.
       -5    1    3    3    0  502  0.78545217184E+03  0.37797946914E+03  0.66429527141E+03  0.10959534164E+04  0.46999998093E+01 0.  1.
</event>
<event>
 5   0  0.1764099E-04  0.1599198E+04  0.7818609E-02  0.8821041E-01
       -1   -1    0    0    0  501  0.00000000000E+00  0.00000000000E+00  0.15114491666E+04  0.15114491666E+04  0.50400001928E-02 0.  1.
        1   -1    0    0  501    0  0.00000000000E+00  0.00000000000E+00 -0.42301011343E+03  0.42301011346E+03  0.50400001928E-02 0. -1.
    10030    2    1    2    0    0  0.00000000000E+00  0.00000000000E+00  0.10884390531E+04  0.19344592800E+04  0.15991976531E+04 0.  0.
        5    1    3    3  502    0 -0.39452069015E+02 -0.73558522761E+03  0.16807266925E+03  0.75558758921E+03  0.46999998093E+01 0.  1.
       -5    1    3    3    0  502  0.39452069015E+02  0.73558522761E+03  0.92036638390E+03  0.11788716908E+04  0.46999998093E+01 0. -1.
</event>
<event>
 5   0  0.1761255E-04  0.1578046E+04  0.7818609E-02  0.8834150E-01
       -1   -1    0    0    0  501  0.00000000000E+00  0.00000000000E+00  0.96795372366E+03  0.96795372368E+03  0.50400001928E-02 0. -1.
        1   -1    0    0  501    0  0.00000000000E+00  0.00000000000E+00 -0.64316860956E+03  0.64316860958E+03  0.50400001928E-02 0.  1.
    10030    2    1    2    0    0  0.00000000000E+00  0.00000000000E+00  0.32478511411E+03  0.16111223333E+04  0.15780461978E+04 0.  0.
        2    1    3    3  502    0  0.69599484541E+03 -0.11997850996E+03  0.52155262606E+03  0.87796401375E+03  0.25500000920E-02 0. -1.
       -2    1    3    3    0  502 -0.69599484541E+03  0.11997850996E+03 -0.19676751195E+03  0.73315831950E+03  0.25500000920E-02 0.  1.
</event>
<event>
 5   0  0.3380454E-04  0.1568419E+04  0.7818609E-02  0.8840188E-01
        2   -1    0    0  501    0  0.00000000000E+00  0.00000000000E+00  0.64101888484E+03  0.64101888485E+03  0.25500000920E-02 0. -1.
       -2   -1    0    0    0  501  0.00000000000E+00  0.00000000000E+00 -0.95938553815E+03  0.95938553815E+03  0.25500000920E-02 0.  1.
    10030    2    1    2    0    0  0.00000000000E+00  0.00000000000E+00 -0.31836665330E+03  0.16004044230E+04  0.15684186275E+04 0.  0.
        5    1    3    3  502    0  0.18343663766E+03 -0.76200664367E+03 -0.18537849870E+03  0.80541318763E+03  0.46999998093E+01 0.  1.
       -5    1    3    3    0  502 -0.18343663766E+03  0.76200664367E+03 -0.13298815460E+03  0.79499123536E+03  0.46999998093E+01 0. -1.
</event>
<event>
 5   0  0.3228393E-04  0.1631341E+04  0.7818609E-02  0.8801522E-01
       -2   -1    0    0    0  501  0.00000000000E+00  0.00000000000E+00  0.76871334195E+03  0.76871334195E+03  0.25500000920E-02 0. -1.
        2   -1    0    0  501    0  0.00000000000E+00  0.00000000000E+00 -0.86549558509E+03  0.86549558509E+03  0.25500000920E-02 0.  1.
    10030    2    1    2    0    0  0.00000000000E+00  0.00000000000E+00 -0.96782243137E+02  0.16342089270E+04  0.16313405575E+04 0.  0.
        1    1    3    3  502    0 -0.72893883568E+02 -0.43796599608E+03  0.63705628523E+03  0.77651042656E+03  0.50400001928E-02 0. -1.
       -1    1    3    3    0  502  0.72893883568E+02  0.43796599608E+03 -0.73383852837E+03  0.85769850048E+03  0.50400001928E-02 0.  1.
</event>
<event>
 5   0  0.1761255E-04  0.1587068E+04  0.7818609E-02  0.8828532E-01
        1   -1    0    0  501    0  0.00000000000E+00  0.00000000000E+00  0.55743301166E+03  0.55743301168E+03  0.50400001928E-02 0. -1.
       -1   -1    0    0    0  501  0.00000000000E+00  0.00000000000E+00 -0.11296351357E+04  0.11296351357E+04  0.50400001928E-02 0.  1.
    10030    2    1    2    0    0  0.00000000000E+00  0.00000000000E+00 -0.57220212406E+03  0.16870681474E+04  0.15870676303E+04 0.  0.
        2    1    3    3  502    0 -0.44510181390E+03  0.44746948581E+03  0.22519589880E+03  0.67011771974E+03  0.25500000920E-02 0. -1.
       -2    1    3    3    0  502  0.44510181390E+03 -0.44746948581E+03 -0.79739802286E+03  0.10169504277E+04  0.25500000920E-02 0.  1.
</event>
<event>
 5   0  0.1764099E-04  0.1608228E+04  0.7818609E-02  0.8815509E-01
        1   -1    0    0  501    0  0.00000000000E+00  0.00000000000E+00  0.59642207817E+03  0.59642207819E+03  0.50400001928E-02 0. -1.
       -1   -1    0    0    0  501  0.00000000000E+00  0.00000000000E+00 -0.10841308861E+04  0.10841308862E+04  0.50400001928E-02 0.  1.
    10030    2    1    2    0    0  0.00000000000E+00  0.00000000000E+00 -0.48770880797E+03  0.16805529643E+04  0.16082283372E+04 0.  0.
        5    1    3    3  502    0  0.18145568985E+03  0.78335006717E+03 -0.24776587095E+03  0.84141161860E+03  0.46999998093E+01 0.  1.
       -5    1    3    3    0  502 -0.18145568985E+03 -0.78335006717E+03 -0.23994293703E+03  0.83914134574E+03  0.46999998093E+01 0. -1.
</event>
<event>
 5   0  0.1736537E-04  0.1590327E+04  0.7818609E-02  0.8826513E-01
        1   -1    0    0  501    0  0.00000000000E+00  0.00000000000E+00  0.84707513041E+03  0.84707513042E+03  0.50400001928E-02 0. -1.
       -1   -1    0    0    0  501  0.00000000000E+00  0.00000000000E+00 -0.74643293742E+03  0.74643293743E+03  0.50400001928E-02 0.  1.
    10030    2    1    2    0    0  0.00000000000E+00  0.00000000000E+00  0.10064219299E+03  0.15935080679E+04  0.15903267310E+04 0.  0.
        3    1    3    3  502    0 -0.55907278766E+03  0.50208334539E+03 -0.21026587093E+03  0.78029597865E+03  0.10100000352E+00 0.  1.
       -3    1    3    3    0  502  0.55907278766E+03 -0.50208334539E+03  0.31090806392E+03  0.81321208921E+03  0.10100000352E+00 0. -1.
</event>
<event>
 5   0  0.1736537E-04  0.1662385E+04  0.7818609E-02  0.8783113E-01
       -1   -1    0    0    0  501  0.00000000000E+00  0.00000000000E+00  0.65786993350E+03  0.65786993352E+03  0.50400001928E-02 0. -1.
        1   -1    0    0  501    0  0.00000000000E+00  0.00000000000E+00 -0.10501791684E+04  0.10501791684E+04  0.50400001928E-02 0.  1.
    10030    2    1    2    0    0  0.00000000000E+00  0.00000000000E+00 -0.39230923492E+03  0.17080491020E+04  0.16623853942E+04 0.  0.
        3    1    3    3  502    0 -0.56731359508E+02 -0.31187804985E+03  0.59332322299E+03  0.67269519269E+03  0.10100000352E+00 0. -1.
       -3    1    3    3    0  502  0.56731359508E+02  0.31187804985E+03 -0.98563245792E+03  0.10353539093E+04  0.10100000352E+00 0.  1.
</event>
<event>
 5   0  0.1764099E-04  0.1598953E+04  0.7818609E-02  0.8821191E-01
       -1   -1    0    0    0  501  0.00000000000E+00  0.00000000000E+00  0.96677572569E+03  0.96677572570E+03  0.50400001928E-02 0. -1.
        1   -1    0    0  501    0  0.00000000000E+00  0.00000000000E+00 -0.66112825729E+03  0.66112825731E+03  0.50400001928E-02 0.  1.
    10030    2    1    2    0    0  0.00000000000E+00  0.00000000000E+00  0.30564746840E+03  0.16279039830E+04  0.15989530959E+04 0.  0.
        5    1    3    3  502    0 -0.52471540160E+03 -0.12188691268E+03 -0.44859871374E+03  0.70103178824E+03  0.46999998093E+01 0.  1.
       -5    1    3    3    0  502  0.52471540160E+03  0.12188691268E+03  0.75424618214E+03  0.92687219477E+03  0.46999998093E+01 0. -1.
</event>
<event>
 5   0  0.1787688E-04  0.1600371E+04  0.7818609E-02  0.8820320E-01
        1   -1    0    0  501    0  0.00000000000E+00  0.00000000000E+00  0.66752429500E+03  0.66752429502E+03  0.50400001928E-02 0.  1.
       -1   -1    0    0    0  501  0.00000000000E+00  0.00000000000E+00 -0.95921166792E+03  0.95921166793E+03  0.50400001928E-02 0. -1.
    10030    2    1    2    0    0  0.00000000000E+00  0.00000000000E+00 -0.29168737292E+03  0.16267359629E+04  0.16003713224E+04 0.  0.
        4    1    3    3  502    0 -0.51921061334E+02 -0.47016757912E+03  0.51018944709E+03  0.69573575004E+03  0.12699999809E+01 0.  1.
       -4    1    3    3    0  502  0.51921061334E+02  0.47016757912E+03 -0.80187682001E+03  0.93100021291E+03  0.12699999809E+01 0. -1.
</event>
<event>
 5   0  0.1764099E-04  0.1648668E+04  0.7818609E-02  0.8791195E-01
       -1   -1    0    0    0  501  0.00000000000E+00  0.00000000000E+00  0.75826057904E+03  0.75826057905E+03  0.50400001928E-02 0.  1.
        1   -1    0    0  501    0  0.00000000000E+00  0.00000000000E+00 -0.89616458127E+03  0.89616458128E+03  0.50400001928E-02 0. -1.
    10030    2    1    2    0    0  0.00000000000E+00  0.00000000000E+00 -0.13790400223E+03  0.16544251603E+04  0.16486676734E+04 0.  0.
        5    1    3    3  502    0 -0.72698675330E+03 -0.38556632268E+03 -0.11742239570E+03  0.83125281213E+03  0.46999998093E+01 0.  1.
       -5    1    3    3    0  502  0.72698675330E+03  0.38556632268E+03 -0.20481606525E+02  0.82317234821E+03  0.46999998093E+01 0. -1.
</event>
<event>
 5   0  0.3263294E-04  0.1600453E+04  0.7818609E-02  0.8820270E-01
       -2   -1    0    0    0  501  0.00000000000E+00  0.00000000000E+00  0.37023310723E+03  0.37023310724E+03  0.25500000920E-02 0.  1.
        2   -1    0    0  501    0  0.00000000000E+00  0.00000000000E+00 -0.17296203136E+04  0.17296203136E+04  0.25500000920E-02 0. -1.
    10030    2    1    2    0    0  0.00000000000E+00  0.00000000000E+00 -0.13593872064E+04  0.20998534208E+04  0.16004533146E+04 0.  0.
        4    1    3    3  502    0 -0.23616956552E+03 -0.47169816452E+03  0.10980571144E+03  0.53882662263E+03  0.12699999809E+01 0.  1.
       -4    1    3    3    0  502  0.23616956552E+03  0.47169816452E+03 -0.14691929178E+04  0.15610267982E+04  0.12699999809E+01 0. -1.
</event>
<event>
 5   0  0.1764099E-04  0.1594628E+04  0.7818609E-02  0.8823855E-01
       -1   -1    0    0    0  501  0.00000000000E+00  0.00000000000E+00  0.12465414060E+04  0.12465414060E+04  0.50400001928E-02 0.  1.
        1   -1    0    0  501    0  0.00000000000E+00  0.00000000000E+00 -0.50997870677E+03  0.50997870679E+03  0.50400001928E-02 0. -1.
    10030    2    1    2    0    0  0.00000000000E+00  0.00000000000E+00  0.73656269922E+03  0.17565201128E+04  0.15946279493E+04 0.  0.
        5    1    3    3  502    0  0.86358800729E+01  0.95265448613E+02  0.12401825097E+04  0.12438749259E+04  0.46999998093E+01 0.  1.
       -5    1    3    3    0  502 -0.86358800729E+01 -0.95265448613E+02 -0.50361981044E+03  0.51264518684E+03  0.46999998093E+01 0. -1.
</event>
<event>
 5   0  0.3274900E-04  0.1601169E+04  0.7818609E-02  0.8819830E-01
        2   -1    0    0  501    0  0.00000000000E+00  0.00000000000E+00  0.53975843098E+03  0.53975843099E+03  0.25500000920E-02 0.  1.
       -2   -1    0    0    0  501  0.00000000000E+00  0.00000000000E+00 -0.11874488234E+04  0.11874488234E+04  0.25500000920E-02 0. -1.
    10030    2    1    2    0    0  0.00000000000E+00  0.00000000000E+00 -0.64769039246E+03  0.17272072544E+04  0.16011689652E+04 0.  0.
        3    1    3    3  502    0 -0.27115037265E+03  0.35000247699E+03 -0.10433670365E+04  0.11334191817E+04  0.10100000352E+00 0. -1.
       -3    1    3    3    0  502  0.27115037265E+03 -0.35000247699E+03  0.39567664401E+03  0.59378807272E+03  0.10100000352E+00 0.  1.
</event>
<event>
 5   0  0.3274900E-04  0.1580562E+04  0.7818609E-02  0.8832580E-01
       -2   -1    0    0    0  501  0.00000000000E+00  0.00000000000E+00  0.47526169860E+03  0.47526169861E+03  0.25500000920E-02 0.  1.
        2   -1    0    0  501    0  0.00000000000E+00  0.00000000000E+00 -0.13141047876E+04  0.13141047876E+04  0.25500000920E-02 0. -1.
    10030    2    1    2    0    0  0.00000000000E+00  0.00000000000E+00 -0.83884308901E+03  0.17893664862E+04  0.15805615123E+04 0.  0.
        3    1    3    3  502    0 -0.31637358626E+03  0.99363451262E+02  0.39268617698E+03  0.51397255308E+03  0.10100000352E+00 0.  1.
       -3    1    3    3    0  502  0.31637358626E+03 -0.99363451262E+02 -0.12315292660E+04  0.12753939332E+04  0.10100000352E+00 0. -1.
</event>
<event>
 5   0  0.1219463E-04  0.1613333E+04  0.7818609E-02  0.8812399E-01
        4   -1    0    0  501    0  0.00000000000E+00  0.00000000000E+00  0.76173222613E+03  0.76173328483E+03  0.12699999809E+01 0. -1.
       -4   -1    0    0    0  501  0.00000000000E+00  0.00000000000E+00 -0.85424884159E+03  0.85424978563E+03  0.12699999809E+01 0.  1.
    10030    2    1    2    0    0  0.00000000000E+00  0.00000000000E+00 -0.92516615461E+02  0.16159830705E+04  0.16133325633E+04 0.  0.
        4    1    3    3  502    0 -0.38490351584E+03 -0.10079349816E+03 -0.74912249222E+03  0.84823119904E+03  0.12699999809E+01 0.  1.
       -4    1    3    3    0  502  0.38490351584E+03  0.10079349816E+03  0.65660587676E+03  0.76775187142E+03  0.12699999809E+01 0. -1.
</event>
<event>
 5   0  0.3380454E-04  0.1606162E+04  0.7818609E-02  0.8816771E-01
       -2   -1    0    0    0  501  0.00000000000E+00  0.00000000000E+00  0.58505346822E+03  0.58505346823E+03  0.25500000920E-02 0.  1.
        2   -1    0    0  501    0  0.00000000000E+00  0.00000000000E+00 -0.11023595319E+04  0.11023595319E+04  0.25500000920E-02 0. -1.
    10030    2    1    2    0    0  0.00000000000E+00  0.00000000000E+00 -0.51730606368E+03  0.16874130001E+04  0.16061622177E+04 0.  0.
        5    1    3    3  502    0 -0.35315863680E+03  0.69161279842E+03 -0.47362039585E+03  0.90960851747E+03  0.46999998093E+01 0. -1.
       -5    1    3    3    0  502  0.35315863680E+03 -0.69161279842E+03 -0.43685667825E+02  0.77780448267E+03  0.46999998093E+01 0.  1.
</event>
<event>
 5   0  0.1764099E-04  0.1550065E+04  0.7818609E-02  0.8851826E-01
        1   -1    0    0  501    0  0.00000000000E+00  0.00000000000E+00  0.10076017928E+04  0.10076017928E+04  0.50400001928E-02 0. -1.
       -1   -1    0    0    0  501  0.00000000000E+00  0.00000000000E+00 -0.59614333896E+03  0.59614333898E+03  0.50400001928E-02 0.  1.
    10030    2    1    2    0    0  0.00000000000E+00  0.00000000000E+00  0.41145845386E+03  0.16037451318E+04  0.15500646401E+04 0.  0.
        5    1    3    3  502    0  0.59995525501E+03 -0.37671576477E+02  0.71184001496E+03  0.93172085551E+03  0.46999998093E+01 0. -1.
       -5    1    3    3    0  502 -0.59995525501E+03  0.37671576477E+02 -0.30038156110E+03  0.67202427630E+03  0.46999998093E+01 0.  1.
</event>
<event>
 5   0  0.1761255E-04  0.1605533E+04  0.7818609E-02  0.8817156E-01
       -1   -1    0    0    0  501  0.00000000000E+00  0.00000000000E+00  0.41998819277E+03  0.41998819280E+03  0.50400001928E-02 0. -1.
        1   -1    0    0  501    0  0.00000000000E+00  0.00000000000E+00 -0.15344100770E+04  0.15344100770E+04  0.50400001928E-02 0.  1.
    10030    2    1    2    0    0  0.00000000000E+00  0.00000000000E+00 -0.11144218842E+04  0.19543982698E+04  0.16055330769E+04 0.  0.
        2    1    3    3  502    0 -0.92729938944E+02 -0.57060006236E+03 -0.12352431075E+04  0.13638213986E+04  0.25500000920E-02 0.  1.
       -2    1    3    3    0  502  0.92729938944E+02  0.57060006236E+03  0.12082122328E+03  0.59057687115E+03  0.25500000920E-02 0. -1.
</event>
<event>
 5   0  0.3380454E-04  0.1607332E+04  0.7818609E-02  0.8816056E-01
       -2   -1    0    0    0  501  0.00000000000E+00  0.00000000000E+00  0.90077639687E+03  0.90077639688E+03  0.25500000920E-02 0.  1.
        2   -1    0    0  501    0  0.00000000000E+00  0.00000000000E+00 -0.71702486834E+03  0.71702486834E+03  0.25500000920E-02 0. -1.
    10030    2    1    2    0    0  0.00000000000E+00  0.00000000000E+00  0.18375152854E+03  0.16178012652E+04  0.16073320471E+04 0.  0.
        5    1    3    3  502    0 -0.51358643141E+03  0.28412186462E+02  0.71337535387E+03  0.87949119403E+03  0.46999998093E+01 0.  1.
       -5    1    3    3    0  502  0.51358643141E+03 -0.28412186462E+02 -0.52962382533E+03  0.73831007119E+03  0.46999998093E+01 0. -1.
</event>
<event>
 5   0  0.3228393E-04  0.1588645E+04  0.7818609E-02  0.8827554E-01
       -2   -1    0    0    0  501  0.00000000000E+00  0.00000000000E+00  0.33576936605E+03  0.33576936606E+03  0.25500000920E-02 0. -1.
        2   -1    0    0  501    0  0.00000000000E+00  0.00000000000E+00 -0.18791120394E+04  0.18791120394E+04  0.25500000920E-02 0.  1.
    10030    2    1    2    0    0  0.00000000000E+00  0.00000000000E+00 -0.15433426734E+04  0.22148814055E+04  0.15886450305E+04 0.  0.
        1    1    3    3  502    0 -0.69433264276E+03 -0.18851097506E+03 -0.12409874797E+04  0.14344630115E+04  0.50400001928E-02 0. -1.
       -1    1    3    3    0  502  0.69433264276E+03  0.18851097506E+03 -0.30235519368E+03  0.78041839400E+03  0.50400001928E-02 0.  1.
</event>
<event>
 5   0  0.1761255E-04  0.1473648E+04  0.7818609E-02  0.8902168E-01
       -1   -1    0    0    0  501  0.00000000000E+00  0.00000000000E+00  0.98841693765E+03  0.98841693766E+03  0.50400001928E-02 0. -1.
        1   -1    0    0  501    0  0.00000000000E+00  0.00000000000E+00 -0.54927170925E+03  0.54927170927E+03  0.50400001928E-02 0.  1.
    10030    2    1    2    0    0  0.00000000000E+00  0.00000000000E+00  0.43914522839E+03  0.15376886469E+04  0.14736478016E+04 0.  0.
        2    1    3    3  502    0 -0.65991760812E+02 -0.19791836220E+03 -0.51780768101E+03  0.55825745414E+03  0.25500000920E-02 0.  1.
       -2    1    3    3    0  502  0.65991760812E+02  0.19791836220E+03  0.95695290940E+03  0.97943119279E+03  0.25500000920E-02 0. -1.
</event>
<event>
 5   0  0.3228393E-04  0.1608209E+04  0.7818609E-02  0.8815521E-01
        2   -1    0    0  501    0  0.00000000000E+00  0.00000000000E+00  0.24998264828E+04  0.24998264828E+04  0.25500000920E-02 0.  1.
       -2   -1    0    0    0  501  0.00000000000E+00  0.00000000000E+00 -0.25865145210E+03  0.25865145212E+03  0.25500000920E-02 0. -1.
    10030    2    1    2    0    0  0.00000000000E+00  0.00000000000E+00  0.22411750307E+04  0.27584779349E+04  0.16082086305E+04 0.  0.
        1    1    3    3  502    0  0.59318347280E+01 -0.57200482373E+02  0.24962947643E+04  0.24969570746E+04  0.50400001928E-02 0.  1.
       -1    1    3    3    0  502 -0.59318347280E+01  0.57200482373E+02 -0.25511973366E+03  0.26152086031E+03  0.50400001928E-02 0. -1.
</event>
<event>
 5   0  0.1787688E-04  0.1594241E+04  0.7818609E-02  0.8824094E-01
       -1   -1    0    0    0  501  0.00000000000E+00  0.00000000000E+00  0.59426051231E+03  0.59426051233E+03  0.50400001928E-02 0. -1.
        1   -1    0    0  501    0  0.00000000000E+00  0.00000000000E+00 -0.10692300452E+04  0.10692300452E+04  0.50400001928E-02 0.  1.
    10030    2    1    2    0    0  0.00000000000E+00  0.00000000000E+00 -0.47496953292E+03  0.16634905576E+04  0.15942411292E+04 0.  0.
        4    1    3    3  502    0  0.67889716588E+03  0.28516134858E+03 -0.55600024253E+03  0.92268967652E+03  0.12699999809E+01 0.  1.
       -4    1    3    3    0  502 -0.67889716588E+03 -0.28516134858E+03  0.81030709604E+02  0.74080088105E+03  0.12699999809E+01 0. -1.
</event>
<event>
 5   0  0.3274900E-04  0.1604615E+04  0.7818609E-02  0.8817718E-01
       -2   -1    0    0    0  501  0.00000000000E+00  0.00000000000E+00  0.51448353842E+03  0.51448353842E+03  0.25500000920E-02 0. -1.
        2   -1    0    0  501    0  0.00000000000E+00  0.00000000000E+00 -0.12511525493E+04  0.12511525493E+04  0.25500000920E-02 0.  1.
    10030    2    1    2    0    0  0.00000000000E+00  0.00000000000E+00 -0.73666901085E+03  0.17656360877E+04  0.16046150824E+04 0.  0.
        3    1    3    3  502    0 -0.49270689503E+03 -0.50692632848E+03  0.49164803670E+02  0.70862654130E+03  0.10100000352E+00 0. -1.
       -3    1    3    3    0  502  0.49270689503E+03  0.50692632848E+03 -0.78583381452E+03  0.10570095464E+04  0.10100000352E+00 0.  1.
</event>
<event>
 5   0  0.1787688E-04  0.1536278E+04  0.7818609E-02  0.8860680E-01
       -1   -1    0    0    0  501  0.00000000000E+00  0.00000000000E+00  0.51664821610E+03  0.51664821613E+03  0.50400001928E-02 0. -1.
        1   -1    0    0  501    0  0.00000000000E+00  0.00000000000E+00 -0.11420494129E+04  0.11420494129E+04  0.50400001928E-02 0.  1.
    10030    2    1    2    0    0  0.00000000000E+00  0.00000000000E+00 -0.62540119680E+03  0.16586976290E+04  0.15362783497E+04 0.  0.
        4    1    3    3  502    0 -0.48624395517E+03  0.49106690896E+03 -0.67476779701E+03  0.96586390646E+03  0.12699999809E+01 0.  1.
       -4    1    3    3    0  502  0.48624395517E+03 -0.49106690896E+03  0.49366600214E+02  0.69283372258E+03  0.12699999809E+01 0. -1.
</event>
<event>
 5   0  0.3274900E-04  0.1595435E+04  0.7818609E-02  0.8823357E-01
       -2   -1    0    0    0  501  0.00000000000E+00  0.00000000000E+00  0.30585787238E+03  0.30585787239E+03  0.25500000920E-02 0. -1.
        2   -1    0    0  501    0  0.00000000000E+00  0.00000000000E+00 -0.20805515324E+04  0.20805515324E+04  0.25500000920E-02 0.  1.
    10030    2    1    2    0    0  0.00000000000E+00  0.00000000000E+00 -0.17746936600E+04  0.23864094048E+04  0.15954348186E+04 0.  0.
        3    1    3    3  502    0  0.79125184514E+03  0.89835622332E+02 -0.81713888128E+03  0.11409933755E+04  0.10100000352E+00 0. -1.
       -3    1    3    3    0  502 -0.79125184514E+03 -0.89835622332E+02 -0.95755477873E+03  0.12454160293E+04  0.10100000352E+00 0.  1.
</event>
<event>
 5   0  0.3263294E-04  0.1602665E+04  0.7818609E-02  0.8818913E-01
        2   -1    0    0  501    0  0.00000000000E+00  0.00000000000E+00  0.23366109469E+04  0.23366109469E+04  0.25500000920E-02 0. -1.
       -2   -1    0    0    0  501  0.00000000000E+00  0.00000000000E+00 -0.27481409615E+03  0.27481409616E+03  0.25500000920E-02 0.  1.
    10030    2    1    2    0    0  0.00000000000E+00  0.00000000000E+00  0.20617968507E+04  0.26114250430E+04  0.16026648127E+04 0.  0.
        4    1    3    3  502    0 -0.50038450499E+03  0.47842760395E+03  0.37333962505E+03  0.78655051560E+03  0.12699999809E+01 0.  1.
       -4    1    3    3    0  502  0.50038450499E+03 -0.47842760395E+03  0.16884572257E+04  0.18248745274E+04  0.12699999809E+01 0. -1.
</event>
<event>
 5   0  0.3210612E-04  0.1599958E+04  0.7818609E-02  0.8820574E-01
       -2   -1    0    0    0  501  0.00000000000E+00  0.00000000000E+00  0.54538744501E+03  0.54538744501E+03  0.25500000920E-02 0. -1.
        2   -1    0    0  501    0  0.00000000000E+00  0.00000000000E+00 -0.11734159778E+04  0.11734159778E+04  0.25500000920E-02 0.  1.
    10030    2    1    2    0    0  0.00000000000E+00  0.00000000000E+00 -0.62802853279E+03  0.17188034228E+04  0.15999579270E+04 0.  0.
        2    1    3    3  502    0 -0.11138859451E+03 -0.68726704978E+03  0.10923438150E+03  0.70475213146E+03  0.25500000920E-02 0. -1.
       -2    1    3    3    0  502  0.11138859451E+03  0.68726704978E+03 -0.73726291430E+03  0.10140512914E+04  0.25500000920E-02 0.  1.
</event>
<event>
 5   0  0.3210612E-04  0.1598681E+04  0.7818609E-02  0.8821359E-01
        2   -1    0    0  501    0  0.00000000000E+00  0.00000000000E+00  0.13714845181E+04  0.13714845181E+04  0.25500000920E-02 0. -1.
       -2   -1    0    0    0  501  0.00000000000E+00  0.00000000000E+00 -0.46587849212E+03  0.46587849213E+03  0.25500000920E-02 0.  1.
    10030    2    1    2    0    0  0.00000000000E+00  0.00000000000E+00  0.90560602601E+03  0.18373630103E+04  0.15986808803E+04 0.  0.
        2    1    3    3  502    0  0.57456631805E+03 -0.34119397065E+03  0.95693211749E+03  0.11671584541E+04  0.25500000920E-02 0. -1.
       -2    1    3    3    0  502 -0.57456631805E+03  0.34119397065E+03 -0.51326091477E+02  0.67020455618E+03  0.25500000920E-02 0.  1.
</event>
<event>
 5   0  0.1787688E-04  0.1588964E+04  0.7818609E-02  0.8827356E-01
       -1   -1    0    0    0  501  0.00000000000E+00  0.00000000000E+00  0.10470584034E+04  0.10470584034E+04  0.50400001928E-02 0.  1.
        1   -1    0    0  501    0  0.00000000000E+00  0.00000000000E+00 -0.60283356303E+03  0.60283356305E+03  0.50400001928E-02 0. -1.
    10030    2    1    2    0    0  0.00000000000E+00  0.00000000000E+00  0.44422484033E+03  0.16498919664E+04  0.15889643772E+04 0.  0.
        4    1    3    3  502    0  0.67611519869E+03 -0.41087666034E+03  0.29734003365E+03  0.84520062732E+03  0.12699999809E+01 0.  1.
       -4    1    3    3    0  502 -0.67611519869E+03  0.41087666034E+03  0.14688480668E+03  0.80469133911E+03  0.12699999809E+01 0. -1.
</event>
<event>
 5   0  0.3210612E-04  0.1599156E+04  0.7818609E-02  0.8821067E-01
        2   -1    0    0  501    0  0.00000000000E+00  0.00000000000E+00  0.18179251513E+04  0.18179251513E+04  0.25500000920E-02 0.  1.
       -2   -1    0    0    0  501  0.00000000000E+00  0.00000000000E+00 -0.35167830707E+03  0.35167830708E+03  0.25500000920E-02 0. -1.
    10030    2    1    2    0    0  0.00000000000E+00  0.00000000000E+00  0.14662468443E+04  0.21696034584E+04  0.15991558268E+04 0.  0.
        2    1    3    3  502    0  0.59469773037E+03  0.48109158138E+03  0.41723722985E+03  0.87132164335E+03  0.25500000920E-02 0. -1.
       -2    1    3    3    0  502 -0.59469773037E+03 -0.48109158138E+03  0.10490096144E+04  0.12982818151E+04  0.25500000920E-02 0.  1.
</event>
<event>
 5   0  0.3380454E-04  0.1578861E+04  0.7818609E-02  0.8833641E-01
        2   -1    0    0  501    0  0.00000000000E+00  0.00000000000E+00  0.89205670677E+03  0.89205670677E+03  0.25500000920E-02 0.  1.
       -2   -1    0    0    0  501  0.00000000000E+00  0.00000000000E+00 -0.69861046936E+03  0.69861046937E+03  0.25500000920E-02 0. -1.
    10030    2    1    2    0    0  0.00000000000E+00  0.00000000000E+00  0.19344623741E+03  0.15906671761E+04  0.15788605443E+04 0.  0.
        5    1    3    3  502    0 -0.46159631774E+02  0.99906760369E+02  0.88427578247E+03  0.89111044312E+03  0.46999998093E+01 0.  1.
       -5    1    3    3    0  502  0.46159631774E+02 -0.99906760369E+02 -0.69082954507E+03  0.69955673302E+03  0.46999998093E+01 0. -1.
</event>
<event>
 5   0  0.3380454E-04  0.1601894E+04  0.7818609E-02  0.8819385E-01
       -2   -1    0    0    0  501  0.00000000000E+00  0.00000000000E+00  0.36681610107E+03  0.36681610108E+03  0.25500000920E-02 0.  1.
        2   -1    0    0  501    0  0.00000000000E+00  0.00000000000E+00 -0.17488764417E+04  0.17488764417E+04  0.25500000920E-02 0. -1.
    10030    2    1    2    0    0  0.00000000000E+00  0.00000000000E+00 -0.13820603406E+04  0.21156925428E+04  0.16018939261E+04 0.  0.
        5    1    3    3  502    0 -0.74283992697E+03  0.18983077688E+03 -0.99693884379E+03  0.12576788259E+04  0.46999998093E+01 0. -1.
       -5    1    3    3    0  502  0.74283992697E+03 -0.18983077688E+03 -0.38512149683E+03  0.85801371683E+03  0.46999998093E+01 0.  1.
</event>
<event>
 5   0  0.3274900E-04  0.1576542E+04  0.7818609E-02  0.8835090E-01
        2   -1    0    0  501    0  0.00000000000E+00  0.00000000000E+00  0.13319479869E+04  0.13319479869E+04  0.25500000920E-02 0.  1.
       -2   -1    0    0    0  501  0.00000000000E+00  0.00000000000E+00 -0.46651282141E+03  0.46651282142E+03  0.25500000920E-02 0. -1.
    10030    2    1    2    0    0  0.00000000000E+00  0.00000000000E+00  0.86543516550E+03  0.17984608083E+04  0.15765415483E+04 0.  0.
        3    1    3    3  502    0  0.31991804192E+03  0.48749722117E+03 -0.17239227530E+03  0.60804621615E+03  0.10100000352E+00 0. -1.
       -3    1    3    3    0  502 -0.31991804192E+03 -0.48749722117E+03  0.10378274408E+04  0.11904145922E+04  0.10100000352E+00 0.  1.
</event>
<event>
 5   0  0.1764099E-04  0.1601052E+04  0.7818609E-02  0.8819902E-01
        1   -1    0    0  501    0  0.00000000000E+00  0.00000000000E+00  0.61148039692E+03  0.61148039694E+03  0.50400001928E-02 0.  1.
       -1   -1    0    0    0  501  0.00000000000E+00  0.00000000000E+00 -0.10480166532E+04  0.10480166532E+04  0.50400001928E-02 0. -1.
    10030    2    1    2    0    0  0.00000000000E+00  0.00000000000E+00 -0.43653625623E+03  0.16594970501E+04  0.16010517032E+04 0.  0.
        5    1    3    3  502    0  0.56180564668E+02  0.73560560418E+03  0.10379578676E+03  0.74502853374E+03  0.46999998093E+01 0.  1.
       -5    1    3    3    0  502 -0.56180564668E+02 -0.73560560418E+03 -0.54033204299E+03  0.91446851637E+03  0.46999998093E+01 0. -1.
</event>
<event>
 5   0  0.1819811E-04  0.1424467E+04  0.7818609E-02  0.8936296E-01
        1   -1    0    0  501    0  0.00000000000E+00  0.00000000000E+00  0.63908154502E+03  0.63908154504E+03  0.50400001928E-02 0.  1.
       -1   -1    0    0    0  501  0.00000000000E+00  0.00000000000E+00 -0.79375841125E+03  0.79375841127E+03  0.50400001928E-02 0. -1.
    10030    2    1    2    0    0  0.00000000000E+00  0.00000000000E+00 -0.15467686624E+03  0.14328399563E+04  0.14244667098E+04 0.  0.
        1    1    3    3  502    0  0.74304612354E+02  0.62694406120E+03  0.25429079587E+03  0.68062018791E+03  0.50400001928E-02 0.  1.
       -1    1    3    3    0  502 -0.74304612354E+02 -0.62694406120E+03 -0.40896766210E+03  0.75221976840E+03  0.50400001928E-02 0. -1.
</event>
<event>
 5   0  0.3274900E-04  0.1587533E+04  0.7818609E-02  0.8828244E-01
       -2   -1    0    0    0  501  0.00000000000E+00  0.00000000000E+00  0.57124622668E+03  0.57124622668E+03  0.25500000920E-02 0.  1.
        2   -1    0    0  501    0  0.00000000000E+00  0.00000000000E+00 -0.11029661002E+04  0.11029661002E+04  0.25500000920E-02 0. -1.
    10030    2    1    2    0    0  0.00000000000E+00  0.00000000000E+00 -0.53171987351E+03  0.16742123269E+04  0.15875329576E+04 0.  0.
        3    1    3    3  502    0  0.71018153335E+03 -0.19108008473E+03 -0.58082326887E+03  0.93713664369E+03  0.10100000352E+00 0. -1.
       -3    1    3    3    0  502 -0.71018153335E+03  0.19108008473E+03  0.49103395366E+02  0.73707568317E+03  0.10100000352E+00 0.  1.
</event>
<event>
 5   0  0.1761255E-04  0.1597370E+04  0.7818609E-02  0.8822166E-01
       -1   -1    0    0    0  501  0.00000000000E+00  0.00000000000E+00  0.12964809921E+04  0.12964809921E+04  0.50400001928E-02 0.  1.
        1   -1    0    0  501    0  0.00000000000E+00  0.00000000000E+00 -0.49202220278E+03  0.49202220280E+03  0.50400001928E-02 0. -1.
    10030    2    1    2    0    0  0.00000000000E+00  0.00000000000E+00  0.80445878928E+03  0.17885031949E+04  0.15973696299E+04 0.  0.
        2    1    3    3  502    0 -0.15141599826E+03 -0.10638560210E+03  0.12721465243E+04  0.12855354838E+04  0.25500000920E-02 0.  1.
       -2    1    3    3    0  502  0.15141599826E+03  0.10638560210E+03 -0.46768773502E+03  0.50296771105E+03  0.25500000920E-02 0. -1.
</event>
<event>
 5   0  0.3263294E-04  0.1520885E+04  0.7818609E-02  0.8870682E-01
        2   -1    0    0  501    0  0.00000000000E+00  0.00000000000E+00  0.85205687371E+03  0.85205687372E+03  0.25500000920E-02 0. -1.
       -2   -1    0    0    0  501  0.00000000000E+00  0.00000000000E+00 -0.67867880767E+03  0.67867880768E+03  0.25500000920E-02 0.  1.
    10030    2    1    2    0    0  0.00000000000E+00  0.00000000000E+00  0.17337806604E+03  0.15307356814E+04  0.15208851937E+04 0.  0.
        4    1    3    3  502    0  0.61074321677E+03  0.12008641117E+03  0.52637463143E+03  0.81516862580E+03  0.12699999809E+01 0. -1.
       -4    1    3    3    0  502 -0.61074321677E+03 -0.12008641117E+03 -0.35299656539E+03  0.71556705560E+03  0.12699999809E+01 0.  1.
</event>
<event>
 5   0  0.1787688E-04  0.1571582E+04  0.7818609E-02  0.8838199E-01
       -1   -1    0    0    0  501  0.00000000000E+00  0.00000000000E+00  0.99586518845E+03  0.99586518846E+03  0.50400001928E-02 0.  1.
        1   -1    0    0  501    0  0.00000000000E+00  0.00000000000E+00 -0.62003106022E+03  0.62003106024E+03  0.50400001928E-02 0. -1.
    10030    2    1    2    0    0  0.00000000000E+00  0.00000000000E+00  0.37583412822E+03  0.16158962487E+04  0.15715818129E+04 0.  0.
        4    1    3    3  502    0 -0.53179951103E+03 -0.51089586292E+03  0.46693662146E+03  0.87284404337E+03  0.12699999809E+01 0. -1.
       -4    1    3    3    0  502  0.53179951103E+03  0.51089586292E+03 -0.91102493240E+02  0.74305220534E+03  0.12699999809E+01 0.  1.
</event>
<event>
 5   0  0.3263294E-04  0.1615436E+04  0.7818609E-02  0.8811121E-01
        2   -1    0    0  501    0  0.00000000000E+00  0.00000000000E+00  0.11803543054E+04  0.11803543054E+04  0.25500000920E-02 0.  1.
       -2   -1    0    0    0  501  0.00000000000E+00  0.00000000000E+00 -0.55272252065E+03  0.55272252066E+03  0.25500000920E-02 0. -1.
    10030    2    1    2    0    0  0.00000000000E+00  0.00000000000E+00  0.62763178470E+03  0.17330768260E+04  0.16154360488E+04 0.  0.
        4    1    3    3  502    0 -0.30843682169E+03 -0.66559440524E+03 -0.48819852784E+02  0.73521029385E+03  0.12699999809E+01 0. -1.
       -4    1    3    3    0  502  0.30843682169E+03  0.66559440524E+03  0.67645163748E+03  0.99786653216E+03  0.12699999809E+01 0.  1.
</event>
<event>
 5   0  0.3228393E-04  0.1590996E+04  0.7818609E-02  0.8826098E-01
        2   -1    0    0  501    0  0.00000000000E+00  0.00000000000E+00  0.66311668454E+03  0.66311668455E+03  0.25500000920E-02 0. -1.
       -2   -1    0    0    0  501  0.00000000000E+00  0.00000000000E+00 -0.95430764419E+03  0.95430764419E+03  0.25500000920E-02 0.  1.
    10030    2    1    2    0    0  0.00000000000E+00  0.00000000000E+00 -0.29119095964E+03  0.16174243287E+04  0.15909963181E+04 0.  0.
        1    1    3    3  502    0  0.32448350589E+03 -0.66769504082E+03 -0.43619530335E+03  0.86102993898E+03  0.50400001928E-02 0. -1.
       -1    1    3    3    0  502 -0.32448350589E+03  0.66769504082E+03  0.14500434370E+03  0.75639438976E+03  0.50400001928E-02 0.  1.
</event>
<event>
 5   0  0.3210612E-04  0.1605483E+04  0.7818609E-02  0.8817187E-01
        2   -1    0    0  501    0  0.00000000000E+00  0.00000000000E+00  0.14565534105E+04  0.14565534105E+04  0.25500000920E-02 0.  1.
       -2   -1    0    0    0  501  0.00000000000E+00  0.00000000000E+00 -0.44241005733E+03  0.44241005734E+03  0.25500000920E-02 0. -1.
    10030    2    1    2    0    0  0.00000000000E+00  0.00000000000E+00  0.10141433532E+04  0.18989634678E+04  0.16054829527E+04 0.  0.
        2    1    3    3  502    0 -0.61870766331E+03  0.17827569308E+03  0.10740908159E+04  0.12522988765E+04  0.25500000920E-02 0.  1.
       -2    1    3    3    0  502  0.61870766331E+03 -0.17827569308E+03 -0.59947462696E+02  0.64666459133E+03  0.25500000920E-02 0. -1.
</event>
<event>
 5   0  0.1736537E-04  0.1602378E+04  0.7818609E-02  0.8819088E-01
       -1   -1    0    0    0  501  0.00000000000E+00  0.00000000000E+00  0.59109306681E+03  0.59109306683E+03  0.50400001928E-02 0.  1.
        1   -1    0    0  501    0  0.00000000000E+00  0.00000000000E+00 -0.10859606226E+04  0.10859606227E+04  0.50400001928E-02 0. -1.
    10030    2    1    2    0    0  0.00000000000E+00  0.00000000000E+00 -0.49486755583E+03  0.16770536895E+04  0.16023779765E+04 0.  0.
        3    1    3    3  502    0  0.76217115124E+01  0.81998462539E+02 -0.10815192543E+04  0.10846500569E+04  0.10100000352E+00 0. -1.
       -3    1    3    3    0  502 -0.76217115124E+01 -0.81998462539E+02  0.58665169848E+03  0.59240363256E+03  0.10100000352E+00 0.  1.
</event>
<event>
 5   0  0.1819811E-04  0.1594056E+04  0.7818609E-02  0.8824208E-01
       -1   -1    0    0    0  501  0.00000000000E+00  0.00000000000E+00  0.35732594700E+03  0.35732594704E+03  0.50400001928E-02 0.  1.
        1   -1    0    0  501    0  0.00000000000E+00  0.00000000000E+00 -0.17777981513E+04  0.17777981513E+04  0.50400001928E-02 0. -1.
    10030    2    1    2    0    0  0.00000000000E+00  0.00000000000E+00 -0.14204722043E+04  0.21351240983E+04  0.15940557180E+04 0.  0.
        1    1    3    3  502    0  0.68279132126E+03  0.23799925001E+02 -0.12600271279E+04  0.14333313601E+04  0.50400001928E-02 0. -1.
       -1    1    3    3    0  502 -0.68279132126E+03 -0.23799925001E+02 -0.16044507635E+03  0.70179273819E+03  0.50400001928E-02 0.  1.
</event>
<event>
 5   0  0.1761255E-04  0.1601503E+04  0.7818609E-02  0.8819625E-01
        1   -1    0    0  501    0  0.00000000000E+00  0.00000000000E+00  0.97769571528E+03  0.97769571530E+03  0.50400001928E-02 0. -1.
       -1   -1    0    0    0  501  0.00000000000E+00  0.00000000000E+00 -0.65583116477E+03  0.65583116479E+03  0.50400001928E-02 0.  1.
    10030    2    1    2    0    0  0.00000000000E+00  0.00000000000E+00  0.32186455051E+03  0.16335268801E+04  0.16015034434E+04 0.  0.
        2    1    3    3  502    0  0.64824203588E+03 -0.30450336863E+02  0.63941619175E+03  0.91104227474E+03  0.25500000920E-02 0. -1.
       -2    1    3    3    0  502 -0.64824203588E+03  0.30450336863E+02 -0.31755164124E+03  0.72248460534E+03  0.25500000920E-02 0.  1.
</event>
<event>
 5   0  0.3210612E-04  0.1612157E+04  0.7818609E-02  0.8813114E-01
        2   -1    0    0  501    0  0.00000000000E+00  0.00000000000E+00  0.68037746487E+03  0.68037746488E+03  0.25500000920E-02 0.  1.
       -2   -1    0    0    0  501  0.00000000000E+00  0.00000000000E+00 -0.95500343892E+03  0.95500343892E+03  0.25500000920E-02 0. -1.
    10030    2    1    2    0    0  0.00000000000E+00  0.00000000000E+00 -0.27462597404E+03  0.16353809038E+04  0.16121573357E+04 0.  0.
        2    1    3    3  502    0  0.74841769271E+02  0.73123081146E+03 -0.47293097429E+03  0.87405005378E+03  0.25500000920E-02 0. -1.
       -2    1    3    3    0  502 -0.74841769271E+02 -0.73123081146E+03  0.19830500025E+03  0.76133085002E+03  0.25500000920E-02 0.  1.
</event>
<event>
 5   0  0.3380454E-04  0.1585571E+04  0.7818609E-02  0.8829461E-01
       -2   -1    0    0    0  501  0.00000000000E+00  0.00000000000E+00  0.48747882428E+03  0.48747882429E+03  0.25500000920E-02 0. -1.
        2   -1    0    0  501    0  0.00000000000E+00  0.00000000000E+00 -0.12893053087E+04  0.12893053087E+04  0.25500000920E-02 0.  1.
    10030    2    1    2    0    0  0.00000000000E+00  0.00000000000E+00 -0.80182648439E+03  0.17767841330E+04  0.15855712359E+04 0.  0.
        5    1    3    3  502    0  0.23234787339E+03  0.57558720047E+03 -0.95353934690E+03  0.11377809700E+04  0.46999998093E+01 0.  1.
       -5    1    3    3    0  502 -0.23234787339E+03 -0.57558720047E+03  0.15171286251E+03  0.63900316295E+03  0.46999998093E+01 0. -1.
</event>
<event>
 5   0  0.1819811E-04  0.1595310E+04  0.7818609E-02  0.8823434E-01
        1   -1    0    0  501    0  0.00000000000E+00  0.00000000000E+00  0.52130031277E+03  0.52130031279E+03  0.50400001928E-02 0. -1.
       -1   -1    0    0    0  501  0.00000000000E+00  0.00000000000E+00 -0.12205130067E+04  0.12205130067E+04  0.50400001928E-02 0.  1.
    10030    2    1    2    0    0  0.00000000000E+00  0.00000000000E+00 -0.69921269394E+03  0.17418133195E+04  0.15953103926E+04 0.  0.
        1    1    3    3  502    0  0.64866334963E+03  0.17736860434E+03 -0.81798898028E+03  0.10589285787E+04  0.50400001928E-02 0.  1.
       -1    1    3    3    0  502 -0.64866334963E+03 -0.17736860434E+03  0.11877628634E+03  0.68288474078E+03  0.50400001928E-02 0. -1.
</event>
<event>
 5   0  0.3228393E-04  0.1623651E+04  0.7818609E-02  0.8806149E-01
       -2   -1    0    0    0  501  0.00000000000E+00  0.00000000000E+00  0.44219197434E+03  0.44219197435E+03  0.25500000920E-02 0.  1.
        2   -1    0    0  501    0  0.00000000000E+00  0.00000000000E+00 -0.14904392003E+04  0.14904392003E+04  0.25500000920E-02 0. -1.
    10030    2    1    2    0    0  0.00000000000E+00  0.00000000000E+00 -0.10482472259E+04  0.19326311746E+04  0.16236505198E+04 0.  0.
        1    1    3    3  502    0 -0.40043856750E+01  0.11864459982E+03  0.43180486478E+03  0.44782587849E+03  0.50400001928E-02 0.  1.
       -1    1    3    3    0  502  0.40043856750E+01 -0.11864459982E+03 -0.14800520907E+04  0.14848052961E+04  0.50400001928E-02 0. -1.
</event>
<event>
 5   0  0.1819811E-04  0.1600444E+04  0.7818609E-02  0.8820275E-01
       -1   -1    0    0    0  501  0.00000000000E+00  0.00000000000E+00  0.10146923535E+04  0.10146923535E+04  0.50400001928E-02 0.  1.
        1   -1    0    0  501    0  0.00000000000E+00  0.00000000000E+00 -0.63108345589E+03  0.63108345591E+03  0.50400001928E-02 0. -1.
    10030    2    1    2    0    0  0.00000000000E+00  0.00000000000E+00  0.38360889762E+03  0.16457758094E+04  0.16004443847E+04 0.  0.
        1    1    3    3  502    0  0.44623456515E+03 -0.52844510431E+03  0.60566637845E+03  0.91935372812E+03  0.50400001928E-02 0.  1.
       -1    1    3    3    0  502 -0.44623456515E+03  0.52844510431E+03 -0.22205748083E+03  0.72642208132E+03  0.50400001928E-02 0. -1.
</event>
<event>
 5   0  0.3380454E-04  0.1598976E+04  0.7818609E-02  0.8821177E-01
       -2   -1    0    0    0  501  0.00000000000E+00  0.00000000000E+00  0.52475519515E+03  0.52475519516E+03  0.25500000920E-02 0.  1.
        2   -1    0    0  501    0  0.00000000000E+00  0.00000000000E+00 -0.12180560477E+04  0.12180560477E+04  0.25500000920E-02 0. -1.
    10030    2    1    2    0    0  0.00000000000E+00  0.00000000000E+00 -0.69330085254E+03  0.17428112429E+04  0.15989762212E+04 0.  0.
        5    1    3    3  502    0 -0.78976760983E+03 -0.10325517791E+03 -0.42188602489E+03  0.90133479756E+03  0.46999998093E+01 0. -1.
       -5    1    3    3    0  502  0.78976760983E+03  0.10325517791E+03 -0.27141482765E+03  0.84147644529E+03  0.46999998093E+01 0.  1.
</event>
<event>
 5   0  0.3263294E-04  0.1622268E+04  0.7818609E-02  0.8806983E-01
        2   -1    0    0  501    0  0.00000000000E+00  0.00000000000E+00  0.12907811664E+04  0.12907811664E+04  0.25500000920E-02 0. -1.
       -2   -1    0    0    0  501  0.00000000000E+00  0.00000000000E+00 -0.50972137965E+03  0.50972137966E+03  0.25500000920E-02 0.  1.
    10030    2    1    2    0    0  0.00000000000E+00  0.00000000000E+00  0.78105978676E+03  0.18005025461E+04  0.16222684821E+04 0.  0.
        4    1    3    3  502    0 -0.41230084389E+03 -0.44369665683E+03 -0.20826215530E+03  0.64049468959E+03  0.12699999809E+01 0.  1.
       -4    1    3    3    0  502  0.41230084389E+03  0.44369665683E+03  0.98932194206E+03  0.11600078565E+04  0.12699999809E+01 0. -1.
</event>
<event>
 5   0  0.3380454E-04  0.1598553E+04  0.7818609E-02  0.8821438E-01
        2   -1    0    0  501    0  0.00000000000E+00  0.00000000000E+00  0.11705937797E+04  0.11705937797E+04  0.25500000920E-02 0. -1.
       -2   -1    0    0    0  501  0.00000000000E+00  0.00000000000E+00 -0.54574239777E+03  0.54574239778E+03  0.25500000920E-02 0.  1.
    10030    2    1    2    0    0  0.00000000000E+00  0.00000000000E+00  0.62485138197E+03  0.17163361775E+04  0.15985526656E+04 0.  0.
        5    1    3    3  502    0 -0.41844674742E+03  0.55656814107E+03 -0.10885544296E+03  0.70479598008E+03  0.46999998093E+01 0.  1.
       -5    1    3    3    0  502  0.41844674742E+03 -0.55656814107E+03  0.73370682492E+03  0.10115401974E+04  0.46999998093E+01 0. -1.
</event>
<event>
 5   0  0.3380454E-04  0.1599947E+04  0.7818609E-02  0.8820581E-01
        2   -1    0    0  501    0  0.00000000000E+00  0.00000000000E+00  0.13016409001E+04  0.13016409001E+04  0.25500000920E-02 0. -1.
       -2   -1    0    0    0  501  0.00000000000E+00  0.00000000000E+00 -0.49165440736E+03  0.49165440736E+03  0.25500000920E-02 0.  1.
    10030    2    1    2    0    0  0.00000000000E+00  0.00000000000E+00  0.80998649271E+03  0.17932953074E+04  0.15999468558E+04 0.  0.
        5    1    3    3  502    0 -0.38410105773E+03 -0.46817919302E+03  0.99085421209E+03  0.11612663514E+04  0.46999998093E+01 0. -1.
       -5    1    3    3    0  502  0.38410105773E+03  0.46817919302E+03 -0.18086771938E+03  0.63202895601E+03  0.46999998093E+01 0.  1.
</event>
<event>
 5   0  0.1219463E-04  0.1650238E+04  0.7818609E-02  0.8790266E-01
       -4   -1    0    0    0  501  0.00000000000E+00  0.00000000000E+00  0.48924897016E+03  0.48925061850E+03  0.12699999809E+01 0. -1.
        4   -1    0    0  501    0  0.00000000000E+00  0.00000000000E+00 -0.13915593540E+04  0.13915599335E+04  0.12699999809E+01 0.  1.
    10030    2    1    2    0    0  0.00000000000E+00  0.00000000000E+00 -0.90231038382E+03  0.18808105520E+04  0.16502376507E+04 0.  0.
        4    1    3    3  502    0  0.23978547834E+03 -0.23583183985E+03 -0.13098922409E+04  0.13523805042E+04  0.12699999809E+01 0.  1.
       -4    1    3    3    0  502 -0.23978547834E+03  0.23583183985E+03  0.40758185712E+03  0.52843004784E+03  0.12699999809E+01 0. -1.
</event>
<event>
 5   0  0.3228393E-04  0.1608357E+04  0.7818609E-02  0.8815430E-01
        2   -1    0    0  501    0  0.00000000000E+00  0.00000000000E+00  0.13291460766E+04  0.13291460766E+04  0.25500000920E-02 0.  1.
       -2   -1    0    0    0  501  0.00000000000E+00  0.00000000000E+00 -0.48655522768E+03  0.48655522769E+03  0.25500000920E-02 0. -1.
    10030    2    1    2    0    0  0.00000000000E+00  0.00000000000E+00  0.84259084889E+03  0.18157013043E+04  0.16083568906E+04 0.  0.
        1    1    3    3  502    0 -0.50026765028E+03 -0.22070328201E+03  0.10869978415E+04  0.12167752331E+04  0.50400001928E-02 0.  1.
       -1    1    3    3    0  502  0.50026765028E+03  0.22070328201E+03 -0.24440699258E+03  0.59892607111E+03  0.50400001928E-02 0. -1.
</event>
<event>
 5   0  0.1761255E-04  0.1598530E+04  0.7818609E-02  0.8821452E-01
       -1   -1    0    0    0  501  0.00000000000E+00  0.00000000000E+00  0.32180434430E+03  0.32180434434E+03  0.50400001928E-02 0. -1.
        1   -1    0    0  501    0  0.00000000000E+00  0.00000000000E+00 -0.19851327756E+04  0.19851327756E+04  0.50400001928E-02 0.  1.
    10030    2    1    2    0    0  0.00000000000E+00  0.00000000000E+00 -0.16633284313E+04  0.23069371199E+04  0.15985297635E+04 0.  0.
        2    1    3    3  502    0  0.12932335965E+03 -0.39180723977E+03 -0.18195576632E+04  0.18657511983E+04  0.25500000920E-02 0.  1.
       -2    1    3    3    0  502 -0.12932335965E+03  0.39180723977E+03  0.15622923190E+03  0.44118592158E+03  0.25500000920E-02 0. -1.
</event>
<event>
 5   0  0.3263294E-04  0.1594747E+04  0.7818609E-02  0.8823781E-01
       -2   -1    0    0    0  501  0.00000000000E+00  0.00000000000E+00  0.22356063199E+03  0.22356063200E+03  0.25500000920E-02 0.  1.
        2   -1    0    0  501    0  0.00000000000E+00  0.00000000000E+00 -0.28439926693E+04  0.28439926693E+04  0.25500000920E-02 0. -1.
    10030    2    1    2    0    0  0.00000000000E+00  0.00000000000E+00 -0.26204320373E+04  0.30675533013E+04  0.15947473763E+04 0.  0.
        4    1    3    3  502    0  0.44377858472E+02  0.49012856507E+03 -0.10342502884E+03  0.50288542841E+03  0.12699999809E+01 0.  1.
       -4    1    3    3    0  502 -0.44377858472E+02 -0.49012856507E+03 -0.25170070085E+04  0.25646678729E+04  0.12699999809E+01 0. -1.
</event>
<event>
 5   0  0.1736537E-04  0.1597409E+04  0.7818609E-02  0.8822141E-01
        1   -1    0    0  501    0  0.00000000000E+00  0.00000000000E+00  0.94750114427E+03  0.94750114429E+03  0.50400001928E-02 0.  1.
       -1   -1    0    0    0  501  0.00000000000E+00  0.00000000000E+00 -0.67327543274E+03  0.67327543276E+03  0.50400001928E-02 0. -1.
    10030    2    1    2    0    0  0.00000000000E+00  0.00000000000E+00  0.27422571154E+03  0.16207765770E+04  0.15974094565E+04 0.  0.
        3    1    3    3  502    0 -0.39555122488E+03  0.26723340907E+03  0.78683524526E+03  0.92031743427E+03  0.10100000352E+00 0.  1.
       -3    1    3    3    0  502  0.39555122488E+03 -0.26723340907E+03 -0.51260953373E+03  0.70045914277E+03  0.10100000352E+00 0. -1.
</event>
<event>
 5   0  0.3274900E-04  0.1605471E+04  0.7818609E-02  0.8817194E-01
        2   -1    0    0  501    0  0.00000000000E+00  0.00000000000E+00  0.16125812796E+04  0.16125812796E+04  0.25500000920E-02 0. -1.
       -2   -1    0    0    0  501  0.00000000000E+00  0.00000000000E+00 -0.39959807768E+03  0.39959807769E+03  0.25500000920E-02 0.  1.
    10030    2    1    2    0    0  0.00000000000E+00  0.00000000000E+00  0.12129832019E+04  0.20121793572E+04  0.16054711202E+04 0.  0.
        3    1    3    3  502    0 -0.79606006024E+03 -0.91549430388E+02  0.54649598357E+03  0.96992308354E+03  0.10100000352E+00 0. -1.
       -3    1    3    3    0  502  0.79606006024E+03  0.91549430388E+02  0.66648721830E+03  0.10422562737E+04  0.10100000352E+00 0.  1.
</event>
<event>
 5   0  0.1787688E-04  0.1603295E+04  0.7818609E-02  0.8818526E-01
        1   -1    0    0  501    0  0.00000000000E+00  0.00000000000E+00  0.11448909941E+04  0.11448909941E+04  0.50400001928E-02 0.  1.
       -1   -1    0    0    0  501  0.00000000000E+00  0.00000000000E+00 -0.56131004771E+03  0.56131004774E+03  0.50400001928E-02 0. -1.
    10030    2    1    2    0    0  0.00000000000E+00  0.00000000000E+00  0.58358094634E+03  0.17062010418E+04  0.16032951301E+04 0.  0.
        4    1    3    3  502    0  0.37260726654E+02 -0.39700405237E+03 -0.44828552719E+03  0.59996842095E+03  0.12699999809E+01 0. -1.
       -4    1    3    3    0  502 -0.37260726654E+02  0.39700405237E+03  0.10318664735E+04  0.11062326209E+04  0.12699999809E+01 0.  1.
</event>
<event>
 5   0  0.3228393E-04  0.1609271E+04  0.7818609E-02  0.8814873E-01
        2   -1    0    0  501    0  0.00000000000E+00  0.00000000000E+00  0.58605595929E+03  0.58605595930E+03  0.25500000920E-02 0. -1.
       -2   -1    0    0    0  501  0.00000000000E+00  0.00000000000E+00 -0.11047374592E+04  0.11047374592E+04  0.25500000920E-02 0.  1.
    10030    2    1    2    0    0  0.00000000000E+00  0.00000000000E+00 -0.51868149993E+03  0.16907934185E+04  0.16092706068E+04 0.  0.
        1    1    3    3  502    0 -0.21770368005E+03 -0.75972534049E+03 -0.41819696122E+03  0.89412872881E+03  0.50400001928E-02 0. -1.
       -1    1    3    3    0  502  0.21770368005E+03  0.75972534049E+03 -0.10048453870E+03  0.79666468971E+03  0.50400001928E-02 0.  1.
</event>
<event>
 5   0  0.1764099E-04  0.1600689E+04  0.7818609E-02  0.8820125E-01
       -1   -1    0    0    0  501  0.00000000000E+00  0.00000000000E+00  0.63224146454E+03  0.63224146456E+03  0.50400001928E-02 0. -1.
        1   -1    0    0  501    0  0.00000000000E+00  0.00000000000E+00 -0.10131439496E+04  0.10131439497E+04  0.50400001928E-02 0.  1.
    10030    2    1    2    0    0  0.00000000000E+00  0.00000000000E+00 -0.38090248510E+03  0.16453854142E+04  0.16006893697E+04 0.  0.
        5    1    3    3  502    0  0.28844405147E+03 -0.38866269711E+03  0.46474050693E+03  0.67101750479E+03  0.46999998093E+01 0. -1.
       -5    1    3    3    0  502 -0.28844405147E+03  0.38866269711E+03 -0.84564299203E+03  0.97436790942E+03  0.46999998093E+01 0.  1.
</event>
<event>
 5   0  0.1787688E-04  0.1610430E+04  0.7818609E-02  0.8814166E-01
        1   -1    0    0  501    0  0.00000000000E+00  0.00000000000E+00  0.10449534733E+04  0.10449534733E+04  0.50400001928E-02 0. -1.
       -1   -1    0    0    0  501  0.00000000000E+00  0.00000000000E+00 -0.62047879154E+03  0.62047879156E+03  0.50400001928E-02 0.  1.
    10030    2    1    2    0    0  0.00000000000E+00  0.00000000000E+00  0.42447468174E+03  0.16654322648E+04  0.16104303379E+04 0.  0.
        4    1    3    3  502    0  0.65204033394E+03  0.42001670411E+03  0.43595711327E+03  0.88973639148E+03  0.12699999809E+01 0. -1.
       -4    1    3    3    0  502 -0.65204033394E+03 -0.42001670411E+03 -0.11482431530E+02  0.77569587336E+03  0.12699999809E+01 0.  1.
</event>
<event>
 5   0  0.3274900E-04  0.1544865E+04  0.7818609E-02  0.8855155E-01
       -2   -1    0    0    0  501  0.00000000000E+00  0.00000000000E+00  0.55542248849E+03  0.55542248849E+03  0.25500000920E-02 0. -1.
        2   -1    0    0  501    0  0.00000000000E+00  0.00000000000E+00 -0.10742302362E+04  0.10742302362E+04  0.25500000920E-02 0.  1.
    10030    2    1    2    0    0  0.00000000000E+00  0.00000000000E+00 -0.51880774773E+03  0.16296527247E+04  0.15448645650E+04 0.  0.
        3    1    3    3  502    0  0.63668274175E+03  0.40289481251E+03 -0.43892787043E+03  0.87197868623E+03  0.10100000352E+00 0.  1.
       -3    1    3    3    0  502 -0.63668274175E+03 -0.40289481251E+03 -0.79879877301E+02  0.75767403849E+03  0.10100000352E+00 0. -1.
</event>
<event>
 5   0  0.1764099E-04  0.1611145E+04  0.7818609E-02  0.8813730E-01
        1   -1    0    0  501    0  0.00000000000E+00  0.00000000000E+00  0.10771740598E+04  0.10771740598E+04  0.50400001928E-02 0.  1.
       -1   -1    0    0    0  501  0.00000000000E+00  0.00000000000E+00 -0.60245333312E+03  0.60245333314E+03  0.50400001928E-02 0. -1.
    10030    2    1    2    0    0  0.00000000000E+00  0.00000000000E+00  0.47472072667E+03  0.16796273929E+04  0.16111450620E+04 0.  0.
        5    1    3    3  502    0 -0.13099962812E+03 -0.60150529643E+03 -0.30429666795E+03  0.68672270701E+03  0.46999998093E+01 0. -1.
       -5    1    3    3    0  502  0.13099962812E+03  0.60150529643E+03  0.77901739462E+03  0.99290468592E+03  0.46999998093E+01 0.  1.
</event>
<event>
 5   0  0.1736537E-04  0.1665409E+04  0.7818609E-02  0.8781343E-01
       -1   -1    0    0    0  501  0.00000000000E+00  0.00000000000E+00  0.12924421465E+04  0.12924421465E+04  0.50400001928E-02 0. -1.
        1   -1    0    0  501    0  0.00000000000E+00  0.00000000000E+00 -0.53650090007E+03  0.53650090009E+03  0.50400001928E-02 0.  1.
    10030    2    1    2    0    0  0.00000000000E+00  0.00000000000E+00  0.75594124644E+03  0.18289430466E+04  0.16654085083E+04 0.  0.
        3    1    3    3  502    0  0.60724126480E+03 -0.70644634231E+02  0.99887696459E+03  0.11711053832E+04  0.10100000352E+00 0. -1.
       -3    1    3    3    0  502 -0.60724126480E+03  0.70644634231E+02 -0.24293571815E+03  0.65783766339E+03  0.10100000352E+00 0.  1.
</event>
<event>
 5   0  0.1761255E-04  0.1581599E+04  0.7818609E-02  0.8831933E-01
       -1   -1    0    0    0  501  0.00000000000E+00  0.00000000000E+00  0.10454081929E+04  0.10454081929E+04  0.50400001928E-02 0. -1.
        1   -1    0    0  501    0  0.00000000000E+00  0.00000000000E+00 -0.59820092699E+03  0.59820092701E+03  0.50400001928E-02 0.  1.
    10030    2    1    2    0    0  0.00000000000E+00  0.00000000000E+00  0.44720726588E+03  0.16436091199E+04  0.15815993805E+04 0.  0.
        2    1    3    3  502    0 -0.50456164265E+03  0.38734910748E+02  0.85511433878E+03  0.99363140899E+03  0.25500000920E-02 0. -1.
       -2    1    3    3    0  502  0.50456164265E+03 -0.38734910748E+02 -0.40790707289E+03  0.64997771090E+03  0.25500000920E-02 0.  1.
</event>
<event>
 5   0  0.3210612E-04  0.1579447E+04  0.7818609E-02  0.8833275E-01
        2   -1    0    0  501    0  0.00000000000E+00  0.00000000000E+00  0.20695522616E+04  0.20695522616E+04  0.25500000920E-02 0. -1.
       -2   -1    0    0    0  501  0.00000000000E+00  0.00000000000E+00 -0.30135192291E+03  0.30135192292E+03  0.25500000920E-02 0.  1.
    10030    2    1    2    0    0  0.00000000000E+00  0.00000000000E+00  0.17682003387E+04  0.23709041845E+04  0.15794474396E+04 0.  0.
        2    1    3    3  502    0 -0.74908311933E+02  0.75862026891E+03  0.11937324897E+04  0.14163732646E+04  0.25500000920E-02 0. -1.
       -2    1    3    3    0  502  0.74908311933E+02 -0.75862026891E+03  0.57446784896E+03  0.95453091993E+03  0.25500000920E-02 0.  1.
</event>
<event>
 5   0  0.1761255E-04  0.1448402E+04  0.7818609E-02  0.8919509E-01
       -1   -1    0    0    0  501  0.00000000000E+00  0.00000000000E+00  0.43005119794E+03  0.43005119797E+03  0.50400001928E-02 0. -1.
        1   -1    0    0  501    0  0.00000000000E+00  0.00000000000E+00 -0.12195460947E+04  0.12195460947E+04  0.50400001928E-02 0.  1.
    10030    2    1    2    0    0  0.00000000000E+00  0.00000000000E+00 -0.78949489672E+03  0.16495972926E+04  0.14484022356E+04 0.  0.
        2    1    3    3  502    0  0.55552550196E+03  0.23313690582E+02 -0.92322438695E+03  0.10777269506E+04  0.25500000920E-02 0.  1.
       -2    1    3    3    0  502 -0.55552550196E+03 -0.23313690582E+02  0.13372949023E+03  0.57187034200E+03  0.25500000920E-02 0. -1.
</event>
<event>
 5   0  0.1761255E-04  0.1595907E+04  0.7818609E-02  0.8823066E-01
        1   -1    0    0  501    0  0.00000000000E+00  0.00000000000E+00  0.12735063005E+04  0.12735063005E+04  0.50400001928E-02 0. -1.
       -1   -1    0    0    0  501  0.00000000000E+00  0.00000000000E+00 -0.49998167889E+03  0.49998167891E+03  0.50400001928E-02 0.  1.
    10030    2    1    2    0    0  0.00000000000E+00  0.00000000000E+00  0.77352462165E+03  0.17734879795E+04  0.15959070377E+04 0.  0.
        2    1    3    3  502    0  0.17410863821E+03  0.40642738791E+03  0.11249291704E+04  0.12087028907E+04  0.25500000920E-02 0. -1.
       -2    1    3    3    0  502 -0.17410863821E+03 -0.40642738791E+03 -0.35140454879E+03  0.56478508873E+03  0.25500000920E-02 0.  1.
</event>
<event>
 5   0  0.1736537E-04  0.1590157E+04  0.7818609E-02  0.8826618E-01
        1   -1    0    0  501    0  0.00000000000E+00  0.00000000000E+00  0.11710097712E+04  0.11710097712E+04  0.50400001928E-02 0.  1.
       -1   -1    0    0    0  501  0.00000000000E+00  0.00000000000E+00 -0.53983312188E+03  0.53983312191E+03  0.50400001928E-02 0. -1.
    10030    2    1    2    0    0  0.00000000000E+00  0.00000000000E+00  0.63117664933E+03  0.17108428931E+04  0.15901570496E+04 0.  0.
        3    1    3    3  502    0 -0.54100835868E+03 -0.71157449421E+02  0.93774665887E+03  0.10849526410E+04  0.10100000352E+00 0.  1.
       -3    1    3    3    0  502  0.54100835868E+03  0.71157449421E+02 -0.30657000955E+03  0.62589025214E+03  0.10100000352E+00 0. -1.
</event>
<event>
 5   0  0.3228393E-04  0.1600734E+04  0.7818609E-02  0.8820097E-01
       -2   -1    0    0    0  501  0.00000000000E+00  0.00000000000E+00  0.32241289411E+03  0.32241289412E+03  0.25500000920E-02 0.  1.
        2   -1    0    0  501    0  0.00000000000E+00  0.00000000000E+00 -0.19868545654E+04  0.19868545654E+04  0.25500000920E-02 0. -1.
    10030    2    1    2    0    0  0.00000000000E+00  0.00000000000E+00 -0.16644416713E+04  0.23092674595E+04  0.16007342448E+04 0.  0.
        1    1    3    3  502    0 -0.61072637148E+03  0.38722118870E+03 -0.13270673252E+04  0.15113022978E+04  0.50400001928E-02 0. -1.
       -1    1    3    3    0  502  0.61072637148E+03 -0.38722118870E+03 -0.33737434606E+03  0.79796516165E+03  0.50400001928E-02 0.  1.
</event>
<event>
 5   0  0.3263294E-04  0.1612459E+04  0.7818609E-02  0.8812930E-01
       -2   -1    0    0    0  501  0.00000000000E+00  0.00000000000E+00  0.41674706677E+03  0.41674706678E+03  0.25500000920E-02 0. -1.
        2   -1    0    0  501    0  0.00000000000E+00  0.00000000000E+00 -0.15597143812E+04  0.15597143812E+04  0.25500000920E-02 0.  1.
    10030    2    1    2    0    0  0.00000000000E+00  0.00000000000E+00 -0.11429673144E+04  0.19764614479E+04  0.16124594796E+04 0.  0.
        4    1    3    3  502    0 -0.53718945190E+03  0.60014232905E+03 -0.52794891730E+03  0.96305503193E+03  0.12699999809E+01 0. -1.
       -4    1    3    3    0  502  0.53718945190E+03 -0.60014232905E+03 -0.61501839710E+03  0.10134064160E+04  0.12699999809E+01 0.  1.
</event>
<event>
 5   0  0.1819811E-04  0.1522523E+04  0.7818609E-02  0.8869612E-01
        1   -1    0    0  501    0  0.00000000000E+00  0.00000000000E+00  0.10967033596E+04  0.10967033596E+04  0.50400001928E-02 0.  1.
       -1   -1    0    0    0  501  0.00000000000E+00  0.00000000000E+00 -0.52841940339E+03  0.52841940342E+03  0.50400001928E-02 0. -1.
    10030    2    1    2    0    0  0.00000000000E+00  0.00000000000E+00  0.56828395621E+03  0.16251227630E+04  0.15225233463E+04 0.  0.
        1    1    3    3  502    0 -0.58044242810E+03  0.49238909437E+03  0.27068686219E+03  0.80785630527E+03  0.50400001928E-02 0. -1.
       -1    1    3    3    0  502  0.58044242810E+03 -0.49238909437E+03  0.29759709403E+03  0.81726645776E+03  0.50400001928E-02 0.  1.
</event>
<event>
 5   0  0.3228393E-04  0.1595575E+04  0.7818609E-02  0.8823271E-01
        2   -1    0    0  501    0  0.00000000000E+00  0.00000000000E+00  0.22365846087E+04  0.22365846087E+04  0.25500000920E-02 0.  1.
       -2   -1    0    0    0  501  0.00000000000E+00  0.00000000000E+00 -0.28456982802E+03  0.28456982803E+03  0.25500000920E-02 0. -1.
    10030    2    1    2    0    0  0.00000000000E+00  0.00000000000E+00  0.19520147807E+04  0.25211544367E+04  0.15955745015E+04 0.  0.
        1    1    3    3  502    0  0.43959459682E+03 -0.73992788738E+01  0.20278862943E+04  0.20749990317E+04  0.50400001928E-02 0.  1.
       -1    1    3    3    0  502 -0.43959459682E+03  0.73992788738E+01 -0.75871513580E+02  0.44615540508E+03  0.50400001928E-02 0. -1.
</event>
<event>
 5   0  0.3263294E-04  0.1596100E+04  0.7818609E-02  0.8822948E-01
       -2   -1    0    0    0  501  0.00000000000E+00  0.00000000000E+00  0.11838243799E+04  0.11838243799E+04  0.25500000920E-02 0.  1.
        2   -1    0    0  501    0  0.00000000000E+00  0.00000000000E+00 -0.53798812677E+03  0.53798812677E+03  0.25500000920E-02 0. -1.
    10030    2    1    2    0    0  0.00000000000E+00  0.00000000000E+00  0.64583625311E+03  0.17218125067E+04  0.15960995715E+04 0.  0.
        4    1    3    3  502    0 -0.77601310586E+03 -0.31516237559E+02  0.52092979398E+03  0.93517863366E+03  0.12699999809E+01 0.  1.
       -4    1    3    3    0  502  0.77601310586E+03  0.31516237559E+02  0.12490645912E+03  0.78663387299E+03  0.12699999809E+01 0. -1.
</event>
<event>
 5   0  0.3380454E-04  0.1605923E+04  0.7818609E-02  0.8816917E-01
        2   -1    0    0  501    0  0.00000000000E+00  0.00000000000E+00  0.57929952664E+03  0.57929952665E+03  0.25500000920E-02 0.  1.
       -2   -1    0    0    0  501  0.00000000000E+00  0.00000000000E+00 -0.11129776518E+04  0.11129776518E+04  0.25500000920E-02 0. -1.
    10030    2    1    2    0    0  0.00000000000E+00  0.00000000000E+00 -0.53367812513E+03  0.16922771784E+04  0.16059233193E+04 0.  0.
        5    1    3    3  502    0 -0.15310235890E+03  0.78402640814E+03 -0.35236742718E+03  0.87311089485E+03  0.46999998093E+01 0.  1.
       -5    1    3    3    0  502  0.15310235890E+03 -0.78402640814E+03 -0.18131069795E+03  0.81916628358E+03  0.46999998093E+01 0. -1.
</event>
<event>
 5   0  0.3228393E-04  0.1512830E+04  0.7818609E-02  0.8875966E-01
       -2   -1    0    0    0  501  0.00000000000E+00  0.00000000000E+00  0.65326684301E+03  0.65326684301E+03  0.25500000920E-02 0.  1.
        2   -1    0    0  501    0  0.00000000000E+00  0.00000000000E+00 -0.87584970205E+03  0.87584970205E+03  0.25500000920E-02 0. -1.
    10030    2    1    2    0    0  0.00000000000E+00  0.00000000000E+00 -0.22258285904E+03  0.15291165451E+04  0.15128298910E+04 0.  0.
        1    1    3    3  502    0 -0.50484436924E+03 -0.17475704723E+03 -0.65255216779E+03  0.84334583323E+03  0.50400001928E-02 0. -1.
       -1    1    3    3    0  502  0.50484436924E+03  0.17475704723E+03  0.42996930875E+03  0.68577071183E+03  0.50400001928E-02 0.  1.
</event>
<event>
 5   0  0.3380454E-04  0.1593402E+04  0.7818609E-02  0.8824612E-01
        2   -1    0    0  501    0  0.00000000000E+00  0.00000000000E+00  0.11676562747E+04  0.11676562747E+04  0.25500000920E-02 0. -1.
       -2   -1    0    0    0  501  0.00000000000E+00  0.00000000000E+00 -0.54359521900E+03  0.54359521900E+03  0.25500000920E-02 0.  1.
    10030    2    1    2    0    0  0.00000000000E+00  0.00000000000E+00  0.62406105565E+03  0.17112514937E+04  0.15934018556E+04 0.  0.
        5    1    3    3  502    0 -0.36481617689E+03 -0.31851906774E+03  0.99140323101E+03  0.11033801230E+04  0.46999998093E+01 0. -1.
       -5    1    3    3    0  502  0.36481617689E+03  0.31851906774E+03 -0.36734217536E+03  0.60787137063E+03  0.46999998093E+01 0.  1.
</event>
<event>
 5   0  0.3228393E-04  0.1599667E+04  0.7818609E-02  0.8820753E-01
       -2   -1    0    0    0  501  0.00000000000E+00  0.00000000000E+00  0.86831920450E+03  0.86831920450E+03  0.25500000920E-02 0.  1.
        2   -1    0    0  501    0  0.00000000000E+00  0.00000000000E+00 -0.73674922523E+03  0.73674922523E+03  0.25500000920E-02 0. -1.
    10030    2    1    2    0    0  0.00000000000E+00  0.00000000000E+00  0.13156997927E+03  0.16050684297E+04  0.15996668418E+04 0.  0.
        1    1    3    3  502    0 -0.48662314641E+03 -0.62505584387E+03  0.17677771324E+03  0.81163246269E+03  0.50400001928E-02 0.  1.
       -1    1    3    3    0  502  0.48662314641E+03  0.62505584387E+03 -0.45207733967E+02  0.79343596705E+03  0.50400001928E-02 0. -1.
</event>
<event>
 5   0  0.1787688E-04  0.1606535E+04  0.7818609E-02  0.8816543E-01
        1   -1    0    0  501    0  0.00000000000E+00  0.00000000000E+00  0.73055711784E+03  0.73055711786E+03  0.50400001928E-02 0.  1.
       -1   -1    0    0    0  501  0.00000000000E+00  0.00000000000E+00 -0.88321500885E+03  0.88321500886E+03  0.50400001928E-02 0. -1.
    10030    2    1    2    0    0  0.00000000000E+00  0.00000000000E+00 -0.15265789101E+03  0.16137721267E+04  0.16065354168E+04 0.  0.
        4    1    3    3  502    0  0.61947459661E+03 -0.10659980076E+03 -0.57870687054E+03  0.85440947342E+03  0.12699999809E+01 0. -1.
       -4    1    3    3    0  502 -0.61947459661E+03  0.10659980076E+03  0.42604897952E+03  0.75936265330E+03  0.12699999809E+01 0.  1.
</event>
<event>
 5   0  0.1736537E-04  0.1588424E+04  0.7818609E-02  0.8827691E-01
       -1   -1    0    0    0  501  0.00000000000E+00  0.00000000000E+00  0.70737844445E+03  0.70737844447E+03  0.50400001928E-02 0.  1.
        1   -1    0    0  501    0  0.00000000000E+00  0.00000000000E+00 -0.89170494381E+03  0.89170494383E+03  0.50400001928E-02 0. -1.
    10030    2    1    2    0    0  0.00000000000E+00  0.00000000000E+00 -0.18432649936E+03  0.15990833883E+04  0.15884241953E+04 0.  0.
        3    1    3    3  502    0  0.17724927291E+02  0.14589049705E+03 -0.87789720976E+03  0.89011332496E+03  0.10100000352E+00 0. -1.
       -3    1    3    3    0  502 -0.17724927291E+02 -0.14589049705E+03  0.69357071040E+03  0.70897006333E+03  0.10100000352E+00 0.  1.
</event>
<event>
 5   0  0.3228393E-04  0.1593390E+04  0.7818609E-02  0.8824619E-01
       -2   -1    0    0    0  501  0.00000000000E+00  0.00000000000E+00  0.38249608807E+03  0.38249608808E+03  0.25500000920E-02 0.  1.
        2   -1    0    0  501    0  0.00000000000E+00  0.00000000000E+00 -0.16594231256E+04  0.16594231256E+04  0.25500000920E-02 0. -1.
    10030    2    1    2    0    0  0.00000000000E+00  0.00000000000E+00 -0.12769270375E+04  0.20419192136E+04  0.15933899133E+04 0.  0.
        1    1    3    3  502    0 -0.70715565364E+02 -0.25017526442E+03 -0.16035350968E+04  0.16244731949E+04  0.50400001928E-02 0. -1.
       -1    1    3    3    0  502  0.70715565364E+02  0.25017526442E+03  0.32660805934E+03  0.41744601874E+03  0.50400001928E-02 0.  1.
</event>
<event>
 5   0  0.1761255E-04  0.1609059E+04  0.7818609E-02  0.8815002E-01
       -1   -1    0    0    0  501  0.00000000000E+00  0.00000000000E+00  0.32909913334E+03  0.32909913338E+03  0.50400001928E-02 0.  1.
        1   -1    0    0  501    0  0.00000000000E+00  0.00000000000E+00 -0.19667862216E+04  0.19667862216E+04  0.50400001928E-02 0. -1.
    10030    2    1    2    0    0  0.00000000000E+00  0.00000000000E+00 -0.16376870882E+04  0.22958853549E+04  0.16090589064E+04 0.  0.
        2    1    3    3  502    0 -0.89982938373E+02 -0.15532310104E+03  0.30016101985E+03  0.34974109389E+03  0.25500000920E-02 0.  1.
       -2    1    3    3    0  502  0.89982938373E+02  0.15532310104E+03 -0.19378481081E+04  0.19461442611E+04  0.25500000920E-02 0. -1.
</event>
<event>
 5   0  0.3210612E-04  0.1601204E+04  0.7818609E-02  0.8819809E-01
        2   -1    0    0  501    0  0.00000000000E+00  0.00000000000E+00  0.99845566849E+03  0.99845566849E+03  0.25500000920E-02 0.  1.
       -2   -1    0    0    0  501  0.00000000000E+00  0.00000000000E+00 -0.64195480809E+03  0.64195480809E+03  0.25500000920E-02 0. -1.
    10030    2    1    2    0    0  0.00000000000E+00  0.00000000000E+00  0.35650086040E+03  0.16404104766E+04  0.16012038185E+04 0.  0.
        2    1    3    3  502    0 -0.24589070430E+03 -0.24035167089E+03 -0.56245506346E+03  0.65923202484E+03  0.25500000920E-02 0. -1.
       -2    1    3    3    0  502  0.24589070430E+03  0.24035167089E+03  0.91895592386E+03  0.98117845174E+03  0.25500000920E-02 0.  1.
</event>
<event>
 5   0  0.1787688E-04  0.1604170E+04  0.7818609E-02  0.8817990E-01
        1   -1    0    0  501    0  0.00000000000E+00  0.00000000000E+00  0.12013375303E+04  0.12013375303E+04  0.50400001928E-02 0. -1.
       -1   -1    0    0    0  501  0.00000000000E+00  0.00000000000E+00 -0.53551999107E+03  0.53551999109E+03  0.50400001928E-02 0.  1.
    10030    2    1    2    0    0  0.00000000000E+00  0.00000000000E+00  0.66581753923E+03  0.17368575214E+04  0.16041698956E+04 0.  0.
        4    1    3    3  502    0 -0.68786385510E+03 -0.30645234160E+03  0.33897430533E+02  0.75380393308E+03  0.12699999809E+01 0.  1.
       -4    1    3    3    0  502  0.68786385510E+03  0.30645234160E+03  0.63192010869E+03  0.98305358831E+03  0.12699999809E+01 0. -1.
</event>
<event>
 5   0  0.3380454E-04  0.1588632E+04  0.7818609E-02  0.8827562E-01
       -2   -1    0    0    0  501  0.00000000000E+00  0.00000000000E+00  0.45594279403E+03  0.45594279403E+03  0.25500000920E-02 0.  1.
        2   -1    0    0  501    0  0.00000000000E+00  0.00000000000E+00 -0.13838095138E+04  0.13838095138E+04  0.25500000920E-02 0. -1.
    10030    2    1    2    0    0  0.00000000000E+00  0.00000000000E+00 -0.92786671975E+03  0.18397523078E+04  0.15886320859E+04 0.  0.
        5    1    3    3  502    0 -0.40728241616E+03  0.41177450143E+03  0.16557152039E+03  0.60238959561E+03  0.46999998093E+01 0.  1.
       -5    1    3    3    0  502  0.40728241616E+03 -0.41177450143E+03 -0.10934382401E+04  0.12373627122E+04  0.46999998093E+01 0. -1.
</event>
<event>
 5   0  0.1787688E-04  0.1602634E+04  0.7818609E-02  0.8818932E-01
        1   -1    0    0  501    0  0.00000000000E+00  0.00000000000E+00  0.12852510422E+04  0.12852510422E+04  0.50400001928E-02 0. -1.
       -1   -1    0    0    0  501  0.00000000000E+00  0.00000000000E+00 -0.49959795257E+03  0.49959795259E+03  0.50400001928E-02 0.  1.
    10030    2    1    2    0    0  0.00000000000E+00  0.00000000000E+00  0.78565308965E+03  0.17848489948E+04  0.16026338188E+04 0.  0.
        4    1    3    3  502    0 -0.77856838421E+03  0.18671471498E+03  0.42935959725E+03  0.90850558079E+03  0.12699999809E+01 0.  1.
       -4    1    3    3    0  502  0.77856838421E+03 -0.18671471498E+03  0.35629349240E+03  0.87634341402E+03  0.12699999809E+01 0. -1.
</event>
<event>
 5   0  0.3228393E-04  0.1609731E+04  0.7818609E-02  0.8814592E-01
       -2   -1    0    0    0  501  0.00000000000E+00  0.00000000000E+00  0.41347437471E+03  0.41347437472E+03  0.25500000920E-02 0. -1.
        2   -1    0    0  501    0  0.00000000000E+00  0.00000000000E+00 -0.15667448947E+04  0.15667448947E+04  0.25500000920E-02 0.  1.
    10030    2    1    2    0    0  0.00000000000E+00  0.00000000000E+00 -0.11532705200E+04  0.19802192695E+04  0.16097314878E+04 0.  0.
        1    1    3    3  502    0 -0.35710862992E+03 -0.50890237323E+03  0.52190177743E+02  0.62388461571E+03  0.50400001928E-02 0. -1.
       -1    1    3    3    0  502  0.35710862992E+03  0.50890237323E+03 -0.12054606978E+04  0.13563346537E+04  0.50400001928E-02 0.  1.
</event>
<event>
 5   0  0.1761255E-04  0.1598017E+04  0.7818609E-02  0.8821767E-01
        1   -1    0    0  501    0  0.00000000000E+00  0.00000000000E+00  0.11601902637E+04  0.11601902637E+04  0.50400001928E-02 0.  1.
       -1   -1    0    0    0  501  0.00000000000E+00  0.00000000000E+00 -0.55026719862E+03  0.55026719864E+03  0.50400001928E-02 0. -1.
    10030    2    1    2    0    0  0.00000000000E+00  0.00000000000E+00  0.60992306511E+03  0.17104574624E+04  0.15980170792E+04 0.  0.
        2    1    3    3  502    0 -0.59292303670E+03 -0.10843954040E+02 -0.26819664446E+03  0.65084925973E+03  0.25500000920E-02 0. -1.
       -2    1    3    3    0  502  0.59292303670E+03  0.10843954040E+02  0.87811970956E+03  0.10596082026E+04  0.25500000920E-02 0.  1.
</event>
<event>
 5   0  0.1761255E-04  0.1599174E+04  0.7818609E-02  0.8821056E-01
       -1   -1    0    0    0  501  0.00000000000E+00  0.00000000000E+00  0.11500692634E+04  0.11500692634E+04  0.50400001928E-02 0. -1.
        1   -1    0    0  501    0  0.00000000000E+00  0.00000000000E+00 -0.55591383031E+03  0.55591383033E+03  0.50400001928E-02 0.  1.
    10030    2    1    2    0    0  0.00000000000E+00  0.00000000000E+00  0.59415543312E+03  0.17059830938E+04  0.15991740485E+04 0.  0.
        2    1    3    3  502    0 -0.43322428236E+03 -0.13479775127E+03 -0.40529296624E+03  0.60837168003E+03  0.25500000920E-02 0.  1.
       -2    1    3    3    0  502  0.43322428236E+03  0.13479775127E+03  0.99944839936E+03  0.10976114137E+04  0.25500000920E-02 0. -1.
</event>
<event>
 5   0  0.1736537E-04  0.1600512E+04  0.7818609E-02  0.8820234E-01
        1   -1    0    0  501    0  0.00000000000E+00  0.00000000000E+00  0.66356478400E+03  0.66356478402E+03  0.50400001928E-02 0. -1.
       -1   -1    0    0    0  501  0.00000000000E+00  0.00000000000E+00 -0.96510466240E+03  0.96510466241E+03  0.50400001928E-02 0.  1.
    10030    2    1    2    0    0  0.00000000000E+00  0.00000000000E+00 -0.30153987840E+03  0.16286694464E+04  0.16005117517E+04 0.  0.
        3    1    3    3  502    0  0.18958392683E+03  0.57274485871E+03 -0.68578650937E+03  0.91339032462E+03  0.10100000352E+00 0.  1.
       -3    1    3    3    0  502 -0.18958392683E+03 -0.57274485871E+03  0.38424663097E+03  0.71527912181E+03  0.10100000352E+00 0. -1.
</event>
<event>
 5   0  0.1764099E-04  0.1576035E+04  0.7818609E-02  0.8835407E-01
        1   -1    0    0  501    0  0.00000000000E+00  0.00000000000E+00  0.67985247718E+03  0.67985247720E+03  0.50400001928E-02 0.  1.
       -1   -1    0    0    0  501  0.00000000000E+00  0.00000000000E+00 -0.91339156450E+03  0.91339156451E+03  0.50400001928E-02 0. -1.
    10030    2    1    2    0    0  0.00000000000E+00  0.00000000000E+00 -0.23353908731E+03  0.15932440417E+04  0.15760349207E+04 0.  0.
        5    1    3    3  502    0  0.28497398844E+03  0.61859655874E+03  0.28388818811E+03  0.73789326459E+03  0.46999998093E+01 0. -1.
       -5    1    3    3    0  502 -0.28497398844E+03 -0.61859655874E+03 -0.51742727543E+03  0.85535077712E+03  0.46999998093E+01 0.  1.
</event>
<event>
 5   0  0.1787688E-04  0.1598933E+04  0.7818609E-02  0.8821204E-01
        1   -1    0    0  501    0  0.00000000000E+00  0.00000000000E+00  0.16571879424E+04  0.16571879424E+04  0.50400001928E-02 0.  1.
       -1   -1    0    0    0  501  0.00000000000E+00  0.00000000000E+00 -0.38568128437E+03  0.38568128440E+03  0.50400001928E-02 0. -1.
    10030    2    1    2    0    0  0.00000000000E+00  0.00000000000E+00  0.12715066580E+04  0.20428692268E+04  0.15989326116E+04 0.  0.
        4    1    3    3  502    0  0.45310721601E+03 -0.49056491408E+03  0.74192580650E+02  0.67191237230E+03  0.12699999809E+01 0. -1.
       -4    1    3    3    0  502 -0.45310721601E+03  0.49056491408E+03  0.11973140774E+04  0.13709568545E+04  0.12699999809E+01 0.  1.
</event>
<event>
 5   0  0.3263294E-04  0.1610124E+04  0.7818609E-02  0.8814353E-01
       -2   -1    0    0    0  501  0.00000000000E+00  0.00000000000E+00  0.41594814910E+03  0.41594814911E+03  0.25500000920E-02 0. -1.
        2   -1    0    0  501    0  0.00000000000E+00  0.00000000000E+00 -0.15581863812E+04  0.15581863812E+04  0.25500000920E-02 0.  1.
    10030    2    1    2    0    0  0.00000000000E+00  0.00000000000E+00 -0.11422382321E+04  0.19741345303E+04  0.16101238974E+04 0.  0.
        4    1    3    3  502    0  0.76399484393E+02 -0.77554039908E+03 -0.32339305481E+03  0.84373246507E+03  0.12699999809E+01 0. -1.
       -4    1    3    3    0  502 -0.76399484393E+02  0.77554039908E+03 -0.81884517730E+03  0.11304020652E+04  0.12699999809E+01 0.  1.
</event>
<event>
 5   0  0.3228393E-04  0.1597836E+04  0.7818609E-02  0.8821878E-01
        2   -1    0    0  501    0  0.00000000000E+00  0.00000000000E+00  0.17845006172E+04  0.17845006172E+04  0.25500000920E-02 0. -1.
       -2   -1    0    0    0  501  0.00000000000E+00  0.00000000000E+00 -0.35767449772E+03  0.35767449773E+03  0.25500000920E-02 0.  1.
    10030    2    1    2    0    0  0.00000000000E+00  0.00000000000E+00  0.14268261194E+04  0.21421751149E+04  0.15978364897E+04 0.  0.
        1    1    3    3  502    0 -0.64283658196E+03  0.25133093432E+03  0.17402900001E+03  0.71182315397E+03  0.50400001928E-02 0.  1.
       -1    1    3    3    0  502  0.64283658196E+03 -0.25133093432E+03  0.12527971194E+04  0.14303519609E+04  0.50400001928E-02 0. -1.
</event>
<event>
 5   0  0.3380454E-04  0.1597733E+04  0.7818609E-02  0.8821942E-01
       -2   -1    0    0    0  501  0.00000000000E+00  0.00000000000E+00  0.54212158539E+03  0.54212158540E+03  0.25500000920E-02 0.  1.
        2   -1    0    0  501    0  0.00000000000E+00  0.00000000000E+00 -0.11772040391E+04  0.11772040391E+04  0.25500000920E-02 0. -1.
    10030    2    1    2    0    0  0.00000000000E+00  0.00000000000E+00 -0.63508245373E+03  0.17193256245E+04  0.15977330441E+04 0.  0.
        5    1    3    3  502    0  0.58666766501E+03 -0.22487822770E+03 -0.84846099109E+03  0.10557733231E+04  0.46999998093E+01 0. -1.
       -5    1    3    3    0  502 -0.58666766501E+03  0.22487822770E+03  0.21337853736E+03  0.66355230138E+03  0.46999998093E+01 0.  1.
</event>
<event>
 5   0  0.3210612E-04  0.1605326E+04  0.7818609E-02  0.8817283E-01
        2   -1    0    0  501    0  0.00000000000E+00  0.00000000000E+00  0.92019175188E+03  0.92019175188E+03  0.25500000920E-02 0.  1.
       -2   -1    0    0    0  501  0.00000000000E+00  0.00000000000E+00 -0.70014545425E+03  0.70014545425E+03  0.25500000920E-02 0. -1.
    10030    2    1    2    0    0  0.00000000000E+00  0.00000000000E+00  0.22004629763E+03  0.16203372061E+04  0.16053262249E+04 0.  0.
        2    1    3    3  502    0 -0.35161588575E+03 -0.32155266694E+03  0.76200295971E+03  0.89870927409E+03  0.25500000920E-02 0.  1.
       -2    1    3    3    0  502  0.35161588575E+03  0.32155266694E+03 -0.54195666208E+03  0.72162793204E+03  0.25500000920E-02 0. -1.
</event>
<event>
 5   0  0.1761255E-04  0.1602667E+04  0.7818609E-02  0.8818911E-01
       -1   -1    0    0    0  501  0.00000000000E+00  0.00000000000E+00  0.99977962503E+03  0.99977962504E+03  0.50400001928E-02 0. -1.
        1   -1    0    0  501    0  0.00000000000E+00  0.00000000000E+00 -0.64227698719E+03  0.64227698721E+03  0.50400001928E-02 0.  1.
    10030    2    1    2    0    0  0.00000000000E+00  0.00000000000E+00  0.35750263784E+03  0.16420566122E+04  0.16026670839E+04 0.  0.
        2    1    3    3  502    0 -0.69461783235E+03  0.25333010588E+03  0.49531984806E+03  0.88995046349E+03  0.25500000920E-02 0. -1.
       -2    1    3    3    0  502  0.69461783235E+03 -0.25333010588E+03 -0.13781721022E+03  0.75210614876E+03  0.25500000920E-02 0.  1.
</event>
<event>
 5   0  0.1819811E-04  0.1592311E+04  0.7818609E-02  0.8825286E-01
       -1   -1    0    0    0  501  0.00000000000E+00  0.00000000000E+00  0.59021160041E+03  0.59021160044E+03  0.50400001928E-02 0. -1.
        1   -1    0    0  501    0  0.00000000000E+00  0.00000000000E+00 -0.10739599354E+04  0.10739599354E+04  0.50400001928E-02 0.  1.
    10030    2    1    2    0    0  0.00000000000E+00  0.00000000000E+00 -0.48374833498E+03  0.16641715358E+04  0.15923110403E+04 0.  0.
        1    1    3    3  502    0  0.31123466495E+03 -0.43755284032E+03  0.37248441395E+03  0.65350144866E+03  0.50400001928E-02 0. -1.
       -1    1    3    3    0  502 -0.31123466495E+03  0.43755284032E+03 -0.85623274893E+03  0.10106700872E+04  0.50400001928E-02 0.  1.
</event>
<event>
 5   0  0.3380454E-04  0.1597818E+04  0.7818609E-02  0.8821890E-01
       -2   -1    0    0    0  501  0.00000000000E+00  0.00000000000E+00  0.13958909195E+04  0.13958909195E+04  0.25500000920E-02 0. -1.
        2   -1    0    0  501    0  0.00000000000E+00  0.00000000000E+00 -0.45723863751E+03  0.45723863752E+03  0.25500000920E-02 0.  1.
    10030    2    1    2    0    0  0.00000000000E+00  0.00000000000E+00  0.93865228198E+03  0.18531295570E+04  0.15978175893E+04 0.  0.
        5    1    3    3  502    0  0.74537406604E+03 -0.15876563374E+03  0.74729841452E+03  0.10673640593E+04  0.46999998093E+01 0.  1.
       -5    1    3    3    0  502 -0.74537406604E+03  0.15876563374E+03  0.19135386746E+03  0.78576549770E+03  0.46999998093E+01 0. -1.
</event>
<event>
 5   0  0.3228393E-04  0.1598017E+04  0.7818609E-02  0.8821767E-01
        2   -1    0    0  501    0  0.00000000000E+00  0.00000000000E+00  0.16536299697E+04  0.16536299697E+04  0.25500000920E-02 0. -1.
       -2   -1    0    0    0  501  0.00000000000E+00  0.00000000000E+00 -0.38606852712E+03  0.38606852713E+03  0.25500000920E-02 0.  1.
    10030    2    1    2    0    0  0.00000000000E+00  0.00000000000E+00  0.12675614426E+04  0.20396984969E+04  0.15980168795E+04 0.  0.
        1    1    3    3  502    0  0.59965800158E+03 -0.23689335592E+03  0.12361334340E+04  0.13941786283E+04  0.50400001928E-02 0. -1.
       -1    1    3    3    0  502 -0.59965800158E+03  0.23689335592E+03  0.31428008590E+02  0.64551986854E+03  0.50400001928E-02 0.  1.
</event>
<event>
 5   0  0.1764099E-04  0.1600146E+04  0.7818609E-02  0.8820458E-01
       -1   -1    0    0    0  501  0.00000000000E+00  0.00000000000E+00  0.62338991744E+03  0.62338991746E+03  0.50400001928E-02 0.  1.
        1   -1    0    0  501    0  0.00000000000E+00  0.00000000000E+00 -0.10268327742E+04  0.10268327742E+04  0.50400001928E-02 0. -1.
    10030    2    1    2    0    0  0.00000000000E+00  0.00000000000E+00 -0.40344285679E+03  0.16502226917E+04  0.16001464913E+04 0.  0.
        5    1    3    3  502    0 -0.24835780136E+03  0.34544820248E+03  0.49703617785E+03  0.65428060508E+03  0.46999998093E+01 0.  1.
       -5    1    3    3    0  502  0.24835780136E+03 -0.34544820248E+03 -0.90047903464E+03  0.99594208663E+03  0.46999998093E+01 0. -1.
</event>
<event>
 5   0  0.1736537E-04  0.1590027E+04  0.7818609E-02  0.8826699E-01
        1   -1    0    0  501    0  0.00000000000E+00  0.00000000000E+00  0.51557790647E+03  0.51557790650E+03  0.50400001928E-02 0.  1.
       -1   -1    0    0    0  501  0.00000000000E+00  0.00000000000E+00 -0.12258984849E+04  0.12258984849E+04  0.50400001928E-02 0. -1.
    10030    2    1    2    0    0  0.00000000000E+00  0.00000000000E+00 -0.71032057840E+03  0.17414763914E+04  0.15900266343E+04 0.  0.
        3    1    3    3  502    0  0.31451313759E+03  0.34040206204E+03  0.35231861021E+03  0.58216878211E+03  0.10100000352E+00 0.  1.
       -3    1    3    3    0  502 -0.31451313759E+03 -0.34040206204E+03 -0.10626391886E+04  0.11593076093E+04  0.10100000352E+00 0. -1.
</event>
<event>
 5   0  0.3380454E-04  0.1601122E+04  0.7818609E-02  0.8819859E-01
        2   -1    0    0  501    0  0.00000000000E+00  0.00000000000E+00  0.11960234562E+04  0.11960234562E+04  0.25500000920E-02 0. -1.
       -2   -1    0    0    0  501  0.00000000000E+00  0.00000000000E+00 -0.53585715241E+03  0.53585715241E+03  0.25500000920E-02 0.  1.
    10030    2    1    2    0    0  0.00000000000E+00  0.00000000000E+00  0.66016630383E+03  0.17318806087E+04  0.16011217611E+04 0.  0.
        5    1    3    3  502    0  0.53025813095E+02  0.44141101486E+03 -0.39003435341E+03  0.59144256503E+03  0.46999998093E+01 0.  1.
       -5    1    3    3    0  502 -0.53025813095E+02 -0.44141101486E+03  0.10502006572E+04  0.11404380436E+04  0.46999998093E+01 0. -1.
</event>
<event>
 5   0  0.1736537E-04  0.1598026E+04  0.7818609E-02  0.8821761E-01
        1   -1    0    0  501    0  0.00000000000E+00  0.00000000000E+00  0.10295826428E+04  0.10295826428E+04  0.50400001928E-02 0.  1.
       -1   -1    0    0    0  501  0.00000000000E+00  0.00000000000E+00 -0.62007850915E+03  0.62007850917E+03  0.50400001928E-02 0. -1.
    10030    2    1    2    0    0  0.00000000000E+00  0.00000000000E+00  0.40950413362E+03  0.16496611520E+04  0.15980263705E+04 0.  0.
        3    1    3    3  502    0  0.57479578765E+03 -0.11565790272E+02 -0.36806283347E+03  0.68263769644E+03  0.10100000352E+00 0. -1.
       -3    1    3    3    0  502 -0.57479578765E+03  0.11565790272E+02  0.77756696710E+03  0.96702345552E+03  0.10100000352E+00 0.  1.
</event>
<event>
 5   0  0.3274900E-04  0.1605592E+04  0.7818609E-02  0.8817120E-01
        2   -1    0    0  501    0  0.00000000000E+00  0.00000000000E+00  0.24246091674E+04  0.24246091674E+04  0.25500000920E-02 0. -1.
       -2   -1    0    0    0  501  0.00000000000E+00  0.00000000000E+00 -0.26580852248E+03  0.26580852249E+03  0.25500000920E-02 0.  1.
    10030    2    1    2    0    0  0.00000000000E+00  0.00000000000E+00  0.21588006449E+04  0.26904176899E+04  0.16055924519E+04 0.  0.
        3    1    3    3  502    0  0.40693522510E+03 -0.79764897233E+02 -0.72449588679E+02  0.42096041305E+03  0.10100000352E+00 0.  1.
       -3    1    3    3    0  502 -0.40693522510E+03  0.79764897233E+02  0.22312502336E+04  0.22694572768E+04  0.10100000352E+00 0. -1.
</event>
<event>
 5   0  0.1761255E-04  0.1565365E+04  0.7818609E-02  0.8842113E-01
       -1   -1    0    0    0  501  0.00000000000E+00  0.00000000000E+00  0.11947794782E+04  0.11947794782E+04  0.50400001928E-02 0.  1.
        1   -1    0    0  501    0  0.00000000000E+00  0.00000000000E+00 -0.51272375240E+03  0.51272375243E+03  0.50400001928E-02 0. -1.
    10030    2    1    2    0    0  0.00000000000E+00  0.00000000000E+00  0.68205572579E+03  0.17075032306E+04  0.15653648998E+04 0.  0.
        2    1    3    3  502    0 -0.10418080661E+03  0.43861556140E+03 -0.35687625723E+03  0.57497644661E+03  0.25500000920E-02 0. -1.
       -2    1    3    3    0  502  0.10418080661E+03 -0.43861556140E+03  0.10389319830E+04  0.11325267840E+04  0.25500000920E-02 0.  1.
</event>
<event>
 5   0  0.3228393E-04  0.1590450E+04  0.7818609E-02  0.8826436E-01
        2   -1    0    0  501    0  0.00000000000E+00  0.00000000000E+00  0.51699222235E+03  0.51699222235E+03  0.25500000920E-02 0.  1.
       -2   -1    0    0    0  501  0.00000000000E+00  0.00000000000E+00 -0.12231964967E+04  0.12231964967E+04  0.25500000920E-02 0. -1.
    10030    2    1    2    0    0  0.00000000000E+00  0.00000000000E+00 -0.70620427432E+03  0.17401887190E+04  0.15904503453E+04 0.  0.
        1    1    3    3  502    0  0.41768860500E+03 -0.64650881259E+03 -0.13442114634E+03  0.78134912818E+03  0.50400001928E-02 0.  1.
       -1    1    3    3    0  502 -0.41768860500E+03  0.64650881259E+03 -0.57178312797E+03  0.95883959084E+03  0.50400001928E-02 0. -1.
</event>
<event>
 5   0  0.1761255E-04  0.1595217E+04  0.7818609E-02  0.8823492E-01
        1   -1    0    0  501    0  0.00000000000E+00  0.00000000000E+00  0.83757246370E+03  0.83757246371E+03  0.50400001928E-02 0.  1.
       -1   -1    0    0    0  501  0.00000000000E+00  0.00000000000E+00 -0.75955153972E+03  0.75955153974E+03  0.50400001928E-02 0. -1.
    10030    2    1    2    0    0  0.00000000000E+00  0.00000000000E+00  0.78020923976E+02  0.15971240034E+04  0.15952171695E+04 0.  0.
        2    1    3    3  502    0 -0.36752371694E+02 -0.12791678505E+03 -0.74835568996E+03  0.76009846693E+03  0.25500000920E-02 0. -1.
       -2    1    3    3    0  502  0.36752371694E+02  0.12791678505E+03  0.82637661394E+03  0.83702553652E+03  0.25500000920E-02 0.  1.
</event>
<event>
 5   0  0.3263294E-04  0.1603448E+04  0.7818609E-02  0.8818432E-01
       -2   -1    0    0    0  501  0.00000000000E+00  0.00000000000E+00  0.41358318407E+03  0.41358318408E+03  0.25500000920E-02 0. -1.
        2   -1    0    0  501    0  0.00000000000E+00  0.00000000000E+00 -0.15541293356E+04  0.15541293356E+04  0.25500000920E-02 0.  1.
    10030    2    1    2    0    0  0.00000000000E+00  0.00000000000E+00 -0.11405461515E+04  0.19677125196E+04  0.16034484826E+04 0.  0.
        4    1    3    3  502    0 -0.65035176800E+03  0.33617970255E+03 -0.16925526816E+03  0.75141411568E+03  0.12699999809E+01 0. -1.
       -4    1    3    3    0  502  0.65035176800E+03 -0.33617970255E+03 -0.97129088333E+03  0.12162984040E+04  0.12699999809E+01 0.  1.
</event>
<event>
 5   0  0.1787688E-04  0.1625274E+04  0.7818609E-02  0.8805170E-01
       -1   -1    0    0    0  501  0.00000000000E+00  0.00000000000E+00  0.63142483181E+03  0.63142483183E+03  0.50400001928E-02 0.  1.
        1   -1    0    0  501    0  0.00000000000E+00  0.00000000000E+00 -0.10458549713E+04  0.10458549713E+04  0.50400001928E-02 0. -1.
    10030    2    1    2    0    0  0.00000000000E+00  0.00000000000E+00 -0.41443013948E+03  0.16772798031E+04  0.16252738838E+04 0.  0.
        4    1    3    3  502    0  0.14270214489E+03  0.65374114114E+03 -0.68309474676E+03  0.95622247816E+03  0.12699999809E+01 0. -1.
       -4    1    3    3    0  502 -0.14270214489E+03 -0.65374114114E+03  0.26866460728E+03  0.72105732497E+03  0.12699999809E+01 0.  1.
</event>
<event>
 5   0  0.1219463E-04  0.1600946E+04  0.7818609E-02  0.8819967E-01
        4   -1    0    0  501    0  0.00000000000E+00  0.00000000000E+00  0.83217565687E+03  0.83217662595E+03  0.12699999809E+01 0.  1.
       -4   -1    0    0    0  501  0.00000000000E+00  0.00000000000E+00 -0.76997603170E+03  0.76997707907E+03  0.12699999809E+01 0. -1.
    10030    2    1    2    0    0  0.00000000000E+00  0.00000000000E+00  0.62199625165E+02  0.16021537050E+04  0.16009458770E+04 0.  0.
        1    1    3    3  502    0 -0.37554990862E+03  0.60364029623E+03  0.39925992873E+03  0.81536975160E+03  0.50400001928E-02 0.  1.
       -1    1    3    3    0  502  0.37554990862E+03 -0.60364029623E+03 -0.33706030357E+03  0.78678395343E+03  0.50400001928E-02 0. -1.
</event>
<event>
 5   0  0.1764099E-04  0.1600709E+04  0.7818609E-02  0.8820113E-01
        1   -1    0    0  501    0  0.00000000000E+00  0.00000000000E+00  0.75000569238E+03  0.75000569240E+03  0.50400001928E-02 0.  1.
       -1   -1    0    0    0  501  0.00000000000E+00  0.00000000000E+00 -0.85408312758E+03  0.85408312760E+03  0.50400001928E-02 0. -1.
    10030    2    1    2    0    0  0.00000000000E+00  0.00000000000E+00 -0.10407743520E+03  0.16040888200E+04  0.16007088523E+04 0.  0.
        5    1    3    3  502    0  0.21541768819E+02 -0.79536610756E+03  0.34595112762E+02  0.79642338281E+03  0.46999998093E+01 0.  1.
       -5    1    3    3    0  502 -0.21541768819E+02  0.79536610756E+03 -0.13867254797E+03  0.80766543718E+03  0.46999998093E+01 0. -1.
</event>
<event>
 5   0  0.1761255E-04  0.1589185E+04  0.7818609E-02  0.8827220E-01
       -1   -1    0    0    0  501  0.00000000000E+00  0.00000000000E+00  0.61331808242E+03  0.61331808244E+03  0.50400001928E-02 0.  1.
        1   -1    0    0  501    0  0.00000000000E+00  0.00000000000E+00 -0.10294454375E+04  0.10294454375E+04  0.50400001928E-02 0. -1.
    10030    2    1    2    0    0  0.00000000000E+00  0.00000000000E+00 -0.41612735503E+03  0.16427635199E+04  0.15891853280E+04 0.  0.
        2    1    3    3  502    0 -0.40855558854E+03  0.56401925796E+03  0.18738047564E+03  0.72121205961E+03  0.25500000920E-02 0. -1.
       -2    1    3    3    0  502  0.40855558854E+03 -0.56401925796E+03 -0.60350783067E+03  0.92155146029E+03  0.25500000920E-02 0.  1.
</event>
<event>
 5   0  0.1736537E-04  0.1590218E+04  0.7818609E-02  0.8826580E-01
        1   -1    0    0  501    0  0.00000000000E+00  0.00000000000E+00  0.80208349322E+03  0.80208349324E+03  0.50400001928E-02 0.  1.
       -1   -1    0    0    0  501  0.00000000000E+00  0.00000000000E+00 -0.78819485639E+03  0.78819485641E+03  0.50400001928E-02 0. -1.
    10030    2    1    2    0    0  0.00000000000E+00  0.00000000000E+00  0.13888636832E+02  0.15902783496E+04  0.15902177005E+04 0.  0.
        3    1    3    3  502    0  0.68571293187E+03  0.10896591137E+03 -0.38052662246E+03  0.79175521177E+03  0.10100000352E+00 0. -1.
       -3    1    3    3    0  502 -0.68571293187E+03 -0.10896591137E+03  0.39441525929E+03  0.79852313788E+03  0.10100000352E+00 0.  1.
</event>
<event>
 5   0  0.1764099E-04  0.1610442E+04  0.7818609E-02  0.8814159E-01
        1   -1    0    0  501    0  0.00000000000E+00  0.00000000000E+00  0.22908299444E+04  0.22908299444E+04  0.50400001928E-02 0. -1.
       -1   -1    0    0    0  501  0.00000000000E+00  0.00000000000E+00 -0.28303303821E+03  0.28303303826E+03  0.50400001928E-02 0.  1.
    10030    2    1    2    0    0  0.00000000000E+00  0.00000000000E+00  0.20077969062E+04  0.25738629826E+04  0.16104416279E+04 0.  0.
        5    1    3    3  502    0 -0.70397927234E+02 -0.12275410357E+03  0.22707791733E+04  0.22751889113E+04  0.46999998093E+01 0. -1.
       -5    1    3    3    0  502  0.70397927234E+02  0.12275410357E+03 -0.26298226711E+03  0.29867407138E+03  0.46999998093E+01 0.  1.
</event>
<event>
 5   0  0.1764099E-04  0.1563269E+04  0.7818609E-02  0.8843436E-01
        1   -1    0    0  501    0  0.00000000000E+00  0.00000000000E+00  0.80614152042E+03  0.80614152043E+03  0.50400001928E-02 0.  1.
       -1   -1    0    0    0  501  0.00000000000E+00  0.00000000000E+00 -0.75787266420E+03  0.75787266421E+03  0.50400001928E-02 0. -1.
    10030    2    1    2    0    0  0.00000000000E+00  0.00000000000E+00  0.48268856217E+02  0.15640141846E+04  0.15632691666E+04 0.  0.
        5    1    3    3  502    0  0.69409763333E+03  0.18634594686E+03 -0.28331349770E+03  0.77251858520E+03  0.46999998093E+01 0.  1.
       -5    1    3    3    0  502 -0.69409763333E+03 -0.18634594686E+03  0.33158235392E+03  0.79149559944E+03  0.46999998093E+01 0. -1.
</event>
<event>
 5   0  0.1764099E-04  0.1592796E+04  0.7818609E-02  0.8824986E-01
        1   -1    0    0  501    0  0.00000000000E+00  0.00000000000E+00  0.81450831278E+03  0.81450831279E+03  0.50400001928E-02 0. -1.
       -1   -1    0    0    0  501  0.00000000000E+00  0.00000000000E+00 -0.77869040306E+03  0.77869040308E+03  0.50400001928E-02 0.  1.
    10030    2    1    2    0    0  0.00000000000E+00  0.00000000000E+00  0.35817909713E+02  0.15931987159E+04  0.15927960402E+04 0.  0.
        5    1    3    3  502    0 -0.66988097332E+03 -0.35562947485E+03 -0.22508223335E+03  0.79113648858E+03  0.46999998093E+01 0. -1.
       -5    1    3    3    0  502  0.66988097332E+03  0.35562947485E+03  0.26090014306E+03  0.80206222729E+03  0.46999998093E+01 0.  1.
</event>
<event>
 5   0  0.3263294E-04  0.1596530E+04  0.7818609E-02  0.8822683E-01
       -2   -1    0    0    0  501  0.00000000000E+00  0.00000000000E+00  0.28504861549E+03  0.28504861550E+03  0.25500000920E-02 0.  1.
        2   -1    0    0  501    0  0.00000000000E+00  0.00000000000E+00 -0.22355021713E+04  0.22355021713E+04  0.25500000920E-02 0. -1.
    10030    2    1    2    0    0  0.00000000000E+00  0.00000000000E+00 -0.19504535558E+04  0.25205507868E+04  0.15965297352E+04 0.  0.
        4    1    3    3  502    0  0.26876635071E+03 -0.50202890084E+03 -0.92023546892E+02  0.57683473771E+03  0.12699999809E+01 0.  1.
       -4    1    3    3    0  502 -0.26876635071E+03  0.50202890084E+03 -0.18584300089E+04  0.19437160491E+04  0.12699999809E+01 0. -1.
</event>
<event>
 5   0  0.1787688E-04  0.1602321E+04  0.7818609E-02  0.8819123E-01
       -1   -1    0    0    0  501  0.00000000000E+00  0.00000000000E+00  0.46247424696E+03  0.46247424699E+03  0.50400001928E-02 0.  1.
        1   -1    0    0  501    0  0.00000000000E+00  0.00000000000E+00 -0.13878793164E+04  0.13878793164E+04  0.50400001928E-02 0. -1.
    10030    2    1    2    0    0  0.00000000000E+00  0.00000000000E+00 -0.92540506941E+03  0.18503535634E+04  0.16023213682E+04 0.  0.
        4    1    3    3  502    0 -0.18795248099E+03 -0.23106129378E+03 -0.13215640993E+04  0.13547135262E+04  0.12699999809E+01 0. -1.
       -4    1    3    3    0  502  0.18795248099E+03  0.23106129378E+03  0.39615902989E+03  0.49564003718E+03  0.12699999809E+01 0.  1.
</event>
<event>
 5   0  0.3274900E-04  0.1589740E+04  0.7818609E-02  0.8826876E-01
        2   -1    0    0  501    0  0.00000000000E+00  0.00000000000E+00  0.77219648497E+03  0.77219648497E+03  0.25500000920E-02 0. -1.
       -2   -1    0    0    0  501  0.00000000000E+00  0.00000000000E+00 -0.81820884386E+03  0.81820884387E+03  0.25500000920E-02 0.  1.
    10030    2    1    2    0    0  0.00000000000E+00  0.00000000000E+00 -0.46012358896E+02  0.15904053288E+04  0.15897395928E+04 0.  0.
        3    1    3    3  502    0 -0.46283798930E+03 -0.54769601842E+03  0.32010690543E+03  0.78527598591E+03  0.10100000352E+00 0. -1.
       -3    1    3    3    0  502  0.46283798930E+03  0.54769601842E+03 -0.36611926433E+03  0.80512934293E+03  0.10100000352E+00 0.  1.
</event>
<event>
 5   0  0.3228393E-04  0.1632444E+04  0.7818609E-02  0.8800861E-01
        2   -1    0    0  501    0  0.00000000000E+00  0.00000000000E+00  0.34184558178E+03  0.34184558179E+03  0.25500000920E-02 0.  1.
       -2   -1    0    0    0  501  0.00000000000E+00  0.00000000000E+00 -0.19488861831E+04  0.19488861831E+04  0.25500000920E-02 0. -1.
    10030    2    1    2    0    0  0.00000000000E+00  0.00000000000E+00 -0.16070406014E+04  0.22907317649E+04  0.16324437278E+04 0.  0.
        1    1    3    3  502    0 -0.25550427712E+03 -0.60052333216E+03 -0.14914112757E+04  0.16279491089E+04  0.50400001928E-02 0. -1.
       -1    1    3    3    0  502  0.25550427712E+03  0.60052333216E+03 -0.11562932569E+03  0.66278265599E+03  0.50400001928E-02 0.  1.
</event>
<event>
 5   0  0.1787688E-04  0.1495713E+04  0.7818609E-02  0.8887309E-01
        1   -1    0    0  501    0  0.00000000000E+00  0.00000000000E+00  0.61913624147E+03  0.61913624149E+03  0.50400001928E-02 0.  1.
       -1   -1    0    0    0  501  0.00000000000E+00  0.00000000000E+00 -0.90333836525E+03  0.90333836526E+03  0.50400001928E-02 0. -1.
    10030    2    1    2    0    0  0.00000000000E+00  0.00000000000E+00 -0.28420212377E+03  0.15224746068E+04  0.14957132349E+04 0.  0.
        4    1    3    3  502    0  0.73691514693E+03  0.49138358273E+02 -0.22398535351E+02  0.73889229210E+03  0.12699999809E+01 0. -1.
       -4    1    3    3    0  502 -0.73691514693E+03 -0.49138358273E+02 -0.26180358842E+03  0.78358231466E+03  0.12699999809E+01 0.  1.
</event>
<event>
 5   0  0.3228393E-04  0.1609644E+04  0.7818609E-02  0.8814645E-01
        2   -1    0    0  501    0  0.00000000000E+00  0.00000000000E+00  0.24275785357E+04  0.24275785357E+04  0.25500000920E-02 0.  1.
       -2   -1    0    0    0  501  0.00000000000E+00  0.00000000000E+00 -0.26682507383E+03  0.26682507384E+03  0.25500000920E-02 0. -1.
    10030    2    1    2    0    0  0.00000000000E+00  0.00000000000E+00  0.21607534619E+04  0.26944036096E+04  0.16096444602E+04 0.  0.
        1    1    3    3  502    0  0.64930398311E+03 -0.38125071924E+03  0.15561656408E+04  0.17287565691E+04  0.50400001928E-02 0.  1.
       -1    1    3    3    0  502 -0.64930398311E+03  0.38125071924E+03  0.60458782110E+03  0.96564704052E+03  0.50400001928E-02 0. -1.
</event>
<event>
 5   0  0.3228393E-04  0.1595346E+04  0.7818609E-02  0.8823413E-01
       -2   -1    0    0    0  501  0.00000000000E+00  0.00000000000E+00  0.60270321693E+03  0.60270321693E+03  0.25500000920E-02 0. -1.
        2   -1    0    0  501    0  0.00000000000E+00  0.00000000000E+00 -0.10557133291E+04  0.10557133291E+04  0.25500000920E-02 0.  1.
    10030    2    1    2    0    0  0.00000000000E+00  0.00000000000E+00 -0.45301011219E+03  0.16584165461E+04  0.15953455044E+04 0.  0.
        1    1    3    3  502    0  0.15238703008E+03 -0.74120258379E+03 -0.48882789778E+03  0.90086391360E+03  0.50400001928E-02 0. -1.
       -1    1    3    3    0  502 -0.15238703008E+03  0.74120258379E+03  0.35817785595E+02  0.75755263246E+03  0.50400001928E-02 0.  1.
</event>
<event>
 5   0  0.1761255E-04  0.1568521E+04  0.7818609E-02  0.8840124E-01
       -1   -1    0    0    0  501  0.00000000000E+00  0.00000000000E+00  0.31281083108E+03  0.31281083112E+03  0.50400001928E-02 0.  1.
        1   -1    0    0  501    0  0.00000000000E+00  0.00000000000E+00 -0.19662501873E+04  0.19662501873E+04  0.50400001928E-02 0. -1.
    10030    2    1    2    0    0  0.00000000000E+00  0.00000000000E+00 -0.16534393562E+04  0.22790610184E+04  0.15685207748E+04 0.  0.
        2    1    3    3  502    0  0.16519807225E+03 -0.13102140674E+03  0.27085569969E+03  0.34324892157E+03  0.25500000920E-02 0.  1.
       -2    1    3    3    0  502 -0.16519807225E+03  0.13102140674E+03 -0.19242950559E+04  0.19358120969E+04  0.25500000920E-02 0. -1.
</event>
<event>
 5   0  0.3228393E-04  0.1596426E+04  0.7818609E-02  0.8822747E-01
        2   -1    0    0  501    0  0.00000000000E+00  0.00000000000E+00  0.93939018742E+03  0.93939018742E+03  0.25500000920E-02 0.  1.
       -2   -1    0    0    0  501  0.00000000000E+00  0.00000000000E+00 -0.67825283593E+03  0.67825283594E+03  0.25500000920E-02 0. -1.
    10030    2    1    2    0    0  0.00000000000E+00  0.00000000000E+00  0.26113735149E+03  0.16176430234E+04  0.15964260818E+04 0.  0.
        1    1    3    3  502    0  0.21870025464E+03 -0.43401996011E+03 -0.51104567936E+03  0.70524521521E+03  0.50400001928E-02 0. -1.
       -1    1    3    3    0  502 -0.21870025464E+03  0.43401996011E+03  0.77218303085E+03  0.91239780815E+03  0.50400001928E-02 0.  1.
</event>
<event>
 5   0  0.1787688E-04  0.1606178E+04  0.7818609E-02  0.8816761E-01
       -1   -1    0    0    0  501  0.00000000000E+00  0.00000000000E+00  0.68588572799E+03  0.68588572801E+03  0.50400001928E-02 0. -1.
        1   -1    0    0  501    0  0.00000000000E+00  0.00000000000E+00 -0.94032027485E+03  0.94032027486E+03  0.50400001928E-02 0.  1.
    10030    2    1    2    0    0  0.00000000000E+00  0.00000000000E+00 -0.25443454686E+03  0.16262060029E+04  0.16061783914E+04 0.  0.
        4    1    3    3  502    0  0.46738008118E+02 -0.47443582990E+03  0.52712048362E+03  0.71072597760E+03  0.12699999809E+01 0. -1.
       -4    1    3    3    0  502 -0.46738008118E+02  0.47443582990E+03 -0.78155503048E+03  0.91548002526E+03  0.12699999809E+01 0.  1.
</event>
<event>
 5   0  0.1761255E-04  0.1596915E+04  0.7818609E-02  0.8822445E-01
        1   -1    0    0  501    0  0.00000000000E+00  0.00000000000E+00  0.14727827912E+04  0.14727827912E+04  0.50400001928E-02 0. -1.
       -1   -1    0    0    0  501  0.00000000000E+00  0.00000000000E+00 -0.43287744018E+03  0.43287744021E+03  0.50400001928E-02 0.  1.
    10030    2    1    2    0    0  0.00000000000E+00  0.00000000000E+00  0.10399053511E+04  0.19056602315E+04  0.15969150818E+04 0.  0.
        2    1    3    3  502    0 -0.46680671624E+03  0.16131598851E+03  0.12686269250E+04  0.13613763746E+04  0.25500000920E-02 0. -1.
       -2    1    3    3    0  502  0.46680671624E+03 -0.16131598851E+03 -0.22872157391E+03  0.54428385688E+03  0.25500000920E-02 0.  1.
</event>
<event>
 5   0  0.1819811E-04  0.1598431E+04  0.7818609E-02  0.8821512E-01
        1   -1    0    0  501    0  0.00000000000E+00  0.00000000000E+00  0.24840220898E+04  0.24840220898E+04  0.50400001928E-02 0.  1.
       -1   -1    0    0    0  501  0.00000000000E+00  0.00000000000E+00 -0.25714163214E+03  0.25714163219E+03  0.50400001928E-02 0. -1.
    10030    2    1    2    0    0  0.00000000000E+00  0.00000000000E+00  0.22268804576E+04  0.27411637220E+04  0.15984310989E+04 0.  0.
        1    1    3    3  502    0  0.61606878032E+03 -0.83664524119E+02  0.19746677526E+04  0.20702302355E+04  0.50400001928E-02 0. -1.
       -1    1    3    3    0  502 -0.61606878032E+03  0.83664524119E+02  0.25221270500E+03  0.67093348647E+03  0.50400001928E-02 0.  1.
</event>
<event>
 5   0  0.3228393E-04  0.1600792E+04  0.7818609E-02  0.8820062E-01
        2   -1    0    0  501    0  0.00000000000E+00  0.00000000000E+00  0.96602403847E+03  0.96602403848E+03  0.25500000920E-02 0. -1.
       -2   -1    0    0    0  501  0.00000000000E+00  0.00000000000E+00 -0.66316533595E+03  0.66316533596E+03  0.25500000920E-02 0.  1.
    10030    2    1    2    0    0  0.00000000000E+00  0.00000000000E+00  0.30285870252E+03  0.16291893744E+04  0.16007918741E+04 0.  0.
        1    1    3    3  502    0 -0.41264849238E+03 -0.66339047844E+02 -0.54328812482E+03  0.68544995013E+03  0.50400001928E-02 0.  1.
       -1    1    3    3    0  502  0.41264849238E+03  0.66339047844E+02  0.84614682735E+03  0.94373942430E+03  0.50400001928E-02 0. -1.
</event>
<event>
 5   0  0.1819811E-04  0.1589528E+04  0.7818609E-02  0.8827007E-01
        1   -1    0    0  501    0  0.00000000000E+00  0.00000000000E+00  0.14495508808E+04  0.14495508808E+04  0.50400001928E-02 0. -1.
       -1   -1    0    0    0  501  0.00000000000E+00  0.00000000000E+00 -0.43575555130E+03  0.43575555133E+03  0.50400001928E-02 0.  1.
    10030    2    1    2    0    0  0.00000000000E+00  0.00000000000E+00  0.10137953295E+04  0.18853064321E+04  0.15895280346E+04 0.  0.
        1    1    3    3  502    0  0.50161064301E+03  0.58418800471E+03  0.27338462451E+03  0.81708507205E+03  0.50400001928E-02 0.  1.
       -1    1    3    3    0  502 -0.50161064301E+03 -0.58418800471E+03  0.74041070494E+03  0.10682213600E+04  0.50400001928E-02 0. -1.
</event>
<event>
 5   0  0.1787688E-04  0.1595310E+04  0.7818609E-02  0.8823434E-01
       -1   -1    0    0    0  501  0.00000000000E+00  0.00000000000E+00  0.92995009440E+03  0.92995009442E+03  0.50400001928E-02 0. -1.
        1   -1    0    0  501    0  0.00000000000E+00  0.00000000000E+00 -0.68418057128E+03  0.68418057130E+03  0.50400001928E-02 0.  1.
    10030    2    1    2    0    0  0.00000000000E+00  0.00000000000E+00  0.24576952312E+03  0.16141306657E+04  0.15953103609E+04 0.  0.
        4    1    3    3  502    0  0.16433757415E+03  0.69262760451E+03 -0.24123904400E+03  0.75162339377E+03  0.12699999809E+01 0.  1.
       -4    1    3    3    0  502 -0.16433757415E+03 -0.69262760451E+03  0.48700856712E+03  0.86250727195E+03  0.12699999809E+01 0. -1.
</event>
<event>
 5   0  0.3210612E-04  0.1599680E+04  0.7818609E-02  0.8820745E-01
        2   -1    0    0  501    0  0.00000000000E+00  0.00000000000E+00  0.13029413522E+04  0.13029413522E+04  0.25500000920E-02 0. -1.
       -2   -1    0    0    0  501  0.00000000000E+00  0.00000000000E+00 -0.49099966116E+03  0.49099966117E+03  0.25500000920E-02 0.  1.
    10030    2    1    2    0    0  0.00000000000E+00  0.00000000000E+00  0.81194169101E+03  0.17939410133E+04  0.15996796710E+04 0.  0.
        2    1    3    3  502    0  0.89685418037E+01  0.68105060253E+03 -0.64275929313E+02  0.68413577091E+03  0.25500000920E-02 0.  1.
       -2    1    3    3    0  502 -0.89685418037E+01 -0.68105060253E+03  0.87621762032E+03  0.11098052424E+04  0.25500000920E-02 0. -1.
</event>
<event>
 5   0  0.3210612E-04  0.1583033E+04  0.7818609E-02  0.8831040E-01
       -2   -1    0    0    0  501  0.00000000000E+00  0.00000000000E+00  0.48126231619E+03  0.48126231620E+03  0.25500000920E-02 0.  1.
        2   -1    0    0  501    0  0.00000000000E+00  0.00000000000E+00 -0.13017812002E+04  0.13017812002E+04  0.25500000920E-02 0. -1.
    10030    2    1    2    0    0  0.00000000000E+00  0.00000000000E+00 -0.82051888400E+03  0.17830435164E+04  0.15830328305E+04 0.  0.
        2    1    3    3  502    0 -0.55081771382E+03  0.32034916441E+03 -0.93913220165E+03  0.11348978074E+04  0.25500000920E-02 0. -1.
       -2    1    3    3    0  502  0.55081771382E+03 -0.32034916441E+03  0.11861331765E+03  0.64814570902E+03  0.25500000920E-02 0.  1.
</event>
<event>
 5   0  0.3380454E-04  0.1601377E+04  0.7818609E-02  0.8819703E-01
        2   -1    0    0  501    0  0.00000000000E+00  0.00000000000E+00  0.16971959232E+04  0.16971959232E+04  0.25500000920E-02 0. -1.
       -2   -1    0    0    0  501  0.00000000000E+00  0.00000000000E+00 -0.37774172954E+03  0.37774172955E+03  0.25500000920E-02 0.  1.
    10030    2    1    2    0    0  0.00000000000E+00  0.00000000000E+00  0.13194541937E+04  0.20749376528E+04  0.16013765621E+04 0.  0.
        5    1    3    3  502    0  0.48681924724E+03 -0.41672652753E+03  0.12817079265E+04  0.14329868378E+04  0.46999998093E+01 0. -1.
       -5    1    3    3    0  502 -0.48681924724E+03  0.41672652753E+03  0.37746267162E+02  0.64195081503E+03  0.46999998093E+01 0.  1.
</event>
<event>
 5   0  0.3228393E-04  0.1605661E+04  0.7818609E-02  0.8817078E-01
       -2   -1    0    0    0  501  0.00000000000E+00  0.00000000000E+00  0.39520718722E+03  0.39520718722E+03  0.25500000920E-02 0.  1.
        2   -1    0    0  501    0  0.00000000000E+00  0.00000000000E+00 -0.16308828698E+04  0.16308828698E+04  0.25500000920E-02 0. -1.
    10030    2    1    2    0    0  0.00000000000E+00  0.00000000000E+00 -0.12356756825E+04  0.20260900570E+04  0.16056607757E+04 0.  0.
        1    1    3    3  502    0  0.46824107552E+02 -0.76600278637E+03 -0.32034308075E+03  0.83160835444E+03  0.50400001928E-02 0.  1.
       -1    1    3    3    0  502 -0.46824107552E+02  0.76600278637E+03 -0.91533260179E+03  0.11944817025E+04  0.50400001928E-02 0. -1.
</event>
<event>
 5   0  0.1736537E-04  0.1600861E+04  0.7818609E-02  0.8820019E-01
        1   -1    0    0  501    0  0.00000000000E+00  0.00000000000E+00  0.99274094690E+03  0.99274094692E+03  0.50400001928E-02 0. -1.
       -1   -1    0    0    0  501  0.00000000000E+00  0.00000000000E+00 -0.64537402679E+03  0.64537402681E+03  0.50400001928E-02 0.  1.
    10030    2    1    2    0    0  0.00000000000E+00  0.00000000000E+00  0.34736692011E+03  0.16381149737E+04  0.16008612963E+04 0.  0.
        3    1    3    3  502    0 -0.45194721410E+03 -0.27811742826E+03  0.78686415751E+03  0.94908419058E+03  0.10100000352E+00 0. -1.
       -3    1    3    3    0  502  0.45194721410E+03  0.27811742826E+03 -0.43949723740E+03  0.68903078314E+03  0.10100000352E+00 0.  1.
</event>
<event>
 5   0  0.3263294E-04  0.1605672E+04  0.7818609E-02  0.8817071E-01
        2   -1    0    0  501    0  0.00000000000E+00  0.00000000000E+00  0.41996022011E+03  0.41996022012E+03  0.25500000920E-02 0. -1.
       -2   -1    0    0    0  501  0.00000000000E+00  0.00000000000E+00 -0.15347784776E+04  0.15347784776E+04  0.25500000920E-02 0.  1.
    10030    2    1    2    0    0  0.00000000000E+00  0.00000000000E+00 -0.11148182575E+04  0.19547386977E+04  0.16056723293E+04 0.  0.
        4    1    3    3  502    0  0.16078854195E+02  0.12269593905E+03  0.40827925099E+03  0.42662206073E+03  0.12699999809E+01 0. -1.
       -4    1    3    3    0  502 -0.16078854195E+02 -0.12269593905E+03 -0.15230975085E+04  0.15281166370E+04  0.12699999809E+01 0.  1.
</event>
<event>
 5   0  0.3380454E-04  0.1601176E+04  0.7818609E-02  0.8819826E-01
       -2   -1    0    0    0  501  0.00000000000E+00  0.00000000000E+00  0.50457458916E+03  0.50457458917E+03  0.25500000920E-02 0.  1.
        2   -1    0    0  501    0  0.00000000000E+00  0.00000000000E+00 -0.12702604051E+04  0.12702604051E+04  0.25500000920E-02 0. -1.
    10030    2    1    2    0    0  0.00000000000E+00  0.00000000000E+00 -0.76568581598E+03  0.17748349943E+04  0.16011759704E+04 0.  0.
        5    1    3    3  502    0  0.28779363940E+03  0.53527234858E+03 -0.96049414167E+03  0.11366233995E+04  0.46999998093E+01 0. -1.
       -5    1    3    3    0  502 -0.28779363940E+03 -0.53527234858E+03  0.19480832570E+03  0.63821159484E+03  0.46999998093E+01 0.  1.
</event>
<event>
 5   0  0.3228393E-04  0.1588619E+04  0.7818609E-02  0.8827570E-01
       -2   -1    0    0    0  501  0.00000000000E+00  0.00000000000E+00  0.59631667885E+03  0.59631667886E+03  0.25500000920E-02 0. -1.
        2   -1    0    0  501    0  0.00000000000E+00  0.00000000000E+00 -0.10580411369E+04  0.10580411369E+04  0.25500000920E-02 0.  1.
    10030    2    1    2    0    0  0.00000000000E+00  0.00000000000E+00 -0.46172445807E+03  0.16543578158E+04  0.15886189938E+04 0.  0.
        1    1    3    3  502    0  0.25268135785E+02 -0.44689722761E+03 -0.91419550815E+03  0.10178944139E+04  0.50400001928E-02 0.  1.
       -1    1    3    3    0  502 -0.25268135785E+02  0.44689722761E+03  0.45247105008E+03  0.63646340187E+03  0.50400001928E-02 0. -1.
</event>
<event>
 5   0  0.1819811E-04  0.1595422E+04  0.7818609E-02  0.8823365E-01
        1   -1    0    0  501    0  0.00000000000E+00  0.00000000000E+00  0.32778062233E+03  0.32778062237E+03  0.50400001928E-02 0. -1.
       -1   -1    0    0    0  501  0.00000000000E+00  0.00000000000E+00 -0.19413690834E+04  0.19413690834E+04  0.50400001928E-02 0.  1.
    10030    2    1    2    0    0  0.00000000000E+00  0.00000000000E+00 -0.16135884610E+04  0.22691497057E+04  0.15954224097E+04 0.  0.
        1    1    3    3  502    0 -0.26605763623E+03 -0.67863156579E+02  0.25845188763E+03  0.37708016662E+03  0.50400001928E-02 0. -1.
       -1    1    3    3    0  502  0.26605763623E+03  0.67863156579E+02 -0.18720403487E+04  0.18920695391E+04  0.50400001928E-02 0.  1.
</event>
<event>
 5   0  0.1219463E-04  0.1610049E+04  0.7818609E-02  0.8814398E-01
       -4   -1    0    0    0  501  0.00000000000E+00  0.00000000000E+00  0.74706992341E+03  0.74707100289E+03  0.12699999809E+01 0.  1.
        4   -1    0    0  501    0  0.00000000000E+00  0.00000000000E+00 -0.86747313582E+03  0.86747406548E+03  0.12699999809E+01 0. -1.
    10030    2    1    2    0    0  0.00000000000E+00  0.00000000000E+00 -0.12040321242E+03  0.16145450684E+04  0.16100493297E+04 0.  0.
        3    1    3    3  502    0 -0.72114283800E+03 -0.13897253105E+03  0.27042244195E+03  0.78261655010E+03  0.10100000352E+00 0.  1.
       -3    1    3    3    0  502  0.72114283800E+03  0.13897253105E+03 -0.39082565437E+03  0.83192851826E+03  0.10100000352E+00 0. -1.
</event>
<event>
 5   0  0.1761255E-04  0.1595621E+04  0.7818609E-02  0.8823243E-01
        1   -1    0    0  501    0  0.00000000000E+00  0.00000000000E+00  0.14649580746E+04  0.14649580746E+04  0.50400001928E-02 0. -1.
       -1   -1    0    0    0  501  0.00000000000E+00  0.00000000000E+00 -0.43448466405E+03  0.43448466408E+03  0.50400001928E-02 0.  1.
    10030    2    1    2    0    0  0.00000000000E+00  0.00000000000E+00  0.10304734105E+04  0.18994427386E+04  0.15956212795E+04 0.  0.
        2    1    3    3  502    0  0.68714868588E+03 -0.33829509221E+03  0.24935951904E+03  0.80547939493E+03  0.25500000920E-02 0.  1.
       -2    1    3    3    0  502 -0.68714868588E+03  0.33829509221E+03  0.78111389148E+03  0.10939633437E+04  0.25500000920E-02 0. -1.
</event>
<event>
 5   0  0.3210612E-04  0.1607305E+04  0.7818609E-02  0.8816073E-01
       -2   -1    0    0    0  501  0.00000000000E+00  0.00000000000E+00  0.41550906238E+03  0.41550906239E+03  0.25500000920E-02 0. -1.
        2   -1    0    0  501    0  0.00000000000E+00  0.00000000000E+00 -0.15543764480E+04  0.15543764480E+04  0.25500000920E-02 0.  1.
    10030    2    1    2    0    0  0.00000000000E+00  0.00000000000E+00 -0.11388673856E+04  0.19698855104E+04  0.16073051988E+04 0.  0.
        2    1    3    3  502    0  0.37451263741E+03 -0.65169121025E+03 -0.22084997017E+03  0.78341295523E+03  0.25500000920E-02 0. -1.
       -2    1    3    3    0  502 -0.37451263741E+03  0.65169121025E+03 -0.91801741544E+03  0.11864725552E+04  0.25500000920E-02 0.  1.
</event>
<event>
 5   0  0.3263294E-04  0.1596574E+04  0.7818609E-02  0.8822655E-01
        2   -1    0    0  501    0  0.00000000000E+00  0.00000000000E+00  0.17446281187E+04  0.17446281187E+04  0.25500000920E-02 0. -1.
       -2   -1    0    0    0  501  0.00000000000E+00  0.00000000000E+00 -0.36527113516E+03  0.36527113517E+03  0.25500000920E-02 0.  1.
    10030    2    1    2    0    0  0.00000000000E+00  0.00000000000E+00  0.13793569835E+04  0.21098992538E+04  0.15965741992E+04 0.  0.
        4    1    3    3  502    0  0.63670389957E+03  0.27313251891E+02  0.54356312003E+02  0.63960463648E+03  0.12699999809E+01 0.  1.
       -4    1    3    3    0  502 -0.63670389957E+03 -0.27313251891E+02  0.13250006715E+04  0.14702946174E+04  0.12699999809E+01 0. -1.
</event>
<event>
 5   0  0.3380454E-04  0.1600183E+04  0.7818609E-02  0.8820436E-01
        2   -1    0    0  501    0  0.00000000000E+00  0.00000000000E+00  0.12580089791E+04  0.12580089792E+04  0.25500000920E-02 0.  1.
       -2   -1    0    0    0  501  0.00000000000E+00  0.00000000000E+00 -0.50885651958E+03  0.50885651959E+03  0.25500000920E-02 0. -1.
    10030    2    1    2    0    0  0.00000000000E+00  0.00000000000E+00  0.74915245957E+03  0.17668654987E+04  0.16001825780E+04 0.  0.
        5    1    3    3  502    0 -0.41702313678E+03  0.65932902112E+03  0.17860351305E+03  0.80034015242E+03  0.46999998093E+01 0. -1.
       -5    1    3    3    0  502  0.41702313678E+03 -0.65932902112E+03  0.57054894652E+03  0.96652534632E+03  0.46999998093E+01 0.  1.
</event>
<event>
 5   0  0.1819811E-04  0.1604984E+04  0.7818609E-02  0.8817492E-01
       -1   -1    0    0    0  501  0.00000000000E+00  0.00000000000E+00  0.81580913518E+03  0.81580913520E+03  0.50400001928E-02 0. -1.
        1   -1    0    0  501    0  0.00000000000E+00  0.00000000000E+00 -0.78939232974E+03  0.78939232975E+03  0.50400001928E-02 0.  1.
    10030    2    1    2    0    0  0.00000000000E+00  0.00000000000E+00  0.26416805446E+02  0.16052014649E+04  0.16049840795E+04 0.  0.
        1    1    3    3  502    0 -0.29035263702E+02 -0.68722113292E+03  0.42663776015E+03  0.80940454068E+03  0.50400001928E-02 0. -1.
       -1    1    3    3    0  502  0.29035263702E+02  0.68722113292E+03 -0.40022095470E+03  0.79579692427E+03  0.50400001928E-02 0.  1.
</event>
<event>
 5   0  0.1787688E-04  0.1599511E+04  0.7818609E-02  0.8820848E-01
       -1   -1    0    0    0  501  0.00000000000E+00  0.00000000000E+00  0.40671126495E+03  0.40671126498E+03  0.50400001928E-02 0.  1.
        1   -1    0    0  501    0  0.00000000000E+00  0.00000000000E+00 -0.15726368688E+04  0.15726368688E+04  0.50400001928E-02 0. -1.
    10030    2    1    2    0    0  0.00000000000E+00  0.00000000000E+00 -0.11659256039E+04  0.19793481338E+04  0.15995113382E+04 0.  0.
        4    1    3    3  502    0  0.41488176350E+03  0.60402923799E+03 -0.97939652149E+03  0.12231914639E+04  0.12699999809E+01 0. -1.
       -4    1    3    3    0  502 -0.41488176350E+03 -0.60402923799E+03 -0.18652908238E+03  0.75615666995E+03  0.12699999809E+01 0.  1.
</event>
<event>
 5   0  0.3210612E-04  0.1602394E+04  0.7818609E-02  0.8819079E-01
        2   -1    0    0  501    0  0.00000000000E+00  0.00000000000E+00  0.79208775133E+03  0.79208775134E+03  0.25500000920E-02 0. -1.
       -2   -1    0    0    0  501  0.00000000000E+00  0.00000000000E+00 -0.81041096719E+03  0.81041096720E+03  0.25500000920E-02 0.  1.
    10030    2    1    2    0    0  0.00000000000E+00  0.00000000000E+00 -0.18323215859E+02  0.16024987185E+04  0.16023939599E+04 0.  0.
        2    1    3    3  502    0  0.61912528719E+03 -0.52769903890E+02 -0.51497705487E+03  0.80703293058E+03  0.25500000920E-02 0.  1.
       -2    1    3    3    0  502 -0.61912528719E+03  0.52769903890E+02  0.49665383901E+03  0.79546578795E+03  0.25500000920E-02 0. -1.
</event>
<event>
 5   0  0.3228393E-04  0.1610678E+04  0.7818609E-02  0.8814015E-01
       -2   -1    0    0    0  501  0.00000000000E+00  0.00000000000E+00  0.37353600607E+03  0.37353600608E+03  0.25500000920E-02 0.  1.
        2   -1    0    0  501    0  0.00000000000E+00  0.00000000000E+00 -0.17363011472E+04  0.17363011472E+04  0.25500000920E-02 0. -1.
    10030    2    1    2    0    0  0.00000000000E+00  0.00000000000E+00 -0.13627651411E+04  0.21098371533E+04  0.16106781129E+04 0.  0.
        1    1    3    3  502    0  0.55020135729E+03 -0.48070670098E+03 -0.11251499471E+04  0.13415524102E+04  0.50400001928E-02 0. -1.
       -1    1    3    3    0  502 -0.55020135729E+03  0.48070670098E+03 -0.23761519403E+03  0.76828474304E+03  0.50400001928E-02 0.  1.
</event>
<event>
 5   0  0.3228393E-04  0.1604306E+04  0.7818609E-02  0.8817907E-01
       -2   -1    0    0    0  501  0.00000000000E+00  0.00000000000E+00  0.82951989475E+03  0.82951989475E+03  0.25500000920E-02 0. -1.
        2   -1    0    0  501    0  0.00000000000E+00  0.00000000000E+00 -0.77568889621E+03  0.77568889621E+03  0.25500000920E-02 0.  1.
    10030    2    1    2    0    0  0.00000000000E+00  0.00000000000E+00  0.53830998538E+02  0.16052087910E+04  0.16043059204E+04 0.  0.
        1    1    3    3  502    0  0.21554677864E+02  0.43723764566E+03  0.69946043333E+03  0.82515832465E+03  0.50400001928E-02 0. -1.
       -1    1    3    3    0  502 -0.21554677864E+02 -0.43723764566E+03 -0.64562943479E+03  0.78005046632E+03  0.50400001928E-02 0.  1.
</event>
<event>
 5   0  0.1761255E-04  0.1635050E+04  0.7818609E-02  0.8799300E-01
        1   -1    0    0  501    0  0.00000000000E+00  0.00000000000E+00  0.12417656248E+04  0.12417656248E+04  0.50400001928E-02 0. -1.
       -1   -1    0    0    0  501  0.00000000000E+00  0.00000000000E+00 -0.53822304113E+03  0.53822304116E+03  0.50400001928E-02 0.  1.
    10030    2    1    2    0    0  0.00000000000E+00  0.00000000000E+00  0.70354258365E+03  0.17799886660E+04  0.16350496885E+04 0.  0.
        2    1    3    3  502    0 -0.59074646854E+03 -0.19230243959E+03  0.93027651952E+03  0.11186491948E+04  0.25500000920E-02 0. -1.
       -2    1    3    3    0  502  0.59074646854E+03  0.19230243959E+03 -0.22673393587E+03  0.66133947110E+03  0.25500000920E-02 0.  1.
</event>
<event>
 5   0  0.3380454E-04  0.1598418E+04  0.7818609E-02  0.8821521E-01
       -2   -1    0    0    0  501  0.00000000000E+00  0.00000000000E+00  0.53077527257E+03  0.53077527258E+03  0.25500000920E-02 0. -1.
        2   -1    0    0  501    0  0.00000000000E+00  0.00000000000E+00 -0.12033998558E+04  0.12033998558E+04  0.25500000920E-02 0.  1.
    10030    2    1    2    0    0  0.00000000000E+00  0.00000000000E+00 -0.67262458322E+03  0.17341751284E+04  0.15984178258E+04 0.  0.
        5    1    3    3  502    0  0.26963033842E+03  0.14571008163E+03 -0.11370929137E+04  0.11776817616E+04  0.46999998093E+01 0.  1.
       -5    1    3    3    0  502 -0.26963033842E+03 -0.14571008163E+03  0.46446833044E+03  0.55649336678E+03  0.46999998093E+01 0. -1.
</event>
<event>
 5   0  0.1787688E-04  0.1617349E+04  0.7818609E-02  0.8809960E-01
        1   -1    0    0  501    0  0.00000000000E+00  0.00000000000E+00  0.70587357504E+03  0.70587357506E+03  0.50400001928E-02 0. -1.
       -1   -1    0    0    0  501  0.00000000000E+00  0.00000000000E+00 -0.92644700406E+03  0.92644700408E+03  0.50400001928E-02 0.  1.
    10030    2    1    2    0    0  0.00000000000E+00  0.00000000000E+00 -0.22057342902E+03  0.16323205791E+04  0.16173490147E+04 0.  0.
        4    1    3    3  502    0  0.12603754274E+03 -0.62358457209E+03 -0.61411685954E+03  0.88424222406E+03  0.12699999809E+01 0.  1.
       -4    1    3    3    0  502 -0.12603754274E+03  0.62358457209E+03  0.39354343052E+03  0.74807835508E+03  0.12699999809E+01 0. -1.
</event>
<event>
 5   0  0.1819811E-04  0.1600378E+04  0.7818609E-02  0.8820316E-01
       -1   -1    0    0    0  501  0.00000000000E+00  0.00000000000E+00  0.73350035392E+03  0.73350035394E+03  0.50400001928E-02 0.  1.
        1   -1    0    0  501    0  0.00000000000E+00  0.00000000000E+00 -0.87294078987E+03  0.87294078988E+03  0.50400001928E-02 0. -1.
    10030    2    1    2    0    0  0.00000000000E+00  0.00000000000E+00 -0.13944043595E+03  0.16064411438E+04  0.16003779283E+04 0.  0.
        1    1    3    3  502    0  0.66772454215E+03 -0.41084101350E+03 -0.23050188744E+03  0.81717655540E+03  0.50400001928E-02 0. -1.
       -1    1    3    3    0  502 -0.66772454215E+03  0.41084101350E+03  0.91061451497E+02  0.78926458842E+03  0.50400001928E-02 0.  1.
</event>
<event>
 5   0  0.1819811E-04  0.1603010E+04  0.7818609E-02  0.8818701E-01
       -1   -1    0    0    0  501  0.00000000000E+00  0.00000000000E+00  0.68893023728E+03  0.68893023729E+03  0.50400001928E-02 0. -1.
        1   -1    0    0  501    0  0.00000000000E+00  0.00000000000E+00 -0.93247525441E+03  0.93247525443E+03  0.50400001928E-02 0.  1.
    10030    2    1    2    0    0  0.00000000000E+00  0.00000000000E+00 -0.24354501714E+03  0.16214054917E+04  0.16030101663E+04 0.  0.
        1    1    3    3  502    0 -0.22107165478E+03 -0.47327611984E+03 -0.73665263972E+03  0.90306150056E+03  0.50400001928E-02 0.  1.
       -1    1    3    3    0  502  0.22107165478E+03  0.47327611984E+03  0.49310762258E+03  0.71834399116E+03  0.50400001928E-02 0. -1.
</event>
<event>
 5   0  0.1761255E-04  0.1569734E+04  0.7818609E-02  0.8839361E-01
        1   -1    0    0  501    0  0.00000000000E+00  0.00000000000E+00  0.12350614785E+04  0.12350614785E+04  0.50400001928E-02 0.  1.
       -1   -1    0    0    0  501  0.00000000000E+00  0.00000000000E+00 -0.49877340608E+03  0.49877340610E+03  0.50400001928E-02 0. -1.
    10030    2    1    2    0    0  0.00000000000E+00  0.00000000000E+00  0.73628807240E+03  0.17338348846E+04  0.15697335065E+04 0.  0.
        2    1    3    3  502    0  0.50873293176E+03  0.13098616625E+03  0.10122431743E+04  0.11404397465E+04  0.25500000920E-02 0.  1.
       -2    1    3    3    0  502 -0.50873293176E+03 -0.13098616625E+03 -0.27595510188E+03  0.59339513805E+03  0.25500000920E-02 0. -1.
</event>
<event>
 5   0  0.1736537E-04  0.1599148E+04  0.7818609E-02  0.8821071E-01
       -1   -1    0    0    0  501  0.00000000000E+00  0.00000000000E+00  0.56674664559E+03  0.56674664561E+03  0.50400001928E-02 0.  1.
        1   -1    0    0  501    0  0.00000000000E+00  0.00000000000E+00 -0.11280505856E+04  0.11280505856E+04  0.50400001928E-02 0. -1.
    10030    2    1    2    0    0  0.00000000000E+00  0.00000000000E+00 -0.56130394000E+03  0.16947972312E+04  0.15991483802E+04 0.  0.
        3    1    3    3  502    0 -0.74538059541E+03  0.16704352931E+03 -0.53105291784E+03  0.93032950315E+03  0.10100000352E+00 0. -1.
       -3    1    3    3    0  502  0.74538059541E+03 -0.16704352931E+03 -0.30251022153E+02  0.76446772805E+03  0.10100000352E+00 0.  1.
</event>
<event>
 5   0  0.3228393E-04  0.1594728E+04  0.7818609E-02  0.8823793E-01
        2   -1    0    0  501    0  0.00000000000E+00  0.00000000000E+00  0.11178202759E+04  0.11178202759E+04  0.25500000920E-02 0.  1.
       -2   -1    0    0    0  501  0.00000000000E+00  0.00000000000E+00 -0.56877621775E+03  0.56877621776E+03  0.25500000920E-02 0. -1.
    10030    2    1    2    0    0  0.00000000000E+00  0.00000000000E+00  0.54904405811E+03  0.16865964936E+04  0.15947283012E+04 0.  0.
        1    1    3    3  502    0 -0.44748499567E+03  0.17019976004E+02  0.97226812863E+03  0.10704381416E+04  0.50400001928E-02 0.  1.
       -1    1    3    3    0  502  0.44748499567E+03 -0.17019976004E+02 -0.42322407052E+03  0.61615835207E+03  0.50400001928E-02 0. -1.
</event>
<event>
 5   0  0.1736537E-04  0.1611694E+04  0.7818609E-02  0.8813396E-01
        1   -1    0    0  501    0  0.00000000000E+00  0.00000000000E+00  0.86774584337E+03  0.86774584338E+03  0.50400001928E-02 0. -1.
       -1   -1    0    0    0  501  0.00000000000E+00  0.00000000000E+00 -0.74836341524E+03  0.74836341526E+03  0.50400001928E-02 0.  1.
    10030    2    1    2    0    0  0.00000000000E+00  0.00000000000E+00  0.11938242813E+03  0.16161092586E+04  0.16116938207E+04 0.  0.
        3    1    3    3  502    0 -0.64957972884E+03 -0.39552765377E+03 -0.20748439601E+03  0.78831829473E+03  0.10100000352E+00 0. -1.
       -3    1    3    3    0  502  0.64957972884E+03  0.39552765377E+03  0.32686682414E+03  0.82779096391E+03  0.10100000352E+00 0.  1.
</event>
<event>
 5   0  0.3263294E-04  0.1557088E+04  0.7818609E-02  0.8847353E-01
       -2   -1    0    0    0  501  0.00000000000E+00  0.00000000000E+00  0.56543670594E+03  0.56543670595E+03  0.25500000920E-02 0.  1.
        2   -1    0    0  501    0  0.00000000000E+00  0.00000000000E+00 -0.10719687583E+04  0.10719687583E+04  0.25500000920E-02 0. -1.
    10030    2    1    2    0    0  0.00000000000E+00  0.00000000000E+00 -0.50653205231E+03  0.16374054642E+04  0.15570876450E+04 0.  0.
        4    1    3    3  502    0  0.61057434353E+03 -0.20229842154E+03  0.20799770863E+03  0.67601060645E+03  0.12699999809E+01 0.  1.
       -4    1    3    3    0  502 -0.61057434353E+03  0.20229842154E+03 -0.71452976094E+03  0.96139485775E+03  0.12699999809E+01 0. -1.
</event>
<event>
 5   0  0.3274900E-04  0.1602665E+04  0.7818609E-02  0.8818913E-01
       -2   -1    0    0    0  501  0.00000000000E+00  0.00000000000E+00  0.43875384758E+03  0.43875384759E+03  0.25500000920E-02 0. -1.
        2   -1    0    0  501    0  0.00000000000E+00  0.00000000000E+00 -0.14635390539E+04  0.14635390539E+04  0.25500000920E-02 0.  1.
    10030    2    1    2    0    0  0.00000000000E+00  0.00000000000E+00 -0.10247852063E+04  0.19022929015E+04  0.16026645201E+04 0.  0.
        3    1    3    3  502    0 -0.70768727594E+03 -0.32289645021E+02 -0.67846961450E+02  0.71166503503E+03  0.10100000352E+00 0.  1.
       -3    1    3    3    0  502  0.70768727594E+03  0.32289645021E+02 -0.95693824489E+03  0.11906278665E+04  0.10100000352E+00 0. -1.
</event>
<event>
 5   0  0.3210612E-04  0.1599322E+04  0.7818609E-02  0.8820965E-01
        2   -1    0    0  501    0  0.00000000000E+00  0.00000000000E+00  0.95678907361E+03  0.95678907361E+03  0.25500000920E-02 0. -1.
       -2   -1    0    0    0  501  0.00000000000E+00  0.00000000000E+00 -0.66833704984E+03  0.66833704985E+03  0.25500000920E-02 0.  1.
    10030    2    1    2    0    0  0.00000000000E+00  0.00000000000E+00  0.28845202377E+03  0.16251261235E+04  0.15993218398E+04 0.  0.
        2    1    3    3  502    0 -0.55363743648E+03  0.57602923563E+03  0.11001538087E+03  0.80649084025E+03  0.25500000920E-02 0. -1.
       -2    1    3    3    0  502  0.55363743648E+03 -0.57602923563E+03  0.17843664290E+03  0.81863528321E+03  0.25500000920E-02 0.  1.
</event>
<event>
 5   0  0.1764099E-04  0.1609581E+04  0.7818609E-02  0.8814683E-01
        1   -1    0    0  501    0  0.00000000000E+00  0.00000000000E+00  0.14736614282E+04  0.14736614282E+04  0.50400001928E-02 0.  1.
       -1   -1    0    0    0  501  0.00000000000E+00  0.00000000000E+00 -0.43950945814E+03  0.43950945817E+03  0.50400001928E-02 0. -1.
    10030    2    1    2    0    0  0.00000000000E+00  0.00000000000E+00  0.10341519701E+04  0.19131708864E+04  0.16095814808E+04 0.  0.
        5    1    3    3  502    0  0.61904619984E+03  0.36008509847E+03  0.95345525146E+03  0.11924673925E+04  0.46999998093E+01 0.  1.
       -5    1    3    3    0  502 -0.61904619984E+03 -0.36008509847E+03  0.80696718602E+02  0.72070349387E+03  0.46999998093E+01 0. -1.
</event>
<event>
 5   0  0.1819811E-04  0.1635209E+04  0.7818609E-02  0.8799205E-01
        1   -1    0    0  501    0  0.00000000000E+00  0.00000000000E+00  0.46165448030E+03  0.46165448033E+03  0.50400001928E-02 0. -1.
       -1   -1    0    0    0  501  0.00000000000E+00  0.00000000000E+00 -0.14480033714E+04  0.14480033714E+04  0.50400001928E-02 0.  1.
    10030    2    1    2    0    0  0.00000000000E+00  0.00000000000E+00 -0.98634889113E+03  0.19096578518E+04  0.16352091535E+04 0.  0.
        1    1    3    3  502    0  0.47384795991E+03 -0.29996871249E+03  0.20162886315E+03  0.59595915637E+03  0.50400001928E-02 0. -1.
       -1    1    3    3    0  502 -0.47384795991E+03  0.29996871249E+03 -0.11879777543E+04  0.13136986954E+04  0.50400001928E-02 0.  1.
</event>
<event>
 5   0  0.3263294E-04  0.1589264E+04  0.7818609E-02  0.8827171E-01
        2   -1    0    0  501    0  0.00000000000E+00  0.00000000000E+00  0.11144107012E+04  0.11144107012E+04  0.25500000920E-02 0.  1.
       -2   -1    0    0    0  501  0.00000000000E+00  0.00000000000E+00 -0.56661324033E+03  0.56661324033E+03  0.25500000920E-02 0. -1.
    10030    2    1    2    0    0  0.00000000000E+00  0.00000000000E+00  0.54779746089E+03  0.16810239416E+04  0.15892638025E+04 0.  0.
        4    1    3    3  502    0 -0.29594160023E+03  0.34288082332E+03 -0.41670712003E+03  0.61546334297E+03  0.12699999809E+01 0. -1.
       -4    1    3    3    0  502  0.29594160023E+03 -0.34288082332E+03  0.96450458092E+03  0.10655605986E+04  0.12699999809E+01 0.  1.
</event>
<event>
 5   0  0.3263294E-04  0.1553271E+04  0.7818609E-02  0.8849781E-01
       -2   -1    0    0    0  501  0.00000000000E+00  0.00000000000E+00  0.87663567761E+03  0.87663567761E+03  0.25500000920E-02 0.  1.
        2   -1    0    0  501    0  0.00000000000E+00  0.00000000000E+00 -0.68804299160E+03  0.68804299161E+03  0.25500000920E-02 0. -1.
    10030    2    1    2    0    0  0.00000000000E+00  0.00000000000E+00  0.18859268601E+03  0.15646786692E+04  0.15532714305E+04 0.  0.
        4    1    3    3  502    0 -0.71567235684E+03  0.29642572343E+03  0.38152935631E+02  0.77557229918E+03  0.12699999809E+01 0.  1.
       -4    1    3    3    0  502  0.71567235684E+03 -0.29642572343E+03  0.15043975038E+03  0.78910637005E+03  0.12699999809E+01 0. -1.
</event>
<event>
 5   0  0.3380454E-04  0.1599832E+04  0.7818609E-02  0.8820651E-01
        2   -1    0    0  501    0  0.00000000000E+00  0.00000000000E+00  0.89519357461E+03  0.89519357462E+03  0.25500000920E-02 0.  1.
       -2   -1    0    0    0  501  0.00000000000E+00  0.00000000000E+00 -0.71477904297E+03  0.71477904297E+03  0.25500000920E-02 0. -1.
    10030    2    1    2    0    0  0.00000000000E+00  0.00000000000E+00  0.18041453165E+03  0.16099726176E+04  0.15998319994E+04 0.  0.
        5    1    3    3  502    0 -0.38200822021E+03  0.11145552479E+01  0.79745065511E+03  0.88424044234E+03  0.46999998093E+01 0.  1.
       -5    1    3    3    0  502  0.38200822021E+03 -0.11145552479E+01 -0.61703612346E+03  0.72573217525E+03  0.46999998093E+01 0. -1.
</event>
<event>
 5   0  0.3274900E-04  0.1590638E+04  0.7818609E-02  0.8826320E-01
       -2   -1    0    0    0  501  0.00000000000E+00  0.00000000000E+00  0.32966261331E+03  0.32966261332E+03  0.25500000920E-02 0.  1.
        2   -1    0    0  501    0  0.00000000000E+00  0.00000000000E+00 -0.19187258045E+04  0.19187258045E+04  0.25500000920E-02 0. -1.
    10030    2    1    2    0    0  0.00000000000E+00  0.00000000000E+00 -0.15890631912E+04  0.22483884178E+04  0.15906378129E+04 0.  0.
        3    1    3    3  502    0  0.31161124430E+03 -0.60583456819E+03 -0.21448255598E+03  0.71424076376E+03  0.10100000352E+00 0.  1.
       -3    1    3    3    0  502 -0.31161124430E+03  0.60583456819E+03 -0.13745806352E+04  0.15341476541E+04  0.10100000352E+00 0. -1.
</event>
<event>
 5   0  0.3263294E-04  0.1596768E+04  0.7818609E-02  0.8822536E-01
        2   -1    0    0  501    0  0.00000000000E+00  0.00000000000E+00  0.11588311751E+04  0.11588311751E+04  0.25500000920E-02 0.  1.
       -2   -1    0    0    0  501  0.00000000000E+00  0.00000000000E+00 -0.55005135004E+03  0.55005135005E+03  0.25500000920E-02 0. -1.
    10030    2    1    2    0    0  0.00000000000E+00  0.00000000000E+00  0.60877982506E+03  0.17088825252E+04  0.15967675502E+04 0.  0.
        4    1    3    3  502    0  0.17003683311E+03  0.58729022434E+03 -0.24507150951E+03  0.65869870950E+03  0.12699999809E+01 0. -1.
       -4    1    3    3    0  502 -0.17003683311E+03 -0.58729022434E+03  0.85385133457E+03  0.10501838157E+04  0.12699999809E+01 0.  1.
</event>
<event>
 5   0  0.1764099E-04  0.1592420E+04  0.7818609E-02  0.8825218E-01
       -1   -1    0    0    0  501  0.00000000000E+00  0.00000000000E+00  0.56498000306E+03  0.56498000308E+03  0.50400001928E-02 0.  1.
        1   -1    0    0  501    0  0.00000000000E+00  0.00000000000E+00 -0.11220760049E+04  0.11220760050E+04  0.50400001928E-02 0. -1.
    10030    2    1    2    0    0  0.00000000000E+00  0.00000000000E+00 -0.55709600189E+03  0.16870560080E+04  0.15924201766E+04 0.  0.
        5    1    3    3  502    0  0.13470522797E+03  0.52895343233E+03  0.33554729333E+03  0.64074277840E+03  0.46999998093E+01 0.  1.
       -5    1    3    3    0  502 -0.13470522797E+03 -0.52895343233E+03 -0.89264329522E+03  0.10463132296E+04  0.46999998093E+01 0. -1.
</event>
<event>
 5   0  0.1761255E-04  0.1594821E+04  0.7818609E-02  0.8823736E-01
        1   -1    0    0  501    0  0.00000000000E+00  0.00000000000E+00  0.16971229689E+04  0.16971229689E+04  0.50400001928E-02 0.  1.
       -1   -1    0    0    0  501  0.00000000000E+00  0.00000000000E+00 -0.37467123382E+03  0.37467123386E+03  0.50400001928E-02 0. -1.
    10030    2    1    2    0    0  0.00000000000E+00  0.00000000000E+00  0.13224517350E+04  0.20717942027E+04  0.15948205626E+04 0.  0.
        2    1    3    3  502    0  0.74042775158E+03 -0.29601330421E+03  0.66441460534E+03  0.10379325120E+04  0.25500000920E-02 0. -1.
       -2    1    3    3    0  502 -0.74042775158E+03  0.29601330421E+03  0.65803712969E+03  0.10338616908E+04  0.25500000920E-02 0.  1.
</event>
<event>
 5   0  0.3263294E-04  0.1600157E+04  0.7818609E-02  0.8820451E-01
       -2   -1    0    0    0  501  0.00000000000E+00  0.00000000000E+00  0.81104722089E+03  0.81104722090E+03  0.25500000920E-02 0.  1.
        2   -1    0    0  501    0  0.00000000000E+00  0.00000000000E+00 -0.78925840618E+03  0.78925840618E+03  0.25500000920E-02 0. -1.
    10030    2    1    2    0    0  0.00000000000E+00  0.00000000000E+00  0.21788814713E+02  0.16003056271E+04  0.16001572884E+04 0.  0.
        4    1    3    3  502    0  0.49119988691E+03  0.33513295913E+01  0.64248732474E+03  0.80875220907E+03  0.12699999809E+01 0.  1.
       -4    1    3    3    0  502 -0.49119988691E+03 -0.33513295913E+01 -0.62069851003E+03  0.79155341801E+03  0.12699999809E+01 0. -1.
</event>
<event>
 5   0  0.3274900E-04  0.1603027E+04  0.7818609E-02  0.8818691E-01
       -2   -1    0    0    0  501  0.00000000000E+00  0.00000000000E+00  0.48016365350E+03  0.48016365350E+03  0.25500000920E-02 0.  1.
        2   -1    0    0  501    0  0.00000000000E+00  0.00000000000E+00 -0.13379267513E+04  0.13379267513E+04  0.25500000920E-02 0. -1.
    10030    2    1    2    0    0  0.00000000000E+00  0.00000000000E+00 -0.85776309783E+03  0.18180904048E+04  0.16030268832E+04 0.  0.
        3    1    3    3  502    0  0.35055024726E+03  0.66265424718E+03 -0.75052697869E+03  0.10607954011E+04  0.10100000352E+00 0. -1.
       -3    1    3    3    0  502 -0.35055024726E+03 -0.66265424718E+03 -0.10723611915E+03  0.75729500369E+03  0.10100000352E+00 0.  1.
</event>
<event>
 5   0  0.1219463E-04  0.1631556E+04  0.7818609E-02  0.8801393E-01
        3   -1    0    0  501    0  0.00000000000E+00  0.00000000000E+00  0.54611156889E+03  0.54611157823E+03  0.10100000352E+00 0.  1.
       -3   -1    0    0    0  501  0.00000000000E+00  0.00000000000E+00 -0.12186039586E+04  0.12186039627E+04  0.10100000352E+00 0. -1.
    10030    2    1    2    0    0  0.00000000000E+00  0.00000000000E+00 -0.67249238967E+03  0.17647155410E+04  0.16315559832E+04 0.  0.
        1    1    3    3  502    0  0.35027224392E+03 -0.65645871951E+03 -0.69800566924E+03  0.10202159622E+04  0.50400001928E-02 0. -1.
       -1    1    3    3    0  502 -0.35027224392E+03  0.65645871951E+03  0.25513279572E+02  0.74449957874E+03  0.50400001928E-02 0.  1.
</event>
<event>
 5   0  0.3210612E-04  0.1600317E+04  0.7818609E-02  0.8820353E-01
       -2   -1    0    0    0  501  0.00000000000E+00  0.00000000000E+00  0.75648092045E+03  0.75648092045E+03  0.25500000920E-02 0.  1.
        2   -1    0    0  501    0  0.00000000000E+00  0.00000000000E+00 -0.84635778136E+03  0.84635778137E+03  0.25500000920E-02 0. -1.
    10030    2    1    2    0    0  0.00000000000E+00  0.00000000000E+00 -0.89876860917E+02  0.16028387018E+04  0.16003168605E+04 0.  0.
        2    1    3    3  502    0  0.42085407548E+03  0.21269173932E+02 -0.72621837247E+03  0.83962113786E+03  0.25500000920E-02 0. -1.
       -2    1    3    3    0  502 -0.42085407548E+03 -0.21269173932E+02  0.63634151155E+03  0.76321756397E+03  0.25500000920E-02 0.  1.
</event>
<event>
 5   0  0.3263294E-04  0.1598526E+04  0.7818609E-02  0.8821454E-01
       -2   -1    0    0    0  501  0.00000000000E+00  0.00000000000E+00  0.14370345276E+04  0.14370345276E+04  0.25500000920E-02 0. -1.
        2   -1    0    0  501    0  0.00000000000E+00  0.00000000000E+00 -0.44454130654E+03  0.44454130655E+03  0.25500000920E-02 0.  1.
    10030    2    1    2    0    0  0.00000000000E+00  0.00000000000E+00  0.99249322102E+03  0.18815758341E+04  0.15985258289E+04 0.  0.
        4    1    3    3  502    0 -0.53128401372E+03 -0.59454246236E+03  0.43096274279E+03  0.90635199639E+03  0.12699999809E+01 0.  1.
       -4    1    3    3    0  502  0.53128401372E+03  0.59454246236E+03  0.56153047823E+03  0.97522383772E+03  0.12699999809E+01 0. -1.
</event>
<event>
 5   0  0.1819811E-04  0.1596563E+04  0.7818609E-02  0.8822662E-01
       -1   -1    0    0    0  501  0.00000000000E+00  0.00000000000E+00  0.53818762925E+03  0.53818762927E+03  0.50400001928E-02 0. -1.
        1   -1    0    0  501    0  0.00000000000E+00  0.00000000000E+00 -0.11840724781E+04  0.11840724781E+04  0.50400001928E-02 0.  1.
    10030    2    1    2    0    0  0.00000000000E+00  0.00000000000E+00 -0.64588484888E+03  0.17222601074E+04  0.15965627578E+04 0.  0.
        1    1    3    3  502    0 -0.69719357364E+03  0.11207531350E+03  0.78677604801E+02  0.71051384262E+03  0.50400001928E-02 0. -1.
       -1    1    3    3    0  502  0.69719357364E+03 -0.11207531350E+03 -0.72456245368E+03  0.10117462648E+04  0.50400001928E-02 0.  1.
</event>
<event>
 5   0  0.3210612E-04  0.1579743E+04  0.7818609E-02  0.8833090E-01
       -2   -1    0    0    0  501  0.00000000000E+00  0.00000000000E+00  0.56615920672E+03  0.56615920672E+03  0.25500000920E-02 0.  1.
        2   -1    0    0  501    0  0.00000000000E+00  0.00000000000E+00 -0.11019821006E+04  0.11019821006E+04  0.25500000920E-02 0. -1.
    10030    2    1    2    0    0  0.00000000000E+00  0.00000000000E+00 -0.53582289384E+03  0.16681413073E+04  0.15797434119E+04 0.  0.
        2    1    3    3  502    0  0.10918509228E+03 -0.51089203203E+03 -0.89348495438E+03  0.10350108292E+04  0.25500000920E-02 0. -1.
       -2    1    3    3    0  502 -0.10918509228E+03  0.51089203203E+03  0.35766206054E+03  0.63313047812E+03  0.25500000920E-02 0.  1.
</event>
<event>
 5   0  0.1764099E-04  0.1588928E+04  0.7818609E-02  0.8827379E-01
       -1   -1    0    0    0  501  0.00000000000E+00  0.00000000000E+00  0.29564932436E+04  0.29564932436E+04  0.50400001928E-02 0. -1.
        1   -1    0    0  501    0  0.00000000000E+00  0.00000000000E+00 -0.21348703780E+03  0.21348703786E+03  0.50400001928E-02 0.  1.
    10030    2    1    2    0    0  0.00000000000E+00  0.00000000000E+00  0.27430062058E+04  0.31699802814E+04  0.15889279215E+04 0.  0.
        5    1    3    3  502    0 -0.30726559944E+03  0.69082467447E+03  0.18581465765E+04  0.20060861569E+04  0.46999998093E+01 0. -1.
       -5    1    3    3    0  502  0.30726559944E+03 -0.69082467447E+03  0.88485962932E+03  0.11638941245E+04  0.46999998093E+01 0.  1.
</event>
<event>
 5   0  0.1736537E-04  0.1610268E+04  0.7818609E-02  0.8814265E-01
        1   -1    0    0  501    0  0.00000000000E+00  0.00000000000E+00  0.19601242502E+04  0.19601242502E+04  0.50400001928E-02 0.  1.
       -1   -1    0    0    0  501  0.00000000000E+00  0.00000000000E+00 -0.33071413306E+03  0.33071413309E+03  0.50400001928E-02 0. -1.
    10030    2    1    2    0    0  0.00000000000E+00  0.00000000000E+00  0.16294101171E+04  0.22908383833E+04  0.16102680425E+04 0.  0.
        3    1    3    3  502    0 -0.21278012182E+03 -0.69440532974E+03  0.32031495532E+03  0.79377315589E+03  0.10100000352E+00 0. -1.
       -3    1    3    3    0  502  0.21278012182E+03  0.69440532974E+03  0.13090951618E+04  0.14970652274E+04  0.10100000352E+00 0.  1.
</event>
<event>
 5   0  0.3380454E-04  0.1603361E+04  0.7818609E-02  0.8818486E-01
       -2   -1    0    0    0  501  0.00000000000E+00  0.00000000000E+00  0.54471629361E+03  0.54471629361E+03  0.25500000920E-02 0. -1.
        2   -1    0    0  501    0  0.00000000000E+00  0.00000000000E+00 -0.11798654459E+04  0.11798654459E+04  0.25500000920E-02 0.  1.
    10030    2    1    2    0    0  0.00000000000E+00  0.00000000000E+00 -0.63514915231E+03  0.17245817395E+04  0.16033613849E+04 0.  0.
        5    1    3    3  502    0  0.37430591102E+02 -0.78776744758E+03 -0.47229428659E+03  0.91927285599E+03  0.46999998093E+01 0.  1.
       -5    1    3    3    0  502 -0.37430591102E+02  0.78776744758E+03 -0.16285486572E+03  0.80530888354E+03  0.46999998093E+01 0. -1.
</event>
<event>
 5   0  0.1764099E-04  0.1597103E+04  0.7818609E-02  0.8822330E-01
        1   -1    0    0  501    0  0.00000000000E+00  0.00000000000E+00  0.18382934009E+04  0.18382934009E+04  0.50400001928E-02 0.  1.
       -1   -1    0    0    0  501  0.00000000000E+00  0.00000000000E+00 -0.34688934955E+03  0.34688934958E+03  0.50400001928E-02 0. -1.
    10030    2    1    2    0    0  0.00000000000E+00  0.00000000000E+00  0.14914040513E+04  0.21851827505E+04  0.15971028798E+04 0.  0.
        5    1    3    3  502    0  0.56672073553E+03 -0.56255879271E+03  0.75142974533E+03  0.10965005880E+04  0.46999998093E+01 0. -1.
       -5    1    3    3    0  502 -0.56672073553E+03  0.56255879271E+03  0.73997430601E+03  0.10886821625E+04  0.46999998093E+01 0.  1.
</event>
<event>
 5   0  0.3274900E-04  0.1599694E+04  0.7818609E-02  0.8820736E-01
       -2   -1    0    0    0  501  0.00000000000E+00  0.00000000000E+00  0.13297312034E+04  0.13297312034E+04  0.25500000920E-02 0. -1.
        2   -1    0    0  501    0  0.00000000000E+00  0.00000000000E+00 -0.48111641791E+03  0.48111641792E+03  0.25500000920E-02 0.  1.
    10030    2    1    2    0    0  0.00000000000E+00  0.00000000000E+00  0.84861478547E+03  0.18108476213E+04  0.15996943625E+04 0.  0.
        3    1    3    3  502    0  0.62089162691E+03  0.36844882838E+03  0.34639983816E+02  0.72281456140E+03  0.10100000352E+00 0.  1.
       -3    1    3    3    0  502 -0.62089162691E+03 -0.36844882838E+03  0.81397480165E+03  0.10880330599E+04  0.10100000352E+00 0. -1.
</event>
<event>
 5   0  0.1819811E-04  0.1597921E+04  0.7818609E-02  0.8821826E-01
       -1   -1    0    0    0  501  0.00000000000E+00  0.00000000000E+00  0.36886294355E+03  0.36886294358E+03  0.50400001928E-02 0.  1.
        1   -1    0    0  501    0  0.00000000000E+00  0.00000000000E+00 -0.17305558058E+04  0.17305558058E+04  0.50400001928E-02 0. -1.
    10030    2    1    2    0    0  0.00000000000E+00  0.00000000000E+00 -0.13616928622E+04  0.20994187494E+04  0.15979210350E+04 0.  0.
        1    1    3    3  502    0  0.49533588162E+03 -0.60343401140E+03 -0.45769529409E+03  0.90497249902E+03  0.50400001928E-02 0.  1.
       -1    1    3    3    0  502 -0.49533588162E+03  0.60343401140E+03 -0.90399756816E+03  0.11944462504E+04  0.50400001928E-02 0. -1.
</event>
<event>
 5   0  0.1764099E-04  0.1595058E+04  0.7818609E-02  0.8823590E-01
       -1   -1    0    0    0  501  0.00000000000E+00  0.00000000000E+00  0.80605895204E+03  0.80605895206E+03  0.50400001928E-02 0. -1.
        1   -1    0    0  501    0  0.00000000000E+00  0.00000000000E+00 -0.78908946541E+03  0.78908946542E+03  0.50400001928E-02 0.  1.
    10030    2    1    2    0    0  0.00000000000E+00  0.00000000000E+00  0.16969486637E+02  0.15951484175E+04  0.15950581526E+04 0.  0.
        5    1    3    3  502    0  0.38648705509E+03 -0.21189106048E+03  0.67317299540E+03  0.80464528645E+03  0.46999998093E+01 0. -1.
       -5    1    3    3    0  502 -0.38648705509E+03  0.21189106048E+03 -0.65620350877E+03  0.79050313104E+03  0.46999998093E+01 0.  1.
</event>
<event>
 5   0  0.3274900E-04  0.1602957E+04  0.7818609E-02  0.8818733E-01
       -2   -1    0    0    0  501  0.00000000000E+00  0.00000000000E+00  0.37179303837E+03  0.37179303838E+03  0.25500000920E-02 0.  1.
        2   -1    0    0  501    0  0.00000000000E+00  0.00000000000E+00 -0.17277563801E+04  0.17277563801E+04  0.25500000920E-02 0. -1.
    10030    2    1    2    0    0  0.00000000000E+00  0.00000000000E+00 -0.13559633417E+04  0.20995494185E+04  0.16029570102E+04 0.  0.
        3    1    3    3  502    0 -0.19556377188E+03  0.35895155480E+03 -0.15809600263E+04  0.16329500980E+04  0.10100000352E+00 0. -1.
       -3    1    3    3    0  502  0.19556377188E+03 -0.35895155480E+03  0.22499668461E+03  0.46659932046E+03  0.10100000352E+00 0.  1.
</event>
<event>
 5   0  0.3380454E-04  0.1598051E+04  0.7818609E-02  0.8821746E-01
       -2   -1    0    0    0  501  0.00000000000E+00  0.00000000000E+00  0.74060101797E+03  0.74060101798E+03  0.25500000920E-02 0. -1.
        2   -1    0    0  501    0  0.00000000000E+00  0.00000000000E+00 -0.86205943614E+03  0.86205943614E+03  0.25500000920E-02 0.  1.
    10030    2    1    2    0    0  0.00000000000E+00  0.00000000000E+00 -0.12145841817E+03  0.16026604541E+04  0.15980514334E+04 0.  0.
        5    1    3    3  502    0  0.64409331967E+03  0.43235008644E+03  0.13123131669E+03  0.78678240331E+03  0.46999998093E+01 0. -1.
       -5    1    3    3    0  502 -0.64409331967E+03 -0.43235008644E+03 -0.25268973486E+03  0.81587805081E+03  0.46999998093E+01 0.  1.
</event>
<event>
 5   0  0.3380454E-04  0.1678598E+04  0.7818609E-02  0.8773666E-01
        2   -1    0    0  501    0  0.00000000000E+00  0.00000000000E+00  0.89274036284E+03  0.89274036284E+03  0.25500000920E-02 0.  1.
       -2   -1    0    0    0  501  0.00000000000E+00  0.00000000000E+00 -0.78905634879E+03  0.78905634880E+03  0.25500000920E-02 0. -1.
    10030    2    1    2    0    0  0.00000000000E+00  0.00000000000E+00  0.10368401404E+03  0.16817967116E+04  0.16785975707E+04 0.  0.
        5    1    3    3  502    0  0.10122526287E+02  0.78806129382E+03  0.34093532342E+03  0.85872117309E+03  0.46999998093E+01 0.  1.
       -5    1    3    3    0  502 -0.10122526287E+02 -0.78806129382E+03 -0.23725130938E+03  0.82307553855E+03  0.46999998093E+01 0. -1.
</event>
<event>
 5   0  0.1787688E-04  0.1606720E+04  0.7818609E-02  0.8816430E-01
       -1   -1    0    0    0  501  0.00000000000E+00  0.00000000000E+00  0.10357990275E+04  0.10357990275E+04  0.50400001928E-02 0.  1.
        1   -1    0    0  501    0  0.00000000000E+00  0.00000000000E+00 -0.62308130090E+03  0.62308130092E+03  0.50400001928E-02 0. -1.
    10030    2    1    2    0    0  0.00000000000E+00  0.00000000000E+00  0.41271772656E+03  0.16588803284E+04  0.16067196464E+04 0.  0.
        4    1    3    3  502    0  0.36134407996E+03  0.59470024644E+03 -0.20810502078E+03  0.72632447282E+03  0.12699999809E+01 0. -1.
       -4    1    3    3    0  502 -0.36134407996E+03 -0.59470024644E+03  0.62082274734E+03  0.93255585557E+03  0.12699999809E+01 0.  1.
</event>
<event>
 5   0  0.1219463E-04  0.1662838E+04  0.7818609E-02  0.8782848E-01
        3   -1    0    0  501    0  0.00000000000E+00  0.00000000000E+00  0.70465653154E+03  0.70465653878E+03  0.10100000352E+00 0. -1.
       -3   -1    0    0    0  501  0.00000000000E+00  0.00000000000E+00 -0.98098514919E+03  0.98098515439E+03  0.10100000352E+00 0.  1.
    10030    2    1    2    0    0  0.00000000000E+00  0.00000000000E+00 -0.27632861764E+03  0.16856416932E+04  0.16628380597E+04 0.  0.
        2    1    3    3  502    0 -0.82389357668E+03 -0.26767901207E+02 -0.28324995518E+02  0.82481479836E+03  0.25500000920E-02 0. -1.
       -2    1    3    3    0  502  0.82389357668E+03  0.26767901207E+02 -0.24800362213E+03  0.86082689480E+03  0.25500000920E-02 0.  1.
</event>
<event>
 5   0  0.1787688E-04  0.1592516E+04  0.7818609E-02  0.8825159E-01
       -1   -1    0    0    0  501  0.00000000000E+00  0.00000000000E+00  0.53753023124E+03  0.53753023127E+03  0.50400001928E-02 0.  1.
        1   -1    0    0  501    0  0.00000000000E+00  0.00000000000E+00 -0.11795180536E+04  0.11795180536E+04  0.50400001928E-02 0. -1.
    10030    2    1    2    0    0  0.00000000000E+00  0.00000000000E+00 -0.64198782231E+03  0.17170482848E+04  0.15925157608E+04 0.  0.
        4    1    3    3  502    0 -0.66462975952E+03  0.41721329723E+03 -0.46655210796E+03  0.91294695080E+03  0.12699999809E+01 0. -1.
       -4    1    3    3    0  502  0.66462975952E+03 -0.41721329723E+03 -0.17543571435E+03  0.80410133404E+03  0.12699999809E+01 0.  1.
</event>
<event>
 5   0  0.1736537E-04  0.1593397E+04  0.7818609E-02  0.8824615E-01
        1   -1    0    0  501    0  0.00000000000E+00  0.00000000000E+00  0.96984104892E+03  0.96984104893E+03  0.50400001928E-02 0. -1.
       -1   -1    0    0    0  501  0.00000000000E+00  0.00000000000E+00 -0.65446611601E+03  0.65446611603E+03  0.50400001928E-02 0.  1.
    10030    2    1    2    0    0  0.00000000000E+00  0.00000000000E+00  0.31537493291E+03  0.16243071650E+04  0.15933965036E+04 0.  0.
        3    1    3    3  502    0  0.78729843330E+03 -0.46020090956E+02  0.42484427719E+02  0.78978579922E+03  0.10100000352E+00 0. -1.
       -3    1    3    3    0  502 -0.78729843330E+03  0.46020090956E+02  0.27289050519E+03  0.83452136574E+03  0.10100000352E+00 0.  1.
</event>
<event>
 5   0  0.1787688E-04  0.1580892E+04  0.7818609E-02  0.8832374E-01
        1   -1    0    0  501    0  0.00000000000E+00  0.00000000000E+00  0.61355287456E+03  0.61355287458E+03  0.50400001928E-02 0.  1.
       -1   -1    0    0    0  501  0.00000000000E+00  0.00000000000E+00 -0.10183386915E+04  0.10183386915E+04  0.50400001928E-02 0. -1.
    10030    2    1    2    0    0  0.00000000000E+00  0.00000000000E+00 -0.40478581691E+03  0.16318915661E+04  0.15808916869E+04 0.  0.
        4    1    3    3  502    0 -0.35287299324E+03 -0.84725084359E+02  0.52247526255E+03  0.63614440354E+03  0.12699999809E+01 0.  1.
       -4    1    3    3    0  502  0.35287299324E+03  0.84725084359E+02 -0.92726107946E+03  0.99574716252E+03  0.12699999809E+01 0. -1.
</event>
<event>
 5   0  0.3274900E-04  0.1601810E+04  0.7818609E-02  0.8819437E-01
        2   -1    0    0  501    0  0.00000000000E+00  0.00000000000E+00  0.17265920431E+04  0.17265920431E+04  0.25500000920E-02 0.  1.
       -2   -1    0    0    0  501  0.00000000000E+00  0.00000000000E+00 -0.37151136557E+03  0.37151136558E+03  0.25500000920E-02 0. -1.
    10030    2    1    2    0    0  0.00000000000E+00  0.00000000000E+00  0.13550806775E+04  0.20981034087E+04  0.16018096862E+04 0.  0.
        3    1    3    3  502    0  0.28617957341E+03  0.69700207992E+03  0.32185874988E+03  0.81933125946E+03  0.10100000352E+00 0. -1.
       -3    1    3    3    0  502 -0.28617957341E+03 -0.69700207992E+03  0.10332219276E+04  0.12787721492E+04  0.10100000352E+00 0.  1.
</event>
<event>
 5   0  0.3380454E-04  0.1614643E+04  0.7818609E-02  0.8811602E-01
       -2   -1    0    0    0  501  0.00000000000E+00  0.00000000000E+00  0.41045202549E+03  0.41045202549E+03  0.25500000920E-02 0.  1.
        2   -1    0    0  501    0  0.00000000000E+00  0.00000000000E+00 -0.15879281671E+04  0.15879281671E+04  0.25500000920E-02 0. -1.
    10030    2    1    2    0    0  0.00000000000E+00  0.00000000000E+00 -0.11774761416E+04  0.19983801926E+04  0.16146434065E+04 0.  0.
        5    1    3    3  502    0 -0.20025809984E+03  0.43554754048E+03  0.21520907725E+03  0.52549215360E+03  0.46999998093E+01 0.  1.
       -5    1    3    3    0  502  0.20025809984E+03 -0.43554754048E+03 -0.13926852188E+04  0.14728880390E+04  0.46999998093E+01 0. -1.
</event>
<event>
 5   0  0.3380454E-04  0.1598783E+04  0.7818609E-02  0.8821296E-01
       -2   -1    0    0    0  501  0.00000000000E+00  0.00000000000E+00  0.68528310617E+03  0.68528310618E+03  0.25500000920E-02 0. -1.
        2   -1    0    0  501    0  0.00000000000E+00  0.00000000000E+00 -0.93250019704E+03  0.93250019705E+03  0.25500000920E-02 0.  1.
    10030    2    1    2    0    0  0.00000000000E+00  0.00000000000E+00 -0.24721709087E+03  0.16177833032E+04  0.15987828265E+04 0.  0.
        5    1    3    3  502    0  0.56000377539E+02  0.76737531090E+02  0.67953690548E+03  0.68616119598E+03  0.46999998093E+01 0. -1.
       -5    1    3    3    0  502 -0.56000377539E+02 -0.76737531090E+02 -0.92675399635E+03  0.93162210725E+03  0.46999998093E+01 0.  1.
</event>
<event>
 5   0  0.1819811E-04  0.1613967E+04  0.7818609E-02  0.8812013E-01
       -1   -1    0    0    0  501  0.00000000000E+00  0.00000000000E+00  0.67596911779E+03  0.67596911781E+03  0.50400001928E-02 0.  1.
        1   -1    0    0  501    0  0.00000000000E+00  0.00000000000E+00 -0.96339061465E+03  0.96339061466E+03  0.50400001928E-02 0. -1.
    10030    2    1    2    0    0  0.00000000000E+00  0.00000000000E+00 -0.28742149686E+03  0.16393597325E+04  0.16139669190E+04 0.  0.
        1    1    3    3  502    0 -0.42666604409E+03  0.67244472822E+03 -0.11289064884E+02  0.79646297384E+03  0.50400001928E-02 0. -1.
       -1    1    3    3    0  502  0.42666604409E+03 -0.67244472822E+03 -0.27613243198E+03  0.84289675862E+03  0.50400001928E-02 0.  1.
</event>
<event>
 5   0  0.3228393E-04  0.1523856E+04  0.7818609E-02  0.8868742E-01
        2   -1    0    0  501    0  0.00000000000E+00  0.00000000000E+00  0.14482609445E+04  0.14482609445E+04  0.25500000920E-02 0. -1.
       -2   -1    0    0    0  501  0.00000000000E+00  0.00000000000E+00 -0.40084947911E+03  0.40084947912E+03  0.25500000920E-02 0.  1.
    10030    2    1    2    0    0  0.00000000000E+00  0.00000000000E+00  0.10474114654E+04  0.18491104236E+04  0.15238564830E+04 0.  0.
        1    1    3    3  502    0  0.19217027211E+03 -0.25727905168E+03 -0.31472226694E+03  0.44963544039E+03  0.50400001928E-02 0.  1.
       -1    1    3    3    0  502 -0.19217027211E+03  0.25727905168E+03  0.13621337323E+04  0.13994749832E+04  0.50400001928E-02 0. -1.
</event>
<event>
 5   0  0.3228393E-04  0.1602574E+04  0.7818609E-02  0.8818969E-01
        2   -1    0    0  501    0  0.00000000000E+00  0.00000000000E+00  0.13591071056E+04  0.13591071056E+04  0.25500000920E-02 0.  1.
       -2   -1    0    0    0  501  0.00000000000E+00  0.00000000000E+00 -0.47241344717E+03  0.47241344717E+03  0.25500000920E-02 0. -1.
    10030    2    1    2    0    0  0.00000000000E+00  0.00000000000E+00  0.88669365843E+03  0.18315205528E+04  0.16025735214E+04 0.  0.
        1    1    3    3  502    0 -0.77874642251E+03 -0.13058834651E+03  0.59904964301E+03  0.99114064675E+03  0.50400001928E-02 0.  1.
       -1    1    3    3    0  502  0.77874642251E+03  0.13058834651E+03  0.28764401542E+03  0.84037990603E+03  0.50400001928E-02 0. -1.
</event>
<event>
 5   0  0.1736537E-04  0.1599440E+04  0.7818609E-02  0.8820892E-01
       -1   -1    0    0    0  501  0.00000000000E+00  0.00000000000E+00  0.73563436398E+03  0.73563436400E+03  0.50400001928E-02 0.  1.
        1   -1    0    0  501    0  0.00000000000E+00  0.00000000000E+00 -0.86938899069E+03  0.86938899070E+03  0.50400001928E-02 0. -1.
    10030    2    1    2    0    0  0.00000000000E+00  0.00000000000E+00 -0.13375462670E+03  0.16050233547E+04  0.15994404237E+04 0.  0.
        3    1    3    3  502    0 -0.28530332998E+03 -0.13545953716E+03 -0.80415619149E+03  0.86395281516E+03  0.10100000352E+00 0. -1.
       -3    1    3    3    0  502  0.28530332998E+03  0.13545953716E+03  0.67040156479E+03  0.74107053954E+03  0.10100000352E+00 0.  1.
</event>
<event>
 5   0  0.3263294E-04  0.1608767E+04  0.7818609E-02  0.8815180E-01
       -2   -1    0    0    0  501  0.00000000000E+00  0.00000000000E+00  0.10481108746E+04  0.10481108746E+04  0.25500000920E-02 0. -1.
        2   -1    0    0  501    0  0.00000000000E+00  0.00000000000E+00 -0.61733255786E+03  0.61733255787E+03  0.25500000920E-02 0.  1.
    10030    2    1    2    0    0  0.00000000000E+00  0.00000000000E+00  0.43077831669E+03  0.16654434324E+04  0.16087671890E+04 0.  0.
        4    1    3    3  502    0  0.29274359923E+03  0.74891786181E+03  0.23746105949E+03  0.83843076417E+03  0.12699999809E+01 0. -1.
       -4    1    3    3    0  502 -0.29274359923E+03 -0.74891786181E+03  0.19331725720E+03  0.82701266826E+03  0.12699999809E+01 0.  1.
</event>
<event>
 5   0  0.1761255E-04  0.1556382E+04  0.7818609E-02  0.8847802E-01
       -1   -1    0    0    0  501  0.00000000000E+00  0.00000000000E+00  0.62590369379E+03  0.62590369381E+03  0.50400001928E-02 0.  1.
        1   -1    0    0  501    0  0.00000000000E+00  0.00000000000E+00 -0.96753102882E+03  0.96753102883E+03  0.50400001928E-02 0. -1.
    10030    2    1    2    0    0  0.00000000000E+00  0.00000000000E+00 -0.34162733503E+03  0.15934347226E+04  0.15563820159E+04 0.  0.
        2    1    3    3  502    0 -0.17417002659E+03 -0.12788039314E+03 -0.93620276667E+03  0.96081434910E+03  0.25500000920E-02 0. -1.
       -2    1    3    3    0  502  0.17417002659E+03  0.12788039314E+03  0.59457543164E+03  0.63262037354E+03  0.25500000920E-02 0.  1.
</event>
<event>
 5   0  0.3210612E-04  0.1596677E+04  0.7818609E-02  0.8822592E-01
        2   -1    0    0  501    0  0.00000000000E+00  0.00000000000E+00  0.11075755300E+04  0.11075755300E+04  0.25500000920E-02 0. -1.
       -2   -1    0    0    0  501  0.00000000000E+00  0.00000000000E+00 -0.57544097282E+03  0.57544097282E+03  0.25500000920E-02 0.  1.
    10030    2    1    2    0    0  0.00000000000E+00  0.00000000000E+00  0.53213455716E+03  0.16830165028E+04  0.15966769748E+04 0.  0.
        2    1    3    3  502    0 -0.46613248603E+03  0.61634729942E+03  0.47735822326E+03  0.90831402133E+03  0.25500000920E-02 0. -1.
       -2    1    3    3    0  502  0.46613248603E+03 -0.61634729942E+03  0.54776333893E+02  0.77470248147E+03  0.25500000920E-02 0.  1.
</event>
<event>
 5   0  0.1819811E-04  0.1613299E+04  0.7818609E-02  0.8812419E-01
       -1   -1    0    0    0  501  0.00000000000E+00  0.00000000000E+00  0.92153669781E+03  0.92153669782E+03  0.50400001928E-02 0. -1.
        1   -1    0    0  501    0  0.00000000000E+00  0.00000000000E+00 -0.70608521203E+03  0.70608521205E+03  0.50400001928E-02 0.  1.
    10030    2    1    2    0    0  0.00000000000E+00  0.00000000000E+00  0.21545148578E+03  0.16276219099E+04  0.16132990234E+04 0.  0.
        1    1    3    3  502    0  0.47857906992E+03 -0.42835695476E+03 -0.38461895258E+03  0.74863832761E+03  0.50400001928E-02 0.  1.
       -1    1    3    3    0  502 -0.47857906992E+03  0.42835695476E+03  0.60007043836E+03  0.87898358226E+03  0.50400001928E-02 0. -1.
</event>
<event>
 5   0  0.3210612E-04  0.1603020E+04  0.7818609E-02  0.8818695E-01
        2   -1    0    0  501    0  0.00000000000E+00  0.00000000000E+00  0.86798547826E+03  0.86798547827E+03  0.25500000920E-02 0.  1.
       -2   -1    0    0    0  501  0.00000000000E+00  0.00000000000E+00 -0.74012583330E+03  0.74012583331E+03  0.25500000920E-02 0. -1.
    10030    2    1    2    0    0  0.00000000000E+00  0.00000000000E+00  0.12785964496E+03  0.16081113116E+04  0.16030202437E+04 0.  0.
        2    1    3    3  502    0  0.39020049694E+03 -0.69994411773E+03  0.79480008525E+02  0.80529203865E+03  0.25500000920E-02 0.  1.
       -2    1    3    3    0  502 -0.39020049694E+03  0.69994411773E+03  0.48379636437E+02  0.80281927292E+03  0.25500000920E-02 0. -1.
</event>
<event>
 5   0  0.3380454E-04  0.1609918E+04  0.7818609E-02  0.8814478E-01
        2   -1    0    0  501    0  0.00000000000E+00  0.00000000000E+00  0.96137224856E+03  0.96137224856E+03  0.25500000920E-02 0.  1.
       -2   -1    0    0    0  501  0.00000000000E+00  0.00000000000E+00 -0.67399365367E+03  0.67399365368E+03  0.25500000920E-02 0. -1.
    10030    2    1    2    0    0  0.00000000000E+00  0.00000000000E+00  0.28737859489E+03  0.16353659022E+04  0.16099177549E+04 0.  0.
        5    1    3    3  502    0 -0.10943876155E+03  0.45743870511E+03  0.80724517820E+03  0.93428789952E+03  0.46999998093E+01 0.  1.
       -5    1    3    3    0  502  0.10943876155E+03 -0.45743870511E+03 -0.51986658331E+03  0.70107800272E+03  0.46999998093E+01 0. -1.
</event>
<event>
 5   0  0.3380454E-04  0.1597582E+04  0.7818609E-02  0.8822035E-01
        2   -1    0    0  501    0  0.00000000000E+00  0.00000000000E+00  0.11874901277E+04  0.11874901277E+04  0.25500000920E-02 0.  1.
       -2   -1    0    0    0  501  0.00000000000E+00  0.00000000000E+00 -0.53732420520E+03  0.53732420520E+03  0.25500000920E-02 0. -1.
    10030    2    1    2    0    0  0.00000000000E+00  0.00000000000E+00  0.65016592254E+03  0.17248143329E+04  0.15975821595E+04 0.  0.
        5    1    3    3  502    0  0.32106336060E+03 -0.53526639433E+03 -0.21306480161E+03  0.65955325342E+03  0.46999998093E+01 0. -1.
       -5    1    3    3    0  502 -0.32106336060E+03  0.53526639433E+03  0.86323072415E+03  0.10652610795E+04  0.46999998093E+01 0.  1.
</event>
<event>
 5   0  0.3380454E-04  0.1655654E+04  0.7818609E-02  0.8787069E-01
        2   -1    0    0  501    0  0.00000000000E+00  0.00000000000E+00  0.21042190923E+04  0.21042190923E+04  0.25500000920E-02 0.  1.
       -2   -1    0    0    0  501  0.00000000000E+00  0.00000000000E+00 -0.32567784366E+03  0.32567784367E+03  0.25500000920E-02 0. -1.
    10030    2    1    2    0    0  0.00000000000E+00  0.00000000000E+00  0.17785412487E+04  0.24298969360E+04  0.16556539936E+04 0.  0.
        5    1    3    3  502    0  0.71628875868E+01 -0.18846335923E+03 -0.29370722154E+03  0.34907845352E+03  0.46999998093E+01 0. -1.
       -5    1    3    3    0  502 -0.71628875868E+01  0.18846335923E+03  0.20722484702E+04  0.20808184825E+04  0.46999998093E+01 0.  1.
</event>
<event>
 5   0  0.1819811E-04  0.1591060E+04  0.7818609E-02  0.8826059E-01
       -1   -1    0    0    0  501  0.00000000000E+00  0.00000000000E+00  0.33094782578E+03  0.33094782582E+03  0.50400001928E-02 0.  1.
        1   -1    0    0  501    0  0.00000000000E+00  0.00000000000E+00 -0.19122901463E+04  0.19122901463E+04  0.50400001928E-02 0. -1.
    10030    2    1    2    0    0  0.00000000000E+00  0.00000000000E+00 -0.15813423206E+04  0.22432379722E+04  0.15910603587E+04 0.  0.
        1    1    3    3  502    0 -0.77363541810E+03 -0.66562447366E+02 -0.10345716325E+04  0.12935535483E+04  0.50400001928E-02 0. -1.
       -1    1    3    3    0  502  0.77363541810E+03  0.66562447366E+02 -0.54677068801E+03  0.94968442381E+03  0.50400001928E-02 0.  1.
</event>
<event>
 5   0  0.1736537E-04  0.1595502E+04  0.7818609E-02  0.8823316E-01
        1   -1    0    0  501    0  0.00000000000E+00  0.00000000000E+00  0.20101170521E+04  0.20101170521E+04  0.50400001928E-02 0. -1.
       -1   -1    0    0    0  501  0.00000000000E+00  0.00000000000E+00 -0.31660180511E+03  0.31660180515E+03  0.50400001928E-02 0.  1.
    10030    2    1    2    0    0  0.00000000000E+00  0.00000000000E+00  0.16935152469E+04  0.23267188572E+04  0.15955020366E+04 0.  0.
        3    1    3    3  502    0  0.96607208784E+02 -0.78631812742E+03  0.71013185224E+03  0.10639156020E+04  0.10100000352E+00 0.  1.
       -3    1    3    3    0  502 -0.96607208784E+02  0.78631812742E+03  0.98338339470E+03  0.12628032553E+04  0.10100000352E+00 0. -1.
</event>
<event>
 5   0  0.1736537E-04  0.1596984E+04  0.7818609E-02  0.8822403E-01
        1   -1    0    0  501    0  0.00000000000E+00  0.00000000000E+00  0.67611064024E+03  0.67611064026E+03  0.50400001928E-02 0.  1.
       -1   -1    0    0    0  501  0.00000000000E+00  0.00000000000E+00 -0.94302574891E+03  0.94302574893E+03  0.50400001928E-02 0. -1.
    10030    2    1    2    0    0  0.00000000000E+00  0.00000000000E+00 -0.26691510868E+03  0.16191363892E+04  0.15969843367E+04 0.  0.
        3    1    3    3  502    0  0.21675521011E+03 -0.24698561487E+03 -0.87129182343E+03  0.93120039027E+03  0.10100000352E+00 0. -1.
       -3    1    3    3    0  502 -0.21675521011E+03  0.24698561487E+03  0.60437671476E+03  0.68793599891E+03  0.10100000352E+00 0.  1.
</event>
<event>
 5   0  0.3228393E-04  0.1605923E+04  0.7818609E-02  0.8816917E-01
       -2   -1    0    0    0  501  0.00000000000E+00  0.00000000000E+00  0.73644177340E+03  0.73644177341E+03  0.25500000920E-02 0. -1.
        2   -1    0    0  501    0  0.00000000000E+00  0.00000000000E+00 -0.87549011564E+03  0.87549011564E+03  0.25500000920E-02 0.  1.
    10030    2    1    2    0    0  0.00000000000E+00  0.00000000000E+00 -0.13904834224E+03  0.16119318891E+04  0.16059234021E+04 0.  0.
        1    1    3    3  502    0  0.15292959898E+03 -0.65222428421E+03 -0.51385809278E+03  0.84429504244E+03  0.50400001928E-02 0.  1.
       -1    1    3    3    0  502 -0.15292959898E+03  0.65222428421E+03  0.37480975054E+03  0.76763684661E+03  0.50400001928E-02 0. -1.
</event>
<event>
 5   0  0.1764099E-04  0.1601112E+04  0.7818609E-02  0.8819865E-01
        1   -1    0    0  501    0  0.00000000000E+00  0.00000000000E+00  0.66158701501E+03  0.66158701503E+03  0.50400001928E-02 0. -1.
       -1   -1    0    0    0  501  0.00000000000E+00  0.00000000000E+00 -0.96871561217E+03  0.96871561219E+03  0.50400001928E-02 0.  1.
    10030    2    1    2    0    0  0.00000000000E+00  0.00000000000E+00 -0.30712859716E+03  0.16303026272E+04  0.16011117016E+04 0.  0.
        5    1    3    3  502    0 -0.67525330856E+03  0.41739306162E+03 -0.48318435484E+02  0.79532431109E+03  0.46999998093E+01 0.  1.
       -5    1    3    3    0  502  0.67525330856E+03 -0.41739306162E+03 -0.25881016168E+03  0.83497831612E+03  0.46999998093E+01 0. -1.
</event>
<event>
 5   0  0.3228393E-04  0.1602273E+04  0.7818609E-02  0.8819153E-01
       -2   -1    0    0    0  501  0.00000000000E+00  0.00000000000E+00  0.22093866624E+03  0.22093866625E+03  0.25500000920E-02 0.  1.
        2   -1    0    0  501    0  0.00000000000E+00  0.00000000000E+00 -0.29049681759E+04  0.29049681759E+04  0.25500000920E-02 0. -1.
    10030    2    1    2    0    0  0.00000000000E+00  0.00000000000E+00 -0.26840295096E+04  0.31259068421E+04  0.16022731281E+04 0.  0.
        1    1    3    3  502    0 -0.67034003220E+03  0.17595462192E+03 -0.55798755045E+03  0.88975608693E+03  0.50400001928E-02 0. -1.
       -1    1    3    3    0  502  0.67034003220E+03 -0.17595462192E+03 -0.21260419592E+04  0.22361507552E+04  0.50400001928E-02 0.  1.
</event>
<event>
 5   0  0.3274900E-04  0.1608082E+04  0.7818609E-02  0.8815598E-01
       -2   -1    0    0    0  501  0.00000000000E+00  0.00000000000E+00  0.67398224888E+03  0.67398224889E+03  0.25500000920E-02 0.  1.
        2   -1    0    0  501    0  0.00000000000E+00  0.00000000000E+00 -0.95919762777E+03  0.95919762777E+03  0.25500000920E-02 0. -1.
    10030    2    1    2    0    0  0.00000000000E+00  0.00000000000E+00 -0.28521537889E+03  0.16331798767E+04  0.16080823042E+04 0.  0.
        3    1    3    3  502    0  0.32845873962E+03 -0.22941195129E+03  0.56538572155E+03  0.69294733665E+03  0.10100000352E+00 0.  1.
       -3    1    3    3    0  502 -0.32845873962E+03  0.22941195129E+03 -0.85060110044E+03  0.94023254001E+03  0.10100000352E+00 0. -1.
</event>
<event>
 5   0  0.3210612E-04  0.1611416E+04  0.7818609E-02  0.8813566E-01
       -2   -1    0    0    0  501  0.00000000000E+00  0.00000000000E+00  0.59656076094E+03  0.59656076094E+03  0.25500000920E-02 0.  1.
        2   -1    0    0  501    0  0.00000000000E+00  0.00000000000E+00 -0.10881791931E+04  0.10881791931E+04  0.25500000920E-02 0. -1.
    10030    2    1    2    0    0  0.00000000000E+00  0.00000000000E+00 -0.49161843221E+03  0.16847399541E+04  0.16114155361E+04 0.  0.
        2    1    3    3  502    0 -0.18966338779E+02 -0.12137506672E+03 -0.10783300084E+04  0.10853051349E+04  0.25500000920E-02 0. -1.
       -2    1    3    3    0  502  0.18966338779E+02  0.12137506672E+03  0.58671157618E+03  0.59943481919E+03  0.25500000920E-02 0.  1.
</event>
<event>
 5   0  0.1761255E-04  0.1602482E+04  0.7818609E-02  0.8819024E-01
        1   -1    0    0  501    0  0.00000000000E+00  0.00000000000E+00  0.84419526967E+03  0.84419526969E+03  0.50400001928E-02 0.  1.
       -1   -1    0    0    0  501  0.00000000000E+00  0.00000000000E+00 -0.76047272601E+03  0.76047272603E+03  0.50400001928E-02 0. -1.
    10030    2    1    2    0    0  0.00000000000E+00  0.00000000000E+00  0.83722543661E+02  0.16046679957E+04  0.16024824218E+04 0.  0.
        2    1    3    3  502    0 -0.62028081802E+03 -0.27409566269E+03  0.46918765904E+03  0.82462948341E+03  0.25500000920E-02 0. -1.
       -2    1    3    3    0  502  0.62028081802E+03  0.27409566269E+03 -0.38546511537E+03  0.78003851231E+03  0.25500000920E-02 0.  1.
</event>
<event>
 5   0  0.3380454E-04  0.1600297E+04  0.7818609E-02  0.8820366E-01
        2   -1    0    0  501    0  0.00000000000E+00  0.00000000000E+00  0.53813507423E+03  0.53813507424E+03  0.25500000920E-02 0.  1.
       -2   -1    0    0    0  501  0.00000000000E+00  0.00000000000E+00 -0.11897333171E+04  0.11897333171E+04  0.25500000920E-02 0. -1.
    10030    2    1    2    0    0  0.00000000000E+00  0.00000000000E+00 -0.65159824285E+03  0.17278683913E+04  0.16002965062E+04 0.  0.
        5    1    3    3  502    0  0.73558568332E+03  0.70159785267E+02  0.55993555413E+01  0.73896017197E+03  0.46999998093E+01 0.  1.
       -5    1    3    3    0  502 -0.73558568332E+03 -0.70159785267E+02 -0.65719759839E+03  0.98890821935E+03  0.46999998093E+01 0. -1.
</event>
<event>
 5   0  0.1219463E-04  0.1589046E+04  0.7818609E-02  0.8827306E-01
       -3   -1    0    0    0  501  0.00000000000E+00  0.00000000000E+00  0.67603151034E+03  0.67603151788E+03  0.10100000352E+00 0. -1.
        3   -1    0    0  501    0  0.00000000000E+00  0.00000000000E+00 -0.93378347916E+03  0.93378348462E+03  0.10100000352E+00 0.  1.
    10030    2    1    2    0    0  0.00000000000E+00  0.00000000000E+00 -0.25775196882E+03  0.16098150025E+04  0.15890463382E+04 0.  0.
        3    1    3    3  502    0 -0.75445829465E+03  0.22502851419E+03 -0.23714612206E+03  0.82224293489E+03  0.10100000352E+00 0.  1.
       -3    1    3    3    0  502  0.75445829465E+03 -0.22502851419E+03 -0.20605846758E+02  0.78757206762E+03  0.10100000352E+00 0. -1.
</event>
<event>
 5   0  0.3380454E-04  0.1587337E+04  0.7818609E-02  0.8828365E-01
        2   -1    0    0  501    0  0.00000000000E+00  0.00000000000E+00  0.15234314824E+04  0.15234314824E+04  0.25500000920E-02 0. -1.
       -2   -1    0    0    0  501  0.00000000000E+00  0.00000000000E+00 -0.41348100175E+03  0.41348100176E+03  0.25500000920E-02 0.  1.
    10030    2    1    2    0    0  0.00000000000E+00  0.00000000000E+00  0.11099504806E+04  0.19369124841E+04  0.15873373623E+04 0.  0.
        5    1    3    3  502    0 -0.28629720203E+01  0.79364755919E+03  0.55277862044E+03  0.96719746589E+03  0.46999998093E+01 0. -1.
       -5    1    3    3    0  502  0.28629720203E+01 -0.79364755919E+03  0.55717186016E+03  0.96971501822E+03  0.46999998093E+01 0.  1.
</event>
<event>
 5   0  0.3228393E-04  0.1610283E+04  0.7818609E-02  0.8814255E-01
       -2   -1    0    0    0  501  0.00000000000E+00  0.00000000000E+00  0.45702120351E+03  0.45702120352E+03  0.25500000920E-02 0. -1.
        2   -1    0    0  501    0  0.00000000000E+00  0.00000000000E+00 -0.14184313923E+04  0.14184313923E+04  0.25500000920E-02 0.  1.
    10030    2    1    2    0    0  0.00000000000E+00  0.00000000000E+00 -0.96141018874E+03  0.18754525958E+04  0.16102834806E+04 0.  0.
        1    1    3    3  502    0  0.27438340603E+03  0.53009533542E+03  0.14861242502E+03  0.61512028990E+03  0.50400001928E-02 0. -1.
       -1    1    3    3    0  502 -0.27438340603E+03 -0.53009533542E+03 -0.11100226138E+04  0.12603323059E+04  0.50400001928E-02 0.  1.
</event>
<event>
 5   0  0.3263294E-04  0.1470210E+04  0.7818609E-02  0.8904508E-01
       -2   -1    0    0    0  501  0.00000000000E+00  0.00000000000E+00  0.38154804530E+03  0.38154804530E+03  0.25500000920E-02 0.  1.
        2   -1    0    0  501    0  0.00000000000E+00  0.00000000000E+00 -0.14162810209E+04  0.14162810209E+04  0.25500000920E-02 0. -1.
    10030    2    1    2    0    0  0.00000000000E+00  0.00000000000E+00 -0.10347329756E+04  0.17978290662E+04  0.14702098559E+04 0.  0.
        4    1    3    3  502    0  0.16474046578E+03  0.64523017220E+03 -0.13668008985E+03  0.67981207406E+03  0.12699999809E+01 0.  1.
       -4    1    3    3    0  502 -0.16474046578E+03 -0.64523017220E+03 -0.89805288571E+03  0.11180169921E+04  0.12699999809E+01 0. -1.
</event>
<event>
 5   0  0.1761255E-04  0.1597368E+04  0.7818609E-02  0.8822167E-01
        1   -1    0    0  501    0  0.00000000000E+00  0.00000000000E+00  0.50288386425E+03  0.50288386428E+03  0.50400001928E-02 0. -1.
       -1   -1    0    0    0  501  0.00000000000E+00  0.00000000000E+00 -0.12684755344E+04  0.12684755344E+04  0.50400001928E-02 0.  1.
    10030    2    1    2    0    0  0.00000000000E+00  0.00000000000E+00 -0.76559167014E+03  0.17713593987E+04  0.15973676828E+04 0.  0.
        2    1    3    3  502    0 -0.26546002264E+03 -0.59196689928E+03  0.13377954699E+03  0.66241286270E+03  0.25500000920E-02 0. -1.
       -2    1    3    3    0  502  0.26546002264E+03  0.59196689928E+03 -0.89937121713E+03  0.11089465360E+04  0.25500000920E-02 0.  1.
</event>
<event>
 5   0  0.1761255E-04  0.1612817E+04  0.7818609E-02  0.8812713E-01
        1   -1    0    0  501    0  0.00000000000E+00  0.00000000000E+00  0.97864272026E+03  0.97864272027E+03  0.50400001928E-02 0. -1.
       -1   -1    0    0    0  501  0.00000000000E+00  0.00000000000E+00 -0.66448608772E+03  0.66448608774E+03  0.50400001928E-02 0.  1.
    10030    2    1    2    0    0  0.00000000000E+00  0.00000000000E+00  0.31415663254E+03  0.16431288080E+04  0.16128167565E+04 0.  0.
        2    1    3    3  502    0  0.10761898376E+03 -0.34933414115E+03 -0.57523458890E+03  0.68155045310E+03  0.25500000920E-02 0.  1.
       -2    1    3    3    0  502 -0.10761898376E+03  0.34933414115E+03  0.88939122144E+03  0.96157835491E+03  0.25500000920E-02 0. -1.
</event>
<event>
 5   0  0.3380454E-04  0.1603172E+04  0.7818609E-02  0.8818602E-01
        2   -1    0    0  501    0  0.00000000000E+00  0.00000000000E+00  0.16891044327E+04  0.16891044327E+04  0.25500000920E-02 0. -1.
       -2   -1    0    0    0  501  0.00000000000E+00  0.00000000000E+00 -0.38040297976E+03  0.38040297977E+03  0.25500000920E-02 0.  1.
    10030    2    1    2    0    0  0.00000000000E+00  0.00000000000E+00  0.13087014529E+04  0.20695074125E+04  0.16031723043E+04 0.  0.
        5    1    3    3  502    0  0.10008047915E+03  0.13152471947E+03  0.16668533415E+04  0.16750334343E+04  0.46999998093E+01 0. -1.
       -5    1    3    3    0  502 -0.10008047915E+03 -0.13152471947E+03 -0.35815188856E+03  0.39447397812E+03  0.46999998093E+01 0.  1.
</event>
<event>
 5   0  0.3274900E-04  0.1599294E+04  0.7818609E-02  0.8820982E-01
        2   -1    0    0  501    0  0.00000000000E+00  0.00000000000E+00  0.58399141915E+03  0.58399141916E+03  0.25500000920E-02 0. -1.
       -2   -1    0    0    0  501  0.00000000000E+00  0.00000000000E+00 -0.10949395575E+04  0.10949395575E+04  0.25500000920E-02 0.  1.
    10030    2    1    2    0    0  0.00000000000E+00  0.00000000000E+00 -0.51094813833E+03  0.16789309766E+04  0.15992939768E+04 0.  0.
        3    1    3    3  502    0  0.64139557585E+03  0.12026146833E+03  0.22969051599E+03  0.69181561765E+03  0.10100000352E+00 0. -1.
       -3    1    3    3    0  502 -0.64139557585E+03 -0.12026146833E+03 -0.74063865432E+03  0.98711535899E+03  0.10100000352E+00 0.  1.
</event>
<event>
 5   0  0.1761255E-04  0.1593363E+04  0.7818609E-02  0.8824636E-01
        1   -1    0    0  501    0  0.00000000000E+00  0.00000000000E+00  0.84813685674E+03  0.84813685675E+03  0.50400001928E-02 0.  1.
       -1   -1    0    0    0  501  0.00000000000E+00  0.00000000000E+00 -0.74834761481E+03  0.74834761483E+03  0.50400001928E-02 0. -1.
    10030    2    1    2    0    0  0.00000000000E+00  0.00000000000E+00  0.99789241930E+02  0.15964844716E+04  0.15933627256E+04 0.  0.
        2    1    3    3  502    0 -0.40393162532E+03 -0.14839541019E+03 -0.62188091935E+03  0.75625249326E+03  0.25500000920E-02 0. -1.
       -2    1    3    3    0  502  0.40393162532E+03  0.14839541019E+03  0.72167016128E+03  0.84023197832E+03  0.25500000920E-02 0.  1.
</event>
<event>
 5   0  0.3263294E-04  0.1599854E+04  0.7818609E-02  0.8820638E-01
        2   -1    0    0  501    0  0.00000000000E+00  0.00000000000E+00  0.18950815242E+04  0.18950815242E+04  0.25500000920E-02 0.  1.
       -2   -1    0    0    0  501  0.00000000000E+00  0.00000000000E+00 -0.33765454117E+03  0.33765454118E+03  0.25500000920E-02 0. -1.
    10030    2    1    2    0    0  0.00000000000E+00  0.00000000000E+00  0.15574269830E+04  0.22327360654E+04  0.15998535965E+04 0.  0.
        4    1    3    3  502    0 -0.21647271856E+03 -0.71609638876E+03  0.38342254861E+03  0.84063603276E+03  0.12699999809E+01 0.  1.
       -4    1    3    3    0  502  0.21647271856E+03  0.71609638876E+03  0.11740044344E+04  0.13921000326E+04  0.12699999809E+01 0. -1.
</event>
<event>
 5   0  0.1787688E-04  0.1607526E+04  0.7818609E-02  0.8815938E-01
        1   -1    0    0  501    0  0.00000000000E+00  0.00000000000E+00  0.62249774074E+03  0.62249774076E+03  0.50400001928E-02 0. -1.
       -1   -1    0    0    0  501  0.00000000000E+00  0.00000000000E+00 -0.10378103394E+04  0.10378103394E+04  0.50400001928E-02 0.  1.
    10030    2    1    2    0    0  0.00000000000E+00  0.00000000000E+00 -0.41531259862E+03  0.16603080801E+04  0.16075255414E+04 0.  0.
        4    1    3    3  502    0 -0.60576483072E+02 -0.53696136169E+03 -0.82220243240E+03  0.98387777035E+03  0.12699999809E+01 0.  1.
       -4    1    3    3    0  502  0.60576483072E+02  0.53696136169E+03  0.40688983378E+03  0.67643030977E+03  0.12699999809E+01 0. -1.
</event>
<event>
 5   0  0.1736537E-04  0.1589900E+04  0.7818609E-02  0.8826777E-01
        1   -1    0    0  501    0  0.00000000000E+00  0.00000000000E+00  0.12349003379E+04  0.12349003379E+04  0.50400001928E-02 0. -1.
       -1   -1    0    0    0  501  0.00000000000E+00  0.00000000000E+00 -0.51173774676E+03  0.51173774678E+03  0.50400001928E-02 0.  1.
    10030    2    1    2    0    0  0.00000000000E+00  0.00000000000E+00  0.72316259111E+03  0.17466380847E+04  0.15898995143E+04 0.  0.
        3    1    3    3  502    0 -0.30115120292E+03  0.58333755584E+03 -0.13091078220E+03  0.66941197642E+03  0.10100000352E+00 0.  1.
       -3    1    3    3    0  502  0.30115120292E+03 -0.58333755584E+03  0.85407337331E+03  0.10772261082E+04  0.10100000352E+00 0. -1.
</event>
<event>
 5   0  0.3228393E-04  0.1584788E+04  0.7818609E-02  0.8829948E-01
        2   -1    0    0  501    0  0.00000000000E+00  0.00000000000E+00  0.91927009533E+03  0.91927009534E+03  0.25500000920E-02 0.  1.
       -2   -1    0    0    0  501  0.00000000000E+00  0.00000000000E+00 -0.68302877358E+03  0.68302877359E+03  0.25500000920E-02 0. -1.
    10030    2    1    2    0    0  0.00000000000E+00  0.00000000000E+00  0.23624132175E+03  0.16022988689E+04  0.15847875893E+04 0.  0.
        1    1    3    3  502    0 -0.33238119075E+03  0.71014661414E+03  0.23898959051E+01  0.78408620774E+03  0.50400001928E-02 0.  1.
       -1    1    3    3    0  502  0.33238119075E+03 -0.71014661414E+03  0.23385142584E+03  0.81821266119E+03  0.50400001928E-02 0. -1.
</event>
<event>
 5   0  0.1761255E-04  0.1620276E+04  0.7818609E-02  0.8808188E-01
        1   -1    0    0  501    0  0.00000000000E+00  0.00000000000E+00  0.92161585151E+03  0.92161585152E+03  0.50400001928E-02 0.  1.
       -1   -1    0    0    0  501  0.00000000000E+00  0.00000000000E+00 -0.71214429679E+03  0.71214429681E+03  0.50400001928E-02 0. -1.
    10030    2    1    2    0    0  0.00000000000E+00  0.00000000000E+00  0.20947155471E+03  0.16337601483E+04  0.16202758685E+04 0.  0.
        2    1    3    3  502    0 -0.41177001394E+03  0.67698067987E+03 -0.65387296864E+02  0.79506784861E+03  0.25500000920E-02 0.  1.
       -2    1    3    3    0  502  0.41177001394E+03 -0.67698067987E+03  0.27485885158E+03  0.83869229971E+03  0.25500000920E-02 0. -1.
</event>
<event>
 5   0  0.3228393E-04  0.1582130E+04  0.7818609E-02  0.8831602E-01
       -2   -1    0    0    0  501  0.00000000000E+00  0.00000000000E+00  0.54913406119E+03  0.54913406120E+03  0.25500000920E-02 0. -1.
        2   -1    0    0  501    0  0.00000000000E+00  0.00000000000E+00 -0.11395829752E+04  0.11395829752E+04  0.25500000920E-02 0.  1.
    10030    2    1    2    0    0  0.00000000000E+00  0.00000000000E+00 -0.59044891401E+03  0.16887170364E+04  0.15821299912E+04 0.  0.
        1    1    3    3  502    0 -0.42921692544E+03  0.44658842683E+03  0.22997704580E+03  0.66072523312E+03  0.50400001928E-02 0. -1.
       -1    1    3    3    0  502  0.42921692544E+03 -0.44658842683E+03 -0.82042595981E+03  0.10279918033E+04  0.50400001928E-02 0.  1.
</event>
<event>
 5   0  0.3274900E-04  0.1595172E+04  0.7818609E-02  0.8823519E-01
        2   -1    0    0  501    0  0.00000000000E+00  0.00000000000E+00  0.16262057717E+04  0.16262057717E+04  0.25500000920E-02 0.  1.
       -2   -1    0    0    0  501  0.00000000000E+00  0.00000000000E+00 -0.39118286000E+03  0.39118286001E+03  0.25500000920E-02 0. -1.
    10030    2    1    2    0    0  0.00000000000E+00  0.00000000000E+00  0.12350229117E+04  0.20173886317E+04  0.15951724982E+04 0.  0.
        3    1    3    3  502    0  0.42855477206E+01  0.25413980295E+03  0.15736143361E+04  0.15940098790E+04  0.10100000352E+00 0.  1.
       -3    1    3    3    0  502 -0.42855477206E+01 -0.25413980295E+03 -0.33859142440E+03  0.42337875271E+03  0.10100000352E+00 0. -1.
</event>
<event>
 5   0  0.1819811E-04  0.1601606E+04  0.7818609E-02  0.8819562E-01
        1   -1    0    0  501    0  0.00000000000E+00  0.00000000000E+00  0.52110933313E+03  0.52110933315E+03  0.50400001928E-02 0.  1.
       -1   -1    0    0    0  501  0.00000000000E+00  0.00000000000E+00 -0.12306164102E+04  0.12306164102E+04  0.50400001928E-02 0. -1.
    10030    2    1    2    0    0  0.00000000000E+00  0.00000000000E+00 -0.70950707703E+03  0.17517257433E+04  0.16016063148E+04 0.  0.
        1    1    3    3  502    0 -0.57896211916E+03 -0.41008917431E+03 -0.76093188724E+03  0.10403785865E+04  0.50400001928E-02 0. -1.
       -1    1    3    3    0  502  0.57896211916E+03  0.41008917431E+03  0.51424810213E+02  0.71134715677E+03  0.50400001928E-02 0.  1.
</event>
<event>
 5   0  0.1819811E-04  0.1598394E+04  0.7818609E-02  0.8821535E-01
       -1   -1    0    0    0  501  0.00000000000E+00  0.00000000000E+00  0.66191917468E+03  0.66191917470E+03  0.50400001928E-02 0.  1.
        1   -1    0    0  501    0  0.00000000000E+00  0.00000000000E+00 -0.96494541654E+03  0.96494541655E+03  0.50400001928E-02 0. -1.
    10030    2    1    2    0    0  0.00000000000E+00  0.00000000000E+00 -0.30302624186E+03  0.16268645913E+04  0.15983940362E+04 0.  0.
        1    1    3    3  502    0  0.63097498830E+03  0.10285946942E+03  0.33661911133E+03  0.72251085283E+03  0.50400001928E-02 0.  1.
       -1    1    3    3    0  502 -0.63097498830E+03 -0.10285946942E+03 -0.63964535319E+03  0.90435373842E+03  0.50400001928E-02 0. -1.
</event>
<event>
 5   0  0.3228393E-04  0.1570348E+04  0.7818609E-02  0.8838974E-01
        2   -1    0    0  501    0  0.00000000000E+00  0.00000000000E+00  0.15643884412E+04  0.15643884412E+04  0.25500000920E-02 0.  1.
       -2   -1    0    0    0  501  0.00000000000E+00  0.00000000000E+00 -0.39408251087E+03  0.39408251088E+03  0.25500000920E-02 0. -1.
    10030    2    1    2    0    0  0.00000000000E+00  0.00000000000E+00  0.11703059303E+04  0.19584709520E+04  0.15703478912E+04 0.  0.
        1    1    3    3  502    0  0.65929394392E+02 -0.74093964924E+03  0.89858392535E+03  0.11665296052E+04  0.50400001928E-02 0. -1.
       -1    1    3    3    0  502 -0.65929394392E+02  0.74093964924E+03  0.27172200494E+03  0.79194134685E+03  0.50400001928E-02 0.  1.
</event>
<event>
 5   0  0.1761255E-04  0.1590638E+04  0.7818609E-02  0.8826320E-01
       -1   -1    0    0    0  501  0.00000000000E+00  0.00000000000E+00  0.27568246130E+03  0.27568246134E+03  0.50400001928E-02 0. -1.
        1   -1    0    0  501    0  0.00000000000E+00  0.00000000000E+00 -0.22944247006E+04  0.22944247006E+04  0.50400001928E-02 0.  1.
    10030    2    1    2    0    0  0.00000000000E+00  0.00000000000E+00 -0.20187422393E+04  0.25701071619E+04  0.15906384238E+04 0.  0.
        2    1    3    3  502    0 -0.98831382349E+02  0.51454988651E+03 -0.19761415331E+04  0.20444228003E+04  0.25500000920E-02 0.  1.
       -2    1    3    3    0  502  0.98831382349E+02 -0.51454988651E+03 -0.42600706212E+02  0.52568436159E+03  0.25500000920E-02 0. -1.
</event>
<event>
 5   0  0.1819811E-04  0.1601086E+04  0.7818609E-02  0.8819881E-01
       -1   -1    0    0    0  501  0.00000000000E+00  0.00000000000E+00  0.11744670819E+04  0.11744670819E+04  0.50400001928E-02 0.  1.
        1   -1    0    0  501    0  0.00000000000E+00  0.00000000000E+00 -0.54566781618E+03  0.54566781620E+03  0.50400001928E-02 0. -1.
    10030    2    1    2    0    0  0.00000000000E+00  0.00000000000E+00  0.62879926575E+03  0.17201348981E+04  0.16010857414E+04 0.  0.
        1    1    3    3  502    0 -0.15678050580E+03 -0.40761578756E+02 -0.52787519999E+03  0.55217194794E+03  0.50400001928E-02 0. -1.
       -1    1    3    3    0  502  0.15678050580E+03  0.40761578756E+02  0.11566744657E+04  0.11679629502E+04  0.50400001928E-02 0.  1.
</event>
<event>
 5   0  0.3274900E-04  0.1606197E+04  0.7818609E-02  0.8816750E-01
       -2   -1    0    0    0  501  0.00000000000E+00  0.00000000000E+00  0.31282925062E+03  0.31282925063E+03  0.25500000920E-02 0.  1.
        2   -1    0    0  501    0  0.00000000000E+00  0.00000000000E+00 -0.20617235030E+04  0.20617235030E+04  0.25500000920E-02 0. -1.
    10030    2    1    2    0    0  0.00000000000E+00  0.00000000000E+00 -0.17488942524E+04  0.23745527537E+04  0.16061972711E+04 0.  0.
        3    1    3    3  502    0  0.12638750367E+03  0.47421341828E+03 -0.18142473708E+04  0.18794535642E+04  0.10100000352E+00 0. -1.
       -3    1    3    3    0  502 -0.12638750367E+03 -0.47421341828E+03  0.65353118403E+02  0.49509918950E+03  0.10100000352E+00 0.  1.
</event>
<event>
 5   0  0.1787688E-04  0.1605166E+04  0.7818609E-02  0.8817381E-01
        1   -1    0    0  501    0  0.00000000000E+00  0.00000000000E+00  0.10158220238E+04  0.10158220238E+04  0.50400001928E-02 0. -1.
       -1   -1    0    0    0  501  0.00000000000E+00  0.00000000000E+00 -0.63410623514E+03  0.63410623516E+03  0.50400001928E-02 0.  1.
    10030    2    1    2    0    0  0.00000000000E+00  0.00000000000E+00  0.38171578862E+03  0.16499282589E+04  0.16051655106E+04 0.  0.
        4    1    3    3  502    0 -0.58012160673E+03 -0.20515509995E+03 -0.33878586676E+03  0.70242947692E+03  0.12699999809E+01 0.  1.
       -4    1    3    3    0  502  0.58012160673E+03  0.20515509995E+03  0.72050165539E+03  0.94749878203E+03  0.12699999809E+01 0. -1.
</event>
<event>
 5   0  0.1819811E-04  0.1611025E+04  0.7818609E-02  0.8813803E-01
       -1   -1    0    0    0  501  0.00000000000E+00  0.00000000000E+00  0.40639337783E+03  0.40639337786E+03  0.50400001928E-02 0.  1.
        1   -1    0    0  501    0  0.00000000000E+00  0.00000000000E+00 -0.15966069538E+04  0.15966069538E+04  0.50400001928E-02 0. -1.
    10030    2    1    2    0    0  0.00000000000E+00  0.00000000000E+00 -0.11902135760E+04  0.20030003317E+04  0.16110251308E+04 0.  0.
        1    1    3    3  502    0  0.57386126839E+03  0.54758023370E+03 -0.76956741624E+03  0.11051673520E+04  0.50400001928E-02 0.  1.
       -1    1    3    3    0  502 -0.57386126839E+03 -0.54758023370E+03 -0.42064615972E+03  0.89783297969E+03  0.50400001928E-02 0. -1.
</event>
<event>
 5   0  0.1787688E-04  0.1600353E+04  0.7818609E-02  0.8820331E-01
       -1   -1    0    0    0  501  0.00000000000E+00  0.00000000000E+00  0.98990830601E+03  0.98990830602E+03  0.50400001928E-02 0. -1.
        1   -1    0    0  501    0  0.00000000000E+00  0.00000000000E+00 -0.64681020958E+03  0.64681020960E+03  0.50400001928E-02 0.  1.
    10030    2    1    2    0    0  0.00000000000E+00  0.00000000000E+00  0.34309809643E+03  0.16367185156E+04  0.16003534596E+04 0.  0.
        4    1    3    3  502    0  0.16711466221E+03 -0.35037939492E+03 -0.54405622731E+03  0.66835007450E+03  0.12699999809E+01 0.  1.
       -4    1    3    3    0  502 -0.16711466221E+03  0.35037939492E+03  0.88715432375E+03  0.96836844112E+03  0.12699999809E+01 0. -1.
</event>
<event>
 5   0  0.3210612E-04  0.1691102E+04  0.7818609E-02  0.8766456E-01
       -2   -1    0    0    0  501  0.00000000000E+00  0.00000000000E+00  0.52263462497E+03  0.52263462497E+03  0.25500000920E-02 0.  1.
        2   -1    0    0  501    0  0.00000000000E+00  0.00000000000E+00 -0.13679850146E+04  0.13679850146E+04  0.25500000920E-02 0. -1.
    10030    2    1    2    0    0  0.00000000000E+00  0.00000000000E+00 -0.84535038967E+03  0.18906196396E+04  0.16911018125E+04 0.  0.
        2    1    3    3  502    0 -0.74033874704E+03 -0.39075460838E+03 -0.28961333334E+03  0.88581403646E+03  0.25500000920E-02 0.  1.
       -2    1    3    3    0  502  0.74033874704E+03  0.39075460838E+03 -0.55573705634E+03  0.10048056032E+04  0.25500000920E-02 0. -1.
</event>
<event>
 5   0  0.3263294E-04  0.1601773E+04  0.7818609E-02  0.8819459E-01
       -2   -1    0    0    0  501  0.00000000000E+00  0.00000000000E+00  0.64932054645E+03  0.64932054646E+03  0.25500000920E-02 0.  1.
        2   -1    0    0  501    0  0.00000000000E+00  0.00000000000E+00 -0.98783179779E+03  0.98783179779E+03  0.25500000920E-02 0. -1.
    10030    2    1    2    0    0  0.00000000000E+00  0.00000000000E+00 -0.33851125133E+03  0.16371523442E+04  0.16017733707E+04 0.  0.
        4    1    3    3  502    0 -0.12304861355E+03  0.14707322668E+03 -0.96402065915E+03  0.98290840849E+03  0.12699999809E+01 0. -1.
       -4    1    3    3    0  502  0.12304861355E+03 -0.14707322668E+03  0.62550940782E+03  0.65424393576E+03  0.12699999809E+01 0.  1.
</event>
<event>
 5   0  0.3274900E-04  0.1577450E+04  0.7818609E-02  0.8834522E-01
        2   -1    0    0  501    0  0.00000000000E+00  0.00000000000E+00  0.16456199593E+04  0.16456199593E+04  0.25500000920E-02 0.  1.
       -2   -1    0    0    0  501  0.00000000000E+00  0.00000000000E+00 -0.37802593765E+03  0.37802593766E+03  0.25500000920E-02 0. -1.
    10030    2    1    2    0    0  0.00000000000E+00  0.00000000000E+00  0.12675940217E+04  0.20236458970E+04  0.15774498764E+04 0.  0.
        3    1    3    3  502    0  0.65919551223E+03  0.16901212577E+03  0.11453075237E+04  0.13322286425E+04  0.10100000352E+00 0.  1.
       -3    1    3    3    0  502 -0.65919551223E+03 -0.16901212577E+03  0.12228649804E+03  0.69141725449E+03  0.10100000352E+00 0. -1.
</event>
<event>
 5   0  0.1736537E-04  0.1618357E+04  0.7818609E-02  0.8809349E-01
        1   -1    0    0  501    0  0.00000000000E+00  0.00000000000E+00  0.97185760064E+03  0.97185760065E+03  0.50400001928E-02 0.  1.
       -1   -1    0    0    0  501  0.00000000000E+00  0.00000000000E+00 -0.67373040753E+03  0.67373040755E+03  0.50400001928E-02 0. -1.
    10030    2    1    2    0    0  0.00000000000E+00  0.00000000000E+00  0.29812719311E+03  0.16455880082E+04  0.16183572132E+04 0.  0.
        3    1    3    3  502    0 -0.63438637861E+03  0.50170982299E+03  0.17420169765E+03  0.82734821298E+03  0.10100000352E+00 0.  1.
       -3    1    3    3    0  502  0.63438637861E+03 -0.50170982299E+03  0.12392549546E+03  0.81823979522E+03  0.10100000352E+00 0. -1.
</event>
<event>
 5   0  0.3274900E-04  0.1590503E+04  0.7818609E-02  0.8826404E-01
        2   -1    0    0  501    0  0.00000000000E+00  0.00000000000E+00  0.26248393961E+04  0.26248393961E+04  0.25500000920E-02 0.  1.
       -2   -1    0    0    0  501  0.00000000000E+00  0.00000000000E+00 -0.24093841075E+03  0.24093841076E+03  0.25500000920E-02 0. -1.
    10030    2    1    2    0    0  0.00000000000E+00  0.00000000000E+00  0.23839009853E+04  0.28657778068E+04  0.15905026031E+04 0.  0.
        3    1    3    3  502    0 -0.35232642034E+02 -0.27455484805E+03 -0.15133567419E+03  0.31547456337E+03  0.10100000352E+00 0. -1.
       -3    1    3    3    0  502  0.35232642034E+02  0.27455484805E+03  0.25352366595E+04  0.25503032435E+04  0.10100000352E+00 0.  1.
</event>
<event>
 5   0  0.3210612E-04  0.1572621E+04  0.7818609E-02  0.8837547E-01
        2   -1    0    0  501    0  0.00000000000E+00  0.00000000000E+00  0.14854280518E+04  0.14854280518E+04  0.25500000920E-02 0. -1.
       -2   -1    0    0    0  501  0.00000000000E+00  0.00000000000E+00 -0.41623280434E+03  0.41623280434E+03  0.25500000920E-02 0.  1.
    10030    2    1    2    0    0  0.00000000000E+00  0.00000000000E+00  0.10691952474E+04  0.19016608561E+04  0.15726205946E+04 0.  0.
        2    1    3    3  502    0 -0.19302597864E+03  0.49971769537E+03 -0.16142677975E+03  0.55949567355E+03  0.25500000920E-02 0.  1.
       -2    1    3    3    0  502  0.19302597864E+03 -0.49971769537E+03  0.12306220272E+04  0.13421651826E+04  0.25500000920E-02 0. -1.
</event>
<event>
 5   0  0.1736537E-04  0.1605452E+04  0.7818609E-02  0.8817206E-01
        1   -1    0    0  501    0  0.00000000000E+00  0.00000000000E+00  0.91851624299E+03  0.91851624301E+03  0.50400001928E-02 0.  1.
       -1   -1    0    0    0  501  0.00000000000E+00  0.00000000000E+00 -0.70153228585E+03  0.70153228587E+03  0.50400001928E-02 0. -1.
    10030    2    1    2    0    0  0.00000000000E+00  0.00000000000E+00  0.21698395714E+03  0.16200485289E+04  0.16054517116E+04 0.  0.
        3    1    3    3  502    0  0.21450843797E+03 -0.67558308225E+03 -0.27168592964E+03  0.75910448922E+03  0.10100000352E+00 0. -1.
       -3    1    3    3    0  502 -0.21450843797E+03  0.67558308225E+03  0.48866988678E+03  0.86094403966E+03  0.10100000352E+00 0.  1.
</event>
<event>
 5   0  0.3380454E-04  0.1587909E+04  0.7818609E-02  0.8828010E-01
        2   -1    0    0  501    0  0.00000000000E+00  0.00000000000E+00  0.18109159649E+04  0.18109159649E+04  0.25500000920E-02 0. -1.
       -2   -1    0    0    0  501  0.00000000000E+00  0.00000000000E+00 -0.34809119881E+03  0.34809119882E+03  0.25500000920E-02 0.  1.
    10030    2    1    2    0    0  0.00000000000E+00  0.00000000000E+00  0.14628247661E+04  0.21590071637E+04  0.15879092029E+04 0.  0.
        5    1    3    3  502    0  0.15966216434E+03 -0.21310448295E+03 -0.28554730016E+03  0.39046751209E+03  0.46999998093E+01 0.  1.
       -5    1    3    3    0  502 -0.15966216434E+03  0.21310448295E+03  0.17483720662E+04  0.17685396516E+04  0.46999998093E+01 0. -1.
</event>
<event>
 5   0  0.1219463E-04  0.1602005E+04  0.7818609E-02  0.8819317E-01
        3   -1    0    0  501    0  0.00000000000E+00  0.00000000000E+00  0.12018135228E+04  0.12018135270E+04  0.10100000352E+00 0.  1.
       -3   -1    0    0    0  501  0.00000000000E+00  0.00000000000E+00 -0.53386414252E+03  0.53386415208E+03  0.10100000352E+00 0. -1.
    10030    2    1    2    0    0  0.00000000000E+00  0.00000000000E+00  0.66794938028E+03  0.17356776791E+04  0.16020051907E+04 0.  0.
        4    1    3    3  502    0  0.46758896164E+03  0.24128934625E+03 -0.32035853849E+03  0.61602856406E+03  0.12699999809E+01 0. -1.
       -4    1    3    3    0  502 -0.46758896164E+03 -0.24128934625E+03  0.98830791877E+03  0.11196491151E+04  0.12699999809E+01 0.  1.
</event>
<event>
 5   0  0.3380454E-04  0.1580010E+04  0.7818609E-02  0.8832923E-01
       -2   -1    0    0    0  501  0.00000000000E+00  0.00000000000E+00  0.73874319508E+03  0.73874319509E+03  0.25500000920E-02 0.  1.
        2   -1    0    0  501    0  0.00000000000E+00  0.00000000000E+00 -0.84482417344E+03  0.84482417344E+03  0.25500000920E-02 0. -1.
    10030    2    1    2    0    0  0.00000000000E+00  0.00000000000E+00 -0.10608097836E+03  0.15835673685E+04  0.15800102647E+04 0.  0.
        5    1    3    3  502    0  0.40989542804E+03 -0.49465497812E+03 -0.51384531225E+03  0.82265235928E+03  0.46999998093E+01 0. -1.
       -5    1    3    3    0  502 -0.40989542804E+03  0.49465497812E+03  0.40776433389E+03  0.76091500925E+03  0.46999998093E+01 0.  1.
</event>
<event>
 5   0  0.3228393E-04  0.1597822E+04  0.7818609E-02  0.8821887E-01
       -2   -1    0    0    0  501  0.00000000000E+00  0.00000000000E+00  0.56457699746E+03  0.56457699747E+03  0.25500000920E-02 0.  1.
        2   -1    0    0  501    0  0.00000000000E+00  0.00000000000E+00 -0.11305077941E+04  0.11305077941E+04  0.25500000920E-02 0. -1.
    10030    2    1    2    0    0  0.00000000000E+00  0.00000000000E+00 -0.56593079665E+03  0.16950847916E+04  0.15978218875E+04 0.  0.
        1    1    3    3  502    0  0.18817763595E+03 -0.67657908492E+03  0.12112611464E+03  0.71263006988E+03  0.50400001928E-02 0.  1.
       -1    1    3    3    0  502 -0.18817763595E+03  0.67657908492E+03 -0.68705691129E+03  0.98245472170E+03  0.50400001928E-02 0. -1.
</event>
<event>
 5   0  0.3263294E-04  0.1594587E+04  0.7818609E-02  0.8823881E-01
       -2   -1    0    0    0  501  0.00000000000E+00  0.00000000000E+00  0.37321514169E+03  0.37321514170E+03  0.25500000920E-02 0. -1.
        2   -1    0    0  501    0  0.00000000000E+00  0.00000000000E+00 -0.17032446673E+04  0.17032446673E+04  0.25500000920E-02 0.  1.
    10030    2    1    2    0    0  0.00000000000E+00  0.00000000000E+00 -0.13300295256E+04  0.20764598090E+04  0.15945867174E+04 0.  0.
        4    1    3    3  502    0  0.82424451579E+01 -0.59271825893E+02 -0.17003147799E+04  0.17013679940E+04  0.12699999809E+01 0.  1.
       -4    1    3    3    0  502 -0.82424451579E+01  0.59271825893E+02  0.37028525430E+03  0.37509181502E+03  0.12699999809E+01 0. -1.
</event>
<event>
 5   0  0.1736537E-04  0.1598840E+04  0.7818609E-02  0.8821261E-01
        1   -1    0    0  501    0  0.00000000000E+00  0.00000000000E+00  0.11711722155E+04  0.11711722155E+04  0.50400001928E-02 0. -1.
       -1   -1    0    0    0  501  0.00000000000E+00  0.00000000000E+00 -0.54566863345E+03  0.54566863347E+03  0.50400001928E-02 0.  1.
    10030    2    1    2    0    0  0.00000000000E+00  0.00000000000E+00  0.62550358208E+03  0.17168408490E+04  0.15988395072E+04 0.  0.
        3    1    3    3  502    0  0.51716115273E+03 -0.28617923559E+03  0.89073163820E+03  0.10689981638E+04  0.10100000352E+00 0. -1.
       -3    1    3    3    0  502 -0.51716115273E+03  0.28617923559E+03 -0.26522805613E+03  0.64784268518E+03  0.10100000352E+00 0.  1.
</event>
<event>
 5   0  0.1787688E-04  0.1602613E+04  0.7818609E-02  0.8818945E-01
       -1   -1    0    0    0  501  0.00000000000E+00  0.00000000000E+00  0.59153532663E+03  0.59153532665E+03  0.50400001928E-02 0.  1.
        1   -1    0    0  501    0  0.00000000000E+00  0.00000000000E+00 -0.10854666664E+04  0.10854666664E+04  0.50400001928E-02 0. -1.
    10030    2    1    2    0    0  0.00000000000E+00  0.00000000000E+00 -0.49393133979E+03  0.16770019931E+04  0.16026127156E+04 0.  0.
        4    1    3    3  502    0 -0.32714538562E+03  0.52675359195E+03 -0.77806437192E+03  0.99492674590E+03  0.12699999809E+01 0. -1.
       -4    1    3    3    0  502  0.32714538562E+03 -0.52675359195E+03  0.28413303213E+03  0.68207524717E+03  0.12699999809E+01 0.  1.
</event>
<event>
 5   0  0.3228393E-04  0.1552273E+04  0.7818609E-02  0.8850417E-01
       -2   -1    0    0    0  501  0.00000000000E+00  0.00000000000E+00  0.80967746212E+03  0.80967746213E+03  0.25500000920E-02 0. -1.
        2   -1    0    0  501    0  0.00000000000E+00  0.00000000000E+00 -0.74398492104E+03  0.74398492104E+03  0.25500000920E-02 0.  1.
    10030    2    1    2    0    0  0.00000000000E+00  0.00000000000E+00  0.65692541082E+02  0.15536623832E+04  0.15522729434E+04 0.  0.
        1    1    3    3  502    0  0.61636877720E+03 -0.32943343187E+03 -0.30502212619E+03  0.76254531212E+03  0.50400001928E-02 0. -1.
       -1    1    3    3    0  502 -0.61636877720E+03  0.32943343187E+03  0.37071466727E+03  0.79111707105E+03  0.50400001928E-02 0.  1.
</event>
<event>
 5   0  0.1819811E-04  0.1618336E+04  0.7818609E-02  0.8809362E-01
       -1   -1    0    0    0  501  0.00000000000E+00  0.00000000000E+00  0.21627303329E+03  0.21627303335E+03  0.50400001928E-02 0.  1.
        1   -1    0    0  501    0  0.00000000000E+00  0.00000000000E+00 -0.30274361918E+04  0.30274361918E+04  0.50400001928E-02 0. -1.
    10030    2    1    2    0    0  0.00000000000E+00  0.00000000000E+00 -0.28111631585E+04  0.32437092252E+04  0.16183359458E+04 0.  0.
        1    1    3    3  502    0  0.58474668489E+03 -0.26645194375E+03 -0.23912391557E+04  0.24760755287E+04  0.50400001928E-02 0. -1.
       -1    1    3    3    0  502 -0.58474668489E+03  0.26645194375E+03 -0.41992400276E+03  0.76763369646E+03  0.50400001928E-02 0.  1.
</event>
<event>
 5   0  0.3263294E-04  0.1620680E+04  0.7818609E-02  0.8807944E-01
        2   -1    0    0  501    0  0.00000000000E+00  0.00000000000E+00  0.73271200795E+03  0.73271200795E+03  0.25500000920E-02 0.  1.
       -2   -1    0    0    0  501  0.00000000000E+00  0.00000000000E+00 -0.89619195517E+03  0.89619195518E+03  0.25500000920E-02 0. -1.
    10030    2    1    2    0    0  0.00000000000E+00  0.00000000000E+00 -0.16347994722E+03  0.16289039631E+04  0.16206796192E+04 0.  0.
        4    1    3    3  502    0 -0.48081300615E+03  0.40950171337E+03 -0.59203309335E+03  0.86566598446E+03  0.12699999809E+01 0. -1.
       -4    1    3    3    0  502  0.48081300615E+03 -0.40950171337E+03  0.42855314612E+03  0.76323797867E+03  0.12699999809E+01 0.  1.
</event>
<event>
 5   0  0.3380454E-04  0.1602026E+04  0.7818609E-02  0.8819304E-01
       -2   -1    0    0    0  501  0.00000000000E+00  0.00000000000E+00  0.54646622054E+03  0.54646622055E+03  0.25500000920E-02 0. -1.
        2   -1    0    0  501    0  0.00000000000E+00  0.00000000000E+00 -0.11741286193E+04  0.11741286193E+04  0.25500000920E-02 0.  1.
    10030    2    1    2    0    0  0.00000000000E+00  0.00000000000E+00 -0.62766239879E+03  0.17205948399E+04  0.16020257539E+04 0.  0.
        5    1    3    3  502    0  0.19484148155E+02 -0.92524393502E+02  0.54043656216E+03  0.54866580278E+03  0.46999998093E+01 0. -1.
       -5    1    3    3    0  502 -0.19484148155E+02  0.92524393502E+02 -0.11680989609E+04  0.11719290371E+04  0.46999998093E+01 0.  1.
</event>
<event>
 5   0  0.3380454E-04  0.1598027E+04  0.7818609E-02  0.8821761E-01
        2   -1    0    0  501    0  0.00000000000E+00  0.00000000000E+00  0.16866689185E+04  0.16866689185E+04  0.25500000920E-02 0. -1.
       -2   -1    0    0    0  501  0.00000000000E+00  0.00000000000E+00 -0.37851094167E+03  0.37851094168E+03  0.25500000920E-02 0.  1.
    10030    2    1    2    0    0  0.00000000000E+00  0.00000000000E+00  0.13081579768E+04  0.20651798601E+04  0.15980270844E+04 0.  0.
        5    1    3    3  502    0 -0.19083160627E+03  0.51588848476E+03 -0.94852074630E+02  0.55819050218E+03  0.46999998093E+01 0.  1.
       -5    1    3    3    0  502  0.19083160627E+03 -0.51588848476E+03  0.14030100514E+04  0.15069893580E+04  0.46999998093E+01 0. -1.
</event>
<event>
 5   0  0.1787688E-04  0.1598651E+04  0.7818609E-02  0.8821377E-01
       -1   -1    0    0    0  501  0.00000000000E+00  0.00000000000E+00  0.12560459631E+04  0.12560459631E+04  0.50400001928E-02 0.  1.
        1   -1    0    0  501    0  0.00000000000E+00  0.00000000000E+00 -0.50867668906E+03  0.50867668909E+03  0.50400001928E-02 0. -1.
    10030    2    1    2    0    0  0.00000000000E+00  0.00000000000E+00  0.74736927402E+03  0.17647226522E+04  0.15986510587E+04 0.  0.
        4    1    3    3  502    0 -0.22954083503E+03 -0.74205296160E+03  0.58192991311E+03  0.97055428979E+03  0.12699999809E+01 0. -1.
       -4    1    3    3    0  502  0.22954083503E+03  0.74205296160E+03  0.16543936091E+03  0.79416836238E+03  0.12699999809E+01 0.  1.
</event>
<event>
 5   0  0.1787688E-04  0.1611586E+04  0.7818609E-02  0.8813462E-01
        1   -1    0    0  501    0  0.00000000000E+00  0.00000000000E+00  0.12545144528E+04  0.12545144528E+04  0.50400001928E-02 0.  1.
       -1   -1    0    0    0  501  0.00000000000E+00  0.00000000000E+00 -0.51757237945E+03  0.51757237948E+03  0.50400001928E-02 0. -1.
    10030    2    1    2    0    0  0.00000000000E+00  0.00000000000E+00  0.73694207334E+03  0.17720868323E+04  0.16115855924E+04 0.  0.
        4    1    3    3  502    0 -0.29321629349E+00 -0.59421582425E+02 -0.51515876724E+03  0.51857610704E+03  0.12699999809E+01 0. -1.
       -4    1    3    3    0  502  0.29321629349E+00  0.59421582425E+02  0.12521008406E+04  0.12535107252E+04  0.12699999809E+01 0.  1.
</event>
<event>
 5   0  0.1819811E-04  0.1603923E+04  0.7818609E-02  0.8818142E-01
        1   -1    0    0  501    0  0.00000000000E+00  0.00000000000E+00  0.11881839029E+04  0.11881839029E+04  0.50400001928E-02 0.  1.
       -1   -1    0    0    0  501  0.00000000000E+00  0.00000000000E+00 -0.54128144448E+03  0.54128144450E+03  0.50400001928E-02 0. -1.
    10030    2    1    2    0    0  0.00000000000E+00  0.00000000000E+00  0.64690245838E+03  0.17294653474E+04  0.16039225658E+04 0.  0.
        1    1    3    3  502    0 -0.32211443600E+03 -0.34669580316E+03 -0.37467179346E+03  0.60360139384E+03  0.50400001928E-02 0. -1.
       -1    1    3    3    0  502  0.32211443600E+03  0.34669580316E+03  0.10215742518E+04  0.11258639535E+04  0.50400001928E-02 0.  1.
</event>
<event>
 5   0  0.3380454E-04  0.1517446E+04  0.7818609E-02  0.8872934E-01
       -2   -1    0    0    0  501  0.00000000000E+00  0.00000000000E+00  0.22833161270E+03  0.22833161271E+03  0.25500000920E-02 0. -1.
        2   -1    0    0  501    0  0.00000000000E+00  0.00000000000E+00 -0.25211606761E+04  0.25211606761E+04  0.25500000920E-02 0.  1.
    10030    2    1    2    0    0  0.00000000000E+00  0.00000000000E+00 -0.22928290634E+04  0.27494922888E+04  0.15174461217E+04 0.  0.
        5    1    3    3  502    0 -0.24958957031E+03 -0.17414644284E+03 -0.24056886557E+04  0.24248674057E+04  0.46999998093E+01 0.  1.
       -5    1    3    3    0  502  0.24958957031E+03  0.17414644284E+03  0.11285959229E+03  0.32462488310E+03  0.46999998093E+01 0. -1.
</event>
<event>
 5   0  0.3263294E-04  0.1595792E+04  0.7818609E-02  0.8823138E-01
       -2   -1    0    0    0  501  0.00000000000E+00  0.00000000000E+00  0.44980335529E+03  0.44980335530E+03  0.25500000920E-02 0.  1.
        2   -1    0    0  501    0  0.00000000000E+00  0.00000000000E+00 -0.14153688599E+04  0.14153688599E+04  0.25500000920E-02 0. -1.
    10030    2    1    2    0    0  0.00000000000E+00  0.00000000000E+00 -0.96556550464E+03  0.18651722152E+04  0.15957915430E+04 0.  0.
        4    1    3    3  502    0  0.31012891292E+03 -0.91990992719E+02  0.36972050857E+03  0.49126077873E+03  0.12699999809E+01 0.  1.
       -4    1    3    3    0  502 -0.31012891292E+03  0.91990992719E+02 -0.13352860132E+04  0.13739114365E+04  0.12699999809E+01 0. -1.
</event>
<event>
 5   0  0.3228393E-04  0.1612666E+04  0.7818609E-02  0.8812804E-01
        2   -1    0    0  501    0  0.00000000000E+00  0.00000000000E+00  0.93871845086E+03  0.93871845087E+03  0.25500000920E-02 0.  1.
       -2   -1    0    0    0  501  0.00000000000E+00  0.00000000000E+00 -0.69261751503E+03  0.69261751504E+03  0.25500000920E-02 0. -1.
    10030    2    1    2    0    0  0.00000000000E+00  0.00000000000E+00  0.24610093583E+03  0.16313359659E+04  0.16126659180E+04 0.  0.
        1    1    3    3  502    0 -0.49738187672E+03  0.51792921688E+03  0.49408481975E+03  0.87164167759E+03  0.50400001928E-02 0.  1.
       -1    1    3    3    0  502  0.49738187672E+03 -0.51792921688E+03 -0.24798388392E+03  0.75969428831E+03  0.50400001928E-02 0. -1.
</event>
<event>
 5   0  0.3228393E-04  0.1596774E+04  0.7818609E-02  0.8822532E-01
        2   -1    0    0  501    0  0.00000000000E+00  0.00000000000E+00  0.16519083379E+04  0.16519083379E+04  0.25500000920E-02 0. -1.
       -2   -1    0    0    0  501  0.00000000000E+00  0.00000000000E+00 -0.38587003221E+03  0.38587003222E+03  0.25500000920E-02 0.  1.
    10030    2    1    2    0    0  0.00000000000E+00  0.00000000000E+00  0.12660383057E+04  0.20377783701E+04  0.15967741525E+04 0.  0.
        1    1    3    3  502    0  0.32086405858E+03  0.40230609871E+02 -0.29855151986E+03  0.44011959294E+03  0.50400001928E-02 0.  1.
       -1    1    3    3    0  502 -0.32086405858E+03 -0.40230609871E+02  0.15645898255E+04  0.15976587772E+04  0.50400001928E-02 0. -1.
</event>
<event>
 5   0  0.1761255E-04  0.1577844E+04  0.7818609E-02  0.8834276E-01
        1   -1    0    0  501    0  0.00000000000E+00  0.00000000000E+00  0.12004830536E+04  0.12004830536E+04  0.50400001928E-02 0. -1.
       -1   -1    0    0    0  501  0.00000000000E+00  0.00000000000E+00 -0.51845601760E+03  0.51845601763E+03  0.50400001928E-02 0.  1.
    10030    2    1    2    0    0  0.00000000000E+00  0.00000000000E+00  0.68202703595E+03  0.17189390712E+04  0.15778436718E+04 0.  0.
        2    1    3    3  502    0 -0.65685809040E+03 -0.39982561283E+03  0.53305684684E+03  0.93566696723E+03  0.25500000920E-02 0. -1.
       -2    1    3    3    0  502  0.65685809040E+03  0.39982561283E+03  0.14897018911E+03  0.78327210396E+03  0.25500000920E-02 0.  1.
</event>
<event>
 5   0  0.1764099E-04  0.1596048E+04  0.7818609E-02  0.8822979E-01
        1   -1    0    0  501    0  0.00000000000E+00  0.00000000000E+00  0.99883887251E+03  0.99883887253E+03  0.50400001928E-02 0. -1.
       -1   -1    0    0    0  501  0.00000000000E+00  0.00000000000E+00 -0.63758286402E+03  0.63758286404E+03  0.50400001928E-02 0.  1.
    10030    2    1    2    0    0  0.00000000000E+00  0.00000000000E+00  0.36125600849E+03  0.16364217366E+04  0.15960483064E+04 0.  0.
        5    1    3    3  502    0 -0.68349250077E+03  0.21480557299E+03 -0.17971211800E+03  0.73866228288E+03  0.46999998093E+01 0.  1.
       -5    1    3    3    0  502  0.68349250077E+03 -0.21480557299E+03  0.54096812649E+03  0.89775945368E+03  0.46999998093E+01 0. -1.
</event>
<event>
 5   0  0.3380454E-04  0.1593835E+04  0.7818609E-02  0.8824345E-01
        2   -1    0    0  501    0  0.00000000000E+00  0.00000000000E+00  0.58142642741E+03  0.58142642741E+03  0.25500000920E-02 0.  1.
       -2   -1    0    0    0  501  0.00000000000E+00  0.00000000000E+00 -0.10922745491E+04  0.10922745491E+04  0.25500000920E-02 0. -1.
    10030    2    1    2    0    0  0.00000000000E+00  0.00000000000E+00 -0.51084812171E+03  0.16737009765E+04  0.15938347328E+04 0.  0.
        5    1    3    3  502    0 -0.39332697879E+03  0.61486825099E+03  0.80424070618E+02  0.73434269891E+03  0.46999998093E+01 0.  1.
       -5    1    3    3    0  502  0.39332697879E+03 -0.61486825099E+03 -0.59127219233E+03  0.93935827762E+03  0.46999998093E+01 0. -1.
</event>
<event>
 5   0  0.1787688E-04  0.1605200E+04  0.7818609E-02  0.8817360E-01
       -1   -1    0    0    0  501  0.00000000000E+00  0.00000000000E+00  0.72463329273E+03  0.72463329274E+03  0.50400001928E-02 0. -1.
        1   -1    0    0  501    0  0.00000000000E+00  0.00000000000E+00 -0.88895520328E+03  0.88895520330E+03  0.50400001928E-02 0.  1.
    10030    2    1    2    0    0  0.00000000000E+00  0.00000000000E+00 -0.16432191056E+03  0.16135884960E+04  0.16051997210E+04 0.  0.
        4    1    3    3  502    0  0.20488832423E+03 -0.71726263081E+03 -0.37988442039E+03  0.83711330937E+03  0.12699999809E+01 0.  1.
       -4    1    3    3    0  502 -0.20488832423E+03  0.71726263081E+03  0.21556250983E+03  0.77647518667E+03  0.12699999809E+01 0. -1.
</event>
<event>
 5   0  0.3210612E-04  0.1603819E+04  0.7818609E-02  0.8818206E-01
        2   -1    0    0  501    0  0.00000000000E+00  0.00000000000E+00  0.92374887464E+03  0.92374887464E+03  0.25500000920E-02 0.  1.
       -2   -1    0    0    0  501  0.00000000000E+00  0.00000000000E+00 -0.69613996218E+03  0.69613996218E+03  0.25500000920E-02 0. -1.
    10030    2    1    2    0    0  0.00000000000E+00  0.00000000000E+00  0.22760891246E+03  0.16198888368E+04  0.16038185766E+04 0.  0.
        2    1    3    3  502    0  0.48875029197E+03 -0.52092300507E+03  0.48190219728E+03  0.86166545298E+03  0.25500000920E-02 0.  1.
       -2    1    3    3    0  502 -0.48875029197E+03  0.52092300507E+03 -0.25429328481E+03  0.75822338385E+03  0.25500000920E-02 0. -1.
</event>
<event>
 5   0  0.1819811E-04  0.1595317E+04  0.7818609E-02  0.8823430E-01
       -1   -1    0    0    0  501  0.00000000000E+00  0.00000000000E+00  0.56471349940E+03  0.56471349942E+03  0.50400001928E-02 0.  1.
        1   -1    0    0  501    0  0.00000000000E+00  0.00000000000E+00 -0.11266932180E+04  0.11266932180E+04  0.50400001928E-02 0. -1.
    10030    2    1    2    0    0  0.00000000000E+00  0.00000000000E+00 -0.56197971862E+03  0.16914067174E+04  0.15953167333E+04 0.  0.
        1    1    3    3  502    0 -0.26972813090E+03  0.29728934186E+03  0.44982086704E+03  0.60288724471E+03  0.50400001928E-02 0.  1.
       -1    1    3    3    0  502  0.26972813090E+03 -0.29728934186E+03 -0.10118005857E+04  0.10885194727E+04  0.50400001928E-02 0. -1.
</event>
<event>
 5   0  0.3274900E-04  0.1597320E+04  0.7818609E-02  0.8822196E-01
       -2   -1    0    0    0  501  0.00000000000E+00  0.00000000000E+00  0.48857247447E+03  0.48857247447E+03  0.25500000920E-02 0.  1.
        2   -1    0    0  501    0  0.00000000000E+00  0.00000000000E+00 -0.13055541790E+04  0.13055541790E+04  0.25500000920E-02 0. -1.
    10030    2    1    2    0    0  0.00000000000E+00  0.00000000000E+00 -0.81698170458E+03  0.17941266535E+04  0.15973200504E+04 0.  0.
        3    1    3    3  502    0 -0.66669601959E+03 -0.30120248643E+03 -0.76835898707E+03  0.10609345237E+04  0.10100000352E+00 0. -1.
       -3    1    3    3    0  502  0.66669601959E+03  0.30120248643E+03 -0.48622717515E+02  0.73319212982E+03  0.10100000352E+00 0.  1.
</event>
<event>
 5   0  0.3380454E-04  0.1569906E+04  0.7818609E-02  0.8839252E-01
        2   -1    0    0  501    0  0.00000000000E+00  0.00000000000E+00  0.10168861647E+04  0.10168861647E+04  0.25500000920E-02 0. -1.
       -2   -1    0    0    0  501  0.00000000000E+00  0.00000000000E+00 -0.60591948415E+03  0.60591948416E+03  0.25500000920E-02 0.  1.
    10030    2    1    2    0    0  0.00000000000E+00  0.00000000000E+00  0.41096668057E+03  0.16228056489E+04  0.15699059085E+04 0.  0.
        5    1    3    3  502    0 -0.15768436129E+03 -0.26133373722E+03 -0.54205076847E+03  0.62209388809E+03  0.46999998093E+01 0.  1.
       -5    1    3    3    0  502  0.15768436129E+03  0.26133373722E+03  0.95301744904E+03  0.10007117608E+04  0.46999998093E+01 0. -1.
</event>
<event>
 5   0  0.1819811E-04  0.1595603E+04  0.7818609E-02  0.8823254E-01
        1   -1    0    0  501    0  0.00000000000E+00  0.00000000000E+00  0.12015883104E+04  0.12015883104E+04  0.50400001928E-02 0.  1.
       -1   -1    0    0    0  501  0.00000000000E+00  0.00000000000E+00 -0.52970509309E+03  0.52970509312E+03  0.50400001928E-02 0. -1.
    10030    2    1    2    0    0  0.00000000000E+00  0.00000000000E+00  0.67188321727E+03  0.17312934035E+04  0.15956032688E+04 0.  0.
        1    1    3    3  502    0  0.53365500714E+02  0.21312983594E+03  0.11681151332E+04  0.11885979842E+04  0.50400001928E-02 0.  1.
       -1    1    3    3    0  502 -0.53365500714E+02 -0.21312983594E+03 -0.49623191596E+03  0.54269541925E+03  0.50400001928E-02 0. -1.
</event>
<event>
 5   0  0.1787688E-04  0.1603905E+04  0.7818609E-02  0.8818153E-01
       -1   -1    0    0    0  501  0.00000000000E+00  0.00000000000E+00  0.12915517990E+04  0.12915517991E+04  0.50400001928E-02 0.  1.
        1   -1    0    0  501    0  0.00000000000E+00  0.00000000000E+00 -0.49794972289E+03  0.49794972292E+03  0.50400001928E-02 0. -1.
    10030    2    1    2    0    0  0.00000000000E+00  0.00000000000E+00  0.79360207615E+03  0.17895015220E+04  0.16039050601E+04 0.  0.
        4    1    3    3  502    0  0.58221799326E+02 -0.26155236243E+03  0.12401274940E+04  0.12687463224E+04  0.12699999809E+01 0.  1.
       -4    1    3    3    0  502 -0.58221799326E+02  0.26155236243E+03 -0.44652541787E+03  0.52075519960E+03  0.12699999809E+01 0. -1.
</event>
<event>
 5   0  0.1219463E-04  0.1619167E+04  0.7818609E-02  0.8808859E-01
        3   -1    0    0  501    0  0.00000000000E+00  0.00000000000E+00  0.10039210358E+04  0.10039210409E+04  0.10100000352E+00 0.  1.
       -3   -1    0    0    0  501  0.00000000000E+00  0.00000000000E+00 -0.65286556683E+03  0.65286557464E+03  0.10100000352E+00 0. -1.
    10030    2    1    2    0    0  0.00000000000E+00  0.00000000000E+00  0.35105546897E+03  0.16567866155E+04  0.16191670535E+04 0.  0.
        2    1    3    3  502    0 -0.79126739502E+03  0.16074990326E+03  0.23589736327E+03  0.84118499025E+03  0.25500000920E-02 0.  1.
       -2    1    3    3    0  502  0.79126739502E+03 -0.16074990326E+03  0.11515810570E+03  0.81560162526E+03  0.25500000920E-02 0. -1.
</event>
<event>
 5   0  0.1764099E-04  0.1608414E+04  0.7818609E-02  0.8815396E-01
        1   -1    0    0  501    0  0.00000000000E+00  0.00000000000E+00  0.25503812148E+04  0.25503812148E+04  0.50400001928E-02 0.  1.
       -1   -1    0    0    0  501  0.00000000000E+00  0.00000000000E+00 -0.25358912120E+03  0.25358912125E+03  0.50400001928E-02 0. -1.
    10030    2    1    2    0    0  0.00000000000E+00  0.00000000000E+00  0.22967920936E+04  0.28039703360E+04  0.16084140401E+04 0.  0.
        5    1    3    3  502    0  0.25315283040E+03 -0.51071815472E+03  0.15944770257E+03  0.59191642058E+03  0.46999998093E+01 0. -1.
       -5    1    3    3    0  502 -0.25315283040E+03  0.51071815472E+03  0.21373443910E+04  0.22120539155E+04  0.46999998093E+01 0.  1.
</event>
<event>
 5   0  0.3380454E-04  0.1599485E+04  0.7818609E-02  0.8820865E-01
        2   -1    0    0  501    0  0.00000000000E+00  0.00000000000E+00  0.95951805089E+03  0.95951805089E+03  0.25500000920E-02 0. -1.
       -2   -1    0    0    0  501  0.00000000000E+00  0.00000000000E+00 -0.66657198418E+03  0.66657198418E+03  0.25500000920E-02 0.  1.
    10030    2    1    2    0    0  0.00000000000E+00  0.00000000000E+00  0.29294606671E+03  0.16260900351E+04  0.15994847308E+04 0.  0.
        5    1    3    3  502    0 -0.72754753611E+03  0.25867271600E+03 -0.65144997495E+02  0.77492125536E+03  0.46999998093E+01 0.  1.
       -5    1    3    3    0  502  0.72754753611E+03 -0.25867271600E+03  0.35809106421E+03  0.85116877972E+03  0.46999998093E+01 0. -1.
</event>
<event>
 5   0  0.3380454E-04  0.1602944E+04  0.7818609E-02  0.8818741E-01
       -2   -1    0    0    0  501  0.00000000000E+00  0.00000000000E+00  0.27922480373E+03  0.27922480375E+03  0.25500000920E-02 0. -1.
        2   -1    0    0  501    0  0.00000000000E+00  0.00000000000E+00 -0.23005033645E+04  0.23005033645E+04  0.25500000920E-02 0.  1.
    10030    2    1    2    0    0  0.00000000000E+00  0.00000000000E+00 -0.20212785608E+04  0.25797281683E+04  0.16029442916E+04 0.  0.
        5    1    3    3  502    0 -0.59149302473E+03 -0.17071779240E+03 -0.18478548507E+03  0.64278793426E+03  0.46999998093E+01 0. -1.
       -5    1    3    3    0  502  0.59149302473E+03  0.17071779240E+03 -0.18364930757E+04  0.19369402340E+04  0.46999998093E+01 0.  1.
</event>
<event>
 5   0  0.3274900E-04  0.1590333E+04  0.7818609E-02  0.8826509E-01
        2   -1    0    0  501    0  0.00000000000E+00  0.00000000000E+00  0.14127950328E+04  0.14127950328E+04  0.25500000920E-02 0.  1.
       -2   -1    0    0    0  501  0.00000000000E+00  0.00000000000E+00 -0.44754555489E+03  0.44754555490E+03  0.25500000920E-02 0. -1.
    10030    2    1    2    0    0  0.00000000000E+00  0.00000000000E+00  0.96524947786E+03  0.18603405877E+04  0.15903334706E+04 0.  0.
        3    1    3    3  502    0  0.31211894992E+03 -0.46214152297E+03  0.11456921222E+04  0.12742069986E+04  0.10100000352E+00 0.  1.
       -3    1    3    3    0  502 -0.31211894992E+03  0.46214152297E+03 -0.18044264433E+03  0.58613358908E+03  0.10100000352E+00 0. -1.
</event>
<event>
 5   0  0.3380454E-04  0.1598078E+04  0.7818609E-02  0.8821730E-01
        2   -1    0    0  501    0  0.00000000000E+00  0.00000000000E+00  0.11419682832E+04  0.11419682832E+04  0.25500000920E-02 0. -1.
       -2   -1    0    0    0  501  0.00000000000E+00  0.00000000000E+00 -0.55909014209E+03  0.55909014210E+03  0.25500000920E-02 0.  1.
    10030    2    1    2    0    0  0.00000000000E+00  0.00000000000E+00  0.58287814108E+03  0.17010584253E+04  0.15980778576E+04 0.  0.
        5    1    3    3  502    0  0.75326661794E+03 -0.14591339879E+03  0.52883502983E+03  0.93187439949E+03  0.46999998093E+01 0. -1.
       -5    1    3    3    0  502 -0.75326661794E+03  0.14591339879E+03  0.54043111259E+02  0.76918402579E+03  0.46999998093E+01 0.  1.
</event>
<event>
 5   0  0.1761255E-04  0.1599789E+04  0.7818609E-02  0.8820677E-01
        1   -1    0    0  501    0  0.00000000000E+00  0.00000000000E+00  0.16268739013E+04  0.16268739013E+04  0.50400001928E-02 0. -1.
       -1   -1    0    0    0  501  0.00000000000E+00  0.00000000000E+00 -0.39328888930E+03  0.39328888933E+03  0.50400001928E-02 0.  1.
    10030    2    1    2    0    0  0.00000000000E+00  0.00000000000E+00  0.12335850120E+04  0.20201627907E+04  0.15997892733E+04 0.  0.
        2    1    3    3  502    0 -0.18353075992E+01 -0.79001863218E+03  0.45857506517E+03  0.91346806072E+03  0.25500000920E-02 0. -1.
       -2    1    3    3    0  502  0.18353075992E+01  0.79001863218E+03  0.77500994687E+03  0.11066947299E+04  0.25500000920E-02 0.  1.
</event>
<event>
 5   0  0.3274900E-04  0.1731837E+04  0.7818609E-02  0.8743412E-01
       -2   -1    0    0    0  501  0.00000000000E+00  0.00000000000E+00  0.12240679693E+04  0.12240679693E+04  0.25500000920E-02 0.  1.
        2   -1    0    0  501    0  0.00000000000E+00  0.00000000000E+00 -0.61255968839E+03  0.61255968840E+03  0.25500000920E-02 0. -1.
    10030    2    1    2    0    0  0.00000000000E+00  0.00000000000E+00  0.61150828090E+03  0.18366276577E+04  0.17318368212E+04 0.  0.
        3    1    3    3  502    0  0.62646264986E+03 -0.49783996468E+03  0.65670811456E+03  0.10351645473E+04  0.10100000352E+00 0.  1.
       -3    1    3    3    0  502 -0.62646264986E+03  0.49783996468E+03 -0.45199833660E+02  0.80146311036E+03  0.10100000352E+00 0. -1.
</event>
<event>
 5   0  0.3210612E-04  0.1573487E+04  0.7818609E-02  0.8837004E-01
       -2   -1    0    0    0  501  0.00000000000E+00  0.00000000000E+00  0.45806382594E+03  0.45806382595E+03  0.25500000920E-02 0.  1.
        2   -1    0    0  501    0  0.00000000000E+00  0.00000000000E+00 -0.13512642454E+04  0.13512642454E+04  0.25500000920E-02 0. -1.
    10030    2    1    2    0    0  0.00000000000E+00  0.00000000000E+00 -0.89320041950E+03  0.18093280714E+04  0.15734869178E+04 0.  0.
        2    1    3    3  502    0  0.51043450257E+03  0.17565080788E+03  0.21152021857E+03  0.57977356838E+03  0.25500000920E-02 0.  1.
       -2    1    3    3    0  502 -0.51043450257E+03 -0.17565080788E+03 -0.11047206381E+04  0.12295545030E+04  0.25500000920E-02 0. -1.
</event>
<event>
 5   0  0.3274900E-04  0.1609826E+04  0.7818609E-02  0.8814534E-01
        2   -1    0    0  501    0  0.00000000000E+00  0.00000000000E+00  0.32482276739E+04  0.32482276739E+04  0.25500000920E-02 0.  1.
       -2   -1    0    0    0  501  0.00000000000E+00  0.00000000000E+00 -0.19945785900E+03  0.19945785902E+03  0.25500000920E-02 0. -1.
    10030    2    1    2    0    0  0.00000000000E+00  0.00000000000E+00  0.30487698149E+04  0.34476855329E+04  0.16098255029E+04 0.  0.
        3    1    3    3  502    0  0.45553855589E+03 -0.42144928048E+03  0.42659326343E+03  0.75307150691E+03  0.10100000352E+00 0. -1.
       -3    1    3    3    0  502 -0.45553855589E+03  0.42144928048E+03  0.26221765515E+04  0.26946140260E+04  0.10100000352E+00 0.  1.
</event>
<event>
 5   0  0.1761255E-04  0.1596160E+04  0.7818609E-02  0.8822911E-01
        1   -1    0    0  501    0  0.00000000000E+00  0.00000000000E+00  0.77076247686E+03  0.77076247688E+03  0.50400001928E-02 0.  1.
       -1   -1    0    0    0  501  0.00000000000E+00  0.00000000000E+00 -0.82636540916E+03  0.82636540917E+03  0.50400001928E-02 0. -1.
    10030    2    1    2    0    0  0.00000000000E+00  0.00000000000E+00 -0.55602932293E+02  0.15971278860E+04  0.15961597033E+04 0.  0.
        2    1    3    3  502    0 -0.60326112984E+03  0.14088500534E+03  0.47565268711E+03  0.78103652556E+03  0.25500000920E-02 0.  1.
       -2    1    3    3    0  502  0.60326112984E+03 -0.14088500534E+03 -0.53125561940E+03  0.81609136049E+03  0.25500000920E-02 0. -1.
</event>
<event>
 5   0  0.3210612E-04  0.1603079E+04  0.7818609E-02  0.8818658E-01
        2   -1    0    0  501    0  0.00000000000E+00  0.00000000000E+00  0.19659952487E+04  0.19659952487E+04  0.25500000920E-02 0.  1.
       -2   -1    0    0    0  501  0.00000000000E+00  0.00000000000E+00 -0.32678917421E+03  0.32678917422E+03  0.25500000920E-02 0. -1.
    10030    2    1    2    0    0  0.00000000000E+00  0.00000000000E+00  0.16392060745E+04  0.22927844229E+04  0.16030794912E+04 0.  0.
        2    1    3    3  502    0  0.14909652584E+03  0.91235329708E+02 -0.29919773502E+03  0.34651543119E+03  0.25500000920E-02 0. -1.
       -2    1    3    3    0  502 -0.14909652584E+03 -0.91235329708E+02  0.19384038095E+04  0.19462689917E+04  0.25500000920E-02 0.  1.
</event>
<event>
 5   0  0.1787688E-04  0.1596249E+04  0.7818609E-02  0.8822856E-01
        1   -1    0    0  501    0  0.00000000000E+00  0.00000000000E+00  0.17776935680E+04  0.17776935680E+04  0.50400001928E-02 0.  1.
       -1   -1    0    0    0  501  0.00000000000E+00  0.00000000000E+00 -0.35833094223E+03  0.35833094227E+03  0.50400001928E-02 0. -1.
    10030    2    1    2    0    0  0.00000000000E+00  0.00000000000E+00  0.14193626258E+04  0.21360245103E+04  0.15962488669E+04 0.  0.
        4    1    3    3  502    0 -0.20031542845E+03 -0.12127872101E+03 -0.31132663574E+03  0.38956473924E+03  0.12699999809E+01 0. -1.
       -4    1    3    3    0  502  0.20031542845E+03  0.12127872101E+03  0.17306892615E+04  0.17464597711E+04  0.12699999809E+01 0.  1.
</event>
<event>
 5   0  0.1787688E-04  0.1604450E+04  0.7818609E-02  0.8817819E-01
       -1   -1    0    0    0  501  0.00000000000E+00  0.00000000000E+00  0.47000976347E+03  0.47000976350E+03  0.50400001928E-02 0.  1.
        1   -1    0    0  501    0  0.00000000000E+00  0.00000000000E+00 -0.13692582208E+04  0.13692582208E+04  0.50400001928E-02 0. -1.
    10030    2    1    2    0    0  0.00000000000E+00  0.00000000000E+00 -0.89924845736E+03  0.18392679843E+04  0.16044497282E+04 0.  0.
        4    1    3    3  502    0  0.35292685151E+02 -0.38377688405E+03  0.35693433485E+03  0.52529420580E+03  0.12699999809E+01 0.  1.
       -4    1    3    3    0  502 -0.35292685151E+02  0.38377688405E+03 -0.12561827922E+04  0.13139737785E+04  0.12699999809E+01 0. -1.
</event>
<event>
 5   0  0.3263294E-04  0.1598610E+04  0.7818609E-02  0.8821402E-01
        2   -1    0    0  501    0  0.00000000000E+00  0.00000000000E+00  0.81845509654E+03  0.81845509655E+03  0.25500000920E-02 0. -1.
       -2   -1    0    0    0  501  0.00000000000E+00  0.00000000000E+00 -0.78060339394E+03  0.78060339395E+03  0.25500000920E-02 0.  1.
    10030    2    1    2    0    0  0.00000000000E+00  0.00000000000E+00  0.37851702599E+02  0.15990584905E+04  0.15986104293E+04 0.  0.
        4    1    3    3  502    0  0.50685601721E+03 -0.44302221492E+03  0.44999385992E+03  0.80973316096E+03  0.12699999809E+01 0. -1.
       -4    1    3    3    0  502 -0.50685601721E+03  0.44302221492E+03 -0.41214215732E+03  0.78932532953E+03  0.12699999809E+01 0.  1.
</event>
<event>
 5   0  0.1736537E-04  0.1580831E+04  0.7818609E-02  0.8832412E-01
        1   -1    0    0  501    0  0.00000000000E+00  0.00000000000E+00  0.66456358912E+03  0.66456358914E+03  0.50400001928E-02 0. -1.
       -1   -1    0    0    0  501  0.00000000000E+00  0.00000000000E+00 -0.94010022159E+03  0.94010022160E+03  0.50400001928E-02 0.  1.
    10030    2    1    2    0    0  0.00000000000E+00  0.00000000000E+00 -0.27553663247E+03  0.16046638107E+04  0.15808306392E+04 0.  0.
        3    1    3    3  502    0 -0.65614473371E+03  0.14973980870E+03  0.28297862519E+03  0.73008549800E+03  0.10100000352E+00 0. -1.
       -3    1    3    3    0  502  0.65614473371E+03 -0.14973980870E+03 -0.55851525766E+03  0.87457831274E+03  0.10100000352E+00 0.  1.
</event>
<event>
 5   0  0.1219463E-04  0.1604996E+04  0.7818609E-02  0.8817485E-01
       -4   -1    0    0    0  501  0.00000000000E+00  0.00000000000E+00  0.74761776698E+03  0.74761884567E+03  0.12699999809E+01 0. -1.
        4   -1    0    0  501    0  0.00000000000E+00  0.00000000000E+00 -0.86140429612E+03  0.86140523233E+03  0.12699999809E+01 0.  1.
    10030    2    1    2    0    0  0.00000000000E+00  0.00000000000E+00 -0.11378652915E+03  0.16090240780E+04  0.16049956727E+04 0.  0.
        5    1    3    3  502    0  0.58817248848E+03 -0.91656952398E+02 -0.59641948936E+03  0.84266610850E+03  0.46999998093E+01 0.  1.
       -5    1    3    3    0  502 -0.58817248848E+03  0.91656952398E+02  0.48263296021E+03  0.76635796950E+03  0.46999998093E+01 0. -1.
</event>
<event>
 5   0  0.3228393E-04  0.1598073E+04  0.7818609E-02  0.8821733E-01
       -2   -1    0    0    0  501  0.00000000000E+00  0.00000000000E+00  0.83616964403E+03  0.83616964404E+03  0.25500000920E-02 0.  1.
        2   -1    0    0  501    0  0.00000000000E+00  0.00000000000E+00 -0.76355270423E+03  0.76355270423E+03  0.25500000920E-02 0. -1.
    10030    2    1    2    0    0  0.00000000000E+00  0.00000000000E+00  0.72616939806E+02  0.15997223483E+04  0.15980733311E+04 0.  0.
        1    1    3    3  502    0  0.27148764589E+03  0.39586043183E+03 -0.60313747536E+03  0.77083450725E+03  0.50400001928E-02 0. -1.
       -1    1    3    3    0  502 -0.27148764589E+03 -0.39586043183E+03  0.67575441516E+03  0.82888784102E+03  0.50400001928E-02 0.  1.
</event>
<event>
 5   0  0.3274900E-04  0.1637339E+04  0.7818609E-02  0.8797932E-01
        2   -1    0    0  501    0  0.00000000000E+00  0.00000000000E+00  0.87644911957E+03  0.87644911957E+03  0.25500000920E-02 0. -1.
       -2   -1    0    0    0  501  0.00000000000E+00  0.00000000000E+00 -0.76469926233E+03  0.76469926234E+03  0.25500000920E-02 0.  1.
    10030    2    1    2    0    0  0.00000000000E+00  0.00000000000E+00  0.11174985724E+03  0.16411483819E+04  0.16373392992E+04 0.  0.
        3    1    3    3  502    0 -0.65480146198E+03 -0.43210947783E+03  0.29037738467E+03  0.83654204388E+03  0.10100000352E+00 0.  1.
       -3    1    3    3    0  502  0.65480146198E+03  0.43210947783E+03 -0.17862752743E+03  0.80460633803E+03  0.10100000352E+00 0. -1.
</event>
<event>
 5   0  0.3210612E-04  0.1584499E+04  0.7818609E-02  0.8830128E-01
        2   -1    0    0  501    0  0.00000000000E+00  0.00000000000E+00  0.16768128375E+04  0.16768128375E+04  0.25500000920E-02 0.  1.
       -2   -1    0    0    0  501  0.00000000000E+00  0.00000000000E+00 -0.37431694157E+03  0.37431694158E+03  0.25500000920E-02 0. -1.
    10030    2    1    2    0    0  0.00000000000E+00  0.00000000000E+00  0.13024958959E+04  0.20511297791E+04  0.15844992306E+04 0.  0.
        2    1    3    3  502    0  0.91924578984E+02  0.31230553508E+03  0.15862249828E+04  0.16192882917E+04  0.25500000920E-02 0.  1.
       -2    1    3    3    0  502 -0.91924578984E+02 -0.31230553508E+03 -0.28372908691E+03  0.43184148738E+03  0.25500000920E-02 0. -1.
</event>
<event>
 5   0  0.1819811E-04  0.1632577E+04  0.7818609E-02  0.8800781E-01
       -1   -1    0    0    0  501  0.00000000000E+00  0.00000000000E+00  0.41805663502E+03  0.41805663506E+03  0.50400001928E-02 0.  1.
        1   -1    0    0  501    0  0.00000000000E+00  0.00000000000E+00 -0.15938684379E+04  0.15938684379E+04  0.50400001928E-02 0. -1.
    10030    2    1    2    0    0  0.00000000000E+00  0.00000000000E+00 -0.11758118028E+04  0.20119250729E+04  0.16325774418E+04 0.  0.
        1    1    3    3  502    0  0.37692784485E+02 -0.81053750783E+03 -0.69768623941E+03  0.10701205008E+04  0.50400001928E-02 0. -1.
       -1    1    3    3    0  502 -0.37692784485E+02  0.81053750783E+03 -0.47812556342E+03  0.94180457210E+03  0.50400001928E-02 0.  1.
</event>
<event>
 5   0  0.3263294E-04  0.1570905E+04  0.7818609E-02  0.8838624E-01
        2   -1    0    0  501    0  0.00000000000E+00  0.00000000000E+00  0.22486729713E+04  0.22486729713E+04  0.25500000920E-02 0. -1.
       -2   -1    0    0    0  501  0.00000000000E+00  0.00000000000E+00 -0.27435537213E+03  0.27435537214E+03  0.25500000920E-02 0.  1.
    10030    2    1    2    0    0  0.00000000000E+00  0.00000000000E+00  0.19743175991E+04  0.25230283434E+04  0.15709048473E+04 0.  0.
        4    1    3    3  502    0  0.74444714729E+03 -0.69494863752E+02  0.13736343762E+04  0.15639386508E+04  0.12699999809E+01 0. -1.
       -4    1    3    3    0  502 -0.74444714729E+03  0.69494863752E+02  0.60068322297E+03  0.95908969260E+03  0.12699999809E+01 0.  1.
</event>
<event>
 5   0  0.1736537E-04  0.1596679E+04  0.7818609E-02  0.8822591E-01
        1   -1    0    0  501    0  0.00000000000E+00  0.00000000000E+00  0.63621673090E+03  0.63621673092E+03  0.50400001928E-02 0. -1.
       -1   -1    0    0    0  501  0.00000000000E+00  0.00000000000E+00 -0.10017742840E+04  0.10017742840E+04  0.50400001928E-02 0.  1.
    10030    2    1    2    0    0  0.00000000000E+00  0.00000000000E+00 -0.36555755307E+03  0.16379910149E+04  0.15966785025E+04 0.  0.
        3    1    3    3  502    0  0.36221043547E+03  0.58508410924E+03 -0.59800531243E+03  0.91166341286E+03  0.10100000352E+00 0.  1.
       -3    1    3    3    0  502 -0.36221043547E+03 -0.58508410924E+03  0.23244775936E+03  0.72632760204E+03  0.10100000352E+00 0. -1.
</event>
<event>
 5   0  0.3274900E-04  0.1595689E+04  0.7818609E-02  0.8823201E-01
       -2   -1    0    0    0  501  0.00000000000E+00  0.00000000000E+00  0.95131590596E+03  0.95131590597E+03  0.25500000920E-02 0.  1.
        2   -1    0    0  501    0  0.00000000000E+00  0.00000000000E+00 -0.66913210103E+03  0.66913210103E+03  0.25500000920E-02 0. -1.
    10030    2    1    2    0    0  0.00000000000E+00  0.00000000000E+00  0.28218380493E+03  0.16204480070E+04  0.15956892065E+04 0.  0.
        3    1    3    3  502    0  0.89242828085E+02  0.23419325225E+03 -0.62812061148E+03  0.67627381624E+03  0.10100000352E+00 0. -1.
       -3    1    3    3    0  502 -0.89242828085E+02 -0.23419325225E+03  0.91030441641E+03  0.94417419076E+03  0.10100000352E+00 0.  1.
</event>
<event>
 5   0  0.3274900E-04  0.1600148E+04  0.7818609E-02  0.8820457E-01
       -2   -1    0    0    0  501  0.00000000000E+00  0.00000000000E+00  0.24280957378E+03  0.24280957379E+03  0.25500000920E-02 0.  1.
        2   -1    0    0  501    0  0.00000000000E+00  0.00000000000E+00 -0.26362992664E+04  0.26362992664E+04  0.25500000920E-02 0. -1.
    10030    2    1    2    0    0  0.00000000000E+00  0.00000000000E+00 -0.23934896926E+04  0.28791088402E+04  0.16001483697E+04 0.  0.
        3    1    3    3  502    0  0.51610589404E+03  0.12640988545E+03 -0.22729676261E+04  0.23342507562E+04  0.10100000352E+00 0. -1.
       -3    1    3    3    0  502 -0.51610589404E+03 -0.12640988545E+03 -0.12052206646E+03  0.54485808400E+03  0.10100000352E+00 0.  1.
</event>
<event>
 5   0  0.1787688E-04  0.1571762E+04  0.7818609E-02  0.8838086E-01
       -1   -1    0    0    0  501  0.00000000000E+00  0.00000000000E+00  0.93450657809E+03  0.93450657810E+03  0.50400001928E-02 0. -1.
        1   -1    0    0  501    0  0.00000000000E+00  0.00000000000E+00 -0.66089288077E+03  0.66089288079E+03  0.50400001928E-02 0.  1.
    10030    2    1    2    0    0  0.00000000000E+00  0.00000000000E+00  0.27361369732E+03  0.15953994589E+04  0.15717617434E+04 0.  0.
        4    1    3    3  502    0  0.43227406660E+03  0.33901207248E+03 -0.43362075300E+03  0.69987043392E+03  0.12699999809E+01 0.  1.
       -4    1    3    3    0  502 -0.43227406660E+03 -0.33901207248E+03  0.70723445032E+03  0.89552902497E+03  0.12699999809E+01 0. -1.
</event>
<event>
 5   0  0.1819811E-04  0.1590849E+04  0.7818609E-02  0.8826189E-01
        1   -1    0    0  501    0  0.00000000000E+00  0.00000000000E+00  0.61491895670E+03  0.61491895672E+03  0.50400001928E-02 0.  1.
       -1   -1    0    0    0  501  0.00000000000E+00  0.00000000000E+00 -0.10289165276E+04  0.10289165276E+04  0.50400001928E-02 0. -1.
    10030    2    1    2    0    0  0.00000000000E+00  0.00000000000E+00 -0.41399757087E+03  0.16438354843E+04  0.15908491792E+04 0.  0.
        1    1    3    3  502    0 -0.24478766517E+03  0.58850017655E+03 -0.69871265095E+03  0.94575516252E+03  0.50400001928E-02 0. -1.
       -1    1    3    3    0  502  0.24478766517E+03 -0.58850017655E+03  0.28471508007E+03  0.69808032179E+03  0.50400001928E-02 0.  1.
</event>
<event>
 5   0  0.3228393E-04  0.1602710E+04  0.7818609E-02  0.8818885E-01
        2   -1    0    0  501    0  0.00000000000E+00  0.00000000000E+00  0.13947468928E+04  0.13947468928E+04  0.25500000920E-02 0.  1.
       -2   -1    0    0    0  501  0.00000000000E+00  0.00000000000E+00 -0.46042016943E+03  0.46042016944E+03  0.25500000920E-02 0. -1.
    10030    2    1    2    0    0  0.00000000000E+00  0.00000000000E+00  0.93432672333E+03  0.18551670622E+04  0.16027097063E+04 0.  0.
        1    1    3    3  502    0  0.10239928168E+03 -0.76653765615E+03  0.71025341796E+03  0.10500121470E+04  0.50400001928E-02 0.  1.
       -1    1    3    3    0  502 -0.10239928168E+03  0.76653765615E+03  0.22407330537E+03  0.80515491515E+03  0.50400001928E-02 0. -1.
</event>
<event>
 5   0  0.1787688E-04  0.1609053E+04  0.7818609E-02  0.8815005E-01
       -1   -1    0    0    0  501  0.00000000000E+00  0.00000000000E+00  0.12480795695E+04  0.12480795696E+04  0.50400001928E-02 0.  1.
        1   -1    0    0  501    0  0.00000000000E+00  0.00000000000E+00 -0.51860727207E+03  0.51860727209E+03  0.50400001928E-02 0. -1.
    10030    2    1    2    0    0  0.00000000000E+00  0.00000000000E+00  0.72947229747E+03  0.17666868416E+04  0.16090533129E+04 0.  0.
        4    1    3    3  502    0  0.13281859612E+03 -0.36615152249E+03  0.11376561587E+04  0.12024852869E+04  0.12699999809E+01 0.  1.
       -4    1    3    3    0  502 -0.13281859612E+03  0.36615152249E+03 -0.40818386123E+03  0.56420155474E+03  0.12699999809E+01 0. -1.
</event>
<event>
 5   0  0.3380454E-04  0.1611962E+04  0.7818609E-02  0.8813233E-01
        2   -1    0    0  501    0  0.00000000000E+00  0.00000000000E+00  0.10737203280E+04  0.10737203280E+04  0.25500000920E-02 0.  1.
       -2   -1    0    0    0  501  0.00000000000E+00  0.00000000000E+00 -0.60500433810E+03  0.60500433811E+03  0.25500000920E-02 0. -1.
    10030    2    1    2    0    0  0.00000000000E+00  0.00000000000E+00  0.46871598993E+03  0.16787246661E+04  0.16119621042E+04 0.  0.
        5    1    3    3  502    0  0.21597894685E+03  0.77134210443E+03  0.32731762132E+03  0.86531755025E+03  0.46999998093E+01 0. -1.
       -5    1    3    3    0  502 -0.21597894685E+03 -0.77134210443E+03  0.14139836862E+03  0.81340711590E+03  0.46999998093E+01 0.  1.
</event>
<event>
 5   0  0.1761255E-04  0.1618236E+04  0.7818609E-02  0.8809423E-01
        1   -1    0    0  501    0  0.00000000000E+00  0.00000000000E+00  0.21601868555E+04  0.21601868555E+04  0.50400001928E-02 0. -1.
       -1   -1    0    0    0  501  0.00000000000E+00  0.00000000000E+00 -0.30306246104E+03  0.30306246109E+03  0.50400001928E-02 0.  1.
    10030    2    1    2    0    0  0.00000000000E+00  0.00000000000E+00  0.18571243945E+04  0.24632493166E+04  0.16182355141E+04 0.  0.
        2    1    3    3  502    0 -0.77553497154E+03  0.18031575824E+03  0.70954096338E+03  0.10664973715E+04  0.25500000920E-02 0. -1.
       -2    1    3    3    0  502  0.77553497154E+03 -0.18031575824E+03  0.11475834311E+04  0.13967519451E+04  0.25500000920E-02 0.  1.
</event>
<event>
 5   0  0.1764099E-04  0.1616543E+04  0.7818609E-02  0.8810449E-01
       -1   -1    0    0    0  501  0.00000000000E+00  0.00000000000E+00  0.74818065531E+03  0.74818065533E+03  0.50400001928E-02 0.  1.
        1   -1    0    0  501    0  0.00000000000E+00  0.00000000000E+00 -0.87318844357E+03  0.87318844358E+03  0.50400001928E-02 0. -1.
    10030    2    1    2    0    0  0.00000000000E+00  0.00000000000E+00 -0.12500778826E+03  0.16213690989E+04  0.16165428568E+04 0.  0.
        5    1    3    3  502    0  0.77735402540E+03 -0.11027234507E+03 -0.25501792354E+03  0.82552740852E+03  0.46999998093E+01 0. -1.
       -5    1    3    3    0  502 -0.77735402540E+03  0.11027234507E+03  0.13001013528E+03  0.79584169039E+03  0.46999998093E+01 0.  1.
</event>
<event>
 5   0  0.1819811E-04  0.1606573E+04  0.7818609E-02  0.8816520E-01
       -1   -1    0    0    0  501  0.00000000000E+00  0.00000000000E+00  0.35307975822E+03  0.35307975826E+03  0.50400001928E-02 0.  1.
        1   -1    0    0  501    0  0.00000000000E+00  0.00000000000E+00 -0.18275452483E+04  0.18275452483E+04  0.50400001928E-02 0. -1.
    10030    2    1    2    0    0  0.00000000000E+00  0.00000000000E+00 -0.14744654901E+04  0.21806250066E+04  0.16065730416E+04 0.  0.
        1    1    3    3  502    0  0.38816081757E+03  0.27791976526E+03 -0.16141052538E+04  0.16832242829E+04  0.50400001928E-02 0. -1.
       -1    1    3    3    0  502 -0.38816081757E+03 -0.27791976526E+03  0.13963976375E+03  0.49740072363E+03  0.50400001928E-02 0.  1.
</event>
<event>
 5   0  0.3380454E-04  0.1600159E+04  0.7818609E-02  0.8820450E-01
        2   -1    0    0  501    0  0.00000000000E+00  0.00000000000E+00  0.96257794863E+03  0.96257794863E+03  0.25500000920E-02 0. -1.
       -2   -1    0    0    0  501  0.00000000000E+00  0.00000000000E+00 -0.66501346569E+03  0.66501346570E+03  0.25500000920E-02 0.  1.
    10030    2    1    2    0    0  0.00000000000E+00  0.00000000000E+00  0.29756448294E+03  0.16275914143E+04  0.16001591141E+04 0.  0.
        5    1    3    3  502    0  0.52113823590E+03 -0.60254234821E+03  0.22396053575E+03  0.82754018263E+03  0.46999998093E+01 0. -1.
       -5    1    3    3    0  502 -0.52113823590E+03  0.60254234821E+03  0.73603947186E+02  0.80005123170E+03  0.46999998093E+01 0.  1.
</event>
<event>
 5   0  0.1761255E-04  0.1608194E+04  0.7818609E-02  0.8815530E-01
       -1   -1    0    0    0  501  0.00000000000E+00  0.00000000000E+00  0.51567825555E+03  0.51567825557E+03  0.50400001928E-02 0.  1.
        1   -1    0    0  501    0  0.00000000000E+00  0.00000000000E+00 -0.12538285088E+04  0.12538285088E+04  0.50400001928E-02 0. -1.
    10030    2    1    2    0    0  0.00000000000E+00  0.00000000000E+00 -0.73815025322E+03  0.17695067644E+04  0.16081941403E+04 0.  0.
        2    1    3    3  502    0  0.26262746953E+03  0.60309116709E+02  0.46452009474E+03  0.53701889700E+03  0.25500000920E-02 0.  1.
       -2    1    3    3    0  502 -0.26262746953E+03 -0.60309116709E+02 -0.12026703480E+04  0.12324878674E+04  0.25500000920E-02 0. -1.
</event>
<event>
 5   0  0.1736537E-04  0.1591780E+04  0.7818609E-02  0.8825614E-01
        1   -1    0    0  501    0  0.00000000000E+00  0.00000000000E+00  0.90666446580E+03  0.90666446581E+03  0.50400001928E-02 0.  1.
       -1   -1    0    0    0  501  0.00000000000E+00  0.00000000000E+00 -0.69864959844E+03  0.69864959846E+03  0.50400001928E-02 0. -1.
    10030    2    1    2    0    0  0.00000000000E+00  0.00000000000E+00  0.20801486736E+03  0.16053140643E+04  0.15917798403E+04 0.  0.
        3    1    3    3  502    0 -0.27596213195E+03 -0.49468092942E+03 -0.45983158562E+03  0.72959537933E+03  0.10100000352E+00 0. -1.
       -3    1    3    3    0  502  0.27596213195E+03  0.49468092942E+03  0.66784645298E+03  0.87571868494E+03  0.10100000352E+00 0.  1.
</event>
<event>
 5   0  0.3274900E-04  0.1602611E+04  0.7818609E-02  0.8818945E-01
       -2   -1    0    0    0  501  0.00000000000E+00  0.00000000000E+00  0.52567061202E+03  0.52567061202E+03  0.25500000920E-02 0. -1.
        2   -1    0    0  501    0  0.00000000000E+00  0.00000000000E+00 -0.12214699728E+04  0.12214699728E+04  0.25500000920E-02 0.  1.
    10030    2    1    2    0    0  0.00000000000E+00  0.00000000000E+00 -0.69579936074E+03  0.17471405848E+04  0.16026114540E+04 0.  0.
        3    1    3    3  502    0  0.77671697255E+03 -0.18273045773E+03 -0.42809438512E+03  0.90550786214E+03  0.10100000352E+00 0.  1.
       -3    1    3    3    0  502 -0.77671697255E+03  0.18273045773E+03 -0.26770497562E+03  0.84163272264E+03  0.10100000352E+00 0. -1.
</event>
<event>
 5   0  0.3380454E-04  0.1606463E+04  0.7818609E-02  0.8816587E-01
        2   -1    0    0  501    0  0.00000000000E+00  0.00000000000E+00  0.77178048024E+03  0.77178048025E+03  0.25500000920E-02 0.  1.
       -2   -1    0    0    0  501  0.00000000000E+00  0.00000000000E+00 -0.83596470791E+03  0.83596470792E+03  0.25500000920E-02 0. -1.
    10030    2    1    2    0    0  0.00000000000E+00  0.00000000000E+00 -0.64184227670E+02  0.16077451882E+04  0.16064634994E+04 0.  0.
        5    1    3    3  502    0  0.55267827996E+03  0.27809482909E+03 -0.54472059421E+03  0.82433769224E+03  0.46999998093E+01 0. -1.
       -5    1    3    3    0  502 -0.55267827996E+03 -0.27809482909E+03  0.48053636654E+03  0.78340749592E+03  0.46999998093E+01 0.  1.
</event>
<event>
 5   0  0.3228393E-04  0.1600143E+04  0.7818609E-02  0.8820460E-01
       -2   -1    0    0    0  501  0.00000000000E+00  0.00000000000E+00  0.80689028086E+03  0.80689028086E+03  0.25500000920E-02 0. -1.
        2   -1    0    0  501    0  0.00000000000E+00  0.00000000000E+00 -0.79331063520E+03  0.79331063521E+03  0.25500000920E-02 0.  1.
    10030    2    1    2    0    0  0.00000000000E+00  0.00000000000E+00  0.13579645652E+02  0.16002009161E+04  0.16001432951E+04 0.  0.
        1    1    3    3  502    0  0.39799622905E+03 -0.69092642023E+03  0.72627782116E+02  0.80065917297E+03  0.50400001928E-02 0.  1.
       -1    1    3    3    0  502 -0.39799622905E+03  0.69092642023E+03 -0.59048136464E+02  0.79954174309E+03  0.50400001928E-02 0. -1.
</event>
<event>
 5   0  0.1787688E-04  0.1574653E+04  0.7818609E-02  0.8836272E-01
       -1   -1    0    0    0  501  0.00000000000E+00  0.00000000000E+00  0.11316414166E+04  0.11316414166E+04  0.50400001928E-02 0. -1.
        1   -1    0    0  501    0  0.00000000000E+00  0.00000000000E+00 -0.54777369008E+03  0.54777369010E+03  0.50400001928E-02 0.  1.
    10030    2    1    2    0    0  0.00000000000E+00  0.00000000000E+00  0.58386772649E+03  0.16794151067E+04  0.15746534789E+04 0.  0.
        4    1    3    3  502    0  0.26357902462E+03 -0.73918516912E+03  0.35949805421E+03  0.86319701131E+03  0.12699999809E+01 0. -1.
       -4    1    3    3    0  502 -0.26357902462E+03  0.73918516912E+03  0.22436967228E+03  0.81621809536E+03  0.12699999809E+01 0.  1.
</event>
<event>
 5   0  0.1764099E-04  0.1601748E+04  0.7818609E-02  0.8819475E-01
       -1   -1    0    0    0  501  0.00000000000E+00  0.00000000000E+00  0.11636938871E+04  0.11636938871E+04  0.50400001928E-02 0.  1.
        1   -1    0    0  501    0  0.00000000000E+00  0.00000000000E+00 -0.55117486898E+03  0.55117486900E+03  0.50400001928E-02 0. -1.
    10030    2    1    2    0    0  0.00000000000E+00  0.00000000000E+00  0.61251901812E+03  0.17148687561E+04  0.16017475778E+04 0.  0.
        5    1    3    3  502    0 -0.43883797122E+03  0.77660081493E+02  0.10186602734E+04  0.11118905953E+04  0.46999998093E+01 0.  1.
       -5    1    3    3    0  502  0.43883797122E+03 -0.77660081493E+02 -0.40614125526E+03  0.60297816086E+03  0.46999998093E+01 0. -1.
</event>
<event>
 5   0  0.1819811E-04  0.1619564E+04  0.7818609E-02  0.8808618E-01
        1   -1    0    0  501    0  0.00000000000E+00  0.00000000000E+00  0.15406978077E+04  0.15406978077E+04  0.50400001928E-02 0. -1.
       -1   -1    0    0    0  501  0.00000000000E+00  0.00000000000E+00 -0.42561704384E+03  0.42561704387E+03  0.50400001928E-02 0.  1.
    10030    2    1    2    0    0  0.00000000000E+00  0.00000000000E+00  0.11150807639E+04  0.19663148516E+04  0.16195644432E+04 0.  0.
        1    1    3    3  502    0 -0.48557762038E+02 -0.41104102965E+03 -0.28749020881E+03  0.50394762079E+03  0.50400001928E-02 0.  1.
       -1    1    3    3    0  502  0.48557762038E+02  0.41104102965E+03  0.14025709727E+04  0.14623672308E+04  0.50400001928E-02 0. -1.
</event>
<event>
 5   0  0.3210612E-04  0.1571928E+04  0.7818609E-02  0.8837982E-01
        2   -1    0    0  501    0  0.00000000000E+00  0.00000000000E+00  0.15408257716E+04  0.15408257716E+04  0.25500000920E-02 0.  1.
       -2   -1    0    0    0  501  0.00000000000E+00  0.00000000000E+00 -0.40091445838E+03  0.40091445839E+03  0.25500000920E-02 0. -1.
    10030    2    1    2    0    0  0.00000000000E+00  0.00000000000E+00  0.11399113132E+04  0.19417402300E+04  0.15719278987E+04 0.  0.
        2    1    3    3  502    0 -0.52522926844E+03  0.32907014553E+03  0.11669665686E+04  0.13213492791E+04  0.25500000920E-02 0. -1.
       -2    1    3    3    0  502  0.52522926844E+03 -0.32907014553E+03 -0.27055255383E+02  0.62039095090E+03  0.25500000920E-02 0.  1.
</event>
<event>
 5   0  0.1736537E-04  0.1602918E+04  0.7818609E-02  0.8818757E-01
       -1   -1    0    0    0  501  0.00000000000E+00  0.00000000000E+00  0.53378550128E+03  0.53378550130E+03  0.50400001928E-02 0.  1.
        1   -1    0    0  501    0  0.00000000000E+00  0.00000000000E+00 -0.12033606100E+04  0.12033606100E+04  0.50400001928E-02 0. -1.
    10030    2    1    2    0    0  0.00000000000E+00  0.00000000000E+00 -0.66957510871E+03  0.17371461113E+04  0.16029178974E+04 0.  0.
        3    1    3    3  502    0  0.77596805976E+03  0.12780793328E+03 -0.16733259206E+03  0.80402829810E+03  0.10100000352E+00 0.  1.
       -3    1    3    3    0  502 -0.77596805976E+03 -0.12780793328E+03 -0.50224251665E+03  0.93311781320E+03  0.10100000352E+00 0. -1.
</event>
<event>
 5   0  0.1219463E-04  0.1616853E+04  0.7818609E-02  0.8810261E-01
       -4   -1    0    0    0  501  0.00000000000E+00  0.00000000000E+00  0.81218104821E+03  0.81218204115E+03  0.12699999809E+01 0. -1.
        4   -1    0    0  501    0  0.00000000000E+00  0.00000000000E+00 -0.80468697574E+03  0.80468797793E+03  0.12699999809E+01 0.  1.
    10030    2    1    2    0    0  0.00000000000E+00  0.00000000000E+00  0.74940724704E+01  0.16168700191E+04  0.16168526518E+04 0.  0.
        1    1    3    3  502    0  0.39764917428E+03  0.54385758616E+03 -0.44307672493E+03  0.80636401459E+03  0.50400001928E-02 0.  1.
       -1    1    3    3    0  502 -0.39764917428E+03 -0.54385758616E+03  0.45057079740E+03  0.81050600449E+03  0.50400001928E-02 0. -1.
</event>
<event>
 5   0  0.1787688E-04  0.1599633E+04  0.7818609E-02  0.8820773E-01
       -1   -1    0    0    0  501  0.00000000000E+00  0.00000000000E+00  0.47676137811E+03  0.47676137813E+03  0.50400001928E-02 0.  1.
        1   -1    0    0  501    0  0.00000000000E+00  0.00000000000E+00 -0.13417751466E+04  0.13417751466E+04  0.50400001928E-02 0. -1.
    10030    2    1    2    0    0  0.00000000000E+00  0.00000000000E+00 -0.86501376850E+03  0.18185365248E+04  0.15996331680E+04 0.  0.
        4    1    3    3  502    0 -0.42028027253E+03 -0.21200523416E+03 -0.11676193291E+04  0.12589353587E+04  0.12699999809E+01 0. -1.
       -4    1    3    3    0  502  0.42028027253E+03  0.21200523416E+03  0.30260556063E+03  0.55960116602E+03  0.12699999809E+01 0.  1.
</event>
<event>
 5   0  0.3228393E-04  0.1601064E+04  0.7818609E-02  0.8819895E-01
       -2   -1    0    0    0  501  0.00000000000E+00  0.00000000000E+00  0.24592441751E+03  0.24592441753E+03  0.25500000920E-02 0.  1.
        2   -1    0    0  501    0  0.00000000000E+00  0.00000000000E+00 -0.26058869107E+04  0.26058869107E+04  0.25500000920E-02 0. -1.
    10030    2    1    2    0    0  0.00000000000E+00  0.00000000000E+00 -0.23599624932E+04  0.28518113282E+04  0.16010636722E+04 0.  0.
        1    1    3    3  502    0  0.89284822010E+02  0.53142840011E+03 -0.12551311913E+03  0.55330052140E+03  0.50400001928E-02 0.  1.
       -1    1    3    3    0  502 -0.89284822010E+02 -0.53142840011E+03 -0.22344493741E+04  0.22985108068E+04  0.50400001928E-02 0. -1.
</event>
<event>
 5   0  0.3274900E-04  0.1602990E+04  0.7818609E-02  0.8818713E-01
        2   -1    0    0  501    0  0.00000000000E+00  0.00000000000E+00  0.72086436277E+03  0.72086436278E+03  0.25500000920E-02 0.  1.
       -2   -1    0    0    0  501  0.00000000000E+00  0.00000000000E+00 -0.89114434924E+03  0.89114434925E+03  0.25500000920E-02 0. -1.
    10030    2    1    2    0    0  0.00000000000E+00  0.00000000000E+00 -0.17027998647E+03  0.16120087120E+04  0.16029899606E+04 0.  0.
        3    1    3    3  502    0  0.49134794424E+03  0.28367007828E+03  0.48417472722E+03  0.74586640379E+03  0.10100000352E+00 0.  1.
       -3    1    3    3    0  502 -0.49134794424E+03 -0.28367007828E+03 -0.65445471370E+03  0.86614230823E+03  0.10100000352E+00 0. -1.
</event>
<event>
 5   0  0.1761255E-04  0.1618179E+04  0.7818609E-02  0.8809457E-01
        1   -1    0    0  501    0  0.00000000000E+00  0.00000000000E+00  0.78947063929E+03  0.78947063931E+03  0.50400001928E-02 0. -1.
       -1   -1    0    0    0  501  0.00000000000E+00  0.00000000000E+00 -0.82919596451E+03  0.82919596453E+03  0.50400001928E-02 0.  1.
    10030    2    1    2    0    0  0.00000000000E+00  0.00000000000E+00 -0.39725325220E+02  0.16186666038E+04  0.16181790608E+04 0.  0.
        2    1    3    3  502    0  0.47070129619E+03  0.41251517057E+03 -0.53275235173E+03  0.82192064366E+03  0.25500000920E-02 0.  1.
       -2    1    3    3    0  502 -0.47070129619E+03 -0.41251517057E+03  0.49302702651E+03  0.79674596018E+03  0.25500000920E-02 0. -1.
</event>
<event>
 5   0  0.1764099E-04  0.1602975E+04  0.7818609E-02  0.8818722E-01
       -1   -1    0    0    0  501  0.00000000000E+00  0.00000000000E+00  0.43785499832E+03  0.43785499834E+03  0.50400001928E-02 0.  1.
        1   -1    0    0  501    0  0.00000000000E+00  0.00000000000E+00 -0.14671119045E+04  0.14671119045E+04  0.50400001928E-02 0. -1.
    10030    2    1    2    0    0  0.00000000000E+00  0.00000000000E+00 -0.10292569061E+04  0.19049669028E+04  0.16029750846E+04 0.  0.
        5    1    3    3  502    0 -0.44211354467E+03  0.60945626292E+03 -0.18817910583E+03  0.77610230554E+03  0.46999998093E+01 0.  1.
       -5    1    3    3    0  502  0.44211354467E+03 -0.60945626292E+03 -0.84107780032E+03  0.11288645973E+04  0.46999998093E+01 0. -1.
</event>
<event>
 5   0  0.3380454E-04  0.1608112E+04  0.7818609E-02  0.8815580E-01
       -2   -1    0    0    0  501  0.00000000000E+00  0.00000000000E+00  0.64454647531E+03  0.64454647531E+03  0.25500000920E-02 0. -1.
        2   -1    0    0  501    0  0.00000000000E+00  0.00000000000E+00 -0.10030400528E+04  0.10030400528E+04  0.25500000920E-02 0.  1.
    10030    2    1    2    0    0  0.00000000000E+00  0.00000000000E+00 -0.35849357745E+03  0.16475865281E+04  0.16081118501E+04 0.  0.
        5    1    3    3  502    0 -0.41170202688E+03  0.33330969003E+03  0.44048990341E+03  0.68894655338E+03  0.46999998093E+01 0. -1.
       -5    1    3    3    0  502  0.41170202688E+03 -0.33330969003E+03 -0.79898348087E+03  0.95863997470E+03  0.46999998093E+01 0.  1.
</event>
<event>
 5   0  0.3228393E-04  0.1610756E+04  0.7818609E-02  0.8813968E-01
       -2   -1    0    0    0  501  0.00000000000E+00  0.00000000000E+00  0.82414404078E+03  0.82414404078E+03  0.25500000920E-02 0. -1.
        2   -1    0    0  501    0  0.00000000000E+00  0.00000000000E+00 -0.78703888579E+03  0.78703888580E+03  0.25500000920E-02 0.  1.
    10030    2    1    2    0    0  0.00000000000E+00  0.00000000000E+00  0.37105154985E+02  0.16111829266E+04  0.16107556085E+04 0.  0.
        1    1    3    3  502    0 -0.42980998100E+03  0.66647611250E+03  0.15896923064E+03  0.80882522501E+03  0.50400001928E-02 0. -1.
       -1    1    3    3    0  502  0.42980998100E+03 -0.66647611250E+03 -0.12186407565E+03  0.80235770157E+03  0.50400001928E-02 0.  1.
</event>
<event>
 5   0  0.1219463E-04  0.1578017E+04  0.7818609E-02  0.8834168E-01
       -3   -1    0    0    0  501  0.00000000000E+00  0.00000000000E+00  0.34233767802E+03  0.34233769292E+03  0.10100000352E+00 0.  1.
        3   -1    0    0  501    0  0.00000000000E+00  0.00000000000E+00 -0.18184815262E+04  0.18184815290E+04  0.10100000352E+00 0. -1.
    10030    2    1    2    0    0  0.00000000000E+00  0.00000000000E+00 -0.14761438482E+04  0.21608192220E+04  0.15780174427E+04 0.  0.
        2    1    3    3  502    0 -0.62554618513E+03 -0.28583958701E+03 -0.12675644772E+04  0.14421275960E+04  0.25500000920E-02 0. -1.
       -2    1    3    3    0  502  0.62554618513E+03  0.28583958701E+03 -0.20857937105E+03  0.71869162599E+03  0.25500000920E-02 0.  1.
</event>
<event>
 5   0  0.1787688E-04  0.1564139E+04  0.7818609E-02  0.8842887E-01
        1   -1    0    0  501    0  0.00000000000E+00  0.00000000000E+00  0.86147280097E+03  0.86147280098E+03  0.50400001928E-02 0. -1.
       -1   -1    0    0    0  501  0.00000000000E+00  0.00000000000E+00 -0.70998484551E+03  0.70998484552E+03  0.50400001928E-02 0.  1.
    10030    2    1    2    0    0  0.00000000000E+00  0.00000000000E+00  0.15148795546E+03  0.15714576465E+04  0.15641389114E+04 0.  0.
        4    1    3    3  502    0  0.47377679944E+03 -0.11425231027E+03  0.69025368172E+03  0.84496733908E+03  0.12699999809E+01 0. -1.
       -4    1    3    3    0  502 -0.47377679944E+03  0.11425231027E+03 -0.53876572626E+03  0.72649030742E+03  0.12699999809E+01 0.  1.
</event>
<event>
 5   0  0.3263294E-04  0.1605310E+04  0.7818609E-02  0.8817292E-01
        2   -1    0    0  501    0  0.00000000000E+00  0.00000000000E+00  0.10801917809E+04  0.10801917809E+04  0.25500000920E-02 0. -1.
       -2   -1    0    0    0  501  0.00000000000E+00  0.00000000000E+00 -0.59642667106E+03  0.59642667106E+03  0.25500000920E-02 0.  1.
    10030    2    1    2    0    0  0.00000000000E+00  0.00000000000E+00  0.48376510986E+03  0.16766184520E+04  0.16053101731E+04 0.  0.
        4    1    3    3  502    0  0.21804613983E+03  0.41126296581E+03  0.92481858940E+03  0.10353609913E+04  0.12699999809E+01 0. -1.
       -4    1    3    3    0  502 -0.21804613983E+03 -0.41126296581E+03 -0.44105347954E+03  0.64125746066E+03  0.12699999809E+01 0.  1.
</event>
<event>
 5   0  0.3228393E-04  0.1603985E+04  0.7818609E-02  0.8818104E-01
        2   -1    0    0  501    0  0.00000000000E+00  0.00000000000E+00  0.18499861408E+04  0.18499861408E+04  0.25500000920E-02 0. -1.
       -2   -1    0    0    0  501  0.00000000000E+00  0.00000000000E+00 -0.34767398942E+03  0.34767398943E+03  0.25500000920E-02 0.  1.
    10030    2    1    2    0    0  0.00000000000E+00  0.00000000000E+00  0.15023121513E+04  0.21976601302E+04  0.16039851146E+04 0.  0.
        1    1    3    3  502    0  0.11111337827E+03 -0.41298632500E+03  0.16807111037E+04  0.17342703658E+04  0.50400001928E-02 0. -1.
       -1    1    3    3    0  502 -0.11111337827E+03  0.41298632500E+03 -0.17839895241E+03  0.46338976436E+03  0.50400001928E-02 0.  1.
</event>
<event>
 5   0  0.3380454E-04  0.1594551E+04  0.7818609E-02  0.8823903E-01
        2   -1    0    0  501    0  0.00000000000E+00  0.00000000000E+00  0.11365036339E+04  0.11365036339E+04  0.25500000920E-02 0.  1.
       -2   -1    0    0    0  501  0.00000000000E+00  0.00000000000E+00 -0.55930154225E+03  0.55930154226E+03  0.25500000920E-02 0. -1.
    10030    2    1    2    0    0  0.00000000000E+00  0.00000000000E+00  0.57720209164E+03  0.16958051761E+04  0.15945510154E+04 0.  0.
        5    1    3    3  502    0 -0.63401870311E+03  0.48271350412E+03  0.26182063798E+03  0.83878732670E+03  0.46999998093E+01 0.  1.
       -5    1    3    3    0  502  0.63401870311E+03 -0.48271350412E+03  0.31538145365E+03  0.85701784945E+03  0.46999998093E+01 0. -1.
</event>
<event>
 5   0  0.3380454E-04  0.1616752E+04  0.7818609E-02  0.8810322E-01
        2   -1    0    0  501    0  0.00000000000E+00  0.00000000000E+00  0.19912563479E+04  0.19912563479E+04  0.25500000920E-02 0. -1.
       -2   -1    0    0    0  501  0.00000000000E+00  0.00000000000E+00 -0.32817063382E+03  0.32817063383E+03  0.25500000920E-02 0.  1.
    10030    2    1    2    0    0  0.00000000000E+00  0.00000000000E+00  0.16630857141E+04  0.23194269817E+04  0.16167521242E+04 0.  0.
        5    1    3    3  502    0  0.14663083447E+03  0.73383958590E+02 -0.30404298768E+03  0.34547074456E+03  0.46999998093E+01 0.  1.
       -5    1    3    3    0  502 -0.14663083447E+03 -0.73383958590E+02  0.19671287017E+04  0.19739562371E+04  0.46999998093E+01 0. -1.
</event>
<event>
 5   0  0.3380454E-04  0.1591238E+04  0.7818609E-02  0.8825949E-01
        2   -1    0    0  501    0  0.00000000000E+00  0.00000000000E+00  0.91599241393E+03  0.91599241394E+03  0.25500000920E-02 0.  1.
       -2   -1    0    0    0  501  0.00000000000E+00  0.00000000000E+00 -0.69106416143E+03  0.69106416143E+03  0.25500000920E-02 0. -1.
    10030    2    1    2    0    0  0.00000000000E+00  0.00000000000E+00  0.22492825250E+03  0.16070565754E+04  0.15912379199E+04 0.  0.
        5    1    3    3  502    0 -0.51856162740E+03  0.10277490579E+03 -0.48802089515E+03  0.71948267996E+03  0.46999998093E+01 0. -1.
       -5    1    3    3    0  502  0.51856162740E+03 -0.10277490579E+03  0.71294914765E+03  0.88757389540E+03  0.46999998093E+01 0.  1.
</event>
<event>
 5   0  0.1764099E-04  0.1597895E+04  0.7818609E-02  0.8821842E-01
       -1   -1    0    0    0  501  0.00000000000E+00  0.00000000000E+00  0.75692345535E+03  0.75692345536E+03  0.50400001928E-02 0.  1.
        1   -1    0    0  501    0  0.00000000000E+00  0.00000000000E+00 -0.84330475841E+03  0.84330475843E+03  0.50400001928E-02 0. -1.
    10030    2    1    2    0    0  0.00000000000E+00  0.00000000000E+00 -0.86381303064E+02  0.16002282138E+04  0.15978950550E+04 0.  0.
        5    1    3    3  502    0 -0.70034554955E+03  0.38429152176E+03 -0.31719704702E+02  0.79949489813E+03  0.46999998093E+01 0.  1.
       -5    1    3    3    0  502  0.70034554955E+03 -0.38429152176E+03 -0.54661598361E+02  0.80073331566E+03  0.46999998093E+01 0. -1.
</event>
<event>
 5   0  0.3228393E-04  0.1503336E+04  0.7818609E-02  0.8882237E-01
        2   -1    0    0  501    0  0.00000000000E+00  0.00000000000E+00  0.54352428713E+03  0.54352428713E+03  0.25500000920E-02 0. -1.
       -2   -1    0    0    0  501  0.00000000000E+00  0.00000000000E+00 -0.10395212577E+04  0.10395212577E+04  0.25500000920E-02 0.  1.
    10030    2    1    2    0    0  0.00000000000E+00  0.00000000000E+00 -0.49599697057E+03  0.15830455448E+04  0.15033363570E+04 0.  0.
        1    1    3    3  502    0 -0.69788621605E+03 -0.18737002255E+02  0.45356009299E+02  0.69960947208E+03  0.50400001928E-02 0. -1.
       -1    1    3    3    0  502  0.69788621605E+03  0.18737002255E+02 -0.54135297986E+03  0.88343607276E+03  0.50400001928E-02 0.  1.
</event>
<event>
 5   0  0.1761255E-04  0.1624826E+04  0.7818609E-02  0.8805440E-01
       -1   -1    0    0    0  501  0.00000000000E+00  0.00000000000E+00  0.51096550816E+03  0.51096550818E+03  0.50400001928E-02 0. -1.
        1   -1    0    0  501    0  0.00000000000E+00  0.00000000000E+00 -0.12917006664E+04  0.12917006664E+04  0.50400001928E-02 0.  1.
    10030    2    1    2    0    0  0.00000000000E+00  0.00000000000E+00 -0.78073515822E+03  0.18026661746E+04  0.16248255136E+04 0.  0.
        2    1    3    3  502    0 -0.50666343334E+03  0.66619844870E+02  0.31031839148E+03  0.59786582317E+03  0.25500000920E-02 0. -1.
       -2    1    3    3    0  502  0.50666343334E+03 -0.66619844870E+02 -0.10910535497E+04  0.12048003514E+04  0.25500000920E-02 0.  1.
</event>
<event>
 5   0  0.1761255E-04  0.1468355E+04  0.7818609E-02  0.8905774E-01
        1   -1    0    0  501    0  0.00000000000E+00  0.00000000000E+00  0.12762234789E+04  0.12762234789E+04  0.50400001928E-02 0. -1.
       -1   -1    0    0    0  501  0.00000000000E+00  0.00000000000E+00 -0.42235261124E+03  0.42235261127E+03  0.50400001928E-02 0.  1.
    10030    2    1    2    0    0  0.00000000000E+00  0.00000000000E+00  0.85387086763E+03  0.16985760902E+04  0.14683546150E+04 0.  0.
        2    1    3    3  502    0  0.19583624589E+03  0.26070988286E+03 -0.33399492650E+03  0.46676984602E+03  0.25500000920E-02 0.  1.
       -2    1    3    3    0  502 -0.19583624589E+03 -0.26070988286E+03  0.11878657941E+04  0.12318062441E+04  0.25500000920E-02 0. -1.
</event>
<event>
 5   0  0.1736537E-04  0.1629983E+04  0.7818609E-02  0.8802337E-01
       -1   -1    0    0    0  501  0.00000000000E+00  0.00000000000E+00  0.58882661436E+03  0.58882661438E+03  0.50400001928E-02 0. -1.
        1   -1    0    0  501    0  0.00000000000E+00  0.00000000000E+00 -0.11280252089E+04  0.11280252089E+04  0.50400001928E-02 0.  1.
    10030    2    1    2    0    0  0.00000000000E+00  0.00000000000E+00 -0.53919859450E+03  0.17168518233E+04  0.16299831468E+04 0.  0.
        3    1    3    3  502    0 -0.50005394115E+03 -0.52820504800E+03  0.11763030516E+03  0.73681165550E+03  0.10100000352E+00 0.  1.
       -3    1    3    3    0  502  0.50005394115E+03  0.52820504800E+03 -0.65682889967E+03  0.98004016776E+03  0.10100000352E+00 0. -1.
</event>
<event>
 5   0  0.3228393E-04  0.1604856E+04  0.7818609E-02  0.8817571E-01
        2   -1    0    0  501    0  0.00000000000E+00  0.00000000000E+00  0.86515041661E+03  0.86515041661E+03  0.25500000920E-02 0.  1.
       -2   -1    0    0    0  501  0.00000000000E+00  0.00000000000E+00 -0.74425257243E+03  0.74425257243E+03  0.25500000920E-02 0. -1.
    10030    2    1    2    0    0  0.00000000000E+00  0.00000000000E+00  0.12089784418E+03  0.16094029890E+04  0.16048556609E+04 0.  0.
        1    1    3    3  502    0 -0.48408401492E+03  0.22288157155E+03 -0.54114827927E+03  0.75950970278E+03  0.50400001928E-02 0. -1.
       -1    1    3    3    0  502  0.48408401492E+03 -0.22288157155E+03  0.66204612345E+03  0.84989328626E+03  0.50400001928E-02 0.  1.
</event>
<event>
 5   0  0.1787688E-04  0.1616411E+04  0.7818609E-02  0.8810529E-01
       -1   -1    0    0    0  501  0.00000000000E+00  0.00000000000E+00  0.53796724029E+03  0.53796724031E+03  0.50400001928E-02 0. -1.
        1   -1    0    0  501    0  0.00000000000E+00  0.00000000000E+00 -0.12141932754E+04  0.12141932754E+04  0.50400001928E-02 0.  1.
    10030    2    1    2    0    0  0.00000000000E+00  0.00000000000E+00 -0.67622603511E+03  0.17521605157E+04  0.16164110932E+04 0.  0.
        4    1    3    3  502    0 -0.63145161482E+01  0.76102381178E+03 -0.43243061767E+02  0.76227861738E+03  0.12699999809E+01 0. -1.
       -4    1    3    3    0  502  0.63145161482E+01 -0.76102381178E+03 -0.63298297334E+03  0.98988189834E+03  0.12699999809E+01 0.  1.
</event>
<event>
 5   0  0.1787688E-04  0.1597486E+04  0.7818609E-02  0.8822094E-01
       -1   -1    0    0    0  501  0.00000000000E+00  0.00000000000E+00  0.93697481004E+03  0.93697481005E+03  0.50400001928E-02 0.  1.
        1   -1    0    0  501    0  0.00000000000E+00  0.00000000000E+00 -0.68090423962E+03  0.68090423963E+03  0.50400001928E-02 0. -1.
    10030    2    1    2    0    0  0.00000000000E+00  0.00000000000E+00  0.25607057042E+03  0.16178790497E+04  0.15974856752E+04 0.  0.
        4    1    3    3  502    0  0.76887524795E+03 -0.16373757381E+03  0.27129555389E+03  0.83161411151E+03  0.12699999809E+01 0. -1.
       -4    1    3    3    0  502 -0.76887524795E+03  0.16373757381E+03 -0.15224983468E+02  0.78626493818E+03  0.12699999809E+01 0.  1.
</event>
<event>
 5   0  0.1764099E-04  0.1588181E+04  0.7818609E-02  0.8827842E-01
        1   -1    0    0  501    0  0.00000000000E+00  0.00000000000E+00  0.15307085952E+04  0.15307085952E+04  0.50400001928E-02 0.  1.
       -1   -1    0    0    0  501  0.00000000000E+00  0.00000000000E+00 -0.41195299496E+03  0.41195299499E+03  0.50400001928E-02 0. -1.
    10030    2    1    2    0    0  0.00000000000E+00  0.00000000000E+00  0.11187556002E+04  0.19426615902E+04  0.15881813375E+04 0.  0.
        5    1    3    3  502    0 -0.55357716187E+03 -0.35434651874E+03  0.14334925544E+02  0.65744711542E+03  0.46999998093E+01 0. -1.
       -5    1    3    3    0  502  0.55357716187E+03  0.35434651874E+03  0.11044206747E+04  0.12852144748E+04  0.46999998093E+01 0.  1.
</event>
<event>
 5   0  0.3210612E-04  0.1618432E+04  0.7818609E-02  0.8809304E-01
        2   -1    0    0  501    0  0.00000000000E+00  0.00000000000E+00  0.19746045045E+04  0.19746045045E+04  0.25500000920E-02 0.  1.
       -2   -1    0    0    0  501  0.00000000000E+00  0.00000000000E+00 -0.33162627666E+03  0.33162627667E+03  0.25500000920E-02 0. -1.
    10030    2    1    2    0    0  0.00000000000E+00  0.00000000000E+00  0.16429782278E+04  0.23062307812E+04  0.16184322534E+04 0.  0.
        2    1    3    3  502    0 -0.39257321163E+03 -0.63540222306E+03  0.12652526684E+04  0.14692562834E+04  0.25500000920E-02 0.  1.
       -2    1    3    3    0  502  0.39257321163E+03  0.63540222306E+03  0.37772555944E+03  0.83697449772E+03  0.25500000920E-02 0. -1.
</event>
<event>
 5   0  0.3263294E-04  0.1593930E+04  0.7818609E-02  0.8824286E-01
        2   -1    0    0  501    0  0.00000000000E+00  0.00000000000E+00  0.79552777089E+03  0.79552777090E+03  0.25500000920E-02 0.  1.
       -2   -1    0    0    0  501  0.00000000000E+00  0.00000000000E+00 -0.79840455842E+03  0.79840455843E+03  0.25500000920E-02 0. -1.
    10030    2    1    2    0    0  0.00000000000E+00  0.00000000000E+00 -0.28767875275E+01  0.15939323293E+04  0.15939297333E+04 0.  0.
        4    1    3    3  502    0  0.75030745259E+03  0.26760472414E+03  0.22599614205E+02  0.79692277998E+03  0.12699999809E+01 0. -1.
       -4    1    3    3    0  502 -0.75030745259E+03 -0.26760472414E+03 -0.25476401732E+02  0.79700954934E+03  0.12699999809E+01 0.  1.
</event>
<event>
 5   0  0.3380454E-04  0.1592630E+04  0.7818609E-02  0.8825089E-01
       -2   -1    0    0    0  501  0.00000000000E+00  0.00000000000E+00  0.67362229159E+03  0.67362229160E+03  0.25500000920E-02 0. -1.
        2   -1    0    0  501    0  0.00000000000E+00  0.00000000000E+00 -0.94135475486E+03  0.94135475487E+03  0.25500000920E-02 0.  1.
    10030    2    1    2    0    0  0.00000000000E+00  0.00000000000E+00 -0.26773246327E+03  0.16149770465E+04  0.15926299598E+04 0.  0.
        5    1    3    3  502    0 -0.10666381057E+03  0.53881501339E+03  0.45076202900E+03  0.71056828238E+03  0.46999998093E+01 0. -1.
       -5    1    3    3    0  502  0.10666381057E+03 -0.53881501339E+03 -0.71849449227E+03  0.90440876408E+03  0.46999998093E+01 0.  1.
</event>
<event>
 5   0  0.3274900E-04  0.1549116E+04  0.7818609E-02  0.8852432E-01
        2   -1    0    0  501    0  0.00000000000E+00  0.00000000000E+00  0.39373162195E+03  0.39373162196E+03  0.25500000920E-02 0.  1.
       -2   -1    0    0    0  501  0.00000000000E+00  0.00000000000E+00 -0.15237293562E+04  0.15237293562E+04  0.25500000920E-02 0. -1.
    10030    2    1    2    0    0  0.00000000000E+00  0.00000000000E+00 -0.11299977342E+04  0.19174609781E+04  0.15491164331E+04 0.  0.
        3    1    3    3  502    0 -0.86806050621E+02  0.86925486058E+02 -0.15115942521E+04  0.15165778990E+04  0.10100000352E+00 0. -1.
       -3    1    3    3    0  502  0.86806050621E+02 -0.86925486058E+02  0.38159651783E+03  0.40088307918E+03  0.10100000352E+00 0.  1.
</event>
<event>
 5   0  0.3380454E-04  0.1576645E+04  0.7818609E-02  0.8835026E-01
       -2   -1    0    0    0  501  0.00000000000E+00  0.00000000000E+00  0.14867931173E+04  0.14867931173E+04  0.25500000920E-02 0. -1.
        2   -1    0    0  501    0  0.00000000000E+00  0.00000000000E+00 -0.41798184003E+03  0.41798184003E+03  0.25500000920E-02 0.  1.
    10030    2    1    2    0    0  0.00000000000E+00  0.00000000000E+00  0.10688112773E+04  0.19047749574E+04  0.15766452016E+04 0.  0.
        5    1    3    3  502    0 -0.33866684212E+02  0.66104102955E+03  0.17155410933E+02  0.66214695739E+03  0.46999998093E+01 0.  1.
       -5    1    3    3    0  502  0.33866684212E+02 -0.66104102955E+03  0.10516558664E+04  0.12426280000E+04  0.46999998093E+01 0. -1.
</event>
<event>
 5   0  0.3210612E-04  0.1614781E+04  0.7818609E-02  0.8811518E-01
        2   -1    0    0  501    0  0.00000000000E+00  0.00000000000E+00  0.69837171908E+03  0.69837171908E+03  0.25500000920E-02 0. -1.
       -2   -1    0    0    0  501  0.00000000000E+00  0.00000000000E+00 -0.93342806708E+03  0.93342806708E+03  0.25500000920E-02 0.  1.
    10030    2    1    2    0    0  0.00000000000E+00  0.00000000000E+00 -0.23505634800E+03  0.16317997862E+04  0.16147814265E+04 0.  0.
        2    1    3    3  502    0  0.69233018628E+02 -0.78261132834E+03  0.70459431256E+02  0.78882078673E+03  0.25500000920E-02 0.  1.
       -2    1    3    3    0  502 -0.69233018628E+02  0.78261132834E+03 -0.30551577925E+03  0.84297899944E+03  0.25500000920E-02 0. -1.
</event>
<event>
 5   0  0.1819811E-04  0.1587499E+04  0.7818609E-02  0.8828265E-01
        1   -1    0    0  501    0  0.00000000000E+00  0.00000000000E+00  0.48713366119E+03  0.48713366121E+03  0.50400001928E-02 0. -1.
       -1   -1    0    0    0  501  0.00000000000E+00  0.00000000000E+00 -0.12933582612E+04  0.12933582613E+04  0.50400001928E-02 0.  1.
    10030    2    1    2    0    0  0.00000000000E+00  0.00000000000E+00 -0.80622460005E+03  0.17804919225E+04  0.15874990961E+04 0.  0.
        1    1    3    3  502    0 -0.27421358865E+01  0.16944291229E+03 -0.12728320222E+04  0.12840637743E+04  0.50400001928E-02 0.  1.
       -1    1    3    3    0  502  0.27421358865E+01 -0.16944291229E+03  0.46660742213E+03  0.49642814813E+03  0.50400001928E-02 0. -1.
</event>
<event>
 5   0  0.1787688E-04  0.1573076E+04  0.7818609E-02  0.8837262E-01
       -1   -1    0    0    0  501  0.00000000000E+00  0.00000000000E+00  0.96360897501E+03  0.96360897502E+03  0.50400001928E-02 0. -1.
        1   -1    0    0  501    0  0.00000000000E+00  0.00000000000E+00 -0.64200486869E+03  0.64200486871E+03  0.50400001928E-02 0.  1.
    10030    2    1    2    0    0  0.00000000000E+00  0.00000000000E+00  0.32160410632E+03  0.16056138437E+04  0.15730755271E+04 0.  0.
        4    1    3    3  502    0  0.53308882639E+03  0.14673351825E+03  0.73177047404E+03  0.91717177332E+03  0.12699999809E+01 0. -1.
       -4    1    3    3    0  502 -0.53308882639E+03 -0.14673351825E+03 -0.41016636772E+03  0.68844207041E+03  0.12699999809E+01 0.  1.
</event>
<event>
 5   0  0.3263294E-04  0.1598387E+04  0.7818609E-02  0.8821540E-01
        2   -1    0    0  501    0  0.00000000000E+00  0.00000000000E+00  0.42668193985E+03  0.42668193986E+03  0.25500000920E-02 0. -1.
       -2   -1    0    0    0  501  0.00000000000E+00  0.00000000000E+00 -0.14969226906E+04  0.14969226906E+04  0.25500000920E-02 0.  1.
    10030    2    1    2    0    0  0.00000000000E+00  0.00000000000E+00 -0.10702407507E+04  0.19236046305E+04  0.15983865333E+04 0.  0.
        4    1    3    3  502    0 -0.46580127709E+03  0.38199942154E+03 -0.11671567281E+04  0.13134499719E+04  0.12699999809E+01 0.  1.
       -4    1    3    3    0  502  0.46580127709E+03 -0.38199942154E+03  0.96915977364E+02  0.61015465856E+03  0.12699999809E+01 0. -1.
</event>
<event>
 5   0  0.3263294E-04  0.1600713E+04  0.7818609E-02  0.8820110E-01
        2   -1    0    0  501    0  0.00000000000E+00  0.00000000000E+00  0.80136531219E+03  0.80136531219E+03  0.25500000920E-02 0. -1.
       -2   -1    0    0    0  501  0.00000000000E+00  0.00000000000E+00 -0.79934910969E+03  0.79934910969E+03  0.25500000920E-02 0.  1.
    10030    2    1    2    0    0  0.00000000000E+00  0.00000000000E+00  0.20162025016E+01  0.16007144219E+04  0.16007131521E+04 0.  0.
        4    1    3    3  502    0 -0.55700396261E+03  0.16033942376E+03 -0.55090436827E+03  0.79966204178E+03  0.12699999809E+01 0.  1.
       -4    1    3    3    0  502  0.55700396261E+03 -0.16033942376E+03  0.55292057078E+03  0.80105238010E+03  0.12699999809E+01 0. -1.
</event>
<event>
 5   0  0.1761255E-04  0.1608260E+04  0.7818609E-02  0.8815490E-01
        1   -1    0    0  501    0  0.00000000000E+00  0.00000000000E+00  0.83639769531E+03  0.83639769532E+03  0.50400001928E-02 0. -1.
       -1   -1    0    0    0  501  0.00000000000E+00  0.00000000000E+00 -0.77310698361E+03  0.77310698363E+03  0.50400001928E-02 0.  1.
    10030    2    1    2    0    0  0.00000000000E+00  0.00000000000E+00  0.63290711691E+02  0.16095046790E+04  0.16082598041E+04 0.  0.
        2    1    3    3  502    0 -0.45641323829E+03 -0.12056330077E+03  0.68313031235E+03  0.83037074686E+03  0.25500000920E-02 0. -1.
       -2    1    3    3    0  502  0.45641323829E+03  0.12056330077E+03 -0.61983960066E+03  0.77913393209E+03  0.25500000920E-02 0.  1.
</event>
<event>
 5   0  0.1761255E-04  0.1595819E+04  0.7818609E-02  0.8823121E-01
       -1   -1    0    0    0  501  0.00000000000E+00  0.00000000000E+00  0.99307608468E+03  0.99307608469E+03  0.50400001928E-02 0.  1.
        1   -1    0    0  501    0  0.00000000000E+00  0.00000000000E+00 -0.64109844390E+03  0.64109844392E+03  0.50400001928E-02 0. -1.
    10030    2    1    2    0    0  0.00000000000E+00  0.00000000000E+00  0.35197764078E+03  0.16341745286E+04  0.15958189529E+04 0.  0.
        2    1    3    3  502    0  0.20426577586E+03  0.67724056005E+03  0.55402318271E+03  0.89851041750E+03  0.25500000920E-02 0.  1.
       -2    1    3    3    0  502 -0.20426577586E+03 -0.67724056005E+03 -0.20204554193E+03  0.73566411112E+03  0.25500000920E-02 0. -1.
</event>
<event>
 5   0  0.3210612E-04  0.1594008E+04  0.7818609E-02  0.8824237E-01
        2   -1    0    0  501    0  0.00000000000E+00  0.00000000000E+00  0.15461233432E+04  0.15461233432E+04  0.25500000920E-02 0.  1.
       -2   -1    0    0    0  501  0.00000000000E+00  0.00000000000E+00 -0.41084406803E+03  0.41084406804E+03  0.25500000920E-02 0. -1.
    10030    2    1    2    0    0  0.00000000000E+00  0.00000000000E+00  0.11352792752E+04  0.19569674112E+04  0.15940082861E+04 0.  0.
        2    1    3    3  502    0 -0.49546880831E+03  0.62301762925E+03  0.61636715994E+03  0.10067515991E+04  0.25500000920E-02 0.  1.
       -2    1    3    3    0  502  0.49546880831E+03 -0.62301762925E+03  0.51891211524E+03  0.95021581217E+03  0.25500000920E-02 0. -1.
</event>
<event>
 5   0  0.3274900E-04  0.1593421E+04  0.7818609E-02  0.8824600E-01
       -2   -1    0    0    0  501  0.00000000000E+00  0.00000000000E+00  0.93885912689E+03  0.93885912689E+03  0.25500000920E-02 0.  1.
        2   -1    0    0  501    0  0.00000000000E+00  0.00000000000E+00 -0.67608370304E+03  0.67608370305E+03  0.25500000920E-02 0. -1.
    10030    2    1    2    0    0  0.00000000000E+00  0.00000000000E+00  0.26277542384E+03  0.16149428299E+04  0.15934206666E+04 0.  0.
        3    1    3    3  502    0  0.18080193159E+03  0.71483176734E+03  0.43724782295E+03  0.85723944317E+03  0.10100000352E+00 0. -1.
       -3    1    3    3    0  502 -0.18080193159E+03 -0.71483176734E+03 -0.17447239910E+03  0.75770338676E+03  0.10100000352E+00 0.  1.
</event>
<event>
 5   0  0.3210612E-04  0.1594894E+04  0.7818609E-02  0.8823691E-01
       -2   -1    0    0    0  501  0.00000000000E+00  0.00000000000E+00  0.63418162787E+03  0.63418162787E+03  0.25500000920E-02 0.  1.
        2   -1    0    0  501    0  0.00000000000E+00  0.00000000000E+00 -0.10027435495E+04  0.10027435495E+04  0.25500000920E-02 0. -1.
    10030    2    1    2    0    0  0.00000000000E+00  0.00000000000E+00 -0.36856192166E+03  0.16369251774E+04  0.15948937727E+04 0.  0.
        2    1    3    3  502    0  0.32758261117E+03 -0.22299855577E+03 -0.89453169579E+03  0.97837910740E+03  0.25500000920E-02 0. -1.
       -2    1    3    3    0  502 -0.32758261117E+03  0.22299855577E+03  0.52596977413E+03  0.65854607001E+03  0.25500000920E-02 0.  1.
</event>
<event>
 5   0  0.3228393E-04  0.1599526E+04  0.7818609E-02  0.8820839E-01
        2   -1    0    0  501    0  0.00000000000E+00  0.00000000000E+00  0.18951448297E+04  0.18951448297E+04  0.25500000920E-02 0. -1.
       -2   -1    0    0    0  501  0.00000000000E+00  0.00000000000E+00 -0.33750497789E+03  0.33750497790E+03  0.25500000920E-02 0.  1.
    10030    2    1    2    0    0  0.00000000000E+00  0.00000000000E+00  0.15576398518E+04  0.22326498076E+04  0.15995259471E+04 0.  0.
        1    1    3    3  502    0  0.37306890301E+03 -0.64002405999E+03  0.11994450648E+04  0.14097800067E+04  0.50400001928E-02 0. -1.
       -1    1    3    3    0  502 -0.37306890301E+03  0.64002405999E+03  0.35819478698E+03  0.82286980089E+03  0.50400001928E-02 0.  1.
</event>
<event>
 5   0  0.1764099E-04  0.1599089E+04  0.7818609E-02  0.8821108E-01
        1   -1    0    0  501    0  0.00000000000E+00  0.00000000000E+00  0.16133710343E+04  0.16133710343E+04  0.50400001928E-02 0. -1.
       -1   -1    0    0    0  501  0.00000000000E+00  0.00000000000E+00 -0.39623345838E+03  0.39623345841E+03  0.50400001928E-02 0.  1.
    10030    2    1    2    0    0  0.00000000000E+00  0.00000000000E+00  0.12171375760E+04  0.20096044928E+04  0.15990892216E+04 0.  0.
        5    1    3    3  502    0 -0.18342169076E+03 -0.77819556329E+03  0.61384749224E+03  0.10079993478E+04  0.46999998093E+01 0.  1.
       -5    1    3    3    0  502  0.18342169076E+03  0.77819556329E+03  0.60329008371E+03  0.10016051450E+04  0.46999998093E+01 0. -1.
</event>
<event>
 5   0  0.3380454E-04  0.1600839E+04  0.7818609E-02  0.8820033E-01
        2   -1    0    0  501    0  0.00000000000E+00  0.00000000000E+00  0.73049653990E+03  0.73049653990E+03  0.25500000920E-02 0.  1.
       -2   -1    0    0    0  501  0.00000000000E+00  0.00000000000E+00 -0.87703568917E+03  0.87703568917E+03  0.25500000920E-02 0. -1.
    10030    2    1    2    0    0  0.00000000000E+00  0.00000000000E+00 -0.14653914927E+03  0.16075322291E+04  0.16008392003E+04 0.  0.
        5    1    3    3  502    0  0.66946059379E+03  0.23880095374E+03 -0.44283826686E+03  0.83745519447E+03  0.46999998093E+01 0. -1.
       -5    1    3    3    0  502 -0.66946059379E+03 -0.23880095374E+03  0.29629911759E+03  0.77007703461E+03  0.46999998093E+01 0.  1.
</event>
<event>
 5   0  0.3263294E-04  0.1599568E+04  0.7818609E-02  0.8820814E-01
       -2   -1    0    0    0  501  0.00000000000E+00  0.00000000000E+00  0.35469148621E+03  0.35469148621E+03  0.25500000920E-02 0.  1.
        2   -1    0    0  501    0  0.00000000000E+00  0.00000000000E+00 -0.18034099620E+04  0.18034099620E+04  0.25500000920E-02 0. -1.
    10030    2    1    2    0    0  0.00000000000E+00  0.00000000000E+00 -0.14487184757E+04  0.21581014482E+04  0.15995676412E+04 0.  0.
        4    1    3    3  502    0  0.51750899349E+03  0.14715247307E+03 -0.15227524968E+04  0.16150065597E+04  0.12699999809E+01 0. -1.
       -4    1    3    3    0  502 -0.51750899349E+03 -0.14715247307E+03  0.74034021022E+02  0.54309488843E+03  0.12699999809E+01 0.  1.
</event>
<event>
 5   0  0.3210612E-04  0.1600095E+04  0.7818609E-02  0.8820489E-01
       -2   -1    0    0    0  501  0.00000000000E+00  0.00000000000E+00  0.54471149658E+03  0.54471149659E+03  0.25500000920E-02 0.  1.
        2   -1    0    0  501    0  0.00000000000E+00  0.00000000000E+00 -0.11750738346E+04  0.11750738346E+04  0.25500000920E-02 0. -1.
    10030    2    1    2    0    0  0.00000000000E+00  0.00000000000E+00 -0.63036233798E+03  0.17197853312E+04  0.16000952809E+04 0.  0.
        2    1    3    3  502    0  0.74569518294E+02 -0.53081237843E+03  0.32317677399E+03  0.62591183197E+03  0.25500000920E-02 0.  1.
       -2    1    3    3    0  502 -0.74569518294E+02  0.53081237843E+03 -0.95353911197E+03  0.10938734992E+04  0.25500000920E-02 0. -1.
</event>
<event>
 5   0  0.1764099E-04  0.1619206E+04  0.7818609E-02  0.8808835E-01
       -1   -1    0    0    0  501  0.00000000000E+00  0.00000000000E+00  0.89989681947E+03  0.89989681948E+03  0.50400001928E-02 0.  1.
        1   -1    0    0  501    0  0.00000000000E+00  0.00000000000E+00 -0.72836946695E+03  0.72836946697E+03  0.50400001928E-02 0. -1.
    10030    2    1    2    0    0  0.00000000000E+00  0.00000000000E+00  0.17152735252E+03  0.16282662865E+04  0.16192064312E+04 0.  0.
        5    1    3    3  502    0  0.19519037213E+03  0.72609735222E+03 -0.21611365522E+03  0.78233231317E+03  0.46999998093E+01 0. -1.
       -5    1    3    3    0  502 -0.19519037213E+03 -0.72609735222E+03  0.38764100774E+03  0.84593397328E+03  0.46999998093E+01 0.  1.
</event>
<event>
 5   0  0.1764099E-04  0.1593735E+04  0.7818609E-02  0.8824406E-01
        1   -1    0    0  501    0  0.00000000000E+00  0.00000000000E+00  0.69213624916E+03  0.69213624918E+03  0.50400001928E-02 0.  1.
       -1   -1    0    0    0  501  0.00000000000E+00  0.00000000000E+00 -0.91744673507E+03  0.91744673508E+03  0.50400001928E-02 0. -1.
    10030    2    1    2    0    0  0.00000000000E+00  0.00000000000E+00 -0.22531048591E+03  0.16095829843E+04  0.15937354135E+04 0.  0.
        5    1    3    3  502    0 -0.87930939986E+02  0.31722910187E+03 -0.84555007358E+03  0.90738259307E+03  0.46999998093E+01 0. -1.
       -5    1    3    3    0  502  0.87930939986E+02 -0.31722910187E+03  0.62023958766E+03  0.70220039119E+03  0.46999998093E+01 0.  1.
</event>
<event>
 5   0  0.3228393E-04  0.1580882E+04  0.7818609E-02  0.8832380E-01
       -2   -1    0    0    0  501  0.00000000000E+00  0.00000000000E+00  0.48101389184E+03  0.48101389185E+03  0.25500000920E-02 0. -1.
        2   -1    0    0  501    0  0.00000000000E+00  0.00000000000E+00 -0.12989160661E+04  0.12989160661E+04  0.25500000920E-02 0.  1.
    10030    2    1    2    0    0  0.00000000000E+00  0.00000000000E+00 -0.81790217426E+03  0.17799299580E+04  0.15808816175E+04 0.  0.
        1    1    3    3  502    0  0.32050855450E+03  0.68644204256E+03 -0.66288868551E+03  0.10066527806E+04  0.50400001928E-02 0.  1.
       -1    1    3    3    0  502 -0.32050855450E+03 -0.68644204256E+03 -0.15501348876E+03  0.77327717735E+03  0.50400001928E-02 0. -1.
</event>
<event>
 5   0  0.3380454E-04  0.1699084E+04  0.7818609E-02  0.8761887E-01
       -2   -1    0    0    0  501  0.00000000000E+00  0.00000000000E+00  0.97116146546E+03  0.97116146547E+03  0.25500000920E-02 0. -1.
        2   -1    0    0  501    0  0.00000000000E+00  0.00000000000E+00 -0.74315342164E+03  0.74315342165E+03  0.25500000920E-02 0.  1.
    10030    2    1    2    0    0  0.00000000000E+00  0.00000000000E+00  0.22800804382E+03  0.17143148871E+04  0.16990844194E+04 0.  0.
        5    1    3    3  502    0  0.82510756654E+03  0.10496894579E+03 -0.60400580787E+02  0.83396120779E+03  0.46999998093E+01 0.  1.
       -5    1    3    3    0  502 -0.82510756654E+03 -0.10496894579E+03  0.28840862460E+03  0.88035367932E+03  0.46999998093E+01 0. -1.
</event>
<event>
 5   0  0.3380454E-04  0.1603112E+04  0.7818609E-02  0.8818639E-01
       -2   -1    0    0    0  501  0.00000000000E+00  0.00000000000E+00  0.15065088709E+04  0.15065088709E+04  0.25500000920E-02 0. -1.
        2   -1    0    0  501    0  0.00000000000E+00  0.00000000000E+00 -0.42647718195E+03  0.42647718195E+03  0.25500000920E-02 0.  1.
    10030    2    1    2    0    0  0.00000000000E+00  0.00000000000E+00  0.10800316889E+04  0.19329860528E+04  0.16031115468E+04 0.  0.
        5    1    3    3  502    0  0.73272370788E+03  0.17507537583E+03  0.20994674626E+03  0.78207106172E+03  0.46999998093E+01 0.  1.
       -5    1    3    3    0  502 -0.73272370788E+03 -0.17507537583E+03  0.87008494267E+03  0.11509149911E+04  0.46999998093E+01 0. -1.
</event>
<event>
 5   0  0.1787688E-04  0.1516172E+04  0.7818609E-02  0.8873769E-01
       -1   -1    0    0    0  501  0.00000000000E+00  0.00000000000E+00  0.35137995398E+03  0.35137995401E+03  0.50400001928E-02 0. -1.
        1   -1    0    0  501    0  0.00000000000E+00  0.00000000000E+00 -0.16355362497E+04  0.16355362497E+04  0.50400001928E-02 0.  1.
    10030    2    1    2    0    0  0.00000000000E+00  0.00000000000E+00 -0.12841562957E+04  0.19869162037E+04  0.15161723546E+04 0.  0.
        4    1    3    3  502    0 -0.68683766372E+03  0.21400237413E+03 -0.95536291119E+03  0.11959359922E+04  0.12699999809E+01 0.  1.
       -4    1    3    3    0  502  0.68683766372E+03 -0.21400237413E+03 -0.32879338455E+03  0.79098021155E+03  0.12699999809E+01 0. -1.
</event>
<event>
 5   0  0.1787688E-04  0.1699068E+04  0.7818609E-02  0.8761896E-01
        1   -1    0    0  501    0  0.00000000000E+00  0.00000000000E+00  0.85849167395E+03  0.85849167397E+03  0.50400001928E-02 0. -1.
       -1   -1    0    0    0  501  0.00000000000E+00  0.00000000000E+00 -0.84066952502E+03  0.84066952504E+03  0.50400001928E-02 0.  1.
    10030    2    1    2    0    0  0.00000000000E+00  0.00000000000E+00  0.17822148927E+02  0.16991611990E+04  0.16990677300E+04 0.  0.
        4    1    3    3  502    0  0.54282926412E+03 -0.63817216213E+02  0.65930823458E+03  0.85640248024E+03  0.12699999809E+01 0. -1.
       -4    1    3    3    0  502 -0.54282926412E+03  0.63817216213E+02 -0.64148608565E+03  0.84275871877E+03  0.12699999809E+01 0.  1.
</event>
<event>
 5   0  0.1761255E-04  0.1768829E+04  0.7818609E-02  0.8723054E-01
        1   -1    0    0  501    0  0.00000000000E+00  0.00000000000E+00  0.10029342708E+04  0.10029342708E+04  0.50400001928E-02 0.  1.
       -1   -1    0    0    0  501  0.00000000000E+00  0.00000000000E+00 -0.77990089280E+03  0.77990089282E+03  0.50400001928E-02 0. -1.
    10030    2    1    2    0    0  0.00000000000E+00  0.00000000000E+00  0.22303337802E+03  0.17828351637E+04  0.17688293680E+04 0.  0.
        2    1    3    3  502    0  0.78625529798E+03 -0.31358393497E+03 -0.14674854711E+03  0.85910849952E+03  0.25500000920E-02 0. -1.
       -2    1    3    3    0  502 -0.78625529798E+03  0.31358393497E+03  0.36978192513E+03  0.92372666413E+03  0.25500000920E-02 0.  1.
</event>
<event>
 5   0  0.3228393E-04  0.1570708E+04  0.7818609E-02  0.8838748E-01
       -2   -1    0    0    0  501  0.00000000000E+00  0.00000000000E+00  0.98519643761E+03  0.98519643762E+03  0.25500000920E-02 0.  1.
        2   -1    0    0  501    0  0.00000000000E+00  0.00000000000E+00 -0.62604846728E+03  0.62604846728E+03  0.25500000920E-02 0. -1.
    10030    2    1    2    0    0  0.00000000000E+00  0.00000000000E+00  0.35914797034E+03  0.16112449049E+04  0.15707077637E+04 0.  0.
        1    1    3    3  502    0 -0.23450224458E+03  0.37030306875E+02  0.94750511274E+03  0.97679500666E+03  0.50400001928E-02 0.  1.
       -1    1    3    3    0  502  0.23450224458E+03 -0.37030306875E+02 -0.58835714240E+03  0.63444989824E+03  0.50400001928E-02 0. -1.
</event>
<event>
 5   0  0.3380454E-04  0.1589415E+04  0.7818609E-02  0.8827077E-01
        2   -1    0    0  501    0  0.00000000000E+00  0.00000000000E+00  0.28555045689E+04  0.28555045689E+04  0.25500000920E-02 0.  1.
       -2   -1    0    0    0  501  0.00000000000E+00  0.00000000000E+00 -0.22117290840E+03  0.22117290841E+03  0.25500000920E-02 0. -1.
    10030    2    1    2    0    0  0.00000000000E+00  0.00000000000E+00  0.26343316605E+04  0.30766774774E+04  0.15894153019E+04 0.  0.
        5    1    3    3  502    0  0.45952647421E+03  0.50697588293E+03  0.20995190386E+04  0.22082100013E+04  0.46999998093E+01 0.  1.
       -5    1    3    3    0  502 -0.45952647421E+03 -0.50697588293E+03  0.53481262191E+03  0.86846747603E+03  0.46999998093E+01 0. -1.
</event>
<event>
 5   0  0.3274900E-04  0.1602114E+04  0.7818609E-02  0.8819250E-01
        2   -1    0    0  501    0  0.00000000000E+00  0.00000000000E+00  0.17370347262E+04  0.17370347262E+04  0.25500000920E-02 0. -1.
       -2   -1    0    0    0  501  0.00000000000E+00  0.00000000000E+00 -0.36941825812E+03  0.36941825813E+03  0.25500000920E-02 0.  1.
    10030    2    1    2    0    0  0.00000000000E+00  0.00000000000E+00  0.13676164681E+04  0.21064529843E+04  0.16021140320E+04 0.  0.
        3    1    3    3  502    0  0.28050249924E+03  0.12700228455E+03 -0.28850188022E+03  0.42195328824E+03  0.10100000352E+00 0.  1.
       -3    1    3    3    0  502 -0.28050249924E+03 -0.12700228455E+03  0.16561183483E+04  0.16844996961E+04  0.10100000352E+00 0. -1.
</event>
<event>
 5   0  0.1787688E-04  0.1598221E+04  0.7818609E-02  0.8821642E-01
       -1   -1    0    0    0  501  0.00000000000E+00  0.00000000000E+00  0.71133670522E+03  0.71133670524E+03  0.50400001928E-02 0.  1.
        1   -1    0    0  501    0  0.00000000000E+00  0.00000000000E+00 -0.89771514129E+03  0.89771514131E+03  0.50400001928E-02 0. -1.
    10030    2    1    2    0    0  0.00000000000E+00  0.00000000000E+00 -0.18637843607E+03  0.16090518466E+04  0.15982211748E+04 0.  0.
        4    1    3    3  502    0 -0.57654116293E+03  0.65341805518E+02  0.45999482484E+03  0.74044994151E+03  0.12699999809E+01 0.  1.
       -4    1    3    3    0  502  0.57654116293E+03 -0.65341805518E+02 -0.64637326091E+03  0.86860190504E+03  0.12699999809E+01 0. -1.
</event>
<event>
 5   0  0.3228393E-04  0.1616978E+04  0.7818609E-02  0.8810185E-01
        2   -1    0    0  501    0  0.00000000000E+00  0.00000000000E+00  0.11386071131E+04  0.11386071131E+04  0.25500000920E-02 0.  1.
       -2   -1    0    0    0  501  0.00000000000E+00  0.00000000000E+00 -0.57408245875E+03  0.57408245876E+03  0.25500000920E-02 0. -1.
    10030    2    1    2    0    0  0.00000000000E+00  0.00000000000E+00  0.56452465440E+03  0.17126895719E+04  0.16169778861E+04 0.  0.
        1    1    3    3  502    0 -0.17278022113E+03 -0.45966461986E+03 -0.39802394938E+03  0.63211362260E+03  0.50400001928E-02 0. -1.
       -1    1    3    3    0  502  0.17278022113E+03  0.45966461986E+03  0.96254860377E+03  0.10805759493E+04  0.50400001928E-02 0.  1.
</event>
<event>
 5   0  0.1787688E-04  0.1608281E+04  0.7818609E-02  0.8815477E-01
        1   -1    0    0  501    0  0.00000000000E+00  0.00000000000E+00  0.93673688771E+03  0.93673688772E+03  0.50400001928E-02 0.  1.
       -1   -1    0    0    0  501  0.00000000000E+00  0.00000000000E+00 -0.69031333843E+03  0.69031333845E+03  0.50400001928E-02 0. -1.
    10030    2    1    2    0    0  0.00000000000E+00  0.00000000000E+00  0.24642354928E+03  0.16270502262E+04  0.16082810304E+04 0.  0.
        4    1    3    3  502    0  0.42019979586E+03 -0.51860462931E+03 -0.33048794727E+03  0.74481039612E+03  0.12699999809E+01 0. -1.
       -4    1    3    3    0  502 -0.42019979586E+03  0.51860462931E+03  0.57691149655E+03  0.88223983005E+03  0.12699999809E+01 0.  1.
</event>
<event>
 5   0  0.3274900E-04  0.1460860E+04  0.7818609E-02  0.8910906E-01
        2   -1    0    0  501    0  0.00000000000E+00  0.00000000000E+00  0.37006161262E+03  0.37006161263E+03  0.25500000920E-02 0. -1.
       -2   -1    0    0    0  501  0.00000000000E+00  0.00000000000E+00 -0.14417281250E+04  0.14417281250E+04  0.25500000920E-02 0.  1.
    10030    2    1    2    0    0  0.00000000000E+00  0.00000000000E+00 -0.10716665123E+04  0.18117897376E+04  0.14608603423E+04 0.  0.
        3    1    3    3  502    0  0.38607054807E+03 -0.65073498670E+01  0.23313920710E+03  0.45105067762E+03  0.10100000352E+00 0. -1.
       -3    1    3    3    0  502 -0.38607054807E+03  0.65073498670E+01 -0.13048057194E+04  0.13607390600E+04  0.10100000352E+00 0.  1.
</event>
<event>
 5   0  0.3263294E-04  0.1669867E+04  0.7818609E-02  0.8778739E-01
        2   -1    0    0  501    0  0.00000000000E+00  0.00000000000E+00  0.10168122287E+04  0.10168122287E+04  0.25500000920E-02 0. -1.
       -2   -1    0    0    0  501  0.00000000000E+00  0.00000000000E+00 -0.68558808089E+03  0.68558808090E+03  0.25500000920E-02 0.  1.
    10030    2    1    2    0    0  0.00000000000E+00  0.00000000000E+00  0.33122414778E+03  0.17024003096E+04  0.16698674732E+04 0.  0.
        4    1    3    3  502    0  0.58025889871E+03  0.59205303867E+03  0.26697518110E+03  0.87092166718E+03  0.12699999809E+01 0.  1.
       -4    1    3    3    0  502 -0.58025889871E+03 -0.59205303867E+03  0.64248966682E+02  0.83147864239E+03  0.12699999809E+01 0. -1.
</event>
<event>
 5   0  0.1819811E-04  0.1620245E+04  0.7818609E-02  0.8808206E-01
        1   -1    0    0  501    0  0.00000000000E+00  0.00000000000E+00  0.14529543385E+04  0.14529543385E+04  0.50400001928E-02 0. -1.
       -1   -1    0    0    0  501  0.00000000000E+00  0.00000000000E+00 -0.45169942748E+03  0.45169942751E+03  0.50400001928E-02 0.  1.
    10030    2    1    2    0    0  0.00000000000E+00  0.00000000000E+00  0.10012549110E+04  0.19046537660E+04  0.16202452196E+04 0.  0.
        1    1    3    3  502    0  0.40115526495E+03 -0.25576118927E+03  0.12714403476E+04  0.13575344895E+04  0.50400001928E-02 0. -1.
       -1    1    3    3    0  502 -0.40115526495E+03  0.25576118927E+03 -0.27018543663E+03  0.54711927651E+03  0.50400001928E-02 0.  1.
</event>
<event>
 5   0  0.3228393E-04  0.1589629E+04  0.7818609E-02  0.8826945E-01
       -2   -1    0    0    0  501  0.00000000000E+00  0.00000000000E+00  0.43442018407E+03  0.43442018408E+03  0.25500000920E-02 0. -1.
        2   -1    0    0  501    0  0.00000000000E+00  0.00000000000E+00 -0.14541915008E+04  0.14541915008E+04  0.25500000920E-02 0.  1.
    10030    2    1    2    0    0  0.00000000000E+00  0.00000000000E+00 -0.10197713167E+04  0.18886116849E+04  0.15896290630E+04 0.  0.
        1    1    3    3  502    0  0.51780006017E+03 -0.33911051761E+03  0.82510925724E+02  0.62443646462E+03  0.50400001928E-02 0. -1.
       -1    1    3    3    0  502 -0.51780006017E+03  0.33911051761E+03 -0.11022822424E+04  0.12641752202E+04  0.50400001928E-02 0.  1.
</event>
<event>
 5   0  0.1764099E-04  0.1625308E+04  0.7818609E-02  0.8805150E-01
       -1   -1    0    0    0  501  0.00000000000E+00  0.00000000000E+00  0.36747355625E+03  0.36747355628E+03  0.50400001928E-02 0. -1.
        1   -1    0    0  501    0  0.00000000000E+00  0.00000000000E+00 -0.17971532402E+04  0.17971532402E+04  0.50400001928E-02 0.  1.
    10030    2    1    2    0    0  0.00000000000E+00  0.00000000000E+00 -0.14296796839E+04  0.21646267965E+04  0.16253077153E+04 0.  0.
        5    1    3    3  502    0 -0.63005385831E+03 -0.67837695500E+02 -0.13923902933E+04  0.15298178441E+04  0.46999998093E+01 0.  1.
       -5    1    3    3    0  502  0.63005385831E+03  0.67837695500E+02 -0.37289390605E+02  0.63480895233E+03  0.46999998093E+01 0. -1.
</event>
<event>
 5   0  0.1764099E-04  0.1587209E+04  0.7818609E-02  0.8828445E-01
        1   -1    0    0  501    0  0.00000000000E+00  0.00000000000E+00  0.13239932785E+04  0.13239932785E+04  0.50400001928E-02 0. -1.
       -1   -1    0    0    0  501  0.00000000000E+00  0.00000000000E+00 -0.47568829530E+03  0.47568829533E+03  0.50400001928E-02 0.  1.
    10030    2    1    2    0    0  0.00000000000E+00  0.00000000000E+00  0.84830498322E+03  0.17996815739E+04  0.15872090041E+04 0.  0.
        5    1    3    3  502    0  0.36157272848E+03  0.22891299929E+02  0.12247347586E+04  0.12772063923E+04  0.46999998093E+01 0. -1.
       -5    1    3    3    0  502 -0.36157272848E+03 -0.22891299929E+02 -0.37642977536E+03  0.52247518158E+03  0.46999998093E+01 0.  1.
</event>
<event>
 5   0  0.1787688E-04  0.1597594E+04  0.7818609E-02  0.8822028E-01
       -1   -1    0    0    0  501  0.00000000000E+00  0.00000000000E+00  0.68115101892E+03  0.68115101894E+03  0.50400001928E-02 0. -1.
        1   -1    0    0  501    0  0.00000000000E+00  0.00000000000E+00 -0.93676187612E+03  0.93676187613E+03  0.50400001928E-02 0.  1.
    10030    2    1    2    0    0  0.00000000000E+00  0.00000000000E+00 -0.25561085719E+03  0.16179128951E+04  0.15975935734E+04 0.  0.
        4    1    3    3  502    0 -0.71500971053E+03  0.24096777881E+03 -0.39338178466E+03  0.85091433058E+03  0.12699999809E+01 0.  1.
       -4    1    3    3    0  502  0.71500971053E+03 -0.24096777881E+03  0.13777092747E+03  0.76699856449E+03  0.12699999809E+01 0. -1.
</event>
<event>
 5   0  0.1736537E-04  0.1575942E+04  0.7818609E-02  0.8835466E-01
       -1   -1    0    0    0  501  0.00000000000E+00  0.00000000000E+00  0.34125367396E+03  0.34125367400E+03  0.50400001928E-02 0. -1.
        1   -1    0    0  501    0  0.00000000000E+00  0.00000000000E+00 -0.18194624209E+04  0.18194624209E+04  0.50400001928E-02 0.  1.
    10030    2    1    2    0    0  0.00000000000E+00  0.00000000000E+00 -0.14782087469E+04  0.21607160949E+04  0.15759419225E+04 0.  0.
        3    1    3    3  502    0 -0.21341766044E+03  0.60158455681E+03 -0.10566846770E+03  0.64700611438E+03  0.10100000352E+00 0. -1.
       -3    1    3    3    0  502  0.21341766044E+03 -0.60158455681E+03 -0.13725402792E+04  0.15137099805E+04  0.10100000352E+00 0.  1.
</event>
<event>
 5   0  0.1736537E-04  0.1593641E+04  0.7818609E-02  0.8824464E-01
       -1   -1    0    0    0  501  0.00000000000E+00  0.00000000000E+00  0.53744735512E+03  0.53744735515E+03  0.50400001928E-02 0. -1.
        1   -1    0    0  501    0  0.00000000000E+00  0.00000000000E+00 -0.11813675496E+04  0.11813675496E+04  0.50400001928E-02 0.  1.
    10030    2    1    2    0    0  0.00000000000E+00  0.00000000000E+00 -0.64392019444E+03  0.17188149047E+04  0.15936409445E+04 0.  0.
        3    1    3    3  502    0 -0.19178511841E+03 -0.77334135708E+03 -0.31204752987E+03  0.85569390398E+03  0.10100000352E+00 0.  1.
       -3    1    3    3    0  502  0.19178511841E+03  0.77334135708E+03 -0.33187266457E+03  0.86312100074E+03  0.10100000352E+00 0. -1.
</event>
<event>
 5   0  0.1787688E-04  0.1548320E+04  0.7818609E-02  0.8852941E-01
       -1   -1    0    0    0  501  0.00000000000E+00  0.00000000000E+00  0.32489745838E+03  0.32489745842E+03  0.50400001928E-02 0.  1.
        1   -1    0    0  501    0  0.00000000000E+00  0.00000000000E+00 -0.18446560631E+04  0.18446560632E+04  0.50400001928E-02 0. -1.
    10030    2    1    2    0    0  0.00000000000E+00  0.00000000000E+00 -0.15197586048E+04  0.21695535216E+04  0.15483204662E+04 0.  0.
        4    1    3    3  502    0 -0.22730417476E+03  0.22549421273E+03  0.22777199970E+03  0.39293323172E+03  0.12699999809E+01 0.  1.
       -4    1    3    3    0  502  0.22730417476E+03 -0.22549421273E+03 -0.17475306045E+04  0.17766202899E+04  0.12699999809E+01 0. -1.
</event>
<event>
 5   0  0.1736537E-04  0.1573874E+04  0.7818609E-02  0.8836761E-01
        1   -1    0    0  501    0  0.00000000000E+00  0.00000000000E+00  0.17473159044E+04  0.17473159044E+04  0.50400001928E-02 0. -1.
       -1   -1    0    0    0  501  0.00000000000E+00  0.00000000000E+00 -0.35441213966E+03  0.35441213970E+03  0.50400001928E-02 0.  1.
    10030    2    1    2    0    0  0.00000000000E+00  0.00000000000E+00  0.13929037647E+04  0.21017280441E+04  0.15738741606E+04 0.  0.
        3    1    3    3  502    0 -0.27308868104E+02 -0.58280567895E+03 -0.87297116952E+01  0.58351045557E+03  0.10100000352E+00 0.  1.
       -3    1    3    3    0  502  0.27308868104E+02  0.58280567895E+03  0.14016334764E+04  0.15182175885E+04  0.10100000352E+00 0. -1.
</event>
<event>
 5   0  0.1819811E-04  0.1594348E+04  0.7818609E-02  0.8824028E-01
       -1   -1    0    0    0  501  0.00000000000E+00  0.00000000000E+00  0.10473221516E+04  0.10473221516E+04  0.50400001928E-02 0. -1.
        1   -1    0    0  501    0  0.00000000000E+00  0.00000000000E+00 -0.60677260476E+03  0.60677260478E+03  0.50400001928E-02 0.  1.
    10030    2    1    2    0    0  0.00000000000E+00  0.00000000000E+00  0.44054954683E+03  0.16540947564E+04  0.15943480046E+04 0.  0.
        1    1    3    3  502    0  0.71886983236E+03 -0.23691364997E+03 -0.39268976068E+02  0.75792081771E+03  0.50400001928E-02 0. -1.
       -1    1    3    3    0  502 -0.71886983236E+03  0.23691364997E+03  0.47981852290E+03  0.89617393867E+03  0.50400001928E-02 0.  1.
</event>
<event>
 5   0  0.1764099E-04  0.1614292E+04  0.7818609E-02  0.8811816E-01
        1   -1    0    0  501    0  0.00000000000E+00  0.00000000000E+00  0.73874307218E+03  0.73874307220E+03  0.50400001928E-02 0. -1.
       -1   -1    0    0    0  501  0.00000000000E+00  0.00000000000E+00 -0.88188290288E+03  0.88188290290E+03  0.50400001928E-02 0.  1.
    10030    2    1    2    0    0  0.00000000000E+00  0.00000000000E+00 -0.14313983070E+03  0.16206259751E+04  0.16142922722E+04 0.  0.
        5    1    3    3  502    0  0.49625514720E+03 -0.54815758400E+03  0.25329962144E+03  0.78161927832E+03  0.46999998093E+01 0. -1.
       -5    1    3    3    0  502 -0.49625514720E+03  0.54815758400E+03 -0.39643945214E+03  0.83900669677E+03  0.46999998093E+01 0.  1.
</event>
<event>
 5   0  0.3274900E-04  0.1609818E+04  0.7818609E-02  0.8814539E-01
       -2   -1    0    0    0  501  0.00000000000E+00  0.00000000000E+00  0.49032781426E+03  0.49032781427E+03  0.25500000920E-02 0. -1.
        2   -1    0    0  501    0  0.00000000000E+00  0.00000000000E+00 -0.13213172812E+04  0.13213172812E+04  0.25500000920E-02 0.  1.
    10030    2    1    2    0    0  0.00000000000E+00  0.00000000000E+00 -0.83098946693E+03  0.18116450955E+04  0.16098181443E+04 0.  0.
        3    1    3    3  502    0 -0.37710170841E+03 -0.43139046273E+03  0.22068938294E+03  0.61400915609E+03  0.10100000352E+00 0. -1.
       -3    1    3    3    0  502  0.37710170841E+03  0.43139046273E+03 -0.10516788499E+04  0.11976359394E+04  0.10100000352E+00 0.  1.
</event>
<event>
 5   0  0.3210612E-04  0.1601863E+04  0.7818609E-02  0.8819405E-01
       -2   -1    0    0    0  501  0.00000000000E+00  0.00000000000E+00  0.37515439319E+03  0.37515439320E+03  0.25500000920E-02 0. -1.
        2   -1    0    0  501    0  0.00000000000E+00  0.00000000000E+00 -0.17099384870E+04  0.17099384870E+04  0.25500000920E-02 0.  1.
    10030    2    1    2    0    0  0.00000000000E+00  0.00000000000E+00 -0.13347840938E+04  0.20850928802E+04  0.16018625852E+04 0.  0.
        2    1    3    3  502    0  0.45548754477E+03  0.65152585075E+03 -0.54028035575E+03  0.96117516637E+03  0.25500000920E-02 0.  1.
       -2    1    3    3    0  502 -0.45548754477E+03 -0.65152585075E+03 -0.79450373804E+03  0.11239177138E+04  0.25500000920E-02 0. -1.
</event>
<event>
 5   0  0.1764099E-04  0.1573410E+04  0.7818609E-02  0.8837052E-01
       -1   -1    0    0    0  501  0.00000000000E+00  0.00000000000E+00  0.10014815098E+04  0.10014815098E+04  0.50400001928E-02 0. -1.
        1   -1    0    0  501    0  0.00000000000E+00  0.00000000000E+00 -0.61798882204E+03  0.61798882206E+03  0.50400001928E-02 0.  1.
    10030    2    1    2    0    0  0.00000000000E+00  0.00000000000E+00  0.38349268775E+03  0.16194703319E+04  0.15734095189E+04 0.  0.
        5    1    3    3  502    0  0.50856163347E+03  0.59703464517E+03  0.12832276866E+03  0.79471638056E+03  0.46999998093E+01 0.  1.
       -5    1    3    3    0  502 -0.50856163347E+03 -0.59703464517E+03  0.25516991908E+03  0.82475395129E+03  0.46999998093E+01 0. -1.
</event>
<event>
 5   0  0.3274900E-04  0.1601418E+04  0.7818609E-02  0.8819677E-01
        2   -1    0    0  501    0  0.00000000000E+00  0.00000000000E+00  0.24770699018E+03  0.24770699020E+03  0.25500000920E-02 0. -1.
       -2   -1    0    0    0  501  0.00000000000E+00  0.00000000000E+00 -0.25882798818E+04  0.25882798818E+04  0.25500000920E-02 0.  1.
    10030    2    1    2    0    0  0.00000000000E+00  0.00000000000E+00 -0.23405728916E+04  0.28359868720E+04  0.16014181457E+04 0.  0.
        3    1    3    3  502    0  0.39097246533E+03 -0.31067348325E+03 -0.22787161249E+04  0.23327933192E+04  0.10100000352E+00 0.  1.
       -3    1    3    3    0  502 -0.39097246533E+03  0.31067348325E+03 -0.61856766727E+02  0.50319355285E+03  0.10100000352E+00 0. -1.
</event>
<event>
 5   0  0.3228393E-04  0.1563688E+04  0.7818609E-02  0.8843172E-01
       -2   -1    0    0    0  501  0.00000000000E+00  0.00000000000E+00  0.69320856782E+03  0.69320856783E+03  0.25500000920E-02 0. -1.
        2   -1    0    0  501    0  0.00000000000E+00  0.00000000000E+00 -0.88181236520E+03  0.88181236520E+03  0.25500000920E-02 0.  1.
    10030    2    1    2    0    0  0.00000000000E+00  0.00000000000E+00 -0.18860379738E+03  0.15750209330E+04  0.15636878036E+04 0.  0.
        1    1    3    3  502    0  0.72836864415E+03  0.26824132276E+03 -0.18882015526E+03  0.79882873012E+03  0.50400001928E-02 0. -1.
       -1    1    3    3    0  502 -0.72836864415E+03 -0.26824132276E+03  0.21635788749E+00  0.77619220290E+03  0.50400001928E-02 0.  1.
</event>
<event>
 5   0  0.3263294E-04  0.1590631E+04  0.7818609E-02  0.8826324E-01
       -2   -1    0    0    0  501  0.00000000000E+00  0.00000000000E+00  0.42251476432E+03  0.42251476432E+03  0.25500000920E-02 0. -1.
        2   -1    0    0  501    0  0.00000000000E+00  0.00000000000E+00 -0.14970527641E+04  0.14970527641E+04  0.25500000920E-02 0.  1.
    10030    2    1    2    0    0  0.00000000000E+00  0.00000000000E+00 -0.10745379997E+04  0.19195675284E+04  0.15906311902E+04 0.  0.
        4    1    3    3  502    0 -0.46678924026E+03  0.58423684522E+03 -0.21054046651E+03  0.77688724219E+03  0.12699999809E+01 0.  1.
       -4    1    3    3    0  502  0.46678924026E+03 -0.58423684522E+03 -0.86399753324E+03  0.11426802862E+04  0.12699999809E+01 0. -1.
</event>
<event>
 5   0  0.3210612E-04  0.1572201E+04  0.7818609E-02  0.8837810E-01
       -2   -1    0    0    0  501  0.00000000000E+00  0.00000000000E+00  0.38143609414E+03  0.38143609415E+03  0.25500000920E-02 0.  1.
        2   -1    0    0  501    0  0.00000000000E+00  0.00000000000E+00 -0.16200717683E+04  0.16200717683E+04  0.25500000920E-02 0. -1.
    10030    2    1    2    0    0  0.00000000000E+00  0.00000000000E+00 -0.12386356742E+04  0.20015078625E+04  0.15722008110E+04 0.  0.
        2    1    3    3  502    0 -0.15207721641E+03  0.14088362950E+03 -0.15846459694E+04  0.15981484678E+04  0.25500000920E-02 0. -1.
       -2    1    3    3    0  502  0.15207721641E+03 -0.14088362950E+03  0.34601029525E+03  0.40335939463E+03  0.25500000920E-02 0.  1.
</event>
<event>
 5   0  0.1764099E-04  0.1604907E+04  0.7818609E-02  0.8817539E-01
        1   -1    0    0  501    0  0.00000000000E+00  0.00000000000E+00  0.56819336124E+03  0.56819336126E+03  0.50400001928E-02 0. -1.
       -1   -1    0    0    0  501  0.00000000000E+00  0.00000000000E+00 -0.11332966180E+04  0.11332966180E+04  0.50400001928E-02 0.  1.
    10030    2    1    2    0    0  0.00000000000E+00  0.00000000000E+00 -0.56510325671E+03  0.17014899792E+04  0.16049069938E+04 0.  0.
        5    1    3    3  502    0  0.63963317932E+03 -0.41487201277E+03 -0.54793590253E+03  0.93888510178E+03  0.46999998093E+01 0.  1.
       -5    1    3    3    0  502 -0.63963317932E+03  0.41487201277E+03 -0.17167354182E+02  0.76260487745E+03  0.46999998093E+01 0. -1.
</event>
<event>
 5   0  0.3210612E-04  0.1604602E+04  0.7818609E-02  0.8817726E-01
       -2   -1    0    0    0  501  0.00000000000E+00  0.00000000000E+00  0.25470466807E+03  0.25470466809E+03  0.25500000920E-02 0. -1.
        2   -1    0    0  501    0  0.00000000000E+00  0.00000000000E+00 -0.25271891039E+04  0.25271891039E+04  0.25500000920E-02 0.  1.
    10030    2    1    2    0    0  0.00000000000E+00  0.00000000000E+00 -0.22724844358E+04  0.27818937720E+04  0.16046019592E+04 0.  0.
        2    1    3    3  502    0  0.46791795676E+03 -0.13881281987E+03 -0.32283241831E+02  0.48914049202E+03  0.25500000920E-02 0. -1.
       -2    1    3    3    0  502 -0.46791795676E+03  0.13881281987E+03 -0.22402011940E+04  0.22927532799E+04  0.25500000920E-02 0.  1.
</event>
<event>
 5   0  0.1764099E-04  0.1600866E+04  0.7818609E-02  0.8820016E-01
       -1   -1    0    0    0  501  0.00000000000E+00  0.00000000000E+00  0.49510631060E+03  0.49510631062E+03  0.50400001928E-02 0. -1.
        1   -1    0    0  501    0  0.00000000000E+00  0.00000000000E+00 -0.12940514161E+04  0.12940514161E+04  0.50400001928E-02 0.  1.
    10030    2    1    2    0    0  0.00000000000E+00  0.00000000000E+00 -0.79894510546E+03  0.17891577267E+04  0.16008660436E+04 0.  0.
        5    1    3    3  502    0  0.66526246645E+03 -0.25218459820E+01 -0.89689499521E+03  0.11167019439E+04  0.46999998093E+01 0.  1.
       -5    1    3    3    0  502 -0.66526246645E+03  0.25218459820E+01  0.97949889751E+02  0.67245578284E+03  0.46999998093E+01 0. -1.
</event>
<event>
 5   0  0.1761255E-04  0.1597673E+04  0.7818609E-02  0.8821979E-01
       -1   -1    0    0    0  501  0.00000000000E+00  0.00000000000E+00  0.44475883491E+03  0.44475883494E+03  0.50400001928E-02 0.  1.
        1   -1    0    0  501    0  0.00000000000E+00  0.00000000000E+00 -0.14348001734E+04  0.14348001734E+04  0.50400001928E-02 0. -1.
    10030    2    1    2    0    0  0.00000000000E+00  0.00000000000E+00 -0.99004133850E+03  0.18795590084E+04  0.15976733752E+04 0.  0.
        2    1    3    3  502    0  0.57021616846E+03  0.55945250855E+03 -0.49801200579E+03  0.94135516465E+03  0.25500000920E-02 0. -1.
       -2    1    3    3    0  502 -0.57021616846E+03 -0.55945250855E+03 -0.49202933271E+03  0.93820384371E+03  0.25500000920E-02 0.  1.
</event>
<event>
 5   0  0.1761255E-04  0.1616325E+04  0.7818609E-02  0.8810581E-01
        1   -1    0    0  501    0  0.00000000000E+00  0.00000000000E+00  0.12766498772E+04  0.12766498772E+04  0.50400001928E-02 0. -1.
       -1   -1    0    0    0  501  0.00000000000E+00  0.00000000000E+00 -0.51159428228E+03  0.51159428231E+03  0.50400001928E-02 0.  1.
    10030    2    1    2    0    0  0.00000000000E+00  0.00000000000E+00  0.76505559495E+03  0.17882441595E+04  0.16163251872E+04 0.  0.
        2    1    3    3  502    0  0.76738019761E+03  0.22448632768E+03  0.51277978813E+03  0.94984714040E+03  0.25500000920E-02 0. -1.
       -2    1    3    3    0  502 -0.76738019761E+03 -0.22448632768E+03  0.25227580682E+03  0.83839701915E+03  0.25500000920E-02 0.  1.
</event>
<event>
 5   0  0.1787688E-04  0.1602088E+04  0.7818609E-02  0.8819266E-01
       -1   -1    0    0    0  501  0.00000000000E+00  0.00000000000E+00  0.17466014284E+04  0.17466014284E+04  0.50400001928E-02 0.  1.
        1   -1    0    0  501    0  0.00000000000E+00  0.00000000000E+00 -0.36738275151E+03  0.36738275154E+03  0.50400001928E-02 0. -1.
    10030    2    1    2    0    0  0.00000000000E+00  0.00000000000E+00  0.13792186769E+04  0.21139841799E+04  0.16020876862E+04 0.  0.
        4    1    3    3  502    0  0.57080281058E+03  0.18528552345E+03  0.13897292536E+04  0.15137686696E+04  0.12699999809E+01 0.  1.
       -4    1    3    3    0  502 -0.57080281058E+03 -0.18528552345E+03 -0.10510576717E+02  0.60021551037E+03  0.12699999809E+01 0. -1.
</event>
<event>
 5   0  0.3228393E-04  0.1596162E+04  0.7818609E-02  0.8822909E-01
        2   -1    0    0  501    0  0.00000000000E+00  0.00000000000E+00  0.76762571569E+03  0.76762571569E+03  0.25500000920E-02 0. -1.
       -2   -1    0    0    0  501  0.00000000000E+00  0.00000000000E+00 -0.82974447324E+03  0.82974447324E+03  0.25500000920E-02 0.  1.
    10030    2    1    2    0    0  0.00000000000E+00  0.00000000000E+00 -0.62118757549E+02  0.15973701889E+04  0.15961618904E+04 0.  0.
        1    1    3    3  502    0  0.22027770132E+03  0.21063496433E+03  0.70709225743E+03  0.76997974937E+03  0.50400001928E-02 0. -1.
       -1    1    3    3    0  502 -0.22027770132E+03 -0.21063496433E+03 -0.76921101498E+03  0.82739043957E+03  0.50400001928E-02 0.  1.
</event>
<event>
 5   0  0.3263294E-04  0.1621495E+04  0.7818609E-02  0.8807451E-01
        2   -1    0    0  501    0  0.00000000000E+00  0.00000000000E+00  0.21256666874E+04  0.21256666874E+04  0.25500000920E-02 0. -1.
       -2   -1    0    0    0  501  0.00000000000E+00  0.00000000000E+00 -0.30922606097E+03  0.30922606098E+03  0.25500000920E-02 0.  1.
    10030    2    1    2    0    0  0.00000000000E+00  0.00000000000E+00  0.18164406264E+04  0.24348927484E+04  0.16214950345E+04 0.  0.
        4    1    3    3  502    0  0.63779087172E+03  0.48700217245E+03  0.10817978966E+04  0.13469360096E+04  0.12699999809E+01 0. -1.
       -4    1    3    3    0  502 -0.63779087172E+03 -0.48700217245E+03  0.73464272984E+03  0.10879567388E+04  0.12699999809E+01 0.  1.
</event>
<event>
 5   0  0.1736537E-04  0.1600298E+04  0.7818609E-02  0.8820365E-01
       -1   -1    0    0    0  501  0.00000000000E+00  0.00000000000E+00  0.37305187238E+03  0.37305187241E+03  0.50400001928E-02 0. -1.
        1   -1    0    0  501    0  0.00000000000E+00  0.00000000000E+00 -0.17162187087E+04  0.17162187087E+04  0.50400001928E-02 0.  1.
    10030    2    1    2    0    0  0.00000000000E+00  0.00000000000E+00 -0.13431668363E+04  0.20892705811E+04  0.16002982256E+04 0.  0.
        3    1    3    3  502    0 -0.62691393040E+03 -0.16962306752E+03 -0.61393050303E+02  0.65235126887E+03  0.10100000352E+00 0. -1.
       -3    1    3    3    0  502  0.62691393040E+03  0.16962306752E+03 -0.12817737860E+04  0.14369193122E+04  0.10100000352E+00 0.  1.
</event>
<event>
 5   0  0.3274900E-04  0.1598766E+04  0.7818609E-02  0.8821306E-01
       -2   -1    0    0    0  501  0.00000000000E+00  0.00000000000E+00  0.59138099688E+03  0.59138099688E+03  0.25500000920E-02 0.  1.
        2   -1    0    0  501    0  0.00000000000E+00  0.00000000000E+00 -0.10805443327E+04  0.10805443327E+04  0.25500000920E-02 0. -1.
    10030    2    1    2    0    0  0.00000000000E+00  0.00000000000E+00 -0.48916333580E+03  0.16719253296E+04  0.15987662551E+04 0.  0.
        3    1    3    3  502    0 -0.19670485930E+03  0.26305780199E+03  0.51754772028E+03  0.61298275818E+03  0.10100000352E+00 0.  1.
       -3    1    3    3    0  502  0.19670485930E+03 -0.26305780199E+03 -0.10067110561E+04  0.10589425714E+04  0.10100000352E+00 0. -1.
</event>
<event>
 5   0  0.1736537E-04  0.1603120E+04  0.7818609E-02  0.8818634E-01
        1   -1    0    0  501    0  0.00000000000E+00  0.00000000000E+00  0.92123661471E+03  0.92123661472E+03  0.50400001928E-02 0.  1.
       -1   -1    0    0    0  501  0.00000000000E+00  0.00000000000E+00 -0.69743006532E+03  0.69743006534E+03  0.50400001928E-02 0. -1.
    10030    2    1    2    0    0  0.00000000000E+00  0.00000000000E+00  0.22380654938E+03  0.16186666801E+04  0.16031195993E+04 0.  0.
        3    1    3    3  502    0 -0.18895583909E+03 -0.77576244290E+03  0.40603827909E+02  0.79947505150E+03  0.10100000352E+00 0. -1.
       -3    1    3    3    0  502  0.18895583909E+03  0.77576244290E+03  0.18320272148E+03  0.81919162855E+03  0.10100000352E+00 0.  1.
</event>
<event>
 5   0  0.1761255E-04  0.1595987E+04  0.7818609E-02  0.8823017E-01
       -1   -1    0    0    0  501  0.00000000000E+00  0.00000000000E+00  0.50831802052E+03  0.50831802055E+03  0.50400001928E-02 0. -1.
        1   -1    0    0  501    0  0.00000000000E+00  0.00000000000E+00 -0.12527458499E+04  0.12527458500E+04  0.50400001928E-02 0.  1.
    10030    2    1    2    0    0  0.00000000000E+00  0.00000000000E+00 -0.74442782942E+03  0.17610638705E+04  0.15959865798E+04 0.  0.
        2    1    3    3  502    0 -0.71100878508E+03  0.18026165159E+03 -0.71898955547E+03  0.10271191442E+04  0.25500000920E-02 0. -1.
       -2    1    3    3    0  502  0.71100878508E+03 -0.18026165159E+03 -0.25438273948E+02  0.73394472631E+03  0.25500000920E-02 0.  1.
</event>
<event>
 5   0  0.3210612E-04  0.1616736E+04  0.7818609E-02  0.8810332E-01
       -2   -1    0    0    0  501  0.00000000000E+00  0.00000000000E+00  0.35215273700E+03  0.35215273701E+03  0.25500000920E-02 0. -1.
        2   -1    0    0  501    0  0.00000000000E+00  0.00000000000E+00 -0.18556126127E+04  0.18556126127E+04  0.25500000920E-02 0.  1.
    10030    2    1    2    0    0  0.00000000000E+00  0.00000000000E+00 -0.15034598757E+04  0.22077653497E+04  0.16167362931E+04 0.  0.
        2    1    3    3  502    0  0.28030557947E+03  0.35104723690E+03 -0.16694632621E+04  0.17288472934E+04  0.25500000920E-02 0.  1.
       -2    1    3    3    0  502 -0.28030557947E+03 -0.35104723690E+03  0.16600338635E+03  0.47891805635E+03  0.25500000920E-02 0. -1.
</event>
<event>
 5   0  0.1219463E-04  0.1607392E+04  0.7818609E-02  0.8816020E-01
       -3   -1    0    0    0  501  0.00000000000E+00  0.00000000000E+00  0.97474566486E+03  0.97474567010E+03  0.10100000352E+00 0.  1.
        3   -1    0    0  501    0  0.00000000000E+00  0.00000000000E+00 -0.66266222653E+03  0.66266223423E+03  0.10100000352E+00 0. -1.
    10030    2    1    2    0    0  0.00000000000E+00  0.00000000000E+00  0.31208343833E+03  0.16374079043E+04  0.16073918541E+04 0.  0.
        2    1    3    3  502    0 -0.28156659320E+03 -0.43984109215E+03  0.77833984813E+03  0.93731150208E+03  0.25500000920E-02 0.  1.
       -2    1    3    3    0  502  0.28156659320E+03  0.43984109215E+03 -0.46625640979E+03  0.70009640224E+03  0.25500000920E-02 0. -1.
</event>
<event>
 5   0  0.1819811E-04  0.1607632E+04  0.7818609E-02  0.8815873E-01
       -1   -1    0    0    0  501  0.00000000000E+00  0.00000000000E+00  0.76306844522E+03  0.76306844523E+03  0.50400001928E-02 0. -1.
        1   -1    0    0  501    0  0.00000000000E+00  0.00000000000E+00 -0.84673903081E+03  0.84673903083E+03  0.50400001928E-02 0.  1.
    10030    2    1    2    0    0  0.00000000000E+00  0.00000000000E+00 -0.83670585595E+02  0.16098074761E+04  0.16076315943E+04 0.  0.
        1    1    3    3  502    0 -0.70124803804E+03  0.29970532060E+03  0.21257105708E+03  0.79168083493E+03  0.50400001928E-02 0. -1.
       -1    1    3    3    0  502  0.70124803804E+03 -0.29970532060E+03 -0.29624164268E+03  0.81812664114E+03  0.50400001928E-02 0.  1.
</event>
<event>
 5   0  0.3263294E-04  0.1599292E+04  0.7818609E-02  0.8820983E-01
        2   -1    0    0  501    0  0.00000000000E+00  0.00000000000E+00  0.65448651674E+03  0.65448651674E+03  0.25500000920E-02 0. -1.
       -2   -1    0    0    0  501  0.00000000000E+00  0.00000000000E+00 -0.97700120808E+03  0.97700120809E+03  0.25500000920E-02 0.  1.
    10030    2    1    2    0    0  0.00000000000E+00  0.00000000000E+00 -0.32251469135E+03  0.16314877248E+04  0.15992924905E+04 0.  0.
        4    1    3    3  502    0 -0.40818196854E+03 -0.57215668590E+03 -0.55032291175E+03  0.89265486766E+03  0.12699999809E+01 0. -1.
       -4    1    3    3    0  502  0.40818196854E+03  0.57215668590E+03  0.22780822040E+03  0.73883285717E+03  0.12699999809E+01 0.  1.
</event>
<event>
 5   0  0.1819811E-04  0.1584833E+04  0.7818609E-02  0.8829920E-01
       -1   -1    0    0    0  501  0.00000000000E+00  0.00000000000E+00  0.36491996320E+03  0.36491996323E+03  0.50400001928E-02 0. -1.
        1   -1    0    0  501    0  0.00000000000E+00  0.00000000000E+00 -0.17207174139E+04  0.17207174139E+04  0.50400001928E-02 0.  1.
    10030    2    1    2    0    0  0.00000000000E+00  0.00000000000E+00 -0.13557974507E+04  0.20856373771E+04  0.15848332851E+04 0.  0.
        1    1    3    3  502    0 -0.49325859289E+03  0.12616933487E+03 -0.14769830435E+04  0.15622745121E+04  0.50400001928E-02 0.  1.
       -1    1    3    3    0  502  0.49325859289E+03 -0.12616933487E+03  0.12118559279E+03  0.52336286499E+03  0.50400001928E-02 0. -1.
</event>
<event>
 5   0  0.3263294E-04  0.1597559E+04  0.7818609E-02  0.8822049E-01
        2   -1    0    0  501    0  0.00000000000E+00  0.00000000000E+00  0.72233725375E+03  0.72233725375E+03  0.25500000920E-02 0.  1.
       -2   -1    0    0    0  501  0.00000000000E+00  0.00000000000E+00 -0.88331118663E+03  0.88331118663E+03  0.25500000920E-02 0. -1.
    10030    2    1    2    0    0  0.00000000000E+00  0.00000000000E+00 -0.16097393288E+03  0.16056484404E+04  0.15975588587E+04 0.  0.
        4    1    3    3  502    0 -0.20938850980E+03  0.67980997136E+03 -0.44573024362E+03  0.83944160498E+03  0.12699999809E+01 0. -1.
       -4    1    3    3    0  502  0.20938850980E+03 -0.67980997136E+03  0.28475631074E+03  0.76620683540E+03  0.12699999809E+01 0.  1.
</event>
<event>
 5   0  0.3380454E-04  0.1601552E+04  0.7818609E-02  0.8819595E-01
       -2   -1    0    0    0  501  0.00000000000E+00  0.00000000000E+00  0.96404114659E+03  0.96404114659E+03  0.25500000920E-02 0.  1.
        2   -1    0    0  501    0  0.00000000000E+00  0.00000000000E+00 -0.66516092157E+03  0.66516092158E+03  0.25500000920E-02 0. -1.
    10030    2    1    2    0    0  0.00000000000E+00  0.00000000000E+00  0.29888022502E+03  0.16292020682E+04  0.16015523688E+04 0.  0.
        5    1    3    3  502    0  0.79763754211E+02  0.20565139118E+03 -0.63363252192E+03  0.67094486659E+03  0.46999998093E+01 0. -1.
       -5    1    3    3    0  502 -0.79763754211E+02 -0.20565139118E+03  0.93251274693E+03  0.95825720158E+03  0.46999998093E+01 0.  1.
</event>
<event>
 5   0  0.1787688E-04  0.1607189E+04  0.7818609E-02  0.8816144E-01
        1   -1    0    0  501    0  0.00000000000E+00  0.00000000000E+00  0.15944514374E+04  0.15944514374E+04  0.50400001928E-02 0.  1.
       -1   -1    0    0    0  501  0.00000000000E+00  0.00000000000E+00 -0.40500697306E+03  0.40500697309E+03  0.50400001928E-02 0. -1.
    10030    2    1    2    0    0  0.00000000000E+00  0.00000000000E+00  0.11894444643E+04  0.19994584105E+04  0.16071887884E+04 0.  0.
        4    1    3    3  502    0  0.74321448847E+03 -0.19965570937E+03  0.30688109496E+03  0.82849731291E+03  0.12699999809E+01 0. -1.
       -4    1    3    3    0  502 -0.74321448847E+03  0.19965570937E+03  0.88256336937E+03  0.11709610976E+04  0.12699999809E+01 0.  1.
</event>
<event>
 5   0  0.3380454E-04  0.1568094E+04  0.7818609E-02  0.8840392E-01
       -2   -1    0    0    0  501  0.00000000000E+00  0.00000000000E+00  0.75411834577E+03  0.75411834578E+03  0.25500000920E-02 0. -1.
        2   -1    0    0  501    0  0.00000000000E+00  0.00000000000E+00 -0.81516342058E+03  0.81516342058E+03  0.25500000920E-02 0.  1.
    10030    2    1    2    0    0  0.00000000000E+00  0.00000000000E+00 -0.61045074803E+02  0.15692817664E+04  0.15680939899E+04 0.  0.
        5    1    3    3  502    0  0.40381299287E+03 -0.52108829599E+03 -0.45523727901E+03  0.80116229044E+03  0.46999998093E+01 0. -1.
       -5    1    3    3    0  502 -0.40381299287E+03  0.52108829599E+03  0.39419220421E+03  0.76811947592E+03  0.46999998093E+01 0.  1.
</event>
<event>
 5   0  0.1219463E-04  0.1516251E+04  0.7818609E-02  0.8873717E-01
        4   -1    0    0  501    0  0.00000000000E+00  0.00000000000E+00  0.41588890069E+03  0.41589083979E+03  0.12699999809E+01 0. -1.
       -4   -1    0    0    0  501  0.00000000000E+00  0.00000000000E+00 -0.13819846485E+04  0.13819852321E+04  0.12699999809E+01 0.  1.
    10030    2    1    2    0    0  0.00000000000E+00  0.00000000000E+00 -0.96609574783E+03  0.17978760719E+04  0.15162510926E+04 0.  0.
        5    1    3    3  502    0  0.24146949391E+03 -0.71738068941E+03 -0.43288564881E+03  0.87198316783E+03  0.46999998093E+01 0.  1.
       -5    1    3    3    0  502 -0.24146949391E+03  0.71738068941E+03 -0.53321009902E+03  0.92589290403E+03  0.46999998093E+01 0. -1.
</event>
<event>
 5   0  0.3210612E-04  0.1601308E+04  0.7818609E-02  0.8819745E-01
        2   -1    0    0  501    0  0.00000000000E+00  0.00000000000E+00  0.10821325278E+04  0.10821325278E+04  0.25500000920E-02 0.  1.
       -2   -1    0    0    0  501  0.00000000000E+00  0.00000000000E+00 -0.59239206114E+03  0.59239206115E+03  0.25500000920E-02 0. -1.
    10030    2    1    2    0    0  0.00000000000E+00  0.00000000000E+00  0.48974046668E+03  0.16745245890E+04  0.16013078637E+04 0.  0.
        2    1    3    3  502    0  0.63160792054E+03  0.29558465033E+03  0.65623683565E+03  0.95757278328E+03  0.25500000920E-02 0.  1.
       -2    1    3    3    0  502 -0.63160792054E+03 -0.29558465033E+03 -0.16649636898E+03  0.71695180570E+03  0.25500000920E-02 0. -1.
</event>
<event>
 5   0  0.1764099E-04  0.1596635E+04  0.7818609E-02  0.8822618E-01
       -1   -1    0    0    0  501  0.00000000000E+00  0.00000000000E+00  0.51587609653E+03  0.51587609655E+03  0.50400001928E-02 0.  1.
        1   -1    0    0  501    0  0.00000000000E+00  0.00000000000E+00 -0.12353958281E+04  0.12353958281E+04  0.50400001928E-02 0. -1.
    10030    2    1    2    0    0  0.00000000000E+00  0.00000000000E+00 -0.71951973155E+03  0.17512719246E+04  0.15966354343E+04 0.  0.
        5    1    3    3  502    0  0.33857474970E+03 -0.32325730891E+03 -0.10690428692E+04  0.11670487972E+04  0.46999998093E+01 0. -1.
       -5    1    3    3    0  502 -0.33857474970E+03  0.32325730891E+03  0.34952313763E+03  0.58422312744E+03  0.46999998093E+01 0.  1.
</event>
</LesHouchesEvents>
