<LesHouchesEvents version="3.0">
<header>
<!--
#*********************************************************************
#                                                                    *
#                        MadGraph5_aMC@NLO                           *
#                                                                    *
#                           Going Beyond                             *
#                                                                    *
#                   http://madgraph.hep.uiuc.edu                     *
#                   http://madgraph.phys.ucl.ac.be                   *
#                   http://amcatnlo.cern.ch                          *
#                                                                    *
#                     The MadGraph5_aMC@NLO team                     *
#                                                                    *
#....................................................................*
#                                                                    *
# This file contains all the information necessary to reproduce      *
# the events generated:                                              *
#                                                                    *
# 1. software version                                                *
# 2. proc_card          : code generation info including model       *
# 3. param_card         : model primary parameters in the LH format  *
# 4. run_card           : running parameters (collider and cuts)     *
# 5. pythia_card        : present only if pythia has been run        *
# 6. pgs_card           : present only if pgs has been run           *
# 7. delphes_cards      : present only if delphes has been run       *
#                                                                    *
#                                                                    *
#*********************************************************************
-->
<MGVersion>
#5.2.2.3
</MGVersion>
<MG5ProcCard>
#************************************************************
#*                     MadGraph5_aMC@NLO                    *
#*                                                          *
#*                *                       *                 *
#*                  *        * *        *                   *
#*                    * * * * 5 * * * *                     *
#*                  *        * *        *                   *
#*                *                       *                 *
#*                                                          *
#*                                                          *
#*         VERSION 2.2.3                 2015-02-10         *
#*                                                          *
#*    The MadGraph5_aMC@NLO Development Team - Find us at   *
#*    https://server06.fynu.ucl.ac.be/projects/madgraph     *
#*                                                          *
#************************************************************
#*                                                          *
#*               Command File for MadGraph5_aMC@NLO         *
#*                                                          *
#*     run as ./bin/mg5_aMC  filename                       *
#*                                                          *
#************************************************************
set group_subprocesses Auto
set ignore_six_quark_processes False
set loop_optimized_output True
set gauge unitary
set complex_mass_scheme False
import model sm
define p = g u c d s u~ c~ d~ s~
define j = g u c d s u~ c~ d~ s~
define l+ = e+ mu+
define l- = e- mu-
define vl = ve vm vt
define vl~ = ve~ vm~ vt~
import model Zprime_UFO
generate p p > zph, zph > j j
add process p p > zph, zph > b b~
output Dijet_signal
</MG5ProcCard>
<MGProcCard>
#*********************************************************************
#                        MadGraph/MadEvent                           *
#                   http://madgraph.hep.uiuc.edu                     *
#                                                                    *
#                          proc_card.dat                             *
#*********************************************************************
#                                                                    *
#            This Files is generated by MADGRAPH 5                   *
#                                                                    *
# WARNING: This Files is generated for MADEVENT (compatibility issue)*
#          This files is NOT a valid MG4 proc_card.dat               *
#          Running this in MG4 will NEVER reproduce the result of MG5*
#                                                                    *
#*********************************************************************
#*********************************************************************
# Process(es) requested : mg2 input                                  *
#*********************************************************************
# Begin PROCESS # This is TAG. Do not modify this line
p p > zph , zph > j j           #Process
# Be carefull the coupling are here in MG5 convention
          
end_coup           # End the couplings input

done               # this tells MG there are no more procs
# End PROCESS  # This is TAG. Do not modify this line
#*********************************************************************
# Model information                                                  *
#*********************************************************************
# Begin MODEL  # This is TAG. Do not modify this line
Zprime_UFO
# End   MODEL  # This is TAG. Do not modify this line
#*********************************************************************
# Start multiparticle definitions                                    *
#*********************************************************************
# Begin MULTIPARTICLES # This is TAG. Do not modify this line

# End  MULTIPARTICLES # This is TAG. Do not modify this line
</MGProcCard>
<MGRunCard>
#*********************************************************************
#                       MadGraph5_aMC@NLO                            *
#                                                                    *
#                     run_card.dat MadEvent                          *
#                                                                    *
#  This file is used to set the parameters of the run.               *
#                                                                    *
#  Some notation/conventions:                                        *
#                                                                    *
#   Lines starting with a '# ' are info or comments                  *
#                                                                    *
#   mind the format:   value    = variable     ! comment             *
#*********************************************************************
#
#*******************                                                 
# Running parameters
#*******************                                                 
#                                                                    
#*********************************************************************
# Tag name for the run (one word)                                    *
#*********************************************************************
  tag_1     = run_tag ! name of the run 
#*********************************************************************
# Run to generate the grid pack                                      *
#*********************************************************************
  .false.     = gridpack  !True = setting up the grid pack
#*********************************************************************
# Number of events and rnd seed                                      *
# Warning: Do not generate more than 1M events in a single run       *
# If you want to run Pythia, avoid more than 50k events in a run.    *
#*********************************************************************
  2000 = nevents ! Number of unweighted events requested 
 741 = iseed   ! rnd seed (0=assigned automatically=default))
#*********************************************************************
# Collider type and energy                                           *
# lpp: 0=No PDF, 1=proton, -1=antiproton, 2=photon from proton,      *
#                                         3=photon from electron     *
#*********************************************************************
        1     = lpp1    ! beam 1 type 
        1     = lpp2    ! beam 2 type
     4000     = ebeam1  ! beam 1 total energy in GeV
     4000     = ebeam2  ! beam 2 total energy in GeV
#*********************************************************************
# Beam polarization from -100 (left-handed) to 100 (right-handed)    *
#*********************************************************************
        0     = polbeam1 ! beam polarization for beam 1
        0     = polbeam2 ! beam polarization for beam 2
#*********************************************************************
# PDF CHOICE: this automatically fixes also alpha_s and its evol.    *
#*********************************************************************
 'nn23lo1'    = pdlabel     ! PDF set                                     
 230000    = lhaid     ! if pdlabel=lhapdf, this is the lhapdf number
#*********************************************************************
# Renormalization and factorization scales                           *
#*********************************************************************
 F        = fixed_ren_scale  ! if .true. use fixed ren scale
 F        = fixed_fac_scale  ! if .true. use fixed fac scale
 91.1880  = scale            ! fixed ren scale
 91.1880  = dsqrt_q2fact1    ! fixed fact scale for pdf1
 91.1880  = dsqrt_q2fact2    ! fixed fact scale for pdf2
 1        = scalefact        ! scale factor for event-by-event scales
#*********************************************************************
# Matching - Warning! ickkw > 1 is still beta
#*********************************************************************
 0        = ickkw            ! 0 no matching, 1 MLM, 2 CKKW matching
 1        = highestmult      ! for ickkw=2, highest mult group
 1        = ktscheme         ! for ickkw=1, 1 Durham kT, 2 Pythia pTE
 1        = alpsfact         ! scale factor for QCD emission vx
 F        = chcluster        ! cluster only according to channel diag
 T        = pdfwgt           ! for ickkw=1, perform pdf reweighting
 5        = asrwgtflavor     ! highest quark flavor for a_s reweight
 T        = clusinfo         ! include clustering tag in output
 3.0      = lhe_version       ! Change the way clustering information pass to shower.        
#*********************************************************************
#**********************************************************
#
#**********************************************************
# Automatic ptj and mjj cuts if xqcut > 0
# (turn off for VBF and single top processes)
#**********************************************************
   T  = auto_ptj_mjj  ! Automatic setting of ptj and mjj
#**********************************************************
#                                                                    
#**********************************
# BW cutoff (M+/-bwcutoff*Gamma)
#**********************************
  15  = bwcutoff      ! (M+/-bwcutoff*Gamma)
#**********************************************************
# Apply pt/E/eta/dr/mij cuts on decay products or not
# (note that etmiss/ptll/ptheavy/ht/sorted cuts always apply)
#**********************************************************
   T  = cut_decays    ! Cut decay products 
#*************************************************************
# Number of helicities to sum per event (0 = all helicities)
# 0 gives more stable result, but longer run time (needed for
# long decay chains e.g.).
# Use >=2 if most helicities contribute, e.g. pure QCD.
#*************************************************************
   0  = nhel          ! Number of helicities used per event
#*******************                                                 
# Standard Cuts
#*******************                                                 
#                                                                    
#*********************************************************************
# Minimum and maximum pt's (for max, -1 means no cut)                *
#*********************************************************************
 20  = ptj       ! minimum pt for the jets 
  0  = ptb       ! minimum pt for the b 
 10  = pta       ! minimum pt for the photons 
 10  = ptl       ! minimum pt for the charged leptons 
  0  = misset    ! minimum missing Et (sum of neutrino's momenta)
  0  = ptheavy   ! minimum pt for one heavy final state
 1.0 = ptonium   ! minimum pt for the quarkonium states
 -1  = ptjmax    ! maximum pt for the jets
 -1  = ptbmax    ! maximum pt for the b
 -1  = ptamax    ! maximum pt for the photons
 -1  = ptlmax    ! maximum pt for the charged leptons
 -1  = missetmax ! maximum missing Et (sum of neutrino's momenta)
#*********************************************************************
# Minimum and maximum E's (in the center of mass frame)              *
#*********************************************************************
  0  = ej     ! minimum E for the jets 
  0  = eb     ! minimum E for the b 
  0  = ea     ! minimum E for the photons 
  0  = el     ! minimum E for the charged leptons 
 -1   = ejmax ! maximum E for the jets
 -1   = ebmax ! maximum E for the b
 -1   = eamax ! maximum E for the photons
 -1   = elmax ! maximum E for the charged leptons
#*********************************************************************
# Maximum and minimum absolute rapidity (for max, -1 means no cut)   *
#*********************************************************************
   5  = etaj    ! max rap for the jets 
  -1  = etab    ! max rap for the b
 2.5  = etaa    ! max rap for the photons 
 2.5  = etal    ! max rap for the charged leptons 
 0.6  = etaonium ! max rap for the quarkonium states
   0  = etajmin ! min rap for the jets
   0  = etabmin ! min rap for the b
   0  = etaamin ! min rap for the photons
   0  = etalmin ! main rap for the charged leptons
#*********************************************************************
# Minimum and maximum DeltaR distance                                *
#*********************************************************************
 0.4 = drjj    ! min distance between jets 
 0   = drbb    ! min distance between b's 
 0.4 = drll    ! min distance between leptons 
 0.4 = draa    ! min distance between gammas 
 0   = drbj    ! min distance between b and jet 
 0.4 = draj    ! min distance between gamma and jet 
 0.4 = drjl    ! min distance between jet and lepton 
 0   = drab    ! min distance between gamma and b 
 0   = drbl    ! min distance between b and lepton 
 0.4 = dral    ! min distance between gamma and lepton 
 -1  = drjjmax ! max distance between jets
 -1  = drbbmax ! max distance between b's
 -1  = drllmax ! max distance between leptons
 -1  = draamax ! max distance between gammas
 -1  = drbjmax ! max distance between b and jet
 -1  = drajmax ! max distance between gamma and jet
 -1  = drjlmax ! max distance between jet and lepton
 -1  = drabmax ! max distance between gamma and b
 -1  = drblmax ! max distance between b and lepton
 -1  = dralmax ! maxdistance between gamma and lepton
#*********************************************************************
# Minimum and maximum invariant mass for pairs                       *
# WARNING: for four lepton final state mmll cut require to have      *
#          different lepton masses for each flavor!                  *           
#*********************************************************************
 0   = mmjj    ! min invariant mass of a jet pair 
 0   = mmbb    ! min invariant mass of a b pair 
 0   = mmaa    ! min invariant mass of gamma gamma pair
 0   = mmll    ! min invariant mass of l+l- (same flavour) lepton pair
 -1  = mmjjmax ! max invariant mass of a jet pair
 -1  = mmbbmax ! max invariant mass of a b pair
 -1  = mmaamax ! max invariant mass of gamma gamma pair
 -1  = mmllmax ! max invariant mass of l+l- (same flavour) lepton pair
#*********************************************************************
# Minimum and maximum invariant mass for all letpons                 *
#*********************************************************************
 0   = mmnl    ! min invariant mass for all letpons (l+- and vl) 
 -1  = mmnlmax ! max invariant mass for all letpons (l+- and vl) 
#*********************************************************************
# Minimum and maximum pt for 4-momenta sum of leptons                *
#*********************************************************************
 0   = ptllmin  ! Minimum pt for 4-momenta sum of leptons(l and vl)
 -1  = ptllmax  ! Maximum pt for 4-momenta sum of leptons(l and vl)
#*********************************************************************
# Inclusive cuts                                                     *
#*********************************************************************
 0  = xptj ! minimum pt for at least one jet  
 0  = xptb ! minimum pt for at least one b 
 0  = xpta ! minimum pt for at least one photon 
 0  = xptl ! minimum pt for at least one charged lepton 
#*********************************************************************
# Control the pt's of the jets sorted by pt                          *
#*********************************************************************
 0   = ptj1min ! minimum pt for the leading jet in pt
 0   = ptj2min ! minimum pt for the second jet in pt
 0   = ptj3min ! minimum pt for the third jet in pt
 0   = ptj4min ! minimum pt for the fourth jet in pt
 -1  = ptj1max ! maximum pt for the leading jet in pt 
 -1  = ptj2max ! maximum pt for the second jet in pt
 -1  = ptj3max ! maximum pt for the third jet in pt
 -1  = ptj4max ! maximum pt for the fourth jet in pt
 0   = cutuse  ! reject event if fails any (0) / all (1) jet pt cuts
#*********************************************************************
# Control the pt's of leptons sorted by pt                           *
#*********************************************************************
 0   = ptl1min ! minimum pt for the leading lepton in pt
 0   = ptl2min ! minimum pt for the second lepton in pt
 0   = ptl3min ! minimum pt for the third lepton in pt
 0   = ptl4min ! minimum pt for the fourth lepton in pt
 -1  = ptl1max ! maximum pt for the leading lepton in pt 
 -1  = ptl2max ! maximum pt for the second lepton in pt
 -1  = ptl3max ! maximum pt for the third lepton in pt
 -1  = ptl4max ! maximum pt for the fourth lepton in pt
#*********************************************************************
# Control the Ht(k)=Sum of k leading jets                            *
#*********************************************************************
 0   = htjmin ! minimum jet HT=Sum(jet pt)
 -1  = htjmax ! maximum jet HT=Sum(jet pt)
 0   = ihtmin  !inclusive Ht for all partons (including b)
 -1  = ihtmax  !inclusive Ht for all partons (including b)
 0   = ht2min ! minimum Ht for the two leading jets
 0   = ht3min ! minimum Ht for the three leading jets
 0   = ht4min ! minimum Ht for the four leading jets
 -1  = ht2max ! maximum Ht for the two leading jets
 -1  = ht3max ! maximum Ht for the three leading jets
 -1  = ht4max ! maximum Ht for the four leading jets
#***********************************************************************
# Photon-isolation cuts, according to hep-ph/9801442                   *
# When ptgmin=0, all the other parameters are ignored                  *
# When ptgmin>0, pta and draj are not going to be used                 *
#***********************************************************************
   0 = ptgmin ! Min photon transverse momentum
 0.4 = R0gamma ! Radius of isolation code
 1.0 = xn ! n parameter of eq.(3.4) in hep-ph/9801442
 1.0 = epsgamma ! epsilon_gamma parameter of eq.(3.4) in hep-ph/9801442
 .true. = isoEM ! isolate photons from EM energy (photons and leptons)
#*********************************************************************
# WBF cuts                                                           *
#*********************************************************************
 0   = xetamin ! minimum rapidity for two jets in the WBF case  
 0   = deltaeta ! minimum rapidity for two jets in the WBF case 
#*********************************************************************
# KT DURHAM CUT                                                      *
#*********************************************************************
 -1    =  ktdurham        
 0.4  =  dparameter 
#*********************************************************************
# maximal pdg code for quark to be considered as a light jet         *
# (otherwise b cuts are applied)                                     *
#*********************************************************************
 4 = maxjetflavor    ! Maximum jet pdg code
#*********************************************************************
# Jet measure cuts                                                   *
#*********************************************************************
 0   = xqcut   ! minimum kt jet measure between partons
#*********************************************************************
#
#*********************************************************************
# Store info for systematics studies                                 *
# WARNING: If use_syst is T, matched Pythia output is                *
#          meaningful ONLY if plotted taking matchscale              *
#          reweighting into account!                                 *
#*********************************************************************
   F  = use_syst      ! Enable systematics studies
#
#**************************************
# Parameter of the systematics study
#  will be used by SysCalc (if installed)
#**************************************                                  
#
0.5 1 2 = sys_scalefact  # factorization/renormalization scale factor
0.5 1 2 = sys_alpsfact  # \alpha_s emission scale factors
30 50 = sys_matchscale # variation of merging scale
# PDF sets and number of members (0 or none for all members).
CT10nlo.LHgrid = sys_pdf # matching scales
# MSTW2008nlo68cl.LHgrid 1  = sys_pdf
</MGRunCard>
<slha>
######################################################################
## PARAM_CARD AUTOMATICALY GENERATED BY MG5 FOLLOWING UFO MODEL   ####
######################################################################
##                                                                  ##
##  Width set on Auto will be computed following the information    ##
##        present in the decay.py files of the model.               ##
##        See  arXiv:1402.1178 for more details.                    ##
##                                                                  ##
######################################################################

###################################
## INFORMATION FOR CKMBLOCK
###################################
Block ckmblock 
    1 2.277360e-01 # cabi 

###################################
## INFORMATION FOR FRBLOCK
###################################
Block frblock 
    1 2.000000e-01 # gz 

###################################
## INFORMATION FOR MASS
###################################
Block mass 
    1 5.040000e-03 # MD 
    2 2.550000e-03 # MU 
    3 1.010000e-01 # MS 
    4 1.270000e+00 # MC 
    5 4.700000e+00 # MB 
    6 1.720000e+02 # MT 
   11 5.110000e-04 # Me 
   13 1.056600e-01 # MM 
   15 1.777000e+00 # MTA 
   23 9.118760e+01 # MZ 
   25 1.200000e+02 # MH 
  10030 3.200000e+03 # MZph 
  10031 3.000000e+02 # MZpl 
## Dependent parameters, given by model restrictions.
## Those values should be edited following the 
## analytical expression. MG5 ignores those values 
## but they are important for interfacing the output of MG5
## to external program such as Pythia.
  12 0.000000 # ve : 0.0 
  14 0.000000 # vm : 0.0 
  16 0.000000 # vt : 0.0 
  21 0.000000 # g : 0.0 
  22 0.000000 # a : 0.0 
  24 79.824360 # w+ : cmath.sqrt(MZ__exp__2/2. + cmath.sqrt(MZ__exp__4/4. - (aEW*cmath.pi*MZ__exp__2)/(Gf*sqrt__2))) 

###################################
## INFORMATION FOR SMINPUTS
###################################
Block sminputs 
    1 1.279000e+02 # aEWM1 
    2 1.166370e-05 # Gf 
    3 1.184000e-01 # aS 

###################################
## INFORMATION FOR YUKAWA
###################################
Block yukawa 
    1 5.040000e-03 # ymdo 
    2 2.550000e-03 # ymup 
    3 1.010000e-01 # yms 
    4 1.270000e+00 # ymc 
    5 4.700000e+00 # ymb 
    6 1.720000e+02 # ymt 
   11 5.110000e-04 # yme 
   13 1.056600e-01 # ymm 
   15 1.777000e+00 # ymtau 

###################################
## INFORMATION FOR DECAY
###################################
DECAY   6 1.508336e+00 # WT 
DECAY  23 2.495200e+00 # WZ 
DECAY  24 2.085000e+00 # WW 
DECAY  25 5.753088e-03 # WH 
## Dependent parameters, given by model restrictions.
## Those values should be edited following the 
## analytical expression. MG5 ignores those values 
## but they are important for interfacing the output of MG5
## to external program such as Pythia.
DECAY  1 0.000000 # d : 0.0 
DECAY  2 0.000000 # u : 0.0 
DECAY  3 0.000000 # s : 0.0 
DECAY  4 0.000000 # c : 0.0 
DECAY  5 0.000000 # b : 0.0 
DECAY  11 0.000000 # e- : 0.0 
DECAY  12 0.000000 # ve : 0.0 
DECAY  13 0.000000 # mu- : 0.0 
DECAY  14 0.000000 # vm : 0.0 
DECAY  15 0.000000 # ta- : 0.0 
DECAY  16 0.000000 # vt : 0.0 
DECAY  21 0.000000 # g : 0.0 
DECAY  22 0.000000 # a : 0.0 
DECAY  10030 0.308725 # zph : (gz__exp__2*MZph*(5 + cmath.sqrt(1 - (4*MT__exp__2)/MZph__exp__2)))/(144.*cmath.pi) 
DECAY  10031 0.132629 # zpl : (5*gz__exp__2*MZpl)/(144.*cmath.pi) 
#===========================================================
# QUANTUM NUMBERS OF NEW STATE(S) (NON SM PDG CODE)
#===========================================================

Block QNUMBERS 10030  # zph 
        1 0  # 3 times electric charge
        2 3  # number of spin states (2S+1)
        3 1  # colour rep (1: singlet, 3: triplet, 8: octet)
        4 0  # Particle/Antiparticle distinction (0=own anti)
Block QNUMBERS 10031  # zpl 
        1 0  # 3 times electric charge
        2 3  # number of spin states (2S+1)
        3 1  # colour rep (1: singlet, 3: triplet, 8: octet)
        4 0  # Particle/Antiparticle distinction (0=own anti)
</slha>
## END BANNER##
<MGGenerationInfo>
#  Number of Events        :         3899
#  Integrated weight (pb)  :  0.24644E-04
#  Max wgt                 :  0.97271E-08
#  Average wgt             :  0.63206E-08
</MGGenerationInfo>
</header>
<init>
     2212     2212  0.40000000000E+04  0.40000000000E+04 0 0  247000  247000 2   1
  0.24650564095E-04  0.52443965083E-07  0.97270830000E-08   0
</init>
<event>
 5   0  0.9329929E-08  0.3196238E+04  0.7818609E-02  0.8189811E-01
       -2   -1    0    0    0  501  0.00000000000E+00  0.00000000000E+00  0.20405686940E+04  0.20405686940E+04  0.25500000920E-02 0. -1.
        2   -1    0    0  501    0  0.00000000000E+00  0.00000000000E+00 -0.12516043254E+04  0.12516043254E+04  0.25500000920E-02 0.  1.
    10030    2    1    2    0    0  0.00000000000E+00  0.00000000000E+00  0.78896436856E+03  0.32921730194E+04  0.31962381661E+04 0.  0.
        1    1    3    3  502    0 -0.54428549493E+03  0.14774162956E+04  0.67652388222E+03  0.17136773832E+04  0.50400001928E-02 0. -1.
       -1    1    3    3    0  502  0.54428549493E+03 -0.14774162956E+04  0.11244048635E+03  0.15784956362E+04  0.50400001928E-02 0.  1.
</event>
<event>
 5   0  0.9329929E-08  0.3199198E+04  0.7818609E-02  0.8189029E-01
        2   -1    0    0  501    0  0.00000000000E+00  0.00000000000E+00  0.16706106573E+04  0.16706106573E+04  0.25500000920E-02 0. -1.
       -2   -1    0    0    0  501  0.00000000000E+00  0.00000000000E+00 -0.15316061365E+04  0.15316061365E+04  0.25500000920E-02 0.  1.
    10030    2    1    2    0    0  0.00000000000E+00  0.00000000000E+00  0.13900452079E+03  0.32022167939E+04  0.31991983587E+04 0.  0.
        1    1    3    3  502    0 -0.18378306922E+02  0.14704242856E+04 -0.56056141368E+03  0.15737580629E+04  0.50400001928E-02 0.  1.
       -1    1    3    3    0  502  0.18378306922E+02 -0.14704242856E+04  0.69956593447E+03  0.16284587310E+04  0.50400001928E-02 0. -1.
</event>
<event>
 5   0  0.9707721E-08  0.3197783E+04  0.7818609E-02  0.8189403E-01
       -2   -1    0    0    0  501  0.00000000000E+00  0.00000000000E+00  0.11762167705E+04  0.11762167705E+04  0.25500000920E-02 0. -1.
        2   -1    0    0  501    0  0.00000000000E+00  0.00000000000E+00 -0.21734551353E+04  0.21734551353E+04  0.25500000920E-02 0.  1.
    10030    2    1    2    0    0  0.00000000000E+00  0.00000000000E+00 -0.99723836477E+03  0.33496719058E+04  0.31977832197E+04 0.  0.
        3    1    3    3  502    0 -0.12467284635E+04 -0.99438329417E+03 -0.61953319484E+03  0.17108335358E+04  0.10100000352E+00 0. -1.
       -3    1    3    3    0  502  0.12467284635E+04  0.99438329417E+03 -0.37770516992E+03  0.16388383700E+04  0.10100000352E+00 0.  1.
</event>
<event>
 5   0  0.9329929E-08  0.3190870E+04  0.7818609E-02  0.8191233E-01
       -2   -1    0    0    0  501  0.00000000000E+00  0.00000000000E+00  0.21988729163E+04  0.21988729163E+04  0.25500000920E-02 0.  1.
        2   -1    0    0  501    0  0.00000000000E+00  0.00000000000E+00 -0.11575986383E+04  0.11575986383E+04  0.25500000920E-02 0. -1.
    10030    2    1    2    0    0  0.00000000000E+00  0.00000000000E+00  0.10412742781E+04  0.33564715546E+04  0.31908696580E+04 0.  0.
        1    1    3    3  502    0  0.38989633946E+03  0.92135980168E+03  0.18279103216E+04  0.20837896208E+04  0.50400001928E-02 0.  1.
       -1    1    3    3    0  502 -0.38989633946E+03 -0.92135980168E+03 -0.78663604354E+03  0.12726819338E+04  0.50400001928E-02 0. -1.
</event>
<event>
 5   0  0.9707721E-08  0.3203546E+04  0.7818609E-02  0.8187881E-01
       -2   -1    0    0    0  501  0.00000000000E+00  0.00000000000E+00  0.17008919479E+04  0.17008919479E+04  0.25500000920E-02 0. -1.
        2   -1    0    0  501    0  0.00000000000E+00  0.00000000000E+00 -0.15084304907E+04  0.15084304907E+04  0.25500000920E-02 0.  1.
    10030    2    1    2    0    0  0.00000000000E+00  0.00000000000E+00  0.19246145723E+03  0.32093224386E+04  0.32035463322E+04 0.  0.
        3    1    3    3  502    0 -0.89806220100E+03 -0.12204575325E+04 -0.42397903211E+03  0.15734645008E+04  0.10100000352E+00 0.  1.
       -3    1    3    3    0  502  0.89806220100E+03  0.12204575325E+04  0.61644048933E+03  0.16358579378E+04  0.10100000352E+00 0. -1.
</event>
<event>
 5   0  0.3343140E-08  0.3195481E+04  0.7818609E-02  0.8190012E-01
       -1   -1    0    0    0  501  0.00000000000E+00  0.00000000000E+00  0.13275969622E+04  0.13275969622E+04  0.50400001928E-02 0.  1.
        1   -1    0    0  501    0  0.00000000000E+00  0.00000000000E+00 -0.19228538818E+04  0.19228538819E+04  0.50400001928E-02 0. -1.
    10030    2    1    2    0    0  0.00000000000E+00  0.00000000000E+00 -0.59525691969E+03  0.32504508440E+04  0.31954811670E+04 0.  0.
        1    1    3    3  502    0 -0.80330780373E+03 -0.12520146593E+04  0.29543698776E+03  0.15166170078E+04  0.50400001928E-02 0.  1.
       -1    1    3    3    0  502  0.80330780373E+03  0.12520146593E+04 -0.89069390745E+03  0.17338338362E+04  0.50400001928E-02 0. -1.
</event>
<event>
 5   0  0.3270966E-08  0.3197605E+04  0.7818609E-02  0.8189450E-01
        1   -1    0    0  501    0  0.00000000000E+00  0.00000000000E+00  0.14480815775E+04  0.14480815775E+04  0.50400001928E-02 0.  1.
       -1   -1    0    0    0  501  0.00000000000E+00  0.00000000000E+00 -0.17652104456E+04  0.17652104456E+04  0.50400001928E-02 0. -1.
    10030    2    1    2    0    0  0.00000000000E+00  0.00000000000E+00 -0.31712886817E+03  0.32132920231E+04  0.31976045576E+04 0.  0.
        3    1    3    3  502    0  0.10711501793E+04 -0.10285153930E+04 -0.75389139245E+03  0.16654005110E+04  0.10100000352E+00 0.  1.
       -3    1    3    3    0  502 -0.10711501793E+04  0.10285153930E+04  0.43676252428E+03  0.15478915121E+04  0.10100000352E+00 0. -1.
</event>
<event>
 5   0  0.9329929E-08  0.3199775E+04  0.7818609E-02  0.8188876E-01
       -2   -1    0    0    0  501  0.00000000000E+00  0.00000000000E+00  0.11284264237E+04  0.11284264237E+04  0.25500000920E-02 0.  1.
        2   -1    0    0  501    0  0.00000000000E+00  0.00000000000E+00 -0.22683276080E+04  0.22683276080E+04  0.25500000920E-02 0. -1.
    10030    2    1    2    0    0  0.00000000000E+00  0.00000000000E+00 -0.11399011843E+04  0.33967540318E+04  0.31997754987E+04 0.  0.
        1    1    3    3  502    0  0.10917145360E+04  0.93882236479E+03  0.17041643020E+03  0.14499206255E+04  0.50400001928E-02 0.  1.
       -1    1    3    3    0  502 -0.10917145360E+04 -0.93882236479E+03 -0.13103176145E+04  0.19468334062E+04  0.50400001928E-02 0. -1.
</event>
<event>
 5   0  0.3427667E-08  0.3199642E+04  0.7818609E-02  0.8188912E-01
        1   -1    0    0  501    0  0.00000000000E+00  0.00000000000E+00  0.14887461303E+04  0.14887461303E+04  0.50400001928E-02 0.  1.
       -1   -1    0    0    0  501  0.00000000000E+00  0.00000000000E+00 -0.17191828876E+04  0.17191828876E+04  0.50400001928E-02 0. -1.
    10030    2    1    2    0    0  0.00000000000E+00  0.00000000000E+00 -0.23043675731E+03  0.32079290179E+04  0.31996417745E+04 0.  0.
        2    1    3    3  502    0  0.15041427131E+04 -0.54026657047E+03 -0.18677270852E+03  0.16091045067E+04  0.25500000920E-02 0. -1.
       -2    1    3    3    0  502 -0.15041427131E+04  0.54026657047E+03 -0.43664048791E+02  0.15988245113E+04  0.25500000920E-02 0.  1.
</event>
<event>
 5   0  0.9329929E-08  0.3200519E+04  0.7818609E-02  0.8188680E-01
       -2   -1    0    0    0  501  0.00000000000E+00  0.00000000000E+00  0.21312272586E+04  0.21312272586E+04  0.25500000920E-02 0.  1.
        2   -1    0    0  501    0  0.00000000000E+00  0.00000000000E+00 -0.12015757595E+04  0.12015757595E+04  0.25500000920E-02 0. -1.
    10030    2    1    2    0    0  0.00000000000E+00  0.00000000000E+00  0.92965149910E+03  0.33328030182E+04  0.32005193404E+04 0.  0.
        1    1    3    3  502    0 -0.14431676928E+04 -0.29253469156E+03 -0.18758469035E+03  0.14844182535E+04  0.50400001928E-02 0. -1.
       -1    1    3    3    0  502  0.14431676928E+04  0.29253469156E+03  0.11172361895E+04  0.18483847647E+04  0.50400001928E-02 0.  1.
</event>
<event>
 5   0  0.3080500E-08  0.3200232E+04  0.7818609E-02  0.8188756E-01
        4   -1    0    0  501    0  0.00000000000E+00  0.00000000000E+00  0.18316017293E+04  0.18316021696E+04  0.12699999809E+01 0. -1.
       -4   -1    0    0    0  501  0.00000000000E+00  0.00000000000E+00 -0.13978852762E+04  0.13978858531E+04  0.12699999809E+01 0.  1.
    10030    2    1    2    0    0  0.00000000000E+00  0.00000000000E+00  0.43371645313E+03  0.32294880227E+04  0.32002316990E+04 0.  0.
        3    1    3    3  502    0  0.11709816985E+04  0.79102993349E+03 -0.54063320130E+03  0.15130138012E+04  0.10100000352E+00 0.  1.
       -3    1    3    3    0  502 -0.11709816985E+04 -0.79102993349E+03  0.97434965444E+03  0.17164742216E+04  0.10100000352E+00 0. -1.
</event>
<event>
 5   0  0.9157524E-08  0.3207008E+04  0.7818609E-02  0.8186969E-01
        2   -1    0    0  501    0  0.00000000000E+00  0.00000000000E+00  0.17095279814E+04  0.17095279814E+04  0.25500000920E-02 0.  1.
       -2   -1    0    0    0  501  0.00000000000E+00  0.00000000000E+00 -0.15040554288E+04  0.15040554288E+04  0.25500000920E-02 0. -1.
    10030    2    1    2    0    0  0.00000000000E+00  0.00000000000E+00  0.20547255263E+03  0.32135834102E+04  0.32070078523E+04 0.  0.
        5    1    3    3  502    0 -0.57775150292E+03  0.51980357688E+03  0.15081847768E+04  0.16966543457E+04  0.46999998093E+01 0.  1.
       -5    1    3    3    0  502  0.57775150292E+03 -0.51980357688E+03 -0.13027122242E+04  0.15169290645E+04  0.46999998093E+01 0. -1.
</event>
<event>
 5   0  0.3283581E-08  0.3200724E+04  0.7818609E-02  0.8188626E-01
        1   -1    0    0  501    0  0.00000000000E+00  0.00000000000E+00  0.12821047835E+04  0.12821047836E+04  0.50400001928E-02 0.  1.
       -1   -1    0    0    0  501  0.00000000000E+00  0.00000000000E+00 -0.19976207365E+04  0.19976207365E+04  0.50400001928E-02 0. -1.
    10030    2    1    2    0    0  0.00000000000E+00  0.00000000000E+00 -0.71551595292E+03  0.32797255200E+04  0.32007243568E+04 0.  0.
        5    1    3    3  502    0  0.12782253840E+04  0.86734467903E+03 -0.78640118623E+03  0.17333770047E+04  0.46999998093E+01 0. -1.
       -5    1    3    3    0  502 -0.12782253840E+04 -0.86734467903E+03  0.70885233308E+02  0.15463485154E+04  0.46999998093E+01 0.  1.
</event>
<event>
 5   0  0.3343140E-08  0.3199814E+04  0.7818609E-02  0.8188866E-01
        1   -1    0    0  501    0  0.00000000000E+00  0.00000000000E+00  0.19710960452E+04  0.19710960452E+04  0.50400001928E-02 0. -1.
       -1   -1    0    0    0  501  0.00000000000E+00  0.00000000000E+00 -0.12986187269E+04  0.12986187270E+04  0.50400001928E-02 0.  1.
    10030    2    1    2    0    0  0.00000000000E+00  0.00000000000E+00  0.67247731824E+03  0.32697147722E+04  0.31998138927E+04 0.  0.
        1    1    3    3  502    0  0.22999759533E+03  0.77519136902E+03 -0.10744563114E+04  0.13447218737E+04  0.50400001928E-02 0.  1.
       -1    1    3    3    0  502 -0.22999759533E+03 -0.77519136902E+03  0.17469336297E+04  0.19249928984E+04  0.50400001928E-02 0. -1.
</event>
<event>
 5   0  0.3270966E-08  0.3198994E+04  0.7818609E-02  0.8189083E-01
        1   -1    0    0  501    0  0.00000000000E+00  0.00000000000E+00  0.22871992537E+04  0.22871992537E+04  0.50400001928E-02 0.  1.
       -1   -1    0    0    0  501  0.00000000000E+00  0.00000000000E+00 -0.11185692187E+04  0.11185692187E+04  0.50400001928E-02 0. -1.
    10030    2    1    2    0    0  0.00000000000E+00  0.00000000000E+00  0.11686300350E+04  0.34057684724E+04  0.31989940183E+04 0.  0.
        3    1    3    3  502    0 -0.26744213981E+03  0.18557614370E+03 -0.10829311419E+04  0.11307978031E+04  0.10100000352E+00 0. -1.
       -3    1    3    3    0  502  0.26744213981E+03 -0.18557614370E+03  0.22515611768E+04  0.22749706694E+04  0.10100000352E+00 0.  1.
</event>
<event>
 5   0  0.3270966E-08  0.3199250E+04  0.7818609E-02  0.8189015E-01
        1   -1    0    0  501    0  0.00000000000E+00  0.00000000000E+00  0.11493492405E+04  0.11493492405E+04  0.50400001928E-02 0. -1.
       -1   -1    0    0    0  501  0.00000000000E+00  0.00000000000E+00 -0.22263028121E+04  0.22263028121E+04  0.50400001928E-02 0.  1.
    10030    2    1    2    0    0  0.00000000000E+00  0.00000000000E+00 -0.10769535716E+04  0.33756520527E+04  0.31992495660E+04 0.  0.
        3    1    3    3  502    0  0.14765619950E+04 -0.89629203639E+00 -0.11876772387E+04  0.18949441581E+04  0.10100000352E+00 0.  1.
       -3    1    3    3    0  502 -0.14765619950E+04  0.89629203639E+00  0.11072366716E+03  0.14807078946E+04  0.10100000352E+00 0. -1.
</event>
<event>
 5   0  0.9329929E-08  0.3198085E+04  0.7818609E-02  0.8189323E-01
        2   -1    0    0  501    0  0.00000000000E+00  0.00000000000E+00  0.25114949374E+04  0.25114949374E+04  0.25500000920E-02 0.  1.
       -2   -1    0    0    0  501  0.00000000000E+00  0.00000000000E+00 -0.10180933767E+04  0.10180933767E+04  0.25500000920E-02 0. -1.
    10030    2    1    2    0    0  0.00000000000E+00  0.00000000000E+00  0.14934015607E+04  0.35295883142E+04  0.31980846527E+04 0.  0.
        1    1    3    3  502    0  0.38609322568E+03  0.75039562007E+03  0.22457150804E+04  0.23990410142E+04  0.50400001928E-02 0.  1.
       -1    1    3    3    0  502 -0.38609322568E+03 -0.75039562007E+03 -0.75231351968E+03  0.11305473000E+04  0.50400001928E-02 0. -1.
</event>
<event>
 5   0  0.3220147E-08  0.3199853E+04  0.7818609E-02  0.8188856E-01
       -1   -1    0    0    0  501  0.00000000000E+00  0.00000000000E+00  0.19740830365E+04  0.19740830365E+04  0.50400001928E-02 0. -1.
        1   -1    0    0  501    0  0.00000000000E+00  0.00000000000E+00 -0.12966853907E+04  0.12966853907E+04  0.50400001928E-02 0.  1.
    10030    2    1    2    0    0  0.00000000000E+00  0.00000000000E+00  0.67739764582E+03  0.32707684272E+04  0.31998528926E+04 0.  0.
        4    1    3    3  502    0  0.98090492051E+03  0.12215628102E+04  0.67050476880E+03  0.17041034066E+04  0.12699999809E+01 0.  1.
       -4    1    3    3    0  502 -0.98090492051E+03 -0.12215628102E+04  0.68928770219E+01  0.15666650207E+04  0.12699999809E+01 0. -1.
</event>
<event>
 5   0  0.3343140E-08  0.3202010E+04  0.7818609E-02  0.8188287E-01
        1   -1    0    0  501    0  0.00000000000E+00  0.00000000000E+00  0.24586176887E+04  0.24586176887E+04  0.50400001928E-02 0.  1.
       -1   -1    0    0    0  501  0.00000000000E+00  0.00000000000E+00 -0.10425437162E+04  0.10425437162E+04  0.50400001928E-02 0. -1.
    10030    2    1    2    0    0  0.00000000000E+00  0.00000000000E+00  0.14160739725E+04  0.35011614049E+04  0.32020096326E+04 0.  0.
        1    1    3    3  502    0 -0.59020928064E+03 -0.42196471346E+03 -0.85246854630E+03  0.11194212062E+04  0.50400001928E-02 0. -1.
       -1    1    3    3    0  502  0.59020928064E+03  0.42196471346E+03  0.22685425188E+04  0.23817401987E+04  0.50400001928E-02 0.  1.
</event>
<event>
 5   0  0.9353994E-08  0.3199795E+04  0.7818609E-02  0.8188871E-01
       -2   -1    0    0    0  501  0.00000000000E+00  0.00000000000E+00  0.15030920089E+04  0.15030920089E+04  0.25500000920E-02 0.  1.
        2   -1    0    0  501    0  0.00000000000E+00  0.00000000000E+00 -0.17029377908E+04  0.17029377908E+04  0.25500000920E-02 0. -1.
    10030    2    1    2    0    0  0.00000000000E+00  0.00000000000E+00 -0.19984578189E+03  0.32060297997E+04  0.31997951090E+04 0.  0.
        2    1    3    3  502    0 -0.53179256012E+03  0.14698824978E+03  0.14047566365E+04  0.15092216803E+04  0.25500000920E-02 0.  1.
       -2    1    3    3    0  502  0.53179256012E+03 -0.14698824978E+03 -0.16046024184E+04  0.16968081193E+04  0.25500000920E-02 0. -1.
</event>
<event>
 5   0  0.3270966E-08  0.3201165E+04  0.7818609E-02  0.8188510E-01
        1   -1    0    0  501    0  0.00000000000E+00  0.00000000000E+00  0.13612139041E+04  0.13612139041E+04  0.50400001928E-02 0.  1.
       -1   -1    0    0    0  501  0.00000000000E+00  0.00000000000E+00 -0.18820440841E+04  0.18820440841E+04  0.50400001928E-02 0. -1.
    10030    2    1    2    0    0  0.00000000000E+00  0.00000000000E+00 -0.52083017994E+03  0.32432579882E+04  0.32011651475E+04 0.  0.
        3    1    3    3  502    0  0.54633364405E+03 -0.95232957196E+02  0.12607652278E+04  0.13773448140E+04  0.10100000352E+00 0.  1.
       -3    1    3    3    0  502 -0.54633364405E+03  0.95232957196E+02 -0.17815954077E+04  0.18659131742E+04  0.10100000352E+00 0. -1.
</event>
<event>
 5   0  0.9707721E-08  0.3198236E+04  0.7818609E-02  0.8189283E-01
        2   -1    0    0  501    0  0.00000000000E+00  0.00000000000E+00  0.12927746844E+04  0.12927746844E+04  0.25500000920E-02 0. -1.
       -2   -1    0    0    0  501  0.00000000000E+00  0.00000000000E+00 -0.19780536346E+04  0.19780536346E+04  0.25500000920E-02 0.  1.
    10030    2    1    2    0    0  0.00000000000E+00  0.00000000000E+00 -0.68527895018E+03  0.32708283191E+04  0.31982355531E+04 0.  0.
        3    1    3    3  502    0 -0.12872207047E+03 -0.15933830053E+04 -0.38528585036E+03  0.16443491021E+04  0.10100000352E+00 0.  1.
       -3    1    3    3    0  502  0.12872207047E+03  0.15933830053E+04 -0.29999309982E+03  0.16264792169E+04  0.10100000352E+00 0. -1.
</event>
<event>
 5   0  0.3343140E-08  0.3200040E+04  0.7818609E-02  0.8188807E-01
       -1   -1    0    0    0  501  0.00000000000E+00  0.00000000000E+00  0.11016273586E+04  0.11016273586E+04  0.50400001928E-02 0. -1.
        1   -1    0    0  501    0  0.00000000000E+00  0.00000000000E+00 -0.23238927973E+04  0.23238927973E+04  0.50400001928E-02 0.  1.
    10030    2    1    2    0    0  0.00000000000E+00  0.00000000000E+00 -0.12222654387E+04  0.34255201560E+04  0.32000399273E+04 0.  0.
        1    1    3    3  502    0 -0.25949492848E+03 -0.37879548045E+03 -0.22518541348E+04  0.22981885645E+04  0.50400001928E-02 0.  1.
       -1    1    3    3    0  502  0.25949492848E+03  0.37879548045E+03  0.10295886961E+04  0.11273315914E+04  0.50400001928E-02 0. -1.
</event>
<event>
 5   0  0.9353994E-08  0.3199768E+04  0.7818609E-02  0.8188878E-01
       -2   -1    0    0    0  501  0.00000000000E+00  0.00000000000E+00  0.14286835485E+04  0.14286835485E+04  0.25500000920E-02 0.  1.
        2   -1    0    0  501    0  0.00000000000E+00  0.00000000000E+00 -0.17915997541E+04  0.17915997541E+04  0.25500000920E-02 0. -1.
    10030    2    1    2    0    0  0.00000000000E+00  0.00000000000E+00 -0.36291620554E+03  0.32202833026E+04  0.31997681755E+04 0.  0.
        2    1    3    3  502    0  0.59127815788E+03  0.59548311661E+02  0.13134858033E+04  0.14416659866E+04  0.25500000920E-02 0.  1.
       -2    1    3    3    0  502 -0.59127815788E+03 -0.59548311661E+02 -0.16764020089E+04  0.17786173160E+04  0.25500000920E-02 0. -1.
</event>
<event>
 5   0  0.3427667E-08  0.3199642E+04  0.7818609E-02  0.8188912E-01
        1   -1    0    0  501    0  0.00000000000E+00  0.00000000000E+00  0.23297185134E+04  0.23297185134E+04  0.50400001928E-02 0.  1.
       -1   -1    0    0    0  501  0.00000000000E+00  0.00000000000E+00 -0.10985991944E+04  0.10985991944E+04  0.50400001928E-02 0. -1.
    10030    2    1    2    0    0  0.00000000000E+00  0.00000000000E+00  0.12311193189E+04  0.34283177078E+04  0.31996417812E+04 0.  0.
        2    1    3    3  502    0 -0.39219233063E+03  0.65005533017E+03  0.21244075279E+04  0.22559907139E+04  0.25500000920E-02 0.  1.
       -2    1    3    3    0  502  0.39219233063E+03 -0.65005533017E+03 -0.89328820894E+03  0.11723269939E+04  0.25500000920E-02 0. -1.
</event>
<event>
 5   0  0.9707721E-08  0.3203880E+04  0.7818609E-02  0.8187793E-01
        2   -1    0    0  501    0  0.00000000000E+00  0.00000000000E+00  0.14407887780E+04  0.14407887780E+04  0.25500000920E-02 0. -1.
       -2   -1    0    0    0  501  0.00000000000E+00  0.00000000000E+00 -0.17811155454E+04  0.17811155454E+04  0.25500000920E-02 0.  1.
    10030    2    1    2    0    0  0.00000000000E+00  0.00000000000E+00 -0.34032676745E+03  0.32219043234E+04  0.32038797044E+04 0.  0.
        3    1    3    3  502    0  0.13640074455E+04  0.51055890941E+03 -0.84101803034E+03  0.16818139162E+04  0.10100000352E+00 0.  1.
       -3    1    3    3    0  502 -0.13640074455E+04 -0.51055890941E+03  0.50069126288E+03  0.15400904071E+04  0.10100000352E+00 0. -1.
</event>
<event>
 5   0  0.9157524E-08  0.3198780E+04  0.7818609E-02  0.8189140E-01
        2   -1    0    0  501    0  0.00000000000E+00  0.00000000000E+00  0.24908064591E+04  0.24908064591E+04  0.25500000920E-02 0. -1.
       -2   -1    0    0    0  501  0.00000000000E+00  0.00000000000E+00 -0.10269958021E+04  0.10269958022E+04  0.25500000920E-02 0.  1.
    10030    2    1    2    0    0  0.00000000000E+00  0.00000000000E+00  0.14638106569E+04  0.35178022612E+04  0.31987796282E+04 0.  0.
        5    1    3    3  502    0 -0.13912287271E+03  0.79431795075E+03  0.22508624022E+04  0.23909621127E+04  0.46999998093E+01 0. -1.
       -5    1    3    3    0  502  0.13912287271E+03 -0.79431795075E+03 -0.78705174530E+03  0.11268401485E+04  0.46999998093E+01 0.  1.
</event>
<event>
 5   0  0.3427667E-08  0.3199298E+04  0.7818609E-02  0.8189003E-01
       -1   -1    0    0    0  501  0.00000000000E+00  0.00000000000E+00  0.15414887743E+04  0.15414887743E+04  0.50400001928E-02 0.  1.
        1   -1    0    0  501    0  0.00000000000E+00  0.00000000000E+00 -0.16600033233E+04  0.16600033233E+04  0.50400001928E-02 0. -1.
    10030    2    1    2    0    0  0.00000000000E+00  0.00000000000E+00 -0.11851454902E+03  0.32014920977E+04  0.31992977281E+04 0.  0.
        2    1    3    3  502    0 -0.58082303474E+03 -0.80811739943E+03  0.11939863939E+04  0.15543528035E+04  0.25500000920E-02 0.  1.
       -2    1    3    3    0  502  0.58082303474E+03  0.80811739943E+03 -0.13125009430E+04  0.16471392941E+04  0.25500000920E-02 0. -1.
</event>
<event>
 5   0  0.9707721E-08  0.3200628E+04  0.7818609E-02  0.8188651E-01
        2   -1    0    0  501    0  0.00000000000E+00  0.00000000000E+00  0.14764713451E+04  0.14764713451E+04  0.25500000920E-02 0. -1.
       -2   -1    0    0    0  501  0.00000000000E+00  0.00000000000E+00 -0.17345446317E+04  0.17345446317E+04  0.25500000920E-02 0.  1.
    10030    2    1    2    0    0  0.00000000000E+00  0.00000000000E+00 -0.25807328660E+03  0.32110159768E+04  0.32006283417E+04 0.  0.
        3    1    3    3  502    0  0.41831997429E+03 -0.49510530847E+03 -0.15969615714E+04  0.17234869126E+04  0.10100000352E+00 0.  1.
       -3    1    3    3    0  502 -0.41831997429E+03  0.49510530847E+03  0.13388882848E+04  0.14875290642E+04  0.10100000352E+00 0. -1.
</event>
<event>
 5   0  0.9329929E-08  0.3199112E+04  0.7818609E-02  0.8189052E-01
       -2   -1    0    0    0  501  0.00000000000E+00  0.00000000000E+00  0.11465812323E+04  0.11465812323E+04  0.25500000920E-02 0. -1.
        2   -1    0    0  501    0  0.00000000000E+00  0.00000000000E+00 -0.22314848302E+04  0.22314848302E+04  0.25500000920E-02 0.  1.
    10030    2    1    2    0    0  0.00000000000E+00  0.00000000000E+00 -0.10849035979E+04  0.33780660625E+04  0.31991115182E+04 0.  0.
        1    1    3    3  502    0 -0.41009616513E+03 -0.63669949223E+03 -0.20301693735E+04  0.21668301256E+04  0.50400001928E-02 0.  1.
       -1    1    3    3    0  502  0.41009616513E+03  0.63669949223E+03  0.94526577567E+03  0.12112359369E+04  0.50400001928E-02 0. -1.
</event>
<event>
 5   0  0.3283581E-08  0.3199070E+04  0.7818609E-02  0.8189063E-01
       -1   -1    0    0    0  501  0.00000000000E+00  0.00000000000E+00  0.10600445628E+04  0.10600445628E+04  0.50400001928E-02 0.  1.
        1   -1    0    0  501    0  0.00000000000E+00  0.00000000000E+00 -0.24135894639E+04  0.24135894639E+04  0.50400001928E-02 0. -1.
    10030    2    1    2    0    0  0.00000000000E+00  0.00000000000E+00 -0.13535449011E+04  0.34736340268E+04  0.31990701075E+04 0.  0.
        5    1    3    3  502    0 -0.13713431041E+04  0.82275122765E+03 -0.64262833188E+03  0.17235123309E+04  0.46999998093E+01 0.  1.
       -5    1    3    3    0  502  0.13713431041E+04 -0.82275122765E+03 -0.71091656924E+03  0.17501216958E+04  0.46999998093E+01 0. -1.
</event>
<event>
 5   0  0.9707721E-08  0.3201102E+04  0.7818609E-02  0.8188526E-01
        2   -1    0    0  501    0  0.00000000000E+00  0.00000000000E+00  0.21608981416E+04  0.21608981416E+04  0.25500000920E-02 0.  1.
       -2   -1    0    0    0  501  0.00000000000E+00  0.00000000000E+00 -0.11855088678E+04  0.11855088678E+04  0.25500000920E-02 0. -1.
    10030    2    1    2    0    0  0.00000000000E+00  0.00000000000E+00  0.97538927386E+03  0.33464070094E+04  0.32011022535E+04 0.  0.
        3    1    3    3  502    0  0.98292584598E+03  0.71340580224E+03 -0.60205973685E+03  0.13555688822E+04  0.10100000352E+00 0. -1.
       -3    1    3    3    0  502 -0.98292584598E+03 -0.71340580224E+03  0.15774490107E+04  0.19908381273E+04  0.10100000352E+00 0.  1.
</event>
<event>
 5   0  0.3220147E-08  0.3200049E+04  0.7818609E-02  0.8188804E-01
       -1   -1    0    0    0  501  0.00000000000E+00  0.00000000000E+00  0.14848571656E+04  0.14848571656E+04  0.50400001928E-02 0. -1.
        1   -1    0    0  501    0  0.00000000000E+00  0.00000000000E+00 -0.17241246942E+04  0.17241246942E+04  0.50400001928E-02 0.  1.
    10030    2    1    2    0    0  0.00000000000E+00  0.00000000000E+00 -0.23926752853E+03  0.32089818598E+04  0.32000493162E+04 0.  0.
        4    1    3    3  502    0 -0.12474314830E+04  0.89256805006E+03 -0.57622249019E+03  0.16385350164E+04  0.12699999809E+01 0.  1.
       -4    1    3    3    0  502  0.12474314830E+04 -0.89256805006E+03  0.33695496166E+03  0.15704468434E+04  0.12699999809E+01 0. -1.
</event>
<event>
 5   0  0.3343140E-08  0.3199347E+04  0.7818609E-02  0.8188990E-01
        1   -1    0    0  501    0  0.00000000000E+00  0.00000000000E+00  0.22585922858E+04  0.22585922858E+04  0.50400001928E-02 0.  1.
       -1   -1    0    0    0  501  0.00000000000E+00  0.00000000000E+00 -0.11329865832E+04  0.11329865832E+04  0.50400001928E-02 0. -1.
    10030    2    1    2    0    0  0.00000000000E+00  0.00000000000E+00  0.11256057025E+04  0.33915788690E+04  0.31993466563E+04 0.  0.
        1    1    3    3  502    0  0.79320197909E+03  0.49974825981E+03  0.19368449894E+04  0.21518099860E+04  0.50400001928E-02 0.  1.
       -1    1    3    3    0  502 -0.79320197909E+03 -0.49974825981E+03 -0.81123928683E+03  0.12397688830E+04  0.50400001928E-02 0. -1.
</event>
<event>
 5   0  0.3270966E-08  0.3200629E+04  0.7818609E-02  0.8188651E-01
       -1   -1    0    0    0  501  0.00000000000E+00  0.00000000000E+00  0.14732907825E+04  0.14732907825E+04  0.50400001928E-02 0.  1.
        1   -1    0    0  501    0  0.00000000000E+00  0.00000000000E+00 -0.17382899683E+04  0.17382899683E+04  0.50400001928E-02 0. -1.
    10030    2    1    2    0    0  0.00000000000E+00  0.00000000000E+00 -0.26499918586E+03  0.32115807508E+04  0.32006290554E+04 0.  0.
        3    1    3    3  502    0  0.44338526799E+03 -0.87988519757E+03  0.11328538519E+04  0.15013814694E+04  0.10100000352E+00 0.  1.
       -3    1    3    3    0  502 -0.44338526799E+03  0.87988519757E+03 -0.13978530377E+04  0.17101992814E+04  0.10100000352E+00 0. -1.
</event>
<event>
 5   0  0.9727083E-08  0.3200780E+04  0.7818609E-02  0.8188611E-01
       -2   -1    0    0    0  501  0.00000000000E+00  0.00000000000E+00  0.17538379945E+04  0.17538379945E+04  0.25500000920E-02 0. -1.
        2   -1    0    0  501    0  0.00000000000E+00  0.00000000000E+00 -0.14603679197E+04  0.14603679197E+04  0.25500000920E-02 0.  1.
    10030    2    1    2    0    0  0.00000000000E+00  0.00000000000E+00  0.29347007483E+03  0.32142059142E+04  0.32007803695E+04 0.  0.
        4    1    3    3  502    0 -0.79962475019E+03 -0.13434266362E+04 -0.19682902346E+03  0.15757341608E+04  0.12699999809E+01 0.  1.
       -4    1    3    3    0  502  0.79962475019E+03  0.13434266362E+04  0.49029909829E+03  0.16384717534E+04  0.12699999809E+01 0. -1.
</event>
<event>
 5   0  0.9727083E-08  0.3188368E+04  0.7818609E-02  0.8191896E-01
       -2   -1    0    0    0  501  0.00000000000E+00  0.00000000000E+00  0.11131698915E+04  0.11131698915E+04  0.25500000920E-02 0.  1.
        2   -1    0    0  501    0  0.00000000000E+00  0.00000000000E+00 -0.22830506878E+04  0.22830506878E+04  0.25500000920E-02 0. -1.
    10030    2    1    2    0    0  0.00000000000E+00  0.00000000000E+00 -0.11698807963E+04  0.33962205794E+04  0.31883684144E+04 0.  0.
        4    1    3    3  502    0 -0.99513803359E+03  0.12438824620E+04 -0.65127697235E+03  0.17209609504E+04  0.12699999809E+01 0.  1.
       -4    1    3    3    0  502  0.99513803359E+03 -0.12438824620E+04 -0.51860382392E+03  0.16752596289E+04  0.12699999809E+01 0. -1.
</event>
<event>
 5   0  0.3427667E-08  0.3194664E+04  0.7818609E-02  0.8190228E-01
        1   -1    0    0  501    0  0.00000000000E+00  0.00000000000E+00  0.21696813022E+04  0.21696813022E+04  0.50400001928E-02 0.  1.
       -1   -1    0    0    0  501  0.00000000000E+00  0.00000000000E+00 -0.11759649023E+04  0.11759649023E+04  0.50400001928E-02 0. -1.
    10030    2    1    2    0    0  0.00000000000E+00  0.00000000000E+00  0.99371639990E+03  0.33456462045E+04  0.31946637134E+04 0.  0.
        2    1    3    3  502    0 -0.90755889172E+03  0.94270051576E+03  0.14561866610E+04  0.19577607096E+04  0.25500000920E-02 0.  1.
       -2    1    3    3    0  502  0.90755889172E+03 -0.94270051576E+03 -0.46247026113E+03  0.13878854948E+04  0.25500000920E-02 0. -1.
</event>
<event>
 5   0  0.3283581E-08  0.3199298E+04  0.7818609E-02  0.8189003E-01
        1   -1    0    0  501    0  0.00000000000E+00  0.00000000000E+00  0.32657771350E+04  0.32657771350E+04  0.50400001928E-02 0. -1.
       -1   -1    0    0    0  501  0.00000000000E+00  0.00000000000E+00 -0.78354285397E+03  0.78354285399E+03  0.50400001928E-02 0.  1.
    10030    2    1    2    0    0  0.00000000000E+00  0.00000000000E+00  0.24822342810E+04  0.40493199890E+04  0.31992976334E+04 0.  0.
        5    1    3    3  502    0 -0.12027051417E+04  0.10049662837E+04  0.83610146943E+03  0.17763852753E+04  0.46999998093E+01 0.  1.
       -5    1    3    3    0  502  0.12027051417E+04 -0.10049662837E+04  0.16461328116E+04  0.22729347137E+04  0.46999998093E+01 0. -1.
</event>
<event>
 5   0  0.3283581E-08  0.3199471E+04  0.7818609E-02  0.8188957E-01
        1   -1    0    0  501    0  0.00000000000E+00  0.00000000000E+00  0.19349379255E+04  0.19349379256E+04  0.50400001928E-02 0. -1.
       -1   -1    0    0    0  501  0.00000000000E+00  0.00000000000E+00 -0.13226027499E+04  0.13226027499E+04  0.50400001928E-02 0.  1.
    10030    2    1    2    0    0  0.00000000000E+00  0.00000000000E+00  0.61233517568E+03  0.32575406754E+04  0.31994713446E+04 0.  0.
        5    1    3    3  502    0 -0.79744076543E+03 -0.11103827365E+04  0.11520720000E+04  0.17877789514E+04  0.46999998093E+01 0. -1.
       -5    1    3    3    0  502  0.79744076543E+03  0.11103827365E+04 -0.53973682434E+03  0.14697617240E+04  0.46999998093E+01 0.  1.
</event>
<event>
 5   0  0.9353994E-08  0.3199963E+04  0.7818609E-02  0.8188827E-01
       -2   -1    0    0    0  501  0.00000000000E+00  0.00000000000E+00  0.91996387590E+03  0.91996387590E+03  0.25500000920E-02 0. -1.
        2   -1    0    0  501    0  0.00000000000E+00  0.00000000000E+00 -0.27826529093E+04  0.27826529093E+04  0.25500000920E-02 0.  1.
    10030    2    1    2    0    0  0.00000000000E+00  0.00000000000E+00 -0.18626890334E+04  0.37026167852E+04  0.31999625971E+04 0.  0.
        2    1    3    3  502    0  0.49710160331E+03 -0.14549855132E+04 -0.14434066567E+04  0.21089133752E+04  0.25500000920E-02 0. -1.
       -2    1    3    3    0  502 -0.49710160331E+03  0.14549855132E+04 -0.41928237666E+03  0.15937034100E+04  0.25500000920E-02 0.  1.
</event>
<event>
 5   0  0.9707721E-08  0.3201624E+04  0.7818609E-02  0.8188388E-01
       -2   -1    0    0    0  501  0.00000000000E+00  0.00000000000E+00  0.11246827434E+04  0.11246827434E+04  0.25500000920E-02 0.  1.
        2   -1    0    0  501    0  0.00000000000E+00  0.00000000000E+00 -0.22785083622E+04  0.22785083622E+04  0.25500000920E-02 0. -1.
    10030    2    1    2    0    0  0.00000000000E+00  0.00000000000E+00 -0.11538256187E+04  0.34031911056E+04  0.32016239853E+04 0.  0.
        3    1    3    3  502    0  0.95805884193E+03  0.22084080157E+02 -0.19399192271E+04  0.21637123351E+04  0.10100000352E+00 0. -1.
       -3    1    3    3    0  502 -0.95805884193E+03 -0.22084080157E+02  0.78609360838E+03  0.12394787705E+04  0.10100000352E+00 0.  1.
</event>
<event>
 5   0  0.9329929E-08  0.3198918E+04  0.7818609E-02  0.8189103E-01
       -2   -1    0    0    0  501  0.00000000000E+00  0.00000000000E+00  0.10875761911E+04  0.10875761911E+04  0.25500000920E-02 0. -1.
        2   -1    0    0  501    0  0.00000000000E+00  0.00000000000E+00 -0.23522669640E+04  0.23522669640E+04  0.25500000920E-02 0.  1.
    10030    2    1    2    0    0  0.00000000000E+00  0.00000000000E+00 -0.12646907729E+04  0.34398431551E+04  0.31989182829E+04 0.  0.
        1    1    3    3  502    0 -0.13780514871E+04 -0.62459688525E+03 -0.74504428541E+02  0.15148260891E+04  0.50400001928E-02 0. -1.
       -1    1    3    3    0  502  0.13780514871E+04  0.62459688525E+03 -0.11901863443E+04  0.19250170660E+04  0.50400001928E-02 0.  1.
</event>
<event>
 5   0  0.9353994E-08  0.3199647E+04  0.7818609E-02  0.8188911E-01
       -2   -1    0    0    0  501  0.00000000000E+00  0.00000000000E+00  0.12528779787E+04  0.12528779787E+04  0.25500000920E-02 0. -1.
        2   -1    0    0  501    0  0.00000000000E+00  0.00000000000E+00 -0.20428442635E+04  0.20428442635E+04  0.25500000920E-02 0.  1.
    10030    2    1    2    0    0  0.00000000000E+00  0.00000000000E+00 -0.78996628476E+03  0.32957222422E+04  0.31996466003E+04 0.  0.
        2    1    3    3  502    0  0.11028334679E+04 -0.77545910256E+03  0.49219008975E+03  0.14352106334E+04  0.25500000920E-02 0. -1.
       -2    1    3    3    0  502 -0.11028334679E+04  0.77545910256E+03 -0.12821563745E+04  0.18605116088E+04  0.25500000920E-02 0.  1.
</event>
<event>
 5   0  0.9707721E-08  0.3199864E+04  0.7818609E-02  0.8188853E-01
        2   -1    0    0  501    0  0.00000000000E+00  0.00000000000E+00  0.15593334628E+04  0.15593334628E+04  0.25500000920E-02 0. -1.
       -2   -1    0    0    0  501  0.00000000000E+00  0.00000000000E+00 -0.16415876100E+04  0.16415876100E+04  0.25500000920E-02 0.  1.
    10030    2    1    2    0    0  0.00000000000E+00  0.00000000000E+00 -0.82254147231E+02  0.32009210728E+04  0.31998640548E+04 0.  0.
        3    1    3    3  502    0  0.12002477631E+04  0.68517562075E+03  0.76519263788E+03  0.15797405190E+04  0.10100000352E+00 0. -1.
       -3    1    3    3    0  502 -0.12002477631E+04 -0.68517562075E+03 -0.84744678511E+03  0.16211805538E+04  0.10100000352E+00 0.  1.
</event>
<event>
 5   0  0.3270966E-08  0.3199833E+04  0.7818609E-02  0.8188861E-01
        1   -1    0    0  501    0  0.00000000000E+00  0.00000000000E+00  0.18953197950E+04  0.18953197950E+04  0.50400001928E-02 0. -1.
       -1   -1    0    0    0  501  0.00000000000E+00  0.00000000000E+00 -0.13505548113E+04  0.13505548113E+04  0.50400001928E-02 0.  1.
    10030    2    1    2    0    0  0.00000000000E+00  0.00000000000E+00  0.54476498369E+03  0.32458746063E+04  0.31998332883E+04 0.  0.
        3    1    3    3  502    0 -0.21622774312E+03 -0.77579099481E+03 -0.11299441264E+04  0.13875805719E+04  0.10100000352E+00 0.  1.
       -3    1    3    3    0  502  0.21622774312E+03  0.77579099481E+03  0.16747091101E+04  0.18582940344E+04  0.10100000352E+00 0. -1.
</event>
<event>
 5   0  0.9157524E-08  0.3192285E+04  0.7818609E-02  0.8190858E-01
       -2   -1    0    0    0  501  0.00000000000E+00  0.00000000000E+00  0.15232919770E+04  0.15232919770E+04  0.25500000920E-02 0.  1.
        2   -1    0    0  501    0  0.00000000000E+00  0.00000000000E+00 -0.16724769523E+04  0.16724769523E+04  0.25500000920E-02 0. -1.
    10030    2    1    2    0    0  0.00000000000E+00  0.00000000000E+00 -0.14918497526E+03  0.31957689293E+04  0.31922849016E+04 0.  0.
        5    1    3    3  502    0  0.32831586541E+02 -0.13785532707E+04 -0.87931156797E+03  0.16354503835E+04  0.46999998093E+01 0. -1.
       -5    1    3    3    0  502 -0.32831586541E+02  0.13785532707E+04  0.73012659271E+03  0.15603185459E+04  0.46999998093E+01 0.  1.
</event>
<event>
 5   0  0.3283581E-08  0.3196492E+04  0.7818609E-02  0.8189744E-01
        1   -1    0    0  501    0  0.00000000000E+00  0.00000000000E+00  0.19067953035E+04  0.19067953035E+04  0.50400001928E-02 0.  1.
       -1   -1    0    0    0  501  0.00000000000E+00  0.00000000000E+00 -0.13396251979E+04  0.13396251979E+04  0.50400001928E-02 0. -1.
    10030    2    1    2    0    0  0.00000000000E+00  0.00000000000E+00  0.56717010563E+03  0.32464205013E+04  0.31964924750E+04 0.  0.
        5    1    3    3  502    0 -0.43363170113E+03 -0.13643556922E+04  0.10052226715E+04  0.17492848871E+04  0.46999998093E+01 0.  1.
       -5    1    3    3    0  502  0.43363170113E+03  0.13643556922E+04 -0.43805256586E+03  0.14971356142E+04  0.46999998093E+01 0. -1.
</event>
<event>
 5   0  0.3270966E-08  0.3199920E+04  0.7818609E-02  0.8188838E-01
       -1   -1    0    0    0  501  0.00000000000E+00  0.00000000000E+00  0.13541226402E+04  0.13541226402E+04  0.50400001928E-02 0. -1.
        1   -1    0    0  501    0  0.00000000000E+00  0.00000000000E+00 -0.18904287580E+04  0.18904287580E+04  0.50400001928E-02 0.  1.
    10030    2    1    2    0    0  0.00000000000E+00  0.00000000000E+00 -0.53630611774E+03  0.32445513982E+04  0.31999202371E+04 0.  0.
        3    1    3    3  502    0 -0.54576235684E+03 -0.15013451906E+04 -0.35872099653E+03  0.16372460704E+04  0.10100000352E+00 0. -1.
       -3    1    3    3    0  502  0.54576235684E+03  0.15013451906E+04 -0.17758512122E+03  0.16073053278E+04  0.10100000352E+00 0.  1.
</event>
<event>
 5   0  0.9707721E-08  0.3202003E+04  0.7818609E-02  0.8188288E-01
        2   -1    0    0  501    0  0.00000000000E+00  0.00000000000E+00  0.14984178437E+04  0.14984178437E+04  0.25500000920E-02 0.  1.
       -2   -1    0    0    0  501  0.00000000000E+00  0.00000000000E+00 -0.17106082682E+04  0.17106082682E+04  0.25500000920E-02 0. -1.
    10030    2    1    2    0    0  0.00000000000E+00  0.00000000000E+00 -0.21219042452E+03  0.32090261119E+04  0.32020030935E+04 0.  0.
        3    1    3    3  502    0 -0.12774447986E+04  0.89224904482E+03 -0.47464132544E+03  0.16288824296E+04  0.10100000352E+00 0.  1.
       -3    1    3    3    0  502  0.12774447986E+04 -0.89224904482E+03  0.26245090092E+03  0.15801436824E+04  0.10100000352E+00 0. -1.
</event>
<event>
 5   0  0.3343140E-08  0.3195944E+04  0.7818609E-02  0.8189889E-01
       -1   -1    0    0    0  501  0.00000000000E+00  0.00000000000E+00  0.13328472243E+04  0.13328472243E+04  0.50400001928E-02 0. -1.
        1   -1    0    0  501    0  0.00000000000E+00  0.00000000000E+00 -0.19158343052E+04  0.19158343052E+04  0.50400001928E-02 0.  1.
    10030    2    1    2    0    0  0.00000000000E+00  0.00000000000E+00 -0.58298708086E+03  0.32486815295E+04  0.31959439519E+04 0.  0.
        1    1    3    3  502    0  0.66932843223E+03 -0.14081581146E+04  0.64433829175E+02  0.15604683733E+04  0.50400001928E-02 0. -1.
       -1    1    3    3    0  502 -0.66932843223E+03  0.14081581146E+04 -0.64742091003E+03  0.16882131561E+04  0.50400001928E-02 0.  1.
</event>
<event>
 5   0  0.3270966E-08  0.3200030E+04  0.7818609E-02  0.8188809E-01
        1   -1    0    0  501    0  0.00000000000E+00  0.00000000000E+00  0.27159830302E+04  0.27159830302E+04  0.50400001928E-02 0.  1.
       -1   -1    0    0    0  501  0.00000000000E+00  0.00000000000E+00 -0.94258631230E+03  0.94258631231E+03  0.50400001928E-02 0. -1.
    10030    2    1    2    0    0  0.00000000000E+00  0.00000000000E+00  0.17733967179E+04  0.36585693425E+04  0.32000302678E+04 0.  0.
        3    1    3    3  502    0  0.10002212870E+04  0.10457759927E+04  0.10627409627E+03  0.14509942259E+04  0.10100000352E+00 0. -1.
       -3    1    3    3    0  502 -0.10002212870E+04 -0.10457759927E+04  0.16671226216E+04  0.22075751166E+04  0.10100000352E+00 0.  1.
</event>
<event>
 5   0  0.3220147E-08  0.3196931E+04  0.7818609E-02  0.8189628E-01
       -1   -1    0    0    0  501  0.00000000000E+00  0.00000000000E+00  0.17193393082E+04  0.17193393082E+04  0.50400001928E-02 0.  1.
        1   -1    0    0  501    0  0.00000000000E+00  0.00000000000E+00 -0.14860891282E+04  0.14860891282E+04  0.50400001928E-02 0. -1.
    10030    2    1    2    0    0  0.00000000000E+00  0.00000000000E+00  0.23325017998E+03  0.32054284364E+04  0.31969306866E+04 0.  0.
        4    1    3    3  502    0 -0.38558710067E+03  0.10673056474E+04  0.12453487474E+04  0.16848483234E+04  0.12699999809E+01 0.  1.
       -4    1    3    3    0  502  0.38558710067E+03 -0.10673056474E+04 -0.10120985675E+04  0.15205801131E+04  0.12699999809E+01 0. -1.
</event>
<event>
 5   0  0.3283581E-08  0.3200450E+04  0.7818609E-02  0.8188698E-01
        1   -1    0    0  501    0  0.00000000000E+00  0.00000000000E+00  0.21961133148E+04  0.21961133148E+04  0.50400001928E-02 0.  1.
       -1   -1    0    0    0  501  0.00000000000E+00  0.00000000000E+00 -0.11660234531E+04  0.11660234531E+04  0.50400001928E-02 0. -1.
    10030    2    1    2    0    0  0.00000000000E+00  0.00000000000E+00  0.10300898617E+04  0.33621367679E+04  0.32004497376E+04 0.  0.
        5    1    3    3  502    0  0.30812263328E+03  0.21090275218E+03 -0.11196122783E+04  0.11802428867E+04  0.46999998093E+01 0. -1.
       -5    1    3    3    0  502 -0.30812263328E+03 -0.21090275218E+03  0.21497021400E+04  0.21818938812E+04  0.46999998093E+01 0.  1.
</event>
<event>
 5   0  0.9727083E-08  0.3206071E+04  0.7818609E-02  0.8187216E-01
        2   -1    0    0  501    0  0.00000000000E+00  0.00000000000E+00  0.28411028358E+04  0.28411028358E+04  0.25500000920E-02 0. -1.
       -2   -1    0    0    0  501  0.00000000000E+00  0.00000000000E+00 -0.90448076837E+03  0.90448076838E+03  0.25500000920E-02 0.  1.
    10030    2    1    2    0    0  0.00000000000E+00  0.00000000000E+00  0.19366220674E+04  0.37455836042E+04  0.32060710385E+04 0.  0.
        4    1    3    3  502    0 -0.19282834997E+03  0.66640478439E+03  0.26566423788E+04  0.27457291292E+04  0.12699999809E+01 0. -1.
       -4    1    3    3    0  502  0.19282834997E+03 -0.66640478439E+03 -0.72002031144E+03  0.99985447491E+03  0.12699999809E+01 0.  1.
</event>
<event>
 5   0  0.9329929E-08  0.3200182E+04  0.7818609E-02  0.8188769E-01
       -2   -1    0    0    0  501  0.00000000000E+00  0.00000000000E+00  0.99468178005E+03  0.99468178006E+03  0.25500000920E-02 0. -1.
        2   -1    0    0  501    0  0.00000000000E+00  0.00000000000E+00 -0.25739808905E+04  0.25739808905E+04  0.25500000920E-02 0.  1.
    10030    2    1    2    0    0  0.00000000000E+00  0.00000000000E+00 -0.15792991104E+04  0.35686626705E+04  0.32001824285E+04 0.  0.
        1    1    3    3  502    0  0.12922455093E+04  0.45837591789E+03 -0.17094131063E+04  0.21913694591E+04  0.50400001928E-02 0.  1.
       -1    1    3    3    0  502 -0.12922455093E+04 -0.45837591789E+03  0.13011399587E+03  0.13772932114E+04  0.50400001928E-02 0. -1.
</event>
<event>
 5   0  0.3220147E-08  0.3200184E+04  0.7818609E-02  0.8188768E-01
        1   -1    0    0  501    0  0.00000000000E+00  0.00000000000E+00  0.21046517204E+04  0.21046517204E+04  0.50400001928E-02 0. -1.
       -1   -1    0    0    0  501  0.00000000000E+00  0.00000000000E+00 -0.12164934172E+04  0.12164934172E+04  0.50400001928E-02 0.  1.
    10030    2    1    2    0    0  0.00000000000E+00  0.00000000000E+00  0.88815830322E+03  0.33211451376E+04  0.32001843468E+04 0.  0.
        4    1    3    3  502    0 -0.90695674181E+03  0.12294814870E+04 -0.49391475633E+02  0.15286060281E+04  0.12699999809E+01 0.  1.
       -4    1    3    3    0  502  0.90695674181E+03 -0.12294814870E+04  0.93754977886E+03  0.17925391095E+04  0.12699999809E+01 0. -1.
</event>
<event>
 5   0  0.9353994E-08  0.3200775E+04  0.7818609E-02  0.8188612E-01
       -2   -1    0    0    0  501  0.00000000000E+00  0.00000000000E+00  0.14044794010E+04  0.14044794010E+04  0.25500000920E-02 0. -1.
        2   -1    0    0  501    0  0.00000000000E+00  0.00000000000E+00 -0.18236226401E+04  0.18236226401E+04  0.25500000920E-02 0.  1.
    10030    2    1    2    0    0  0.00000000000E+00  0.00000000000E+00 -0.41914323909E+03  0.32281020411E+04  0.32007751769E+04 0.  0.
        2    1    3    3  502    0 -0.14323852338E+04  0.70622744726E+03 -0.31416707093E+03  0.16276319036E+04  0.25500000920E-02 0. -1.
       -2    1    3    3    0  502  0.14323852338E+04 -0.70622744726E+03 -0.10497616816E+03  0.16004701375E+04  0.25500000920E-02 0.  1.
</event>
<event>
 5   0  0.3283581E-08  0.3199900E+04  0.7818609E-02  0.8188844E-01
        1   -1    0    0  501    0  0.00000000000E+00  0.00000000000E+00  0.21532949097E+04  0.21532949097E+04  0.50400001928E-02 0. -1.
       -1   -1    0    0    0  501  0.00000000000E+00  0.00000000000E+00 -0.11888013808E+04  0.11888013808E+04  0.50400001928E-02 0.  1.
    10030    2    1    2    0    0  0.00000000000E+00  0.00000000000E+00  0.96449352892E+03  0.33420962905E+04  0.31998999746E+04 0.  0.
        5    1    3    3  502    0 -0.14478654407E+03  0.76890883107E+03  0.19398395908E+04  0.20916939695E+04  0.46999998093E+01 0. -1.
       -5    1    3    3    0  502  0.14478654407E+03 -0.76890883107E+03 -0.97534606191E+03  0.12504023210E+04  0.46999998093E+01 0.  1.
</event>
<event>
 5   0  0.9353994E-08  0.3198756E+04  0.7818609E-02  0.8189146E-01
       -2   -1    0    0    0  501  0.00000000000E+00  0.00000000000E+00  0.11061360392E+04  0.11061360392E+04  0.25500000920E-02 0. -1.
        2   -1    0    0  501    0  0.00000000000E+00  0.00000000000E+00 -0.23125630360E+04  0.23125630360E+04  0.25500000920E-02 0.  1.
    10030    2    1    2    0    0  0.00000000000E+00  0.00000000000E+00 -0.12064269968E+04  0.34186990752E+04  0.31987555812E+04 0.  0.
        2    1    3    3  502    0 -0.64182919904E+03  0.41049924188E+02 -0.21682722349E+04  0.22616441590E+04  0.25500000920E-02 0.  1.
       -2    1    3    3    0  502  0.64182919904E+03 -0.41049924188E+02  0.96184523814E+03  0.11570549162E+04  0.25500000920E-02 0. -1.
</event>
<event>
 5   0  0.3220147E-08  0.3199852E+04  0.7818609E-02  0.8188856E-01
        1   -1    0    0  501    0  0.00000000000E+00  0.00000000000E+00  0.15902115098E+04  0.15902115098E+04  0.50400001928E-02 0. -1.
       -1   -1    0    0    0  501  0.00000000000E+00  0.00000000000E+00 -0.16096997587E+04  0.16096997587E+04  0.50400001928E-02 0.  1.
    10030    2    1    2    0    0  0.00000000000E+00  0.00000000000E+00 -0.19488248920E+02  0.31999112685E+04  0.31998519238E+04 0.  0.
        4    1    3    3  502    0 -0.87752781258E+03 -0.88371548296E+03  0.99464164362E+03  0.15938386772E+04  0.12699999809E+01 0. -1.
       -4    1    3    3    0  502  0.87752781258E+03  0.88371548296E+03 -0.10141298925E+04  0.16060725913E+04  0.12699999809E+01 0.  1.
</event>
<event>
 5   0  0.3220147E-08  0.3199247E+04  0.7818609E-02  0.8189016E-01
       -1   -1    0    0    0  501  0.00000000000E+00  0.00000000000E+00  0.11037096945E+04  0.11037096945E+04  0.50400001928E-02 0. -1.
        1   -1    0    0  501    0  0.00000000000E+00  0.00000000000E+00 -0.23183595673E+04  0.23183595673E+04  0.50400001928E-02 0.  1.
    10030    2    1    2    0    0  0.00000000000E+00  0.00000000000E+00 -0.12146498728E+04  0.34220692618E+04  0.31992473676E+04 0.  0.
        4    1    3    3  502    0 -0.21174048309E+03 -0.14122618754E+04  0.16362113943E+03  0.14373903878E+04  0.12699999809E+01 0. -1.
       -4    1    3    3    0  502  0.21174048309E+03  0.14122618754E+04 -0.13782710123E+04  0.19846788740E+04  0.12699999809E+01 0.  1.
</event>
<event>
 5   0  0.3220147E-08  0.3198754E+04  0.7818609E-02  0.8189146E-01
        1   -1    0    0  501    0  0.00000000000E+00  0.00000000000E+00  0.18725966479E+04  0.18725966479E+04  0.50400001928E-02 0. -1.
       -1   -1    0    0    0  501  0.00000000000E+00  0.00000000000E+00 -0.13660214657E+04  0.13660214657E+04  0.50400001928E-02 0.  1.
    10030    2    1    2    0    0  0.00000000000E+00  0.00000000000E+00  0.50657518219E+03  0.32386181136E+04  0.31987542686E+04 0.  0.
        4    1    3    3  502    0 -0.15503017487E+04 -0.32994946550E+03  0.36839718899E+02  0.15854529131E+04  0.12699999809E+01 0. -1.
       -4    1    3    3    0  502  0.15503017487E+04  0.32994946550E+03  0.46973546329E+03  0.16531652005E+04  0.12699999809E+01 0.  1.
</event>
<event>
 5   0  0.9353994E-08  0.3195097E+04  0.7818609E-02  0.8190113E-01
        2   -1    0    0  501    0  0.00000000000E+00  0.00000000000E+00  0.28745828047E+04  0.28745828047E+04  0.25500000920E-02 0.  1.
       -2   -1    0    0    0  501  0.00000000000E+00  0.00000000000E+00 -0.88783707780E+03  0.88783707781E+03  0.25500000920E-02 0. -1.
    10030    2    1    2    0    0  0.00000000000E+00  0.00000000000E+00  0.19867457269E+04  0.37624198825E+04  0.31950969921E+04 0.  0.
        2    1    3    3  502    0 -0.14924218692E+04  0.54062098927E+03  0.12058796518E+04  0.19934241456E+04  0.25500000920E-02 0.  1.
       -2    1    3    3    0  502  0.14924218692E+04 -0.54062098927E+03  0.78086607513E+03  0.17689957369E+04  0.25500000920E-02 0. -1.
</event>
<event>
 5   0  0.3080500E-08  0.3199429E+04  0.7818609E-02  0.8188968E-01
        3   -1    0    0  501    0  0.00000000000E+00  0.00000000000E+00  0.10762098232E+04  0.10762098279E+04  0.10100000352E+00 0.  1.
       -3   -1    0    0    0  501  0.00000000000E+00  0.00000000000E+00 -0.23778690721E+04  0.23778690743E+04  0.10100000352E+00 0. -1.
    10030    2    1    2    0    0  0.00000000000E+00  0.00000000000E+00 -0.13016592490E+04  0.34540789022E+04  0.31994287400E+04 0.  0.
        1    1    3    3  502    0 -0.69777093577E+03  0.21533042267E+03  0.88577382593E+03  0.11479750609E+04  0.50400001928E-02 0.  1.
       -1    1    3    3    0  502  0.69777093577E+03 -0.21533042267E+03 -0.21874330749E+04  0.23061038413E+04  0.50400001928E-02 0. -1.
</event>
<event>
 5   0  0.9157524E-08  0.3200806E+04  0.7818609E-02  0.8188604E-01
       -2   -1    0    0    0  501  0.00000000000E+00  0.00000000000E+00  0.14827913575E+04  0.14827913575E+04  0.25500000920E-02 0. -1.
        2   -1    0    0  501    0  0.00000000000E+00  0.00000000000E+00 -0.17273431555E+04  0.17273431555E+04  0.25500000920E-02 0.  1.
    10030    2    1    2    0    0  0.00000000000E+00  0.00000000000E+00 -0.24455179801E+03  0.32101345130E+04  0.32008058375E+04 0.  0.
        5    1    3    3  502    0 -0.72733670008E+03  0.14243709945E+04 -0.18089285918E+03  0.16095327650E+04  0.46999998093E+01 0.  1.
       -5    1    3    3    0  502  0.72733670008E+03 -0.14243709945E+04 -0.63658938828E+02  0.16006017480E+04  0.46999998093E+01 0. -1.
</event>
<event>
 5   0  0.9157524E-08  0.3198786E+04  0.7818609E-02  0.8189138E-01
       -2   -1    0    0    0  501  0.00000000000E+00  0.00000000000E+00  0.27031193930E+04  0.27031193930E+04  0.25500000920E-02 0.  1.
        2   -1    0    0  501    0  0.00000000000E+00  0.00000000000E+00 -0.94633559261E+03  0.94633559262E+03  0.25500000920E-02 0. -1.
    10030    2    1    2    0    0  0.00000000000E+00  0.00000000000E+00  0.17567838004E+04  0.36494549856E+04  0.31987860777E+04 0.  0.
        5    1    3    3  502    0 -0.62145417788E+03  0.50354161572E+03 -0.70175849028E+03  0.10640707320E+04  0.46999998093E+01 0. -1.
       -5    1    3    3    0  502  0.62145417788E+03 -0.50354161572E+03  0.24585422907E+04  0.25853842536E+04  0.46999998093E+01 0.  1.
</event>
<event>
 5   0  0.9727083E-08  0.3200126E+04  0.7818609E-02  0.8188784E-01
       -2   -1    0    0    0  501  0.00000000000E+00  0.00000000000E+00  0.15027465786E+04  0.15027465786E+04  0.25500000920E-02 0.  1.
        2   -1    0    0  501    0  0.00000000000E+00  0.00000000000E+00 -0.17036816084E+04  0.17036816084E+04  0.25500000920E-02 0. -1.
    10030    2    1    2    0    0  0.00000000000E+00  0.00000000000E+00 -0.20093502982E+03  0.32064281871E+04  0.32001260651E+04 0.  0.
        4    1    3    3  502    0  0.29754139556E+03 -0.67969840513E+02  0.14733100353E+04  0.15045912582E+04  0.12699999809E+01 0.  1.
       -4    1    3    3    0  502 -0.29754139556E+03  0.67969840513E+02 -0.16742450651E+04  0.17018369288E+04  0.12699999809E+01 0. -1.
</event>
<event>
 5   0  0.3220147E-08  0.3198234E+04  0.7818609E-02  0.8189284E-01
        1   -1    0    0  501    0  0.00000000000E+00  0.00000000000E+00  0.14853198429E+04  0.14853198429E+04  0.50400001928E-02 0.  1.
       -1   -1    0    0    0  501  0.00000000000E+00  0.00000000000E+00 -0.17216323244E+04  0.17216323244E+04  0.50400001928E-02 0. -1.
    10030    2    1    2    0    0  0.00000000000E+00  0.00000000000E+00 -0.23631248155E+03  0.32069521673E+04  0.31982336710E+04 0.  0.
        4    1    3    3  502    0 -0.12679749278E+04  0.15222099923E+03  0.84688168921E+03  0.15323647929E+04  0.12699999809E+01 0. -1.
       -4    1    3    3    0  502  0.12679749278E+04 -0.15222099923E+03 -0.10831941708E+04  0.16745873744E+04  0.12699999809E+01 0.  1.
</event>
<event>
 5   0  0.3427667E-08  0.3199643E+04  0.7818609E-02  0.8188911E-01
        1   -1    0    0  501    0  0.00000000000E+00  0.00000000000E+00  0.10075013350E+04  0.10075013351E+04  0.50400001928E-02 0. -1.
       -1   -1    0    0    0  501  0.00000000000E+00  0.00000000000E+00 -0.25403731953E+04  0.25403731953E+04  0.50400001928E-02 0.  1.
    10030    2    1    2    0    0  0.00000000000E+00  0.00000000000E+00 -0.15328718603E+04  0.35478745304E+04  0.31996433463E+04 0.  0.
        2    1    3    3  502    0 -0.11874516844E+04 -0.10316433114E+04 -0.44296790144E+03  0.16341817483E+04  0.25500000920E-02 0. -1.
       -2    1    3    3    0  502  0.11874516844E+04  0.10316433114E+04 -0.10899039588E+04  0.19136927821E+04  0.25500000920E-02 0.  1.
</event>
<event>
 5   0  0.9353994E-08  0.3203127E+04  0.7818609E-02  0.8187992E-01
       -2   -1    0    0    0  501  0.00000000000E+00  0.00000000000E+00  0.12966278668E+04  0.12966278668E+04  0.25500000920E-02 0.  1.
        2   -1    0    0  501    0  0.00000000000E+00  0.00000000000E+00 -0.19782124142E+04  0.19782124142E+04  0.25500000920E-02 0. -1.
    10030    2    1    2    0    0  0.00000000000E+00  0.00000000000E+00 -0.68158454738E+03  0.32748402811E+04  0.32031268116E+04 0.  0.
        2    1    3    3  502    0 -0.36156728653E+03 -0.32791434963E+03  0.12187262469E+04  0.13128413416E+04  0.25500000920E-02 0.  1.
       -2    1    3    3    0  502  0.36156728653E+03  0.32791434963E+03 -0.19003107943E+04  0.19619989394E+04  0.25500000920E-02 0. -1.
</event>
<event>
 5   0  0.3427667E-08  0.3199909E+04  0.7818609E-02  0.8188841E-01
       -1   -1    0    0    0  501  0.00000000000E+00  0.00000000000E+00  0.14749405325E+04  0.14749405325E+04  0.50400001928E-02 0.  1.
        1   -1    0    0  501    0  0.00000000000E+00  0.00000000000E+00 -0.17355643429E+04  0.17355643429E+04  0.50400001928E-02 0. -1.
    10030    2    1    2    0    0  0.00000000000E+00  0.00000000000E+00 -0.26062381046E+03  0.32105048754E+04  0.31999088713E+04 0.  0.
        2    1    3    3  502    0 -0.13832760207E+04  0.60184651417E+03  0.40454096106E+03  0.15618339109E+04  0.25500000920E-02 0. -1.
       -2    1    3    3    0  502  0.13832760207E+04 -0.60184651417E+03 -0.66516477152E+03  0.16486709645E+04  0.25500000920E-02 0.  1.
</event>
<event>
 5   0  0.9707721E-08  0.3200073E+04  0.7818609E-02  0.8188798E-01
        2   -1    0    0  501    0  0.00000000000E+00  0.00000000000E+00  0.23616266229E+04  0.23616266229E+04  0.25500000920E-02 0. -1.
       -2   -1    0    0    0  501  0.00000000000E+00  0.00000000000E+00 -0.10840482977E+04  0.10840482977E+04  0.25500000920E-02 0.  1.
    10030    2    1    2    0    0  0.00000000000E+00  0.00000000000E+00  0.12775783252E+04  0.34456749206E+04  0.32000733244E+04 0.  0.
        3    1    3    3  502    0 -0.11411402754E+04 -0.19248129806E+03  0.18285196021E+04  0.21639625976E+04  0.10100000352E+00 0. -1.
       -3    1    3    3    0  502  0.11411402754E+04  0.19248129806E+03 -0.55094127685E+03  0.12817123231E+04  0.10100000352E+00 0.  1.
</event>
<event>
 5   0  0.9157524E-08  0.3193373E+04  0.7818609E-02  0.8190570E-01
       -2   -1    0    0    0  501  0.00000000000E+00  0.00000000000E+00  0.22187159206E+04  0.22187159206E+04  0.25500000920E-02 0. -1.
        2   -1    0    0  501    0  0.00000000000E+00  0.00000000000E+00 -0.11490465150E+04  0.11490465150E+04  0.25500000920E-02 0.  1.
    10030    2    1    2    0    0  0.00000000000E+00  0.00000000000E+00  0.10696694056E+04  0.33677624356E+04  0.31933730106E+04 0.  0.
        5    1    3    3  502    0 -0.16640901732E+03  0.13279725665E+04  0.14531222752E+04  0.19755479076E+04  0.46999998093E+01 0.  1.
       -5    1    3    3    0  502  0.16640901732E+03 -0.13279725665E+04 -0.38345286963E+03  0.13922145279E+04  0.46999998093E+01 0. -1.
</event>
<event>
 5   0  0.3283581E-08  0.3199750E+04  0.7818609E-02  0.8188883E-01
       -1   -1    0    0    0  501  0.00000000000E+00  0.00000000000E+00  0.23998215216E+04  0.23998215216E+04  0.50400001928E-02 0.  1.
        1   -1    0    0  501    0  0.00000000000E+00  0.00000000000E+00 -0.10665794563E+04  0.10665794563E+04  0.50400001928E-02 0. -1.
    10030    2    1    2    0    0  0.00000000000E+00  0.00000000000E+00  0.13332420653E+04  0.34664009779E+04  0.31997501988E+04 0.  0.
        5    1    3    3  502    0 -0.46350679841E+03 -0.14952871022E+04  0.10240495964E+04  0.18706741394E+04  0.46999998093E+01 0.  1.
       -5    1    3    3    0  502  0.46350679841E+03  0.14952871022E+04  0.30919246893E+03  0.15957268384E+04  0.46999998093E+01 0. -1.
</event>
<event>
 5   0  0.3270966E-08  0.3200453E+04  0.7818609E-02  0.8188698E-01
       -1   -1    0    0    0  501  0.00000000000E+00  0.00000000000E+00  0.19025273693E+04  0.19025273693E+04  0.50400001928E-02 0.  1.
        1   -1    0    0  501    0  0.00000000000E+00  0.00000000000E+00 -0.13459594035E+04  0.13459594035E+04  0.50400001928E-02 0. -1.
    10030    2    1    2    0    0  0.00000000000E+00  0.00000000000E+00  0.55656796576E+03  0.32484867728E+04  0.32004528450E+04 0.  0.
        3    1    3    3  502    0  0.60796313994E+02 -0.32940927920E+03 -0.13099749775E+04  0.13521246676E+04  0.10100000352E+00 0. -1.
       -3    1    3    3    0  502 -0.60796313994E+02  0.32940927920E+03  0.18665429432E+04  0.18963621052E+04  0.10100000352E+00 0.  1.
</event>
<event>
 5   0  0.9707721E-08  0.3200382E+04  0.7818609E-02  0.8188716E-01
        2   -1    0    0  501    0  0.00000000000E+00  0.00000000000E+00  0.22099757702E+04  0.22099757702E+04  0.25500000920E-02 0.  1.
       -2   -1    0    0    0  501  0.00000000000E+00  0.00000000000E+00 -0.11586603166E+04  0.11586603166E+04  0.25500000920E-02 0. -1.
    10030    2    1    2    0    0  0.00000000000E+00  0.00000000000E+00  0.10513154537E+04  0.33686360868E+04  0.32003819931E+04 0.  0.
        3    1    3    3  502    0 -0.42541263821E+03 -0.14995614793E+03  0.21416740621E+04  0.21886595344E+04  0.10100000352E+00 0.  1.
       -3    1    3    3    0  502  0.42541263821E+03  0.14995614793E+03 -0.10903586084E+04  0.11799765524E+04  0.10100000352E+00 0. -1.
</event>
<event>
 5   0  0.9329929E-08  0.3198767E+04  0.7818609E-02  0.8189143E-01
        2   -1    0    0  501    0  0.00000000000E+00  0.00000000000E+00  0.97180841944E+03  0.97180841944E+03  0.25500000920E-02 0.  1.
       -2   -1    0    0    0  501  0.00000000000E+00  0.00000000000E+00 -0.26322350669E+04  0.26322350669E+04  0.25500000920E-02 0. -1.
    10030    2    1    2    0    0  0.00000000000E+00  0.00000000000E+00 -0.16604266475E+04  0.36040434864E+04  0.31987673876E+04 0.  0.
        1    1    3    3  502    0 -0.88409024202E+03  0.82150542551E+03  0.35230475949E+03  0.12572212867E+04  0.50400001928E-02 0.  1.
       -1    1    3    3    0  502  0.88409024202E+03 -0.82150542551E+03 -0.20127314070E+04  0.23468221996E+04  0.50400001928E-02 0. -1.
</event>
<event>
 5   0  0.9329929E-08  0.3201085E+04  0.7818609E-02  0.8188531E-01
       -2   -1    0    0    0  501  0.00000000000E+00  0.00000000000E+00  0.17701470480E+04  0.17701470480E+04  0.25500000920E-02 0.  1.
        2   -1    0    0  501    0  0.00000000000E+00  0.00000000000E+00 -0.14471881940E+04  0.14471881940E+04  0.25500000920E-02 0. -1.
    10030    2    1    2    0    0  0.00000000000E+00  0.00000000000E+00  0.32295885396E+03  0.32173352420E+04  0.32010847596E+04 0.  0.
        1    1    3    3  502    0 -0.15596924173E+04  0.28743695373E+03  0.37815554215E+03  0.16304177541E+04  0.50400001928E-02 0.  1.
       -1    1    3    3    0  502  0.15596924173E+04 -0.28743695373E+03 -0.55196688193E+02  0.15869174879E+04  0.50400001928E-02 0. -1.
</event>
<event>
 5   0  0.9353994E-08  0.3205243E+04  0.7818609E-02  0.8187434E-01
        2   -1    0    0  501    0  0.00000000000E+00  0.00000000000E+00  0.10272747237E+04  0.10272747237E+04  0.25500000920E-02 0.  1.
       -2   -1    0    0    0  501  0.00000000000E+00  0.00000000000E+00 -0.25002027841E+04  0.25002027841E+04  0.25500000920E-02 0. -1.
    10030    2    1    2    0    0  0.00000000000E+00  0.00000000000E+00 -0.14729280604E+04  0.35274775079E+04  0.32052426581E+04 0.  0.
        2    1    3    3  502    0 -0.79678579872E+03  0.73952553695E+03  0.55947197522E+03  0.12226097169E+04  0.25500000920E-02 0.  1.
       -2    1    3    3    0  502  0.79678579872E+03 -0.73952553695E+03 -0.20324000356E+04  0.23048677909E+04  0.25500000920E-02 0. -1.
</event>
<event>
 5   0  0.3343140E-08  0.3200067E+04  0.7818609E-02  0.8188800E-01
       -1   -1    0    0    0  501  0.00000000000E+00  0.00000000000E+00  0.91274449915E+03  0.91274449916E+03  0.50400001928E-02 0.  1.
        1   -1    0    0  501    0  0.00000000000E+00  0.00000000000E+00 -0.28048448377E+04  0.28048448377E+04  0.50400001928E-02 0. -1.
    10030    2    1    2    0    0  0.00000000000E+00  0.00000000000E+00 -0.18921003386E+04  0.37175893369E+04  0.32000666847E+04 0.  0.
        1    1    3    3  502    0 -0.53501475485E+03 -0.71791531687E+03 -0.24865762855E+04  0.26428592119E+04  0.50400001928E-02 0. -1.
       -1    1    3    3    0  502  0.53501475485E+03  0.71791531687E+03  0.59447594693E+03  0.10747301250E+04  0.50400001928E-02 0.  1.
</event>
<event>
 5   0  0.9329929E-08  0.3200156E+04  0.7818609E-02  0.8188776E-01
        2   -1    0    0  501    0  0.00000000000E+00  0.00000000000E+00  0.26246967409E+04  0.26246967410E+04  0.25500000920E-02 0.  1.
       -2   -1    0    0    0  501  0.00000000000E+00  0.00000000000E+00 -0.97544563364E+03  0.97544563364E+03  0.25500000920E-02 0. -1.
    10030    2    1    2    0    0  0.00000000000E+00  0.00000000000E+00  0.16492511073E+04  0.36001423746E+04  0.32001556060E+04 0.  0.
        1    1    3    3  502    0 -0.24894532861E+03 -0.15677384806E+04  0.59830608362E+03  0.16963926108E+04  0.50400001928E-02 0.  1.
       -1    1    3    3    0  502  0.24894532861E+03  0.15677384806E+04  0.10509450237E+04  0.19037497638E+04  0.50400001928E-02 0. -1.
</event>
<event>
 5   0  0.9727083E-08  0.3198981E+04  0.7818609E-02  0.8189086E-01
        2   -1    0    0  501    0  0.00000000000E+00  0.00000000000E+00  0.15274878075E+04  0.15274878075E+04  0.25500000920E-02 0. -1.
       -2   -1    0    0    0  501  0.00000000000E+00  0.00000000000E+00 -0.16748871852E+04  0.16748871852E+04  0.25500000920E-02 0.  1.
    10030    2    1    2    0    0  0.00000000000E+00  0.00000000000E+00 -0.14739937775E+03  0.32023749927E+04  0.31989809341E+04 0.  0.
        4    1    3    3  502    0 -0.40524180898E+03  0.57461502121E+03  0.13644751176E+04  0.15349909790E+04  0.12699999809E+01 0. -1.
       -4    1    3    3    0  502  0.40524180898E+03 -0.57461502121E+03 -0.15118744953E+04  0.16673840136E+04  0.12699999809E+01 0.  1.
</event>
<event>
 5   0  0.9707721E-08  0.3200379E+04  0.7818609E-02  0.8188717E-01
        2   -1    0    0  501    0  0.00000000000E+00  0.00000000000E+00  0.24218932355E+04  0.24218932355E+04  0.25500000920E-02 0.  1.
       -2   -1    0    0    0  501  0.00000000000E+00  0.00000000000E+00 -0.10572747659E+04  0.10572747659E+04  0.25500000920E-02 0. -1.
    10030    2    1    2    0    0  0.00000000000E+00  0.00000000000E+00  0.13646184696E+04  0.34791680014E+04  0.32003791048E+04 0.  0.
        3    1    3    3  502    0  0.15021016144E+04 -0.48785585820E+03  0.96221450100E+03  0.18493699886E+04  0.10100000352E+00 0. -1.
       -3    1    3    3    0  502 -0.15021016144E+04  0.48785585820E+03  0.40240396861E+03  0.16297980128E+04  0.10100000352E+00 0.  1.
</event>
<event>
 5   0  0.3283581E-08  0.3200058E+04  0.7818609E-02  0.8188802E-01
       -1   -1    0    0    0  501  0.00000000000E+00  0.00000000000E+00  0.15819966759E+04  0.15819966759E+04  0.50400001928E-02 0.  1.
        1   -1    0    0  501    0  0.00000000000E+00  0.00000000000E+00 -0.16182669588E+04  0.16182669588E+04  0.50400001928E-02 0. -1.
    10030    2    1    2    0    0  0.00000000000E+00  0.00000000000E+00 -0.36270282894E+02  0.32002636347E+04  0.32000580929E+04 0.  0.
        5    1    3    3  502    0 -0.12893518097E+04 -0.94544525194E+03  0.43318344092E+02  0.15994353324E+04  0.46999998093E+01 0. -1.
       -5    1    3    3    0  502  0.12893518097E+04  0.94544525194E+03 -0.79588626986E+02  0.16008283022E+04  0.46999998093E+01 0.  1.
</event>
<event>
 5   0  0.3427667E-08  0.3200967E+04  0.7818609E-02  0.8188562E-01
       -1   -1    0    0    0  501  0.00000000000E+00  0.00000000000E+00  0.14916870735E+04  0.14916870735E+04  0.50400001928E-02 0.  1.
        1   -1    0    0  501    0  0.00000000000E+00  0.00000000000E+00 -0.17172155119E+04  0.17172155119E+04  0.50400001928E-02 0. -1.
    10030    2    1    2    0    0  0.00000000000E+00  0.00000000000E+00 -0.22552843842E+03  0.32089025854E+04  0.32009674672E+04 0.  0.
        2    1    3    3  502    0 -0.19130113558E+03 -0.13055120987E+03 -0.17003277408E+04  0.17160286038E+04  0.25500000920E-02 0. -1.
       -2    1    3    3    0  502  0.19130113558E+03  0.13055120987E+03  0.14747993024E+04  0.14928739817E+04  0.25500000920E-02 0.  1.
</event>
<event>
 5   0  0.9329929E-08  0.3201127E+04  0.7818609E-02  0.8188520E-01
       -2   -1    0    0    0  501  0.00000000000E+00  0.00000000000E+00  0.14132656111E+04  0.14132656111E+04  0.25500000920E-02 0. -1.
        2   -1    0    0  501    0  0.00000000000E+00  0.00000000000E+00 -0.18126838541E+04  0.18126838541E+04  0.25500000920E-02 0.  1.
    10030    2    1    2    0    0  0.00000000000E+00  0.00000000000E+00 -0.39941824296E+03  0.32259494652E+04  0.32011271483E+04 0.  0.
        1    1    3    3  502    0  0.85029962313E+02 -0.15527125807E+04 -0.58166965222E+03  0.16602668572E+04  0.50400001928E-02 0.  1.
       -1    1    3    3    0  502 -0.85029962313E+02  0.15527125807E+04  0.18225140926E+03  0.15656826080E+04  0.50400001928E-02 0. -1.
</event>
<event>
 5   0  0.9727083E-08  0.3200237E+04  0.7818609E-02  0.8188755E-01
        2   -1    0    0  501    0  0.00000000000E+00  0.00000000000E+00  0.21114978437E+04  0.21114978437E+04  0.25500000920E-02 0. -1.
       -2   -1    0    0    0  501  0.00000000000E+00  0.00000000000E+00 -0.12125891948E+04  0.12125891948E+04  0.25500000920E-02 0.  1.
    10030    2    1    2    0    0  0.00000000000E+00  0.00000000000E+00  0.89890864897E+03  0.33240870385E+04  0.32002371600E+04 0.  0.
        4    1    3    3  502    0  0.94157221032E+02 -0.15937904450E+04  0.33882279234E+03  0.16321262397E+04  0.12699999809E+01 0.  1.
       -4    1    3    3    0  502 -0.94157221032E+02  0.15937904450E+04  0.56008585663E+03  0.16919607988E+04  0.12699999809E+01 0. -1.
</event>
<event>
 5   0  0.9707721E-08  0.3194114E+04  0.7818609E-02  0.8190373E-01
        2   -1    0    0  501    0  0.00000000000E+00  0.00000000000E+00  0.24118048280E+04  0.24118048280E+04  0.25500000920E-02 0.  1.
       -2   -1    0    0    0  501  0.00000000000E+00  0.00000000000E+00 -0.10575442888E+04  0.10575442888E+04  0.25500000920E-02 0. -1.
    10030    2    1    2    0    0  0.00000000000E+00  0.00000000000E+00  0.13542605392E+04  0.34693491168E+04  0.31941135995E+04 0.  0.
        3    1    3    3  502    0  0.18461345285E+03 -0.61665290480E+03 -0.91040516739E+03  0.11149800496E+04  0.10100000352E+00 0. -1.
       -3    1    3    3    0  502 -0.18461345285E+03  0.61665290480E+03  0.22646657066E+04  0.23543690672E+04  0.10100000352E+00 0.  1.
</event>
<event>
 5   0  0.3343140E-08  0.3196731E+04  0.7818609E-02  0.8189681E-01
       -1   -1    0    0    0  501  0.00000000000E+00  0.00000000000E+00  0.12524114247E+04  0.12524114247E+04  0.50400001928E-02 0.  1.
        1   -1    0    0  501    0  0.00000000000E+00  0.00000000000E+00 -0.20398823233E+04  0.20398823233E+04  0.50400001928E-02 0. -1.
    10030    2    1    2    0    0  0.00000000000E+00  0.00000000000E+00 -0.78747089860E+03  0.32922937480E+04  0.31967307842E+04 0.  0.
        1    1    3    3  502    0 -0.94902166483E+02  0.14040999660E+03  0.12431320722E+04  0.12546309168E+04  0.50400001928E-02 0.  1.
       -1    1    3    3    0  502  0.94902166483E+02 -0.14040999660E+03 -0.20306029708E+04  0.20376628312E+04  0.50400001928E-02 0. -1.
</event>
<event>
 5   0  0.9353994E-08  0.3200530E+04  0.7818609E-02  0.8188677E-01
       -2   -1    0    0    0  501  0.00000000000E+00  0.00000000000E+00  0.14128678426E+04  0.14128678426E+04  0.25500000920E-02 0. -1.
        2   -1    0    0  501    0  0.00000000000E+00  0.00000000000E+00 -0.18125174975E+04  0.18125174975E+04  0.25500000920E-02 0.  1.
    10030    2    1    2    0    0  0.00000000000E+00  0.00000000000E+00 -0.39964965494E+03  0.32253853401E+04  0.32005297601E+04 0.  0.
        2    1    3    3  502    0  0.84545653162E+03  0.93516680804E+03  0.79348393176E+03  0.14896141969E+04  0.25500000920E-02 0. -1.
       -2    1    3    3    0  502 -0.84545653162E+03 -0.93516680804E+03 -0.11931335867E+04  0.17357711432E+04  0.25500000920E-02 0.  1.
</event>
<event>
 5   0  0.3343140E-08  0.3199914E+04  0.7818609E-02  0.8188840E-01
       -1   -1    0    0    0  501  0.00000000000E+00  0.00000000000E+00  0.27428962264E+04  0.27428962264E+04  0.50400001928E-02 0.  1.
        1   -1    0    0  501    0  0.00000000000E+00  0.00000000000E+00 -0.93326961107E+03  0.93326961109E+03  0.50400001928E-02 0. -1.
    10030    2    1    2    0    0  0.00000000000E+00  0.00000000000E+00  0.18096266153E+04  0.36761658375E+04  0.31999135579E+04 0.  0.
        1    1    3    3  502    0  0.47293286216E+03  0.12958102385E+04 -0.26430371646E+02  0.13796696094E+04  0.50400001928E-02 0. -1.
       -1    1    3    3    0  502 -0.47293286216E+03 -0.12958102385E+04  0.18360569870E+04  0.22964962281E+04  0.50400001928E-02 0.  1.
</event>
<event>
 5   0  0.3427667E-08  0.3198058E+04  0.7818609E-02  0.8189330E-01
        1   -1    0    0  501    0  0.00000000000E+00  0.00000000000E+00  0.24239066071E+04  0.24239066071E+04  0.50400001928E-02 0. -1.
       -1   -1    0    0    0  501  0.00000000000E+00  0.00000000000E+00 -0.10548644803E+04  0.10548644803E+04  0.50400001928E-02 0.  1.
    10030    2    1    2    0    0  0.00000000000E+00  0.00000000000E+00  0.13690421268E+04  0.34787710874E+04  0.31980575250E+04 0.  0.
        2    1    3    3  502    0 -0.73599599954E+03 -0.22059487689E+03  0.22099467603E+04  0.23397044459E+04  0.25500000920E-02 0. -1.
       -2    1    3    3    0  502  0.73599599954E+03  0.22059487689E+03 -0.84090463345E+03  0.11390666414E+04  0.25500000920E-02 0.  1.
</event>
<event>
 5   0  0.9157524E-08  0.3199524E+04  0.7818609E-02  0.8188943E-01
       -2   -1    0    0    0  501  0.00000000000E+00  0.00000000000E+00  0.16030526120E+04  0.16030526120E+04  0.25500000920E-02 0.  1.
        2   -1    0    0  501    0  0.00000000000E+00  0.00000000000E+00 -0.15964782778E+04  0.15964782778E+04  0.25500000920E-02 0. -1.
    10030    2    1    2    0    0  0.00000000000E+00  0.00000000000E+00  0.65743342423E+01  0.31995308898E+04  0.31995241354E+04 0.  0.
        5    1    3    3  502    0 -0.68787228002E+03 -0.13855453829E+04 -0.40452774633E+03  0.15989274747E+04  0.46999998093E+01 0. -1.
       -5    1    3    3    0  502  0.68787228002E+03  0.13855453829E+04  0.41110208057E+03  0.16006034151E+04  0.46999998093E+01 0.  1.
</event>
<event>
 5   0  0.3343140E-08  0.3201083E+04  0.7818609E-02  0.8188531E-01
       -1   -1    0    0    0  501  0.00000000000E+00  0.00000000000E+00  0.28357940437E+04  0.28357940437E+04  0.50400001928E-02 0. -1.
        1   -1    0    0  501    0  0.00000000000E+00  0.00000000000E+00 -0.90335662561E+03  0.90335662562E+03  0.50400001928E-02 0.  1.
    10030    2    1    2    0    0  0.00000000000E+00  0.00000000000E+00  0.19324374181E+04  0.37391506694E+04  0.32010831531E+04 0.  0.
        1    1    3    3  502    0 -0.87742363075E+03 -0.11722880940E+04  0.21137479663E+03  0.14794630471E+04  0.50400001928E-02 0.  1.
       -1    1    3    3    0  502  0.87742363075E+03  0.11722880940E+04  0.17210626215E+04  0.22596876223E+04  0.50400001928E-02 0. -1.
</event>
<event>
 5   0  0.9727083E-08  0.3201269E+04  0.7818609E-02  0.8188482E-01
        2   -1    0    0  501    0  0.00000000000E+00  0.00000000000E+00  0.15379872085E+04  0.15379872085E+04  0.25500000920E-02 0.  1.
       -2   -1    0    0    0  501  0.00000000000E+00  0.00000000000E+00 -0.16658339455E+04  0.16658339455E+04  0.25500000920E-02 0. -1.
    10030    2    1    2    0    0  0.00000000000E+00  0.00000000000E+00 -0.12784673700E+03  0.32038211540E+04  0.32012693105E+04 0.  0.
        4    1    3    3  502    0  0.11905514484E+04  0.77376496670E+03  0.67551924456E+03  0.15724035225E+04  0.12699999809E+01 0. -1.
       -4    1    3    3    0  502 -0.11905514484E+04 -0.77376496670E+03 -0.80336598155E+03  0.16314176314E+04  0.12699999809E+01 0.  1.
</event>
<event>
 5   0  0.3080500E-08  0.3199837E+04  0.7818609E-02  0.8188860E-01
        3   -1    0    0  501    0  0.00000000000E+00  0.00000000000E+00  0.14511094209E+04  0.14511094244E+04  0.10100000352E+00 0. -1.
       -3   -1    0    0    0  501  0.00000000000E+00  0.00000000000E+00 -0.17639879138E+04  0.17639879167E+04  0.10100000352E+00 0.  1.
    10030    2    1    2    0    0  0.00000000000E+00  0.00000000000E+00 -0.31287849297E+03  0.32150973411E+04  0.31998371773E+04 0.  0.
        3    1    3    3  502    0  0.78134915396E+03 -0.11643208090E+04 -0.93056148994E+03  0.16828826885E+04  0.10100000352E+00 0.  1.
       -3    1    3    3    0  502 -0.78134915396E+03  0.11643208090E+04  0.61768299697E+03  0.15322146526E+04  0.10100000352E+00 0. -1.
</event>
<event>
 5   0  0.9707721E-08  0.3200265E+04  0.7818609E-02  0.8188747E-01
       -2   -1    0    0    0  501  0.00000000000E+00  0.00000000000E+00  0.21530020461E+04  0.21530020461E+04  0.25500000920E-02 0. -1.
        2   -1    0    0  501    0  0.00000000000E+00  0.00000000000E+00 -0.11892344116E+04  0.11892344116E+04  0.25500000920E-02 0.  1.
    10030    2    1    2    0    0  0.00000000000E+00  0.00000000000E+00  0.96376763456E+03  0.33422364577E+04  0.32002650649E+04 0.  0.
        3    1    3    3  502    0 -0.84858504018E+03  0.92105373702E+03 -0.55828620522E+03  0.13711746986E+04  0.10100000352E+00 0.  1.
       -3    1    3    3    0  502  0.84858504018E+03 -0.92105373702E+03  0.15220538398E+04  0.19710617591E+04  0.10100000352E+00 0. -1.
</event>
<event>
 5   0  0.9707721E-08  0.3212719E+04  0.7818609E-02  0.8185466E-01
       -2   -1    0    0    0  501  0.00000000000E+00  0.00000000000E+00  0.79227302736E+03  0.79227302736E+03  0.25500000920E-02 0.  1.
        2   -1    0    0  501    0  0.00000000000E+00  0.00000000000E+00 -0.32569469661E+04  0.32569469661E+04  0.25500000920E-02 0. -1.
    10030    2    1    2    0    0  0.00000000000E+00  0.00000000000E+00 -0.24646739387E+04  0.40492199935E+04  0.32127192425E+04 0.  0.
        3    1    3    3  502    0 -0.97591677454E+03 -0.30807642472E+03  0.32821813101E+03  0.10747333558E+04  0.10100000352E+00 0.  1.
       -3    1    3    3    0  502  0.97591677454E+03  0.30807642472E+03 -0.27928920697E+04  0.29744866377E+04  0.10100000352E+00 0. -1.
</event>
<event>
 5   0  0.3270966E-08  0.3200517E+04  0.7818609E-02  0.8188681E-01
       -1   -1    0    0    0  501  0.00000000000E+00  0.00000000000E+00  0.99990762924E+03  0.99990762926E+03  0.50400001928E-02 0.  1.
        1   -1    0    0  501    0  0.00000000000E+00  0.00000000000E+00 -0.25610630780E+04  0.25610630780E+04  0.50400001928E-02 0. -1.
    10030    2    1    2    0    0  0.00000000000E+00  0.00000000000E+00 -0.15611554487E+04  0.35609707072E+04  0.32005165275E+04 0.  0.
        3    1    3    3  502    0 -0.52041125881E+03  0.26574510154E+03 -0.24381175853E+04  0.25071628801E+04  0.10100000352E+00 0. -1.
       -3    1    3    3    0  502  0.52041125881E+03 -0.26574510154E+03  0.87696213660E+03  0.10538078271E+04  0.10100000352E+00 0.  1.
</event>
<event>
 5   0  0.9353994E-08  0.3211096E+04  0.7818609E-02  0.8185893E-01
        2   -1    0    0  501    0  0.00000000000E+00  0.00000000000E+00  0.19671038550E+04  0.19671038550E+04  0.25500000920E-02 0.  1.
       -2   -1    0    0    0  501  0.00000000000E+00  0.00000000000E+00 -0.13104467073E+04  0.13104467073E+04  0.25500000920E-02 0. -1.
    10030    2    1    2    0    0  0.00000000000E+00  0.00000000000E+00  0.65665714765E+03  0.32775505623E+04  0.32110962425E+04 0.  0.
        2    1    3    3  502    0 -0.12128019314E+04 -0.32783597271E+03 -0.69207050240E+03  0.14343383597E+04  0.25500000920E-02 0. -1.
       -2    1    3    3    0  502  0.12128019314E+04  0.32783597271E+03  0.13487276500E+04  0.18432122026E+04  0.25500000920E-02 0.  1.
</event>
<event>
 5   0  0.9727083E-08  0.3194464E+04  0.7818609E-02  0.8190281E-01
       -2   -1    0    0    0  501  0.00000000000E+00  0.00000000000E+00  0.16384676789E+04  0.16384676789E+04  0.25500000920E-02 0. -1.
        2   -1    0    0  501    0  0.00000000000E+00  0.00000000000E+00 -0.15570336561E+04  0.15570336561E+04  0.25500000920E-02 0.  1.
    10030    2    1    2    0    0  0.00000000000E+00  0.00000000000E+00  0.81434022764E+02  0.31955013350E+04  0.31944635359E+04 0.  0.
        4    1    3    3  502    0  0.58240130641E+03  0.74748534064E+03 -0.12454775480E+04  0.15649733390E+04  0.12699999809E+01 0.  1.
       -4    1    3    3    0  502 -0.58240130641E+03 -0.74748534064E+03  0.13269115708E+04  0.16305279960E+04  0.12699999809E+01 0. -1.
</event>
<event>
 5   0  0.9727083E-08  0.3199418E+04  0.7818609E-02  0.8188971E-01
        2   -1    0    0  501    0  0.00000000000E+00  0.00000000000E+00  0.26105949425E+04  0.26105949425E+04  0.25500000920E-02 0. -1.
       -2   -1    0    0    0  501  0.00000000000E+00  0.00000000000E+00 -0.98026268094E+03  0.98026268094E+03  0.25500000920E-02 0.  1.
    10030    2    1    2    0    0  0.00000000000E+00  0.00000000000E+00  0.16303322615E+04  0.35908576234E+04  0.31994179453E+04 0.  0.
        4    1    3    3  502    0 -0.11226072633E+04 -0.74078756095E+03  0.17871822074E+04  0.22367465510E+04  0.12699999809E+01 0. -1.
       -4    1    3    3    0  502  0.11226072633E+04  0.74078756095E+03 -0.15684994590E+03  0.13541110724E+04  0.12699999809E+01 0.  1.
</event>
<event>
 5   0  0.3220147E-08  0.3200007E+04  0.7818609E-02  0.8188815E-01
       -1   -1    0    0    0  501  0.00000000000E+00  0.00000000000E+00  0.19849968961E+04  0.19849968961E+04  0.50400001928E-02 0. -1.
        1   -1    0    0  501    0  0.00000000000E+00  0.00000000000E+00 -0.12896804434E+04  0.12896804434E+04  0.50400001928E-02 0.  1.
    10030    2    1    2    0    0  0.00000000000E+00  0.00000000000E+00  0.69531645273E+03  0.32746773395E+04  0.32000072982E+04 0.  0.
        4    1    3    3  502    0  0.80822354610E+03 -0.11973928567E+04 -0.35616603648E+03  0.14878947585E+04  0.12699999809E+01 0.  1.
       -4    1    3    3    0  502 -0.80822354610E+03  0.11973928567E+04  0.10514824892E+04  0.17867825810E+04  0.12699999809E+01 0. -1.
</event>
<event>
 5   0  0.3283581E-08  0.3199620E+04  0.7818609E-02  0.8188918E-01
        1   -1    0    0  501    0  0.00000000000E+00  0.00000000000E+00  0.18003153299E+04  0.18003153299E+04  0.50400001928E-02 0.  1.
       -1   -1    0    0    0  501  0.00000000000E+00  0.00000000000E+00 -0.14216351913E+04  0.14216351913E+04  0.50400001928E-02 0. -1.
    10030    2    1    2    0    0  0.00000000000E+00  0.00000000000E+00  0.37868013852E+03  0.32219505212E+04  0.31996197452E+04 0.  0.
        5    1    3    3  502    0 -0.32205686069E+03  0.31449723404E+03 -0.13565420453E+04  0.14292856755E+04  0.46999998093E+01 0. -1.
       -5    1    3    3    0  502  0.32205686069E+03 -0.31449723404E+03  0.17352221838E+04  0.17926648457E+04  0.46999998093E+01 0.  1.
</event>
<event>
 5   0  0.3343140E-08  0.3200070E+04  0.7818609E-02  0.8188799E-01
        1   -1    0    0  501    0  0.00000000000E+00  0.00000000000E+00  0.23206776317E+04  0.23206776317E+04  0.50400001928E-02 0.  1.
       -1   -1    0    0    0  501  0.00000000000E+00  0.00000000000E+00 -0.11031744178E+04  0.11031744178E+04  0.50400001928E-02 0. -1.
    10030    2    1    2    0    0  0.00000000000E+00  0.00000000000E+00  0.12175032140E+04  0.34238520495E+04  0.32000701212E+04 0.  0.
        1    1    3    3  502    0 -0.15010858558E+03 -0.61985560329E+03 -0.96129909870E+03  0.11536245115E+04  0.50400001928E-02 0. -1.
       -1    1    3    3    0  502  0.15010858558E+03  0.61985560329E+03  0.21788023127E+04  0.22702275380E+04  0.50400001928E-02 0.  1.
</event>
<event>
 5   0  0.3220147E-08  0.3198932E+04  0.7818609E-02  0.8189099E-01
       -1   -1    0    0    0  501  0.00000000000E+00  0.00000000000E+00  0.29564672083E+04  0.29564672083E+04  0.50400001928E-02 0.  1.
        1   -1    0    0  501    0  0.00000000000E+00  0.00000000000E+00 -0.86532063071E+03  0.86532063072E+03  0.50400001928E-02 0. -1.
    10030    2    1    2    0    0  0.00000000000E+00  0.00000000000E+00  0.20911465776E+04  0.38217878391E+04  0.31989323653E+04 0.  0.
        4    1    3    3  502    0 -0.54232339512E+03 -0.96738515347E+03  0.24225177667E+04  0.26643090367E+04  0.12699999809E+01 0.  1.
       -4    1    3    3    0  502  0.54232339512E+03  0.96738515347E+03 -0.33137118910E+03  0.11574788024E+04  0.12699999809E+01 0. -1.
</event>
<event>
 5   0  0.3343140E-08  0.3202081E+04  0.7818609E-02  0.8188268E-01
        1   -1    0    0  501    0  0.00000000000E+00  0.00000000000E+00  0.13360479719E+04  0.13360479719E+04  0.50400001928E-02 0.  1.
       -1   -1    0    0    0  501  0.00000000000E+00  0.00000000000E+00 -0.19185919414E+04  0.19185919414E+04  0.50400001928E-02 0. -1.
    10030    2    1    2    0    0  0.00000000000E+00  0.00000000000E+00 -0.58254396946E+03  0.32546399133E+04  0.32020811184E+04 0.  0.
        1    1    3    3  502    0 -0.70250662335E+03  0.11648917610E+04  0.56688631903E+03  0.14737192641E+04  0.50400001928E-02 0.  1.
       -1    1    3    3    0  502  0.70250662335E+03 -0.11648917610E+04 -0.11494302885E+04  0.17809206492E+04  0.50400001928E-02 0. -1.
</event>
<event>
 5   0  0.9353994E-08  0.3203426E+04  0.7818609E-02  0.8187913E-01
        2   -1    0    0  501    0  0.00000000000E+00  0.00000000000E+00  0.21294546361E+04  0.21294546361E+04  0.25500000920E-02 0.  1.
       -2   -1    0    0    0  501  0.00000000000E+00  0.00000000000E+00 -0.12047610191E+04  0.12047610191E+04  0.25500000920E-02 0. -1.
    10030    2    1    2    0    0  0.00000000000E+00  0.00000000000E+00  0.92469361696E+03  0.33342156552E+04  0.32034256274E+04 0.  0.
        2    1    3    3  502    0 -0.15484478444E+04 -0.26382400035E+03  0.78849344841E+03  0.17575596002E+04  0.25500000920E-02 0.  1.
       -2    1    3    3    0  502  0.15484478444E+04  0.26382400035E+03  0.13620016855E+03  0.15766560550E+04  0.25500000920E-02 0. -1.
</event>
<event>
 5   0  0.3220147E-08  0.3200596E+04  0.7818609E-02  0.8188660E-01
        1   -1    0    0  501    0  0.00000000000E+00  0.00000000000E+00  0.19572517032E+04  0.19572517032E+04  0.50400001928E-02 0.  1.
       -1   -1    0    0    0  501  0.00000000000E+00  0.00000000000E+00 -0.13084441132E+04  0.13084441133E+04  0.50400001928E-02 0. -1.
    10030    2    1    2    0    0  0.00000000000E+00  0.00000000000E+00  0.64880758998E+03  0.32656958165E+04  0.32005964877E+04 0.  0.
        4    1    3    3  502    0  0.12511864727E+04 -0.93378019014E+03 -0.34227590298E+02  0.15615973149E+04  0.12699999809E+01 0. -1.
       -4    1    3    3    0  502 -0.12511864727E+04  0.93378019014E+03  0.68303518028E+03  0.17040985016E+04  0.12699999809E+01 0.  1.
</event>
<event>
 5   0  0.9353994E-08  0.3201094E+04  0.7818609E-02  0.8188528E-01
       -2   -1    0    0    0  501  0.00000000000E+00  0.00000000000E+00  0.97212031971E+03  0.97212031972E+03  0.25500000920E-02 0.  1.
        2   -1    0    0  501    0  0.00000000000E+00  0.00000000000E+00 -0.26352204993E+04  0.26352204993E+04  0.25500000920E-02 0. -1.
    10030    2    1    2    0    0  0.00000000000E+00  0.00000000000E+00 -0.16631001796E+04  0.36073408191E+04  0.32010944343E+04 0.  0.
        2    1    3    3  502    0 -0.29615614097E+02  0.13712351290E+04  0.98124589973E+02  0.13750604709E+04  0.25500000920E-02 0.  1.
       -2    1    3    3    0  502  0.29615614097E+02 -0.13712351290E+04 -0.17612247696E+04  0.22322803481E+04  0.25500000920E-02 0. -1.
</event>
<event>
 5   0  0.3343140E-08  0.3199622E+04  0.7818609E-02  0.8188917E-01
       -1   -1    0    0    0  501  0.00000000000E+00  0.00000000000E+00  0.15822682332E+04  0.15822682332E+04  0.50400001928E-02 0. -1.
        1   -1    0    0  501    0  0.00000000000E+00  0.00000000000E+00 -0.16175484477E+04  0.16175484477E+04  0.50400001928E-02 0.  1.
    10030    2    1    2    0    0  0.00000000000E+00  0.00000000000E+00 -0.35280214494E+02  0.31998166809E+04  0.31996221805E+04 0.  0.
        1    1    3    3  502    0 -0.30344133937E+02 -0.15479611778E+04 -0.42051810559E+03  0.16043503518E+04  0.50400001928E-02 0.  1.
       -1    1    3    3    0  502  0.30344133937E+02  0.15479611778E+04  0.38523789110E+03  0.15954663290E+04  0.50400001928E-02 0. -1.
</event>
<event>
 5   0  0.3270966E-08  0.3200643E+04  0.7818609E-02  0.8188647E-01
        1   -1    0    0  501    0  0.00000000000E+00  0.00000000000E+00  0.90858261690E+03  0.90858261691E+03  0.50400001928E-02 0. -1.
       -1   -1    0    0    0  501  0.00000000000E+00  0.00000000000E+00 -0.28187085917E+04  0.28187085917E+04  0.50400001928E-02 0.  1.
    10030    2    1    2    0    0  0.00000000000E+00  0.00000000000E+00 -0.19101259748E+04  0.37272912086E+04  0.32006434532E+04 0.  0.
        3    1    3    3  502    0  0.51324403552E+03  0.75318387064E+03 -0.24869254467E+04  0.26486795900E+04  0.10100000352E+00 0.  1.
       -3    1    3    3    0  502 -0.51324403552E+03 -0.75318387064E+03  0.57679947183E+03  0.10786116187E+04  0.10100000352E+00 0. -1.
</event>
<event>
 5   0  0.9353994E-08  0.3199370E+04  0.7818609E-02  0.8188984E-01
       -2   -1    0    0    0  501  0.00000000000E+00  0.00000000000E+00  0.16497972182E+04  0.16497972182E+04  0.25500000920E-02 0. -1.
        2   -1    0    0  501    0  0.00000000000E+00  0.00000000000E+00 -0.15510945513E+04  0.15510945513E+04  0.25500000920E-02 0.  1.
    10030    2    1    2    0    0  0.00000000000E+00  0.00000000000E+00  0.98702666901E+02  0.32008917696E+04  0.31993696104E+04 0.  0.
        2    1    3    3  502    0  0.89358871862E+03  0.41315071534E+03  0.13108228055E+04  0.16393446066E+04  0.25500000920E-02 0. -1.
       -2    1    3    3    0  502 -0.89358871862E+03 -0.41315071534E+03 -0.12121201386E+04  0.15615471630E+04  0.25500000920E-02 0.  1.
</event>
<event>
 5   0  0.9329929E-08  0.3201445E+04  0.7818609E-02  0.8188436E-01
       -2   -1    0    0    0  501  0.00000000000E+00  0.00000000000E+00  0.24664916057E+04  0.24664916057E+04  0.25500000920E-02 0.  1.
        2   -1    0    0  501    0  0.00000000000E+00  0.00000000000E+00 -0.10388493848E+04  0.10388493848E+04  0.25500000920E-02 0. -1.
    10030    2    1    2    0    0  0.00000000000E+00  0.00000000000E+00  0.14276422209E+04  0.35053409905E+04  0.32014454780E+04 0.  0.
        1    1    3    3  502    0  0.66190819170E+03  0.14568462599E+04  0.66749910301E+03  0.17338046406E+04  0.50400001928E-02 0.  1.
       -1    1    3    3    0  502 -0.66190819170E+03 -0.14568462599E+04  0.76014311790E+03  0.17715363499E+04  0.50400001928E-02 0. -1.
</event>
<event>
 5   0  0.9157524E-08  0.3198405E+04  0.7818609E-02  0.8189238E-01
        2   -1    0    0  501    0  0.00000000000E+00  0.00000000000E+00  0.19399130014E+04  0.19399130014E+04  0.25500000920E-02 0. -1.
       -2   -1    0    0    0  501  0.00000000000E+00  0.00000000000E+00 -0.13183319456E+04  0.13183319456E+04  0.25500000920E-02 0.  1.
    10030    2    1    2    0    0  0.00000000000E+00  0.00000000000E+00  0.62158105584E+03  0.32582449471E+04  0.31984054036E+04 0.  0.
        5    1    3    3  502    0 -0.71853289430E+03  0.67339112561E+03  0.15943972687E+04  0.18739983641E+04  0.46999998093E+01 0. -1.
       -5    1    3    3    0  502  0.71853289430E+03 -0.67339112561E+03 -0.97281621290E+03  0.13842465829E+04  0.46999998093E+01 0.  1.
</event>
<event>
 5   0  0.3220147E-08  0.3200407E+04  0.7818609E-02  0.8188710E-01
        1   -1    0    0  501    0  0.00000000000E+00  0.00000000000E+00  0.25579306291E+04  0.25579306291E+04  0.50400001928E-02 0. -1.
       -1   -1    0    0    0  501  0.00000000000E+00  0.00000000000E+00 -0.10010638743E+04  0.10010638743E+04  0.50400001928E-02 0.  1.
    10030    2    1    2    0    0  0.00000000000E+00  0.00000000000E+00  0.15568667548E+04  0.35589945034E+04  0.32004074401E+04 0.  0.
        4    1    3    3  502    0 -0.10693220146E+04 -0.69311850301E+03 -0.29788954634E+03  0.13086644432E+04  0.12699999809E+01 0.  1.
       -4    1    3    3    0  502  0.10693220146E+04  0.69311850301E+03  0.18547563011E+04  0.22503300602E+04  0.12699999809E+01 0. -1.
</event>
<event>
 5   0  0.3343140E-08  0.3200277E+04  0.7818609E-02  0.8188744E-01
        1   -1    0    0  501    0  0.00000000000E+00  0.00000000000E+00  0.10953617836E+04  0.10953617836E+04  0.50400001928E-02 0. -1.
       -1   -1    0    0    0  501  0.00000000000E+00  0.00000000000E+00 -0.23375315401E+04  0.23375315401E+04  0.50400001928E-02 0.  1.
    10030    2    1    2    0    0  0.00000000000E+00  0.00000000000E+00 -0.12421697565E+04  0.34328933237E+04  0.32002766862E+04 0.  0.
        1    1    3    3  502    0  0.13673237792E+04  0.58554988315E+03  0.11708952298E+02  0.14874743973E+04  0.50400001928E-02 0. -1.
       -1    1    3    3    0  502 -0.13673237792E+04 -0.58554988315E+03 -0.12538787088E+04  0.19454189264E+04  0.50400001928E-02 0.  1.
</event>
<event>
 5   0  0.3270966E-08  0.3194102E+04  0.7818609E-02  0.8190377E-01
        1   -1    0    0  501    0  0.00000000000E+00  0.00000000000E+00  0.24414581176E+04  0.24414581176E+04  0.50400001928E-02 0.  1.
       -1   -1    0    0    0  501  0.00000000000E+00  0.00000000000E+00 -0.10446918552E+04  0.10446918552E+04  0.50400001928E-02 0. -1.
    10030    2    1    2    0    0  0.00000000000E+00  0.00000000000E+00  0.13967662624E+04  0.34861499728E+04  0.31941016954E+04 0.  0.
        3    1    3    3  502    0 -0.98650135285E+03  0.15207373218E+03  0.20590730610E+04  0.22882511269E+04  0.10100000352E+00 0.  1.
       -3    1    3    3    0  502  0.98650135285E+03 -0.15207373218E+03 -0.66230679858E+03  0.11978988458E+04  0.10100000352E+00 0. -1.
</event>
<event>
 5   0  0.9707721E-08  0.3200042E+04  0.7818609E-02  0.8188806E-01
        2   -1    0    0  501    0  0.00000000000E+00  0.00000000000E+00  0.15118186855E+04  0.15118186855E+04  0.25500000920E-02 0.  1.
       -2   -1    0    0    0  501  0.00000000000E+00  0.00000000000E+00 -0.16933688762E+04  0.16933688762E+04  0.25500000920E-02 0. -1.
    10030    2    1    2    0    0  0.00000000000E+00  0.00000000000E+00 -0.18155019071E+03  0.32051875616E+04  0.32000416925E+04 0.  0.
        3    1    3    3  502    0 -0.15266402074E+04  0.22380165909E+03 -0.51495249467E+03  0.16266202960E+04  0.10100000352E+00 0.  1.
       -3    1    3    3    0  502  0.15266402074E+04 -0.22380165909E+03  0.33340230395E+03  0.15785672656E+04  0.10100000352E+00 0. -1.
</event>
<event>
 5   0  0.9353994E-08  0.3201168E+04  0.7818609E-02  0.8188509E-01
        2   -1    0    0  501    0  0.00000000000E+00  0.00000000000E+00  0.21710226607E+04  0.21710226607E+04  0.25500000920E-02 0. -1.
       -2   -1    0    0    0  501  0.00000000000E+00  0.00000000000E+00 -0.11800285874E+04  0.11800285874E+04  0.25500000920E-02 0.  1.
    10030    2    1    2    0    0  0.00000000000E+00  0.00000000000E+00  0.99099407332E+03  0.33510512481E+04  0.32011677891E+04 0.  0.
        2    1    3    3  502    0 -0.24584485160E+03 -0.49155687947E+03  0.20691455089E+04  0.21408949049E+04  0.25500000920E-02 0. -1.
       -2    1    3    3    0  502  0.24584485160E+03  0.49155687947E+03 -0.10781514356E+04  0.12101563432E+04  0.25500000920E-02 0.  1.
</event>
<event>
 5   0  0.3427667E-08  0.3198973E+04  0.7818609E-02  0.8189088E-01
        1   -1    0    0  501    0  0.00000000000E+00  0.00000000000E+00  0.20396114722E+04  0.20396114722E+04  0.50400001928E-02 0.  1.
       -1   -1    0    0    0  501  0.00000000000E+00  0.00000000000E+00 -0.12543357649E+04  0.12543357649E+04  0.50400001928E-02 0. -1.
    10030    2    1    2    0    0  0.00000000000E+00  0.00000000000E+00  0.78527570732E+03  0.32939472371E+04  0.31989733454E+04 0.  0.
        2    1    3    3  502    0 -0.90325593781E+02  0.99491436858E+03  0.16788607509E+04  0.19536086442E+04  0.25500000920E-02 0.  1.
       -2    1    3    3    0  502  0.90325593781E+02 -0.99491436858E+03 -0.89358504355E+03  0.13403385930E+04  0.25500000920E-02 0. -1.
</event>
<event>
 5   0  0.3427667E-08  0.3200886E+04  0.7818609E-02  0.8188583E-01
       -1   -1    0    0    0  501  0.00000000000E+00  0.00000000000E+00  0.22551854715E+04  0.22551854715E+04  0.50400001928E-02 0. -1.
        1   -1    0    0  501    0  0.00000000000E+00  0.00000000000E+00 -0.11357900466E+04  0.11357900466E+04  0.50400001928E-02 0.  1.
    10030    2    1    2    0    0  0.00000000000E+00  0.00000000000E+00  0.11193954249E+04  0.33909755181E+04  0.32008856348E+04 0.  0.
        2    1    3    3  502    0  0.12803294774E+04 -0.36155560626E+03  0.15021656047E+04  0.20066059730E+04  0.25500000920E-02 0.  1.
       -2    1    3    3    0  502 -0.12803294774E+04  0.36155560626E+03 -0.38277017976E+03  0.13843695451E+04  0.25500000920E-02 0. -1.
</event>
<event>
 5   0  0.9329929E-08  0.3196292E+04  0.7818609E-02  0.8189797E-01
       -2   -1    0    0    0  501  0.00000000000E+00  0.00000000000E+00  0.17146775344E+04  0.17146775344E+04  0.25500000920E-02 0.  1.
        2   -1    0    0  501    0  0.00000000000E+00  0.00000000000E+00 -0.14895339423E+04  0.14895339423E+04  0.25500000920E-02 0. -1.
    10030    2    1    2    0    0  0.00000000000E+00  0.00000000000E+00  0.22514359211E+03  0.32042114767E+04  0.31962918438E+04 0.  0.
        1    1    3    3  502    0 -0.73193482595E+03 -0.13688069379E+04  0.49392119286E+03  0.16289012148E+04  0.50400001928E-02 0.  1.
       -1    1    3    3    0  502  0.73193482595E+03  0.13688069379E+04 -0.26877760075E+03  0.15753102619E+04  0.50400001928E-02 0. -1.
</event>
<event>
 5   0  0.3270966E-08  0.3190670E+04  0.7818609E-02  0.8191286E-01
        1   -1    0    0  501    0  0.00000000000E+00  0.00000000000E+00  0.18815261104E+04  0.18815261104E+04  0.50400001928E-02 0.  1.
       -1   -1    0    0    0  501  0.00000000000E+00  0.00000000000E+00 -0.13526749042E+04  0.13526749043E+04  0.50400001928E-02 0. -1.
    10030    2    1    2    0    0  0.00000000000E+00  0.00000000000E+00  0.52885120618E+03  0.32342010147E+04  0.31906696170E+04 0.  0.
        3    1    3    3  502    0  0.21029926426E+03  0.34338123779E+03 -0.13003182222E+04  0.13612361824E+04  0.10100000352E+00 0. -1.
       -3    1    3    3    0  502 -0.21029926426E+03 -0.34338123779E+03  0.18291694284E+04  0.18729648323E+04  0.10100000352E+00 0.  1.
</event>
<event>
 5   0  0.9329929E-08  0.3203961E+04  0.7818609E-02  0.8187772E-01
       -2   -1    0    0    0  501  0.00000000000E+00  0.00000000000E+00  0.16929632141E+04  0.16929632141E+04  0.25500000920E-02 0.  1.
        2   -1    0    0  501    0  0.00000000000E+00  0.00000000000E+00 -0.15158877032E+04  0.15158877032E+04  0.25500000920E-02 0. -1.
    10030    2    1    2    0    0  0.00000000000E+00  0.00000000000E+00  0.17707551093E+03  0.32088509174E+04  0.32039613720E+04 0.  0.
        1    1    3    3  502    0 -0.21963967472E+03  0.21097207852E+03 -0.14866279307E+04  0.15175023588E+04  0.50400001928E-02 0. -1.
       -1    1    3    3    0  502  0.21963967472E+03 -0.21097207852E+03  0.16637034417E+04  0.16913485585E+04  0.50400001928E-02 0.  1.
</event>
<event>
 5   0  0.3427667E-08  0.3199930E+04  0.7818609E-02  0.8188836E-01
       -1   -1    0    0    0  501  0.00000000000E+00  0.00000000000E+00  0.21907239175E+04  0.21907239175E+04  0.50400001928E-02 0.  1.
        1   -1    0    0  501    0  0.00000000000E+00  0.00000000000E+00 -0.11685126529E+04  0.11685126529E+04  0.50400001928E-02 0. -1.
    10030    2    1    2    0    0  0.00000000000E+00  0.00000000000E+00  0.10222112646E+04  0.33592365704E+04  0.31999303847E+04 0.  0.
        2    1    3    3  502    0  0.11766206046E+04 -0.93718043042E+03 -0.61142748771E+02  0.15054838565E+04  0.25500000920E-02 0.  1.
       -2    1    3    3    0  502 -0.11766206046E+04  0.93718043042E+03  0.10833540133E+04  0.18537527140E+04  0.25500000920E-02 0. -1.
</event>
<event>
 5   0  0.3220147E-08  0.3221192E+04  0.7818609E-02  0.8183243E-01
        1   -1    0    0  501    0  0.00000000000E+00  0.00000000000E+00  0.14312017265E+04  0.14312017265E+04  0.50400001928E-02 0.  1.
       -1   -1    0    0    0  501  0.00000000000E+00  0.00000000000E+00 -0.18124762237E+04  0.18124762237E+04  0.50400001928E-02 0. -1.
    10030    2    1    2    0    0  0.00000000000E+00  0.00000000000E+00 -0.38127449721E+03  0.32436779502E+04  0.32211917674E+04 0.  0.
        4    1    3    3  502    0  0.98752131700E+03 -0.12399649634E+04  0.96495358670E+02  0.15880882939E+04  0.12699999809E+01 0. -1.
       -4    1    3    3    0  502 -0.98752131700E+03  0.12399649634E+04 -0.47776985588E+03  0.16555896563E+04  0.12699999809E+01 0.  1.
</event>
<event>
 5   0  0.9727083E-08  0.3199854E+04  0.7818609E-02  0.8188856E-01
       -2   -1    0    0    0  501  0.00000000000E+00  0.00000000000E+00  0.15592376662E+04  0.15592376662E+04  0.25500000920E-02 0.  1.
        2   -1    0    0  501    0  0.00000000000E+00  0.00000000000E+00 -0.16416778021E+04  0.16416778021E+04  0.25500000920E-02 0. -1.
    10030    2    1    2    0    0  0.00000000000E+00  0.00000000000E+00 -0.82440135861E+02  0.32009154683E+04  0.31998536622E+04 0.  0.
        4    1    3    3  502    0 -0.49342755533E+02 -0.15973694525E+04  0.34570346185E+02  0.15985057388E+04  0.12699999809E+01 0.  1.
       -4    1    3    3    0  502  0.49342755533E+02  0.15973694525E+04 -0.11701048205E+03  0.16024097295E+04  0.12699999809E+01 0. -1.
</event>
<event>
 5   0  0.9353994E-08  0.3198753E+04  0.7818609E-02  0.8189147E-01
       -2   -1    0    0    0  501  0.00000000000E+00  0.00000000000E+00  0.16864251947E+04  0.16864251947E+04  0.25500000920E-02 0.  1.
        2   -1    0    0  501    0  0.00000000000E+00  0.00000000000E+00 -0.15168209036E+04  0.15168209036E+04  0.25500000920E-02 0. -1.
    10030    2    1    2    0    0  0.00000000000E+00  0.00000000000E+00  0.16960429110E+03  0.32032460984E+04  0.31987528744E+04 0.  0.
        2    1    3    3  502    0 -0.15138195050E+04  0.20658704279E+03  0.55841181508E+03  0.16266995590E+04  0.25500000920E-02 0. -1.
       -2    1    3    3    0  502  0.15138195050E+04 -0.20658704279E+03 -0.38880752397E+03  0.15765465394E+04  0.25500000920E-02 0.  1.
</event>
<event>
 5   0  0.3283581E-08  0.3200865E+04  0.7818609E-02  0.8188589E-01
       -1   -1    0    0    0  501  0.00000000000E+00  0.00000000000E+00  0.14019656363E+04  0.14019656363E+04  0.50400001928E-02 0. -1.
        1   -1    0    0  501    0  0.00000000000E+00  0.00000000000E+00 -0.18269947697E+04  0.18269947697E+04  0.50400001928E-02 0.  1.
    10030    2    1    2    0    0  0.00000000000E+00  0.00000000000E+00 -0.42502913341E+03  0.32289604061E+04  0.32008648112E+04 0.  0.
        5    1    3    3  502    0 -0.65620882079E+03 -0.61108123403E+03  0.11247650808E+04  0.14384536378E+04  0.46999998093E+01 0. -1.
       -5    1    3    3    0  502  0.65620882079E+03  0.61108123403E+03 -0.15497942142E+04  0.17905067683E+04  0.46999998093E+01 0.  1.
</event>
<event>
 5   0  0.9157524E-08  0.3202038E+04  0.7818609E-02  0.8188279E-01
        2   -1    0    0  501    0  0.00000000000E+00  0.00000000000E+00  0.20291149319E+04  0.20291149319E+04  0.25500000920E-02 0. -1.
       -2   -1    0    0    0  501  0.00000000000E+00  0.00000000000E+00 -0.12632417144E+04  0.12632417144E+04  0.25500000920E-02 0.  1.
    10030    2    1    2    0    0  0.00000000000E+00  0.00000000000E+00  0.76587321752E+03  0.32923566464E+04  0.32020384916E+04 0.  0.
        5    1    3    3  502    0 -0.11620780887E+04  0.93814149760E+03 -0.21013941809E+03  0.15082160385E+04  0.46999998093E+01 0.  1.
       -5    1    3    3    0  502  0.11620780887E+04 -0.93814149760E+03  0.97601263560E+03  0.17841406079E+04  0.46999998093E+01 0. -1.
</event>
<event>
 5   0  0.9353994E-08  0.3199819E+04  0.7818609E-02  0.8188865E-01
       -2   -1    0    0    0  501  0.00000000000E+00  0.00000000000E+00  0.18804856047E+04  0.18804856047E+04  0.25500000920E-02 0. -1.
        2   -1    0    0  501    0  0.00000000000E+00  0.00000000000E+00 -0.13611966861E+04  0.13611966861E+04  0.25500000920E-02 0.  1.
    10030    2    1    2    0    0  0.00000000000E+00  0.00000000000E+00  0.51928891857E+03  0.32416822908E+04  0.31998192282E+04 0.  0.
        2    1    3    3  502    0 -0.97475842478E+03  0.11724924752E+04 -0.23127569895E+03  0.15422000649E+04  0.25500000920E-02 0.  1.
       -2    1    3    3    0  502  0.97475842478E+03 -0.11724924752E+04  0.75056461752E+03  0.16994822259E+04  0.25500000920E-02 0. -1.
</event>
<event>
 5   0  0.9157524E-08  0.3199765E+04  0.7818609E-02  0.8188879E-01
        2   -1    0    0  501    0  0.00000000000E+00  0.00000000000E+00  0.22432762422E+04  0.22432762422E+04  0.25500000920E-02 0. -1.
       -2   -1    0    0    0  501  0.00000000000E+00  0.00000000000E+00 -0.11410201104E+04  0.11410201104E+04  0.25500000920E-02 0.  1.
    10030    2    1    2    0    0  0.00000000000E+00  0.00000000000E+00  0.11022561318E+04  0.33842963526E+04  0.31997645573E+04 0.  0.
        5    1    3    3  502    0  0.17691476585E+03 -0.43199179689E+03  0.21696352922E+04  0.22192915847E+04  0.46999998093E+01 0. -1.
       -5    1    3    3    0  502 -0.17691476585E+03  0.43199179689E+03 -0.10673791604E+04  0.11650047678E+04  0.46999998093E+01 0.  1.
</event>
<event>
 5   0  0.3270966E-08  0.3202752E+04  0.7818609E-02  0.8188091E-01
       -1   -1    0    0    0  501  0.00000000000E+00  0.00000000000E+00  0.14402776690E+04  0.14402776690E+04  0.50400001928E-02 0. -1.
        1   -1    0    0  501    0  0.00000000000E+00  0.00000000000E+00 -0.17804935915E+04  0.17804935915E+04  0.50400001928E-02 0.  1.
    10030    2    1    2    0    0  0.00000000000E+00  0.00000000000E+00 -0.34021592254E+03  0.32207712605E+04  0.32027520414E+04 0.  0.
        3    1    3    3  502    0  0.10472382959E+04  0.78257519775E+03  0.75990497060E+03  0.15121466738E+04  0.10100000352E+00 0. -1.
       -3    1    3    3    0  502 -0.10472382959E+04 -0.78257519775E+03 -0.11001208931E+04  0.17086245867E+04  0.10100000352E+00 0.  1.
</event>
<event>
 5   0  0.9329929E-08  0.3196076E+04  0.7818609E-02  0.8189854E-01
       -2   -1    0    0    0  501  0.00000000000E+00  0.00000000000E+00  0.10006625498E+04  0.10006625498E+04  0.25500000920E-02 0. -1.
        2   -1    0    0  501    0  0.00000000000E+00  0.00000000000E+00 -0.25520344737E+04  0.25520344737E+04  0.25500000920E-02 0.  1.
    10030    2    1    2    0    0  0.00000000000E+00  0.00000000000E+00 -0.15513719239E+04  0.35526970235E+04  0.31960759213E+04 0.  0.
        1    1    3    3  502    0 -0.34319933185E+03  0.15539646103E+04 -0.61409125533E+03  0.17057842364E+04  0.50400001928E-02 0. -1.
       -1    1    3    3    0  502  0.34319933185E+03 -0.15539646103E+04 -0.93728066856E+03  0.18469127871E+04  0.50400001928E-02 0.  1.
</event>
<event>
 5   0  0.3270966E-08  0.3199198E+04  0.7818609E-02  0.8189029E-01
        1   -1    0    0  501    0  0.00000000000E+00  0.00000000000E+00  0.17190036677E+04  0.17190036677E+04  0.50400001928E-02 0.  1.
       -1   -1    0    0    0  501  0.00000000000E+00  0.00000000000E+00 -0.14884880724E+04  0.14884880724E+04  0.50400001928E-02 0. -1.
    10030    2    1    2    0    0  0.00000000000E+00  0.00000000000E+00  0.23051559523E+03  0.32074917401E+04  0.31991976843E+04 0.  0.
        3    1    3    3  502    0  0.10218499678E+04  0.76508835171E+03  0.10816961142E+04  0.16732017321E+04  0.10100000352E+00 0.  1.
       -3    1    3    3    0  502 -0.10218499678E+04 -0.76508835171E+03 -0.85118051900E+03  0.15342900080E+04  0.10100000352E+00 0. -1.
</event>
<event>
 5   0  0.9353994E-08  0.3199293E+04  0.7818609E-02  0.8189004E-01
        2   -1    0    0  501    0  0.00000000000E+00  0.00000000000E+00  0.17958800173E+04  0.17958800173E+04  0.25500000920E-02 0. -1.
       -2   -1    0    0    0  501  0.00000000000E+00  0.00000000000E+00 -0.14248550078E+04  0.14248550078E+04  0.25500000920E-02 0.  1.
    10030    2    1    2    0    0  0.00000000000E+00  0.00000000000E+00  0.37102500955E+03  0.32207350251E+04  0.31992928194E+04 0.  0.
        2    1    3    3  502    0 -0.10736395051E+04  0.11858132385E+04  0.18925392243E+03  0.16107985196E+04  0.25500000920E-02 0.  1.
       -2    1    3    3    0  502  0.10736395051E+04 -0.11858132385E+04  0.18177108712E+03  0.16099365055E+04  0.25500000920E-02 0. -1.
</event>
<event>
 5   0  0.9707721E-08  0.3199876E+04  0.7818609E-02  0.8188850E-01
       -2   -1    0    0    0  501  0.00000000000E+00  0.00000000000E+00  0.95377747322E+03  0.95377747322E+03  0.25500000920E-02 0. -1.
        2   -1    0    0  501    0  0.00000000000E+00  0.00000000000E+00 -0.26838561127E+04  0.26838561127E+04  0.25500000920E-02 0.  1.
    10030    2    1    2    0    0  0.00000000000E+00  0.00000000000E+00 -0.17300786395E+04  0.36376335859E+04  0.31998759361E+04 0.  0.
        3    1    3    3  502    0  0.13786052730E+04 -0.34679100229E+03 -0.16996311851E+04  0.22157532971E+04  0.10100000352E+00 0.  1.
       -3    1    3    3    0  502 -0.13786052730E+04  0.34679100229E+03 -0.30447454346E+02  0.14218802888E+04  0.10100000352E+00 0. -1.
</event>
<event>
 5   0  0.9329929E-08  0.3195137E+04  0.7818609E-02  0.8190103E-01
       -2   -1    0    0    0  501  0.00000000000E+00  0.00000000000E+00  0.13813918524E+04  0.13813918524E+04  0.25500000920E-02 0.  1.
        2   -1    0    0  501    0  0.00000000000E+00  0.00000000000E+00 -0.18475750611E+04  0.18475750611E+04  0.25500000920E-02 0. -1.
    10030    2    1    2    0    0  0.00000000000E+00  0.00000000000E+00 -0.46618320871E+03  0.32289669135E+04  0.31951370150E+04 0.  0.
        1    1    3    3  502    0 -0.12118632624E+04  0.10409630024E+04 -0.23605470320E+03  0.16149112552E+04  0.50400001928E-02 0.  1.
       -1    1    3    3    0  502  0.12118632624E+04 -0.10409630024E+04 -0.23012850551E+03  0.16140556583E+04  0.50400001928E-02 0. -1.
</event>
<event>
 5   0  0.9157524E-08  0.3199468E+04  0.7818609E-02  0.8188958E-01
        2   -1    0    0  501    0  0.00000000000E+00  0.00000000000E+00  0.26795215327E+04  0.26795215327E+04  0.25500000920E-02 0.  1.
       -2   -1    0    0    0  501  0.00000000000E+00  0.00000000000E+00 -0.95507679858E+03  0.95507679859E+03  0.25500000920E-02 0. -1.
    10030    2    1    2    0    0  0.00000000000E+00  0.00000000000E+00  0.17244447342E+04  0.36345983313E+04  0.31994679853E+04 0.  0.
        5    1    3    3  502    0  0.46132607264E+03 -0.73956888875E+03 -0.66160446930E+03  0.10943155168E+04  0.46999998093E+01 0. -1.
       -5    1    3    3    0  502 -0.46132607264E+03  0.73956888875E+03  0.23860492035E+04  0.25402828145E+04  0.46999998093E+01 0.  1.
</event>
<event>
 5   0  0.3220147E-08  0.3198739E+04  0.7818609E-02  0.8189150E-01
        1   -1    0    0  501    0  0.00000000000E+00  0.00000000000E+00  0.11008595371E+04  0.11008595371E+04  0.50400001928E-02 0.  1.
       -1   -1    0    0    0  501  0.00000000000E+00  0.00000000000E+00 -0.23236231827E+04  0.23236231827E+04  0.50400001928E-02 0. -1.
    10030    2    1    2    0    0  0.00000000000E+00  0.00000000000E+00 -0.12227636456E+04  0.34244827198E+04  0.31987389648E+04 0.  0.
        4    1    3    3  502    0 -0.42101819029E+03  0.56308755935E+03 -0.21493061199E+04  0.22613806238E+04  0.12699999809E+01 0. -1.
       -4    1    3    3    0  502  0.42101819029E+03 -0.56308755935E+03  0.92654247428E+03  0.11631020959E+04  0.12699999809E+01 0.  1.
</event>
<event>
 5   0  0.3283581E-08  0.3200056E+04  0.7818609E-02  0.8188802E-01
        1   -1    0    0  501    0  0.00000000000E+00  0.00000000000E+00  0.21982254343E+04  0.21982254343E+04  0.50400001928E-02 0. -1.
       -1   -1    0    0    0  501  0.00000000000E+00  0.00000000000E+00 -0.11646164087E+04  0.11646164087E+04  0.50400001928E-02 0.  1.
    10030    2    1    2    0    0  0.00000000000E+00  0.00000000000E+00  0.10336090256E+04  0.33628418431E+04  0.32000558813E+04 0.  0.
        5    1    3    3  502    0 -0.54657806119E+03  0.44664377273E+03 -0.99214674378E+03  0.12176269905E+04  0.46999998093E+01 0.  1.
       -5    1    3    3    0  502  0.54657806119E+03 -0.44664377273E+03  0.20257557694E+04  0.21452148526E+04  0.46999998093E+01 0. -1.
</event>
<event>
 5   0  0.9727083E-08  0.3200525E+04  0.7818609E-02  0.8188678E-01
        2   -1    0    0  501    0  0.00000000000E+00  0.00000000000E+00  0.21881318412E+04  0.21881318412E+04  0.25500000920E-02 0. -1.
       -2   -1    0    0    0  501  0.00000000000E+00  0.00000000000E+00 -0.11703320357E+04  0.11703320357E+04  0.25500000920E-02 0.  1.
    10030    2    1    2    0    0  0.00000000000E+00  0.00000000000E+00  0.10177998055E+04  0.33584638769E+04  0.32005254519E+04 0.  0.
        4    1    3    3  502    0 -0.10489674728E+04  0.42808348604E+03 -0.67702588623E+03  0.13198310094E+04  0.12699999809E+01 0.  1.
       -4    1    3    3    0  502  0.10489674728E+04 -0.42808348604E+03  0.16948256918E+04  0.20386328675E+04  0.12699999809E+01 0. -1.
</event>
<event>
 5   0  0.3220147E-08  0.3201481E+04  0.7818609E-02  0.8188426E-01
       -1   -1    0    0    0  501  0.00000000000E+00  0.00000000000E+00  0.11903146824E+04  0.11903146824E+04  0.50400001928E-02 0.  1.
        1   -1    0    0  501    0  0.00000000000E+00  0.00000000000E+00 -0.21526836153E+04  0.21526836153E+04  0.50400001928E-02 0. -1.
    10030    2    1    2    0    0  0.00000000000E+00  0.00000000000E+00 -0.96236893291E+03  0.33429982977E+04  0.32014814782E+04 0.  0.
        4    1    3    3  502    0 -0.79783334844E+03  0.63215572035E+03  0.80882341993E+03  0.13001368559E+04  0.12699999809E+01 0.  1.
       -4    1    3    3    0  502  0.79783334844E+03 -0.63215572035E+03 -0.17711923528E+04  0.20428614418E+04  0.12699999809E+01 0. -1.
</event>
<event>
 5   0  0.3343140E-08  0.3198946E+04  0.7818609E-02  0.8189096E-01
       -1   -1    0    0    0  501  0.00000000000E+00  0.00000000000E+00  0.13866381857E+04  0.13866381857E+04  0.50400001928E-02 0.  1.
        1   -1    0    0  501    0  0.00000000000E+00  0.00000000000E+00 -0.18449754729E+04  0.18449754729E+04  0.50400001928E-02 0. -1.
    10030    2    1    2    0    0  0.00000000000E+00  0.00000000000E+00 -0.45833728717E+03  0.32316136585E+04  0.31989457278E+04 0.  0.
        1    1    3    3  502    0 -0.10212243354E+04 -0.11262417561E+04 -0.73122861161E+03  0.16870136096E+04  0.50400001928E-02 0. -1.
       -1    1    3    3    0  502  0.10212243354E+04  0.11262417561E+04  0.27289132444E+03  0.15446000490E+04  0.50400001928E-02 0.  1.
</event>
<event>
 5   0  0.9329929E-08  0.3201397E+04  0.7818609E-02  0.8188448E-01
        2   -1    0    0  501    0  0.00000000000E+00  0.00000000000E+00  0.14328575728E+04  0.14328575728E+04  0.25500000920E-02 0. -1.
       -2   -1    0    0    0  501  0.00000000000E+00  0.00000000000E+00 -0.17882003065E+04  0.17882003065E+04  0.25500000920E-02 0.  1.
    10030    2    1    2    0    0  0.00000000000E+00  0.00000000000E+00 -0.35534273362E+03  0.32210578793E+04  0.32013974142E+04 0.  0.
        1    1    3    3  502    0  0.14756324941E+04 -0.58716974349E+03  0.23498474989E+02  0.15883361557E+04  0.50400001928E-02 0. -1.
       -1    1    3    3    0  502 -0.14756324941E+04  0.58716974349E+03 -0.37884120861E+03  0.16327217236E+04  0.50400001928E-02 0.  1.
</event>
<event>
 5   0  0.3283581E-08  0.3195001E+04  0.7818609E-02  0.8190139E-01
       -1   -1    0    0    0  501  0.00000000000E+00  0.00000000000E+00  0.24577419983E+04  0.24577419983E+04  0.50400001928E-02 0. -1.
        1   -1    0    0  501    0  0.00000000000E+00  0.00000000000E+00 -0.10383544350E+04  0.10383544350E+04  0.50400001928E-02 0.  1.
    10030    2    1    2    0    0  0.00000000000E+00  0.00000000000E+00  0.14193875634E+04  0.34960964333E+04  0.31950006598E+04 0.  0.
        5    1    3    3  502    0  0.96149806900E+03 -0.70027040840E+02 -0.68416435251E+03  0.11821528135E+04  0.46999998093E+01 0.  1.
       -5    1    3    3    0  502 -0.96149806900E+03  0.70027040840E+02  0.21035519159E+04  0.23139436199E+04  0.46999998093E+01 0. -1.
</event>
<event>
 5   0  0.9727083E-08  0.3199893E+04  0.7818609E-02  0.8188845E-01
        2   -1    0    0  501    0  0.00000000000E+00  0.00000000000E+00  0.23988026625E+04  0.23988026625E+04  0.25500000920E-02 0. -1.
       -2   -1    0    0    0  501  0.00000000000E+00  0.00000000000E+00 -0.10671276564E+04  0.10671276564E+04  0.25500000920E-02 0.  1.
    10030    2    1    2    0    0  0.00000000000E+00  0.00000000000E+00  0.13316750061E+04  0.34659303189E+04  0.31998929129E+04 0.  0.
        4    1    3    3  502    0  0.24639378824E+03 -0.83144619207E+03  0.21221725503E+04  0.22925162192E+04  0.12699999809E+01 0. -1.
       -4    1    3    3    0  502 -0.24639378824E+03  0.83144619207E+03 -0.79049754420E+03  0.11734140997E+04  0.12699999809E+01 0.  1.
</event>
<event>
 5   0  0.9329929E-08  0.3201680E+04  0.7818609E-02  0.8188374E-01
       -2   -1    0    0    0  501  0.00000000000E+00  0.00000000000E+00  0.12546449783E+04  0.12546449783E+04  0.25500000920E-02 0. -1.
        2   -1    0    0  501    0  0.00000000000E+00  0.00000000000E+00 -0.20425608080E+04  0.20425608080E+04  0.25500000920E-02 0.  1.
    10030    2    1    2    0    0  0.00000000000E+00  0.00000000000E+00 -0.78791582976E+03  0.32972057863E+04  0.32016799719E+04 0.  0.
        1    1    3    3  502    0 -0.67979903935E+03  0.12694309497E+04 -0.11141860274E+04  0.18207119963E+04  0.50400001928E-02 0.  1.
       -1    1    3    3    0  502  0.67979903935E+03 -0.12694309497E+04  0.32627019762E+03  0.14764937900E+04  0.50400001928E-02 0. -1.
</event>
<event>
 5   0  0.9707721E-08  0.3199396E+04  0.7818609E-02  0.8188977E-01
       -2   -1    0    0    0  501  0.00000000000E+00  0.00000000000E+00  0.17273595281E+04  0.17273595282E+04  0.25500000920E-02 0. -1.
        2   -1    0    0  501    0  0.00000000000E+00  0.00000000000E+00 -0.14814715778E+04  0.14814715778E+04  0.25500000920E-02 0.  1.
    10030    2    1    2    0    0  0.00000000000E+00  0.00000000000E+00  0.24588795032E+03  0.32088311060E+04  0.31993962216E+04 0.  0.
        3    1    3    3  502    0  0.16978283598E+03 -0.15896110224E+04  0.18094722524E+03  0.16088602557E+04  0.10100000352E+00 0. -1.
       -3    1    3    3    0  502 -0.16978283598E+03  0.15896110224E+04  0.64940725079E+02  0.15999708503E+04  0.10100000352E+00 0.  1.
</event>
<event>
 5   0  0.9353994E-08  0.3199501E+04  0.7818609E-02  0.8188949E-01
       -2   -1    0    0    0  501  0.00000000000E+00  0.00000000000E+00  0.16985624934E+04  0.16985624934E+04  0.25500000920E-02 0.  1.
        2   -1    0    0  501    0  0.00000000000E+00  0.00000000000E+00 -0.15066870618E+04  0.15066870618E+04  0.25500000920E-02 0. -1.
    10030    2    1    2    0    0  0.00000000000E+00  0.00000000000E+00  0.19187543163E+03  0.32052495552E+04  0.31995012939E+04 0.  0.
        2    1    3    3  502    0  0.14892228906E+04  0.33975014829E+03 -0.38029741828E+03  0.15741159765E+04  0.25500000920E-02 0.  1.
       -2    1    3    3    0  502 -0.14892228906E+04 -0.33975014829E+03  0.57217284991E+03  0.16311335786E+04  0.25500000920E-02 0. -1.
</event>
<event>
 5   0  0.9329929E-08  0.3199896E+04  0.7818609E-02  0.8188845E-01
        2   -1    0    0  501    0  0.00000000000E+00  0.00000000000E+00  0.11142043719E+04  0.11142043719E+04  0.25500000920E-02 0. -1.
       -2   -1    0    0    0  501  0.00000000000E+00  0.00000000000E+00 -0.22974543027E+04  0.22974543027E+04  0.25500000920E-02 0.  1.
    10030    2    1    2    0    0  0.00000000000E+00  0.00000000000E+00 -0.11832499307E+04  0.34116586746E+04  0.31998960161E+04 0.  0.
        1    1    3    3  502    0  0.95227476684E+03 -0.56526601834E+02 -0.19610769985E+04  0.21807901050E+04  0.50400001928E-02 0.  1.
       -1    1    3    3    0  502 -0.95227476684E+03  0.56526601834E+02  0.77782706774E+03  0.12308685696E+04  0.50400001928E-02 0. -1.
</event>
<event>
 5   0  0.9157524E-08  0.3198976E+04  0.7818609E-02  0.8189088E-01
        2   -1    0    0  501    0  0.00000000000E+00  0.00000000000E+00  0.15914712260E+04  0.15914712260E+04  0.25500000920E-02 0. -1.
       -2   -1    0    0    0  501  0.00000000000E+00  0.00000000000E+00 -0.16075448087E+04  0.16075448087E+04  0.25500000920E-02 0.  1.
    10030    2    1    2    0    0  0.00000000000E+00  0.00000000000E+00 -0.16073582704E+02  0.31990160346E+04  0.31989756532E+04 0.  0.
        5    1    3    3  502    0  0.17799191315E+03  0.55579770509E+03 -0.14972657858E+04  0.16069907074E+04  0.46999998093E+01 0.  1.
       -5    1    3    3    0  502 -0.17799191315E+03 -0.55579770509E+03  0.14811922031E+04  0.15920253273E+04  0.46999998093E+01 0. -1.
</event>
<event>
 5   0  0.9353994E-08  0.3188151E+04  0.7818609E-02  0.8191953E-01
       -2   -1    0    0    0  501  0.00000000000E+00  0.00000000000E+00  0.12925036567E+04  0.12925036567E+04  0.25500000920E-02 0.  1.
        2   -1    0    0  501    0  0.00000000000E+00  0.00000000000E+00 -0.19660117412E+04  0.19660117412E+04  0.25500000920E-02 0. -1.
    10030    2    1    2    0    0  0.00000000000E+00  0.00000000000E+00 -0.67350808451E+03  0.32585153980E+04  0.31881514172E+04 0.  0.
        2    1    3    3  502    0  0.20541054119E+03  0.60012320850E+03 -0.18314726079E+04  0.19382036192E+04  0.25500000920E-02 0. -1.
       -2    1    3    3    0  502 -0.20541054119E+03 -0.60012320850E+03  0.11579645234E+04  0.13203117788E+04  0.25500000920E-02 0.  1.
</event>
<event>
 5   0  0.3270966E-08  0.3200948E+04  0.7818609E-02  0.8188567E-01
       -1   -1    0    0    0  501  0.00000000000E+00  0.00000000000E+00  0.16005100331E+04  0.16005100331E+04  0.50400001928E-02 0. -1.
        1   -1    0    0  501    0  0.00000000000E+00  0.00000000000E+00 -0.16004379945E+04  0.16004379945E+04  0.50400001928E-02 0.  1.
    10030    2    1    2    0    0  0.00000000000E+00  0.00000000000E+00  0.72038548491E-01  0.32009480276E+04  0.32009480268E+04 0.  0.
        3    1    3    3  502    0  0.72226465335E+03  0.62442089648E+03  0.12845395704E+04  0.16005029220E+04  0.10100000352E+00 0. -1.
       -3    1    3    3    0  502 -0.72226465335E+03 -0.62442089648E+03 -0.12844675318E+04  0.16004451056E+04  0.10100000352E+00 0.  1.
</event>
<event>
 5   0  0.3343140E-08  0.3199980E+04  0.7818609E-02  0.8188823E-01
       -1   -1    0    0    0  501  0.00000000000E+00  0.00000000000E+00  0.12450501438E+04  0.12450501438E+04  0.50400001928E-02 0.  1.
        1   -1    0    0  501    0  0.00000000000E+00  0.00000000000E+00 -0.20561159240E+04  0.20561159240E+04  0.50400001928E-02 0. -1.
    10030    2    1    2    0    0  0.00000000000E+00  0.00000000000E+00 -0.81106578020E+03  0.33011660678E+04  0.31999796417E+04 0.  0.
        1    1    3    3  502    0 -0.57588746706E+03  0.10938033629E+04  0.64242099846E+03  0.13931105164E+04  0.50400001928E-02 0.  1.
       -1    1    3    3    0  502  0.57588746706E+03 -0.10938033629E+04 -0.14534867787E+04  0.19080555514E+04  0.50400001928E-02 0. -1.
</event>
<event>
 5   0  0.9353994E-08  0.3199345E+04  0.7818609E-02  0.8188990E-01
        2   -1    0    0  501    0  0.00000000000E+00  0.00000000000E+00  0.17363654437E+04  0.17363654437E+04  0.25500000920E-02 0. -1.
       -2   -1    0    0    0  501  0.00000000000E+00  0.00000000000E+00 -0.14737401050E+04  0.14737401050E+04  0.25500000920E-02 0.  1.
    10030    2    1    2    0    0  0.00000000000E+00  0.00000000000E+00  0.26262533874E+03  0.32101055487E+04  0.31993445524E+04 0.  0.
        2    1    3    3  502    0  0.88475054308E+03 -0.11386455528E+04  0.82621282987E+03  0.16619039860E+04  0.25500000920E-02 0. -1.
       -2    1    3    3    0  502 -0.88475054308E+03  0.11386455528E+04 -0.56358749113E+03  0.15482015627E+04  0.25500000920E-02 0.  1.
</event>
<event>
 5   0  0.9157524E-08  0.3200505E+04  0.7818609E-02  0.8188684E-01
        2   -1    0    0  501    0  0.00000000000E+00  0.00000000000E+00  0.18101305599E+04  0.18101305599E+04  0.25500000920E-02 0.  1.
       -2   -1    0    0    0  501  0.00000000000E+00  0.00000000000E+00 -0.14147090493E+04  0.14147090493E+04  0.25500000920E-02 0. -1.
    10030    2    1    2    0    0  0.00000000000E+00  0.00000000000E+00  0.39542151066E+03  0.32248396092E+04  0.32005050124E+04 0.  0.
        5    1    3    3  502    0  0.47626397993E+03 -0.64373415294E+03 -0.11983072318E+04  0.14412436817E+04  0.46999998093E+01 0. -1.
       -5    1    3    3    0  502 -0.47626397993E+03  0.64373415294E+03  0.15937287425E+04  0.17835959275E+04  0.46999998093E+01 0.  1.
</event>
<event>
 5   0  0.9157524E-08  0.3202330E+04  0.7818609E-02  0.8188202E-01
        2   -1    0    0  501    0  0.00000000000E+00  0.00000000000E+00  0.28964313764E+04  0.28964313764E+04  0.25500000920E-02 0. -1.
       -2   -1    0    0    0  501  0.00000000000E+00  0.00000000000E+00 -0.88513369167E+03  0.88513369168E+03  0.25500000920E-02 0.  1.
    10030    2    1    2    0    0  0.00000000000E+00  0.00000000000E+00  0.20112976847E+04  0.37815650681E+04  0.32023297750E+04 0.  0.
        5    1    3    3  502    0  0.12896096806E+04  0.93431460829E+03  0.80921783893E+03  0.17863069491E+04  0.46999998093E+01 0.  1.
       -5    1    3    3    0  502 -0.12896096806E+04 -0.93431460829E+03  0.12020798458E+04  0.19952581190E+04  0.46999998093E+01 0. -1.
</event>
<event>
 5   0  0.3220147E-08  0.3200286E+04  0.7818609E-02  0.8188742E-01
        1   -1    0    0  501    0  0.00000000000E+00  0.00000000000E+00  0.14781157342E+04  0.14781157342E+04  0.50400001928E-02 0. -1.
       -1   -1    0    0    0  501  0.00000000000E+00  0.00000000000E+00 -0.17322440470E+04  0.17322440470E+04  0.50400001928E-02 0.  1.
    10030    2    1    2    0    0  0.00000000000E+00  0.00000000000E+00 -0.25412831287E+03  0.32103597812E+04  0.32002857256E+04 0.  0.
        4    1    3    3  502    0  0.71966144262E+03  0.22813655605E+03 -0.15423549489E+04  0.17172126489E+04  0.12699999809E+01 0.  1.
       -4    1    3    3    0  502 -0.71966144262E+03 -0.22813655605E+03  0.12882266360E+04  0.14931471323E+04  0.12699999809E+01 0. -1.
</event>
<event>
 5   0  0.3283581E-08  0.3203586E+04  0.7818609E-02  0.8187871E-01
        1   -1    0    0  501    0  0.00000000000E+00  0.00000000000E+00  0.20528540221E+04  0.20528540221E+04  0.50400001928E-02 0. -1.
       -1   -1    0    0    0  501  0.00000000000E+00  0.00000000000E+00 -0.12498406070E+04  0.12498406070E+04  0.50400001928E-02 0.  1.
    10030    2    1    2    0    0  0.00000000000E+00  0.00000000000E+00  0.80301341513E+03  0.33026946291E+04  0.32035856892E+04 0.  0.
        5    1    3    3  502    0 -0.46900952470E+03  0.39362487469E+03  0.19274352958E+04  0.20223598557E+04  0.46999998093E+01 0. -1.
       -5    1    3    3    0  502  0.46900952470E+03 -0.39362487469E+03 -0.11244218807E+04  0.12803347734E+04  0.46999998093E+01 0.  1.
</event>
<event>
 5   0  0.9329929E-08  0.3200805E+04  0.7818609E-02  0.8188605E-01
       -2   -1    0    0    0  501  0.00000000000E+00  0.00000000000E+00  0.13796540277E+04  0.13796540278E+04  0.25500000920E-02 0. -1.
        2   -1    0    0  501    0  0.00000000000E+00  0.00000000000E+00 -0.18564707879E+04  0.18564707879E+04  0.25500000920E-02 0.  1.
    10030    2    1    2    0    0  0.00000000000E+00  0.00000000000E+00 -0.47681676013E+03  0.32361248156E+04  0.32008045238E+04 0.  0.
        1    1    3    3  502    0  0.15496716651E+04  0.13458999111E+03  0.14216353031E+03  0.15619882217E+04  0.50400001928E-02 0.  1.
       -1    1    3    3    0  502 -0.15496716651E+04 -0.13458999111E+03 -0.61898029044E+03  0.16741365940E+04  0.50400001928E-02 0. -1.
</event>
<event>
 5   0  0.9727083E-08  0.3199969E+04  0.7818609E-02  0.8188825E-01
        2   -1    0    0  501    0  0.00000000000E+00  0.00000000000E+00  0.19468718553E+04  0.19468718553E+04  0.25500000920E-02 0. -1.
       -2   -1    0    0    0  501  0.00000000000E+00  0.00000000000E+00 -0.13149042538E+04  0.13149042538E+04  0.25500000920E-02 0.  1.
    10030    2    1    2    0    0  0.00000000000E+00  0.00000000000E+00  0.63196760153E+03  0.32617761091E+04  0.31999688024E+04 0.  0.
        4    1    3    3  502    0 -0.15895168707E+03 -0.89952120988E+03 -0.10229881385E+04  0.13714628651E+04  0.12699999809E+01 0.  1.
       -4    1    3    3    0  502  0.15895168707E+03  0.89952120988E+03  0.16549557401E+04  0.18903132440E+04  0.12699999809E+01 0. -1.
</event>
<event>
 5   0  0.9353994E-08  0.3201200E+04  0.7818609E-02  0.8188500E-01
       -2   -1    0    0    0  501  0.00000000000E+00  0.00000000000E+00  0.15393112570E+04  0.15393112570E+04  0.25500000920E-02 0. -1.
        2   -1    0    0  501    0  0.00000000000E+00  0.00000000000E+00 -0.16643293083E+04  0.16643293083E+04  0.25500000920E-02 0.  1.
    10030    2    1    2    0    0  0.00000000000E+00  0.00000000000E+00 -0.12501805132E+03  0.32036405653E+04  0.32012002996E+04 0.  0.
        2    1    3    3  502    0  0.69552654668E+03 -0.10285697598E+04 -0.10733324067E+04  0.16412663961E+04  0.25500000920E-02 0.  1.
       -2    1    3    3    0  502 -0.69552654668E+03  0.10285697598E+04  0.94831435535E+03  0.15623741692E+04  0.25500000920E-02 0. -1.
</event>
<event>
 5   0  0.9353994E-08  0.3200317E+04  0.7818609E-02  0.8188733E-01
        2   -1    0    0  501    0  0.00000000000E+00  0.00000000000E+00  0.18559669445E+04  0.18559669445E+04  0.25500000920E-02 0.  1.
       -2   -1    0    0    0  501  0.00000000000E+00  0.00000000000E+00 -0.13796083606E+04  0.13796083606E+04  0.25500000920E-02 0. -1.
    10030    2    1    2    0    0  0.00000000000E+00  0.00000000000E+00  0.47635858399E+03  0.32355753051E+04  0.32003171803E+04 0.  0.
        2    1    3    3  502    0  0.79608553834E+03 -0.35333022834E+03 -0.11189630734E+04  0.14179819443E+04  0.25500000920E-02 0. -1.
       -2    1    3    3    0  502 -0.79608553834E+03  0.35333022834E+03  0.15953216574E+04  0.18175933608E+04  0.25500000920E-02 0.  1.
</event>
<event>
 5   0  0.3427667E-08  0.3199668E+04  0.7818609E-02  0.8188905E-01
        1   -1    0    0  501    0  0.00000000000E+00  0.00000000000E+00  0.26060502415E+04  0.26060502415E+04  0.50400001928E-02 0.  1.
       -1   -1    0    0    0  501  0.00000000000E+00  0.00000000000E+00 -0.98212538648E+03  0.98212538649E+03  0.50400001928E-02 0. -1.
    10030    2    1    2    0    0  0.00000000000E+00  0.00000000000E+00  0.16239248551E+04  0.35881756280E+04  0.31996675457E+04 0.  0.
        2    1    3    3  502    0 -0.30855450388E+02 -0.13942705307E+04 -0.67138768892E+02  0.13962270539E+04  0.25500000920E-02 0. -1.
       -2    1    3    3    0  502  0.30855450388E+02  0.13942705307E+04  0.16910636239E+04  0.21919485742E+04  0.25500000920E-02 0.  1.
</event>
<event>
 5   0  0.3270966E-08  0.3206356E+04  0.7818609E-02  0.8187140E-01
        1   -1    0    0  501    0  0.00000000000E+00  0.00000000000E+00  0.14411258052E+04  0.14411258052E+04  0.50400001928E-02 0. -1.
       -1   -1    0    0    0  501  0.00000000000E+00  0.00000000000E+00 -0.17834531908E+04  0.17834531909E+04  0.50400001928E-02 0.  1.
    10030    2    1    2    0    0  0.00000000000E+00  0.00000000000E+00 -0.34232738566E+03  0.32245789961E+04  0.32063564466E+04 0.  0.
        3    1    3    3  502    0 -0.15178110144E+03 -0.47741013335E+02  0.14331654902E+04  0.14419708872E+04  0.10100000352E+00 0. -1.
       -3    1    3    3    0  502  0.15178110144E+03  0.47741013335E+02 -0.17754928759E+04  0.17826081088E+04  0.10100000352E+00 0.  1.
</event>
<event>
 5   0  0.9157524E-08  0.3200585E+04  0.7818609E-02  0.8188663E-01
        2   -1    0    0  501    0  0.00000000000E+00  0.00000000000E+00  0.28127114967E+04  0.28127114967E+04  0.25500000920E-02 0. -1.
       -2   -1    0    0    0  501  0.00000000000E+00  0.00000000000E+00 -0.91048666733E+03  0.91048666733E+03  0.25500000920E-02 0.  1.
    10030    2    1    2    0    0  0.00000000000E+00  0.00000000000E+00  0.19022248293E+04  0.37231981640E+04  0.32005851445E+04 0.  0.
        5    1    3    3  502    0 -0.85678433431E+03 -0.99419527272E+03 -0.11404831018E+03  0.13173961981E+04  0.46999998093E+01 0.  1.
       -5    1    3    3    0  502  0.85678433431E+03  0.99419527272E+03  0.20162731395E+04  0.24058019659E+04  0.46999998093E+01 0. -1.
</event>
<event>
 5   0  0.9329929E-08  0.3200341E+04  0.7818609E-02  0.8188727E-01
       -2   -1    0    0    0  501  0.00000000000E+00  0.00000000000E+00  0.10690333367E+04  0.10690333367E+04  0.25500000920E-02 0. -1.
        2   -1    0    0  501    0  0.00000000000E+00  0.00000000000E+00 -0.23951975312E+04  0.23951975312E+04  0.25500000920E-02 0.  1.
    10030    2    1    2    0    0  0.00000000000E+00  0.00000000000E+00 -0.13261641945E+04  0.34642308679E+04  0.32003412373E+04 0.  0.
        1    1    3    3  502    0 -0.11968673240E+04 -0.38616816491E+03  0.40790955267E+03  0.13221223264E+04  0.50400001928E-02 0. -1.
       -1    1    3    3    0  502  0.11968673240E+04  0.38616816491E+03 -0.17340737471E+04  0.21421085415E+04  0.50400001928E-02 0.  1.
</event>
<event>
 5   0  0.3220147E-08  0.3200054E+04  0.7818609E-02  0.8188803E-01
       -1   -1    0    0    0  501  0.00000000000E+00  0.00000000000E+00  0.13984585380E+04  0.13984585380E+04  0.50400001928E-02 0.  1.
        1   -1    0    0  501    0  0.00000000000E+00  0.00000000000E+00 -0.18306483444E+04  0.18306483444E+04  0.50400001928E-02 0. -1.
    10030    2    1    2    0    0  0.00000000000E+00  0.00000000000E+00 -0.43218980638E+03  0.32291068825E+04  0.32000536292E+04 0.  0.
        4    1    3    3  502    0 -0.21671079254E+03 -0.92987209900E+02  0.13808260814E+04  0.14008184996E+04  0.12699999809E+01 0.  1.
       -4    1    3    3    0  502  0.21671079254E+03  0.92987209900E+02 -0.18130158878E+04  0.18282883829E+04  0.12699999809E+01 0. -1.
</event>
<event>
 5   0  0.3270966E-08  0.3200432E+04  0.7818609E-02  0.8188703E-01
        1   -1    0    0  501    0  0.00000000000E+00  0.00000000000E+00  0.22771850524E+04  0.22771850524E+04  0.50400001928E-02 0.  1.
       -1   -1    0    0    0  501  0.00000000000E+00  0.00000000000E+00 -0.11244982782E+04  0.11244982783E+04  0.50400001928E-02 0. -1.
    10030    2    1    2    0    0  0.00000000000E+00  0.00000000000E+00  0.11526867742E+04  0.34016833307E+04  0.32004316401E+04 0.  0.
        3    1    3    3  502    0  0.14486887591E+04 -0.39523539353E+03 -0.11403363189E+02  0.15016791215E+04  0.10100000352E+00 0. -1.
       -3    1    3    3    0  502 -0.14486887591E+04  0.39523539353E+03  0.11640901374E+04  0.19000042092E+04  0.10100000352E+00 0.  1.
</event>
<event>
 5   0  0.9157524E-08  0.3203731E+04  0.7818609E-02  0.8187832E-01
       -2   -1    0    0    0  501  0.00000000000E+00  0.00000000000E+00  0.10970160910E+04  0.10970160910E+04  0.25500000920E-02 0.  1.
        2   -1    0    0  501    0  0.00000000000E+00  0.00000000000E+00 -0.23390484539E+04  0.23390484539E+04  0.25500000920E-02 0. -1.
    10030    2    1    2    0    0  0.00000000000E+00  0.00000000000E+00 -0.12420323628E+04  0.34360645449E+04  0.32037314442E+04 0.  0.
        5    1    3    3  502    0  0.23451193697E+02 -0.10820415125E+04  0.64555078568E+03  0.12602070069E+04  0.46999998093E+01 0.  1.
       -5    1    3    3    0  502 -0.23451193697E+02  0.10820415125E+04 -0.18875831485E+04  0.21758575380E+04  0.46999998093E+01 0. -1.
</event>
<event>
 5   0  0.9157524E-08  0.3199732E+04  0.7818609E-02  0.8188888E-01
        2   -1    0    0  501    0  0.00000000000E+00  0.00000000000E+00  0.25035954510E+04  0.25035954510E+04  0.25500000920E-02 0.  1.
       -2   -1    0    0    0  501  0.00000000000E+00  0.00000000000E+00 -0.10223580903E+04  0.10223580903E+04  0.25500000920E-02 0. -1.
    10030    2    1    2    0    0  0.00000000000E+00  0.00000000000E+00  0.14812373607E+04  0.35259535413E+04  0.31997319039E+04 0.  0.
        5    1    3    3  502    0  0.45544665824E+03  0.23989727637E+02 -0.94919704124E+03  0.10530927208E+04  0.46999998093E+01 0. -1.
       -5    1    3    3    0  502 -0.45544665824E+03 -0.23989727637E+02  0.24304344019E+04  0.24728608205E+04  0.46999998093E+01 0.  1.
</event>
<event>
 5   0  0.9353994E-08  0.3199517E+04  0.7818609E-02  0.8188945E-01
        2   -1    0    0  501    0  0.00000000000E+00  0.00000000000E+00  0.20561483367E+04  0.20561483367E+04  0.25500000920E-02 0.  1.
       -2   -1    0    0    0  501  0.00000000000E+00  0.00000000000E+00 -0.12446706075E+04  0.12446706075E+04  0.25500000920E-02 0. -1.
    10030    2    1    2    0    0  0.00000000000E+00  0.00000000000E+00  0.81147772919E+03  0.33008189442E+04  0.31995170882E+04 0.  0.
        2    1    3    3  502    0  0.50574770085E+03  0.13299439941E+04 -0.34864186949E+03  0.14649515069E+04  0.25500000920E-02 0. -1.
       -2    1    3    3    0  502 -0.50574770085E+03 -0.13299439941E+04  0.11601195987E+04  0.18358674373E+04  0.25500000920E-02 0.  1.
</event>
<event>
 5   0  0.9727083E-08  0.3200243E+04  0.7818609E-02  0.8188753E-01
       -2   -1    0    0    0  501  0.00000000000E+00  0.00000000000E+00  0.14650871638E+04  0.14650871638E+04  0.25500000920E-02 0.  1.
        2   -1    0    0  501    0  0.00000000000E+00  0.00000000000E+00 -0.17476013957E+04  0.17476013957E+04  0.25500000920E-02 0. -1.
    10030    2    1    2    0    0  0.00000000000E+00  0.00000000000E+00 -0.28251423193E+03  0.32126885595E+04  0.32002427235E+04 0.  0.
        4    1    3    3  502    0 -0.10467130807E+04  0.54933544755E+03 -0.12238801314E+04  0.17015469127E+04  0.12699999809E+01 0. -1.
       -4    1    3    3    0  502  0.10467130807E+04 -0.54933544755E+03  0.94136589944E+03  0.15111416468E+04  0.12699999809E+01 0.  1.
</event>
<event>
 5   0  0.3343140E-08  0.3199783E+04  0.7818609E-02  0.8188875E-01
        1   -1    0    0  501    0  0.00000000000E+00  0.00000000000E+00  0.13948232491E+04  0.13948232491E+04  0.50400001928E-02 0. -1.
       -1   -1    0    0    0  501  0.00000000000E+00  0.00000000000E+00 -0.18351086936E+04  0.18351086936E+04  0.50400001928E-02 0.  1.
    10030    2    1    2    0    0  0.00000000000E+00  0.00000000000E+00 -0.44028544453E+03  0.32299319426E+04  0.31997826616E+04 0.  0.
        1    1    3    3  502    0 -0.12877575449E+04 -0.70301749596E+03 -0.86419779092E+03  0.17027597940E+04  0.50400001928E-02 0.  1.
       -1    1    3    3    0  502  0.12877575449E+04  0.70301749596E+03  0.42391234639E+03  0.15271721487E+04  0.50400001928E-02 0. -1.
</event>
<event>
 5   0  0.3343140E-08  0.3181086E+04  0.7818609E-02  0.8193830E-01
       -1   -1    0    0    0  501  0.00000000000E+00  0.00000000000E+00  0.10588125425E+04  0.10588125425E+04  0.50400001928E-02 0.  1.
        1   -1    0    0  501    0  0.00000000000E+00  0.00000000000E+00 -0.23893061112E+04  0.23893061112E+04  0.50400001928E-02 0. -1.
    10030    2    1    2    0    0  0.00000000000E+00  0.00000000000E+00 -0.13304935687E+04  0.34481186537E+04  0.31810861531E+04 0.  0.
        1    1    3    3  502    0  0.91837464877E+03 -0.66010850697E+03  0.54696497174E+03  0.12563144180E+04  0.50400001928E-02 0. -1.
       -1    1    3    3    0  502 -0.91837464877E+03  0.66010850697E+03 -0.18774585404E+04  0.21918042357E+04  0.50400001928E-02 0.  1.
</event>
<event>
 5   0  0.3283581E-08  0.3198310E+04  0.7818609E-02  0.8189264E-01
        1   -1    0    0  501    0  0.00000000000E+00  0.00000000000E+00  0.13733417092E+04  0.13733417092E+04  0.50400001928E-02 0. -1.
       -1   -1    0    0    0  501  0.00000000000E+00  0.00000000000E+00 -0.18620977082E+04  0.18620977082E+04  0.50400001928E-02 0.  1.
    10030    2    1    2    0    0  0.00000000000E+00  0.00000000000E+00 -0.48875599906E+03  0.32354394174E+04  0.31983098344E+04 0.  0.
        5    1    3    3  502    0  0.12882629744E+04  0.60291887866E+03 -0.98371250966E+03  0.17294059839E+04  0.46999998093E+01 0.  1.
       -5    1    3    3    0  502 -0.12882629744E+04 -0.60291887866E+03  0.49495651061E+03  0.15060334335E+04  0.46999998093E+01 0. -1.
</event>
<event>
 5   0  0.9329929E-08  0.3205036E+04  0.7818609E-02  0.8187489E-01
       -2   -1    0    0    0  501  0.00000000000E+00  0.00000000000E+00  0.12466908593E+04  0.12466908593E+04  0.25500000920E-02 0.  1.
        2   -1    0    0  501    0  0.00000000000E+00  0.00000000000E+00 -0.20599038909E+04  0.20599038909E+04  0.25500000920E-02 0. -1.
    10030    2    1    2    0    0  0.00000000000E+00  0.00000000000E+00 -0.81321303155E+03  0.33065947502E+04  0.32050356328E+04 0.  0.
        1    1    3    3  502    0  0.39452805988E+03  0.13308185222E+03 -0.20031240155E+04  0.20459396352E+04  0.50400001928E-02 0. -1.
       -1    1    3    3    0  502 -0.39452805988E+03 -0.13308185222E+03  0.11899109839E+04  0.12606551150E+04  0.50400001928E-02 0.  1.
</event>
<event>
 5   0  0.9727083E-08  0.3212035E+04  0.7818609E-02  0.8185646E-01
        2   -1    0    0  501    0  0.00000000000E+00  0.00000000000E+00  0.17407391456E+04  0.17407391456E+04  0.25500000920E-02 0.  1.
       -2   -1    0    0    0  501  0.00000000000E+00  0.00000000000E+00 -0.14817221724E+04  0.14817221724E+04  0.25500000920E-02 0. -1.
    10030    2    1    2    0    0  0.00000000000E+00  0.00000000000E+00  0.25901697326E+03  0.32224613180E+04  0.32120347373E+04 0.  0.
        4    1    3    3  502    0  0.96762553407E+03  0.96692181401E+03  0.97369892038E+03  0.16790855157E+04  0.12699999809E+01 0.  1.
       -4    1    3    3    0  502 -0.96762553407E+03 -0.96692181401E+03 -0.71468194713E+03  0.15433758023E+04  0.12699999809E+01 0. -1.
</event>
<event>
 5   0  0.3220147E-08  0.3200409E+04  0.7818609E-02  0.8188709E-01
        1   -1    0    0  501    0  0.00000000000E+00  0.00000000000E+00  0.28566682104E+04  0.28566682104E+04  0.50400001928E-02 0. -1.
       -1   -1    0    0    0  501  0.00000000000E+00  0.00000000000E+00 -0.89637778139E+03  0.89637778140E+03  0.50400001928E-02 0.  1.
    10030    2    1    2    0    0  0.00000000000E+00  0.00000000000E+00  0.19602904290E+04  0.37530459918E+04  0.32004086693E+04 0.  0.
        4    1    3    3  502    0  0.10725657660E+04 -0.24781472910E+03  0.23420888152E+04  0.25878931766E+04  0.12699999809E+01 0. -1.
       -4    1    3    3    0  502 -0.10725657660E+04  0.24781472910E+03 -0.38179838616E+03  0.11651528152E+04  0.12699999809E+01 0.  1.
</event>
<event>
 5   0  0.3283581E-08  0.3194974E+04  0.7818609E-02  0.8190146E-01
       -1   -1    0    0    0  501  0.00000000000E+00  0.00000000000E+00  0.13443810192E+04  0.13443810192E+04  0.50400001928E-02 0. -1.
        1   -1    0    0  501    0  0.00000000000E+00  0.00000000000E+00 -0.18982450425E+04  0.18982450425E+04  0.50400001928E-02 0.  1.
    10030    2    1    2    0    0  0.00000000000E+00  0.00000000000E+00 -0.55386402329E+03  0.32426260617E+04  0.31949739310E+04 0.  0.
        5    1    3    3  502    0 -0.25676456223E+03 -0.14307539303E+04 -0.94935239316E+03  0.17361673035E+04  0.46999998093E+01 0.  1.
       -5    1    3    3    0  502  0.25676456223E+03  0.14307539303E+04  0.39548836987E+03  0.15064587582E+04  0.46999998093E+01 0. -1.
</event>
<event>
 5   0  0.9329929E-08  0.3201626E+04  0.7818609E-02  0.8188388E-01
       -2   -1    0    0    0  501  0.00000000000E+00  0.00000000000E+00  0.93483766695E+03  0.93483766696E+03  0.25500000920E-02 0. -1.
        2   -1    0    0  501    0  0.00000000000E+00  0.00000000000E+00 -0.27412276841E+04  0.27412276841E+04  0.25500000920E-02 0.  1.
    10030    2    1    2    0    0  0.00000000000E+00  0.00000000000E+00 -0.18063900171E+04  0.36760653510E+04  0.32016263947E+04 0.  0.
        1    1    3    3  502    0 -0.91252138721E+03 -0.51566659420E+03 -0.22924515605E+04  0.25207025758E+04  0.50400001928E-02 0.  1.
       -1    1    3    3    0  502  0.91252138721E+03  0.51566659420E+03  0.48606154334E+03  0.11553627752E+04  0.50400001928E-02 0. -1.
</event>
<event>
 5   0  0.3270966E-08  0.3204232E+04  0.7818609E-02  0.8187700E-01
        1   -1    0    0  501    0  0.00000000000E+00  0.00000000000E+00  0.12705617946E+04  0.12705617946E+04  0.50400001928E-02 0.  1.
       -1   -1    0    0    0  501  0.00000000000E+00  0.00000000000E+00 -0.20201891950E+04  0.20201891950E+04  0.50400001928E-02 0. -1.
    10030    2    1    2    0    0  0.00000000000E+00  0.00000000000E+00 -0.74962740039E+03  0.32907509895E+04  0.32042317076E+04 0.  0.
        3    1    3    3  502    0  0.10368051240E+04  0.10616753634E+04 -0.99498639871E+03  0.17866497660E+04  0.10100000352E+00 0.  1.
       -3    1    3    3    0  502 -0.10368051240E+04 -0.10616753634E+04  0.24535899831E+03  0.15041012236E+04  0.10100000352E+00 0. -1.
</event>
<event>
 5   0  0.9353994E-08  0.3202227E+04  0.7818609E-02  0.8188229E-01
       -2   -1    0    0    0  501  0.00000000000E+00  0.00000000000E+00  0.16925256152E+04  0.16925256152E+04  0.25500000920E-02 0.  1.
        2   -1    0    0  501    0  0.00000000000E+00  0.00000000000E+00 -0.15146387188E+04  0.15146387188E+04  0.25500000920E-02 0. -1.
    10030    2    1    2    0    0  0.00000000000E+00  0.00000000000E+00  0.17788689635E+03  0.32071643340E+04  0.32022272433E+04 0.  0.
        2    1    3    3  502    0  0.44816846953E+03  0.16610861601E+01 -0.14505363993E+04  0.15181941845E+04  0.25500000920E-02 0. -1.
       -2    1    3    3    0  502 -0.44816846953E+03 -0.16610861601E+01  0.16284232956E+04  0.16889701495E+04  0.25500000920E-02 0.  1.
</event>
<event>
 5   0  0.9353994E-08  0.3201950E+04  0.7818609E-02  0.8188302E-01
       -2   -1    0    0    0  501  0.00000000000E+00  0.00000000000E+00  0.93299099648E+03  0.93299099649E+03  0.25500000920E-02 0.  1.
        2   -1    0    0  501    0  0.00000000000E+00  0.00000000000E+00 -0.27472083960E+04  0.27472083960E+04  0.25500000920E-02 0. -1.
    10030    2    1    2    0    0  0.00000000000E+00  0.00000000000E+00 -0.18142173995E+04  0.36801993925E+04  0.32019498428E+04 0.  0.
        2    1    3    3  502    0  0.19108109557E+03 -0.57951310569E+03  0.79409195743E+03  0.10014636597E+04  0.25500000920E-02 0.  1.
       -2    1    3    3    0  502 -0.19108109557E+03  0.57951310569E+03 -0.26083093569E+04  0.26787357328E+04  0.25500000920E-02 0. -1.
</event>
<event>
 5   0  0.9727083E-08  0.3199758E+04  0.7818609E-02  0.8188881E-01
        2   -1    0    0  501    0  0.00000000000E+00  0.00000000000E+00  0.15983670647E+04  0.15983670647E+04  0.25500000920E-02 0.  1.
       -2   -1    0    0    0  501  0.00000000000E+00  0.00000000000E+00 -0.16013928452E+04  0.16013928452E+04  0.25500000920E-02 0. -1.
    10030    2    1    2    0    0  0.00000000000E+00  0.00000000000E+00 -0.30257804744E+01  0.31997599099E+04  0.31997584793E+04 0.  0.
        4    1    3    3  502    0 -0.13688309513E+03 -0.53147298718E+03  0.15012889830E+04  0.15984588644E+04  0.12699999809E+01 0.  1.
       -4    1    3    3    0  502  0.13688309513E+03  0.53147298718E+03 -0.15043147635E+04  0.16013010455E+04  0.12699999809E+01 0. -1.
</event>
<event>
 5   0  0.9707721E-08  0.3201106E+04  0.7818609E-02  0.8188525E-01
        2   -1    0    0  501    0  0.00000000000E+00  0.00000000000E+00  0.27067381107E+04  0.27067381107E+04  0.25500000920E-02 0. -1.
       -2   -1    0    0    0  501  0.00000000000E+00  0.00000000000E+00 -0.94644183359E+03  0.94644183359E+03  0.25500000920E-02 0.  1.
    10030    2    1    2    0    0  0.00000000000E+00  0.00000000000E+00  0.17602962771E+04  0.36531799443E+04  0.32011061717E+04 0.  0.
        3    1    3    3  502    0 -0.35332082381E+03  0.11636135517E+04  0.20677552687E+04  0.23988422131E+04  0.10100000352E+00 0. -1.
       -3    1    3    3    0  502  0.35332082381E+03 -0.11636135517E+04 -0.30745899151E+03  0.12543377312E+04  0.10100000352E+00 0.  1.
</event>
<event>
 5   0  0.9329929E-08  0.3201622E+04  0.7818609E-02  0.8188389E-01
        2   -1    0    0  501    0  0.00000000000E+00  0.00000000000E+00  0.16264420239E+04  0.16264420239E+04  0.25500000920E-02 0. -1.
       -2   -1    0    0    0  501  0.00000000000E+00  0.00000000000E+00 -0.15755837032E+04  0.15755837033E+04  0.25500000920E-02 0.  1.
    10030    2    1    2    0    0  0.00000000000E+00  0.00000000000E+00  0.50858320625E+02  0.32020257271E+04  0.32016218060E+04 0.  0.
        1    1    3    3  502    0 -0.57663908597E+03 -0.12487094872E+04 -0.79370257450E+03  0.15880024545E+04  0.50400001928E-02 0.  1.
       -1    1    3    3    0  502  0.57663908597E+03  0.12487094872E+04  0.84456089512E+03  0.16140232726E+04  0.50400001928E-02 0. -1.
</event>
<event>
 5   0  0.9157524E-08  0.3197061E+04  0.7818609E-02  0.8189594E-01
        2   -1    0    0  501    0  0.00000000000E+00  0.00000000000E+00  0.22550277564E+04  0.22550277564E+04  0.25500000920E-02 0.  1.
       -2   -1    0    0    0  501  0.00000000000E+00  0.00000000000E+00 -0.11331568681E+04  0.11331568681E+04  0.25500000920E-02 0. -1.
    10030    2    1    2    0    0  0.00000000000E+00  0.00000000000E+00  0.11218708883E+04  0.33881846244E+04  0.31970612692E+04 0.  0.
        5    1    3    3  502    0 -0.25035131208E+03  0.13952507865E+04  0.13439389925E+04  0.19533547149E+04  0.46999998093E+01 0.  1.
       -5    1    3    3    0  502  0.25035131208E+03 -0.13952507865E+04 -0.22206810414E+03  0.14348299096E+04  0.46999998093E+01 0. -1.
</event>
<event>
 5   0  0.3220147E-08  0.3198720E+04  0.7818609E-02  0.8189155E-01
        1   -1    0    0  501    0  0.00000000000E+00  0.00000000000E+00  0.15756978958E+04  0.15756978958E+04  0.50400001928E-02 0. -1.
       -1   -1    0    0    0  501  0.00000000000E+00  0.00000000000E+00 -0.16233777514E+04  0.16233777514E+04  0.50400001928E-02 0.  1.
    10030    2    1    2    0    0  0.00000000000E+00  0.00000000000E+00 -0.47679855557E+02  0.31990756472E+04  0.31987203110E+04 0.  0.
        4    1    3    3  502    0 -0.20586527819E+03 -0.13811579135E+04  0.75597330795E+03  0.15879152843E+04  0.12699999809E+01 0. -1.
       -4    1    3    3    0  502  0.20586527819E+03  0.13811579135E+04 -0.80365316351E+03  0.16111603629E+04  0.12699999809E+01 0.  1.
</event>
<event>
 5   0  0.3283581E-08  0.3182393E+04  0.7818609E-02  0.8193483E-01
       -1   -1    0    0    0  501  0.00000000000E+00  0.00000000000E+00  0.12657974305E+04  0.12657974305E+04  0.50400001928E-02 0.  1.
        1   -1    0    0  501    0  0.00000000000E+00  0.00000000000E+00 -0.20002456829E+04  0.20002456829E+04  0.50400001928E-02 0. -1.
    10030    2    1    2    0    0  0.00000000000E+00  0.00000000000E+00 -0.73444825240E+03  0.32660431134E+04  0.31823927136E+04 0.  0.
        5    1    3    3  502    0  0.10864648112E+04 -0.91900835170E+03 -0.10979087717E+04  0.17973335521E+04  0.46999998093E+01 0.  1.
       -5    1    3    3    0  502 -0.10864648112E+04  0.91900835170E+03  0.36346051926E+03  0.14687095613E+04  0.46999998093E+01 0. -1.
</event>
<event>
 5   0  0.9727083E-08  0.3199739E+04  0.7818609E-02  0.8188886E-01
       -2   -1    0    0    0  501  0.00000000000E+00  0.00000000000E+00  0.28268918565E+04  0.28268918565E+04  0.25500000920E-02 0. -1.
        2   -1    0    0  501    0  0.00000000000E+00  0.00000000000E+00 -0.90544059253E+03  0.90544059253E+03  0.25500000920E-02 0.  1.
    10030    2    1    2    0    0  0.00000000000E+00  0.00000000000E+00  0.19214512640E+04  0.37323324490E+04  0.31997391378E+04 0.  0.
        4    1    3    3  502    0  0.13302587246E+04 -0.67519729833E+03  0.28650060696E+03  0.15190667782E+04  0.12699999809E+01 0.  1.
       -4    1    3    3    0  502 -0.13302587246E+04  0.67519729833E+03  0.16349506570E+04  0.22132656708E+04  0.12699999809E+01 0. -1.
</event>
<event>
 5   0  0.9353994E-08  0.3202458E+04  0.7818609E-02  0.8188168E-01
       -2   -1    0    0    0  501  0.00000000000E+00  0.00000000000E+00  0.10920364847E+04  0.10920364847E+04  0.25500000920E-02 0.  1.
        2   -1    0    0  501    0  0.00000000000E+00  0.00000000000E+00 -0.23478467589E+04  0.23478467589E+04  0.25500000920E-02 0. -1.
    10030    2    1    2    0    0  0.00000000000E+00  0.00000000000E+00 -0.12558102742E+04  0.34398832436E+04  0.32024580067E+04 0.  0.
        2    1    3    3  502    0  0.78277908155E+03  0.10797644965E+03 -0.21238265147E+04  0.22660629005E+04  0.25500000920E-02 0. -1.
       -2    1    3    3    0  502 -0.78277908155E+03 -0.10797644965E+03  0.86801624052E+03  0.11738203432E+04  0.25500000920E-02 0.  1.
</event>
<event>
 5   0  0.3283581E-08  0.3202016E+04  0.7818609E-02  0.8188285E-01
        1   -1    0    0  501    0  0.00000000000E+00  0.00000000000E+00  0.18285064999E+04  0.18285064999E+04  0.50400001928E-02 0. -1.
       -1   -1    0    0    0  501  0.00000000000E+00  0.00000000000E+00 -0.14018146190E+04  0.14018146190E+04  0.50400001928E-02 0.  1.
    10030    2    1    2    0    0  0.00000000000E+00  0.00000000000E+00  0.42669188097E+03  0.32303211189E+04  0.32020163288E+04 0.  0.
        5    1    3    3  502    0 -0.32452228444E+03  0.11090121096E+04  0.13312852821E+04  0.17628287395E+04  0.46999998093E+01 0. -1.
       -5    1    3    3    0  502  0.32452228444E+03 -0.11090121096E+04 -0.90459340113E+03  0.14674923794E+04  0.46999998093E+01 0.  1.
</event>
<event>
 5   0  0.3220147E-08  0.3199736E+04  0.7818609E-02  0.8188887E-01
        1   -1    0    0  501    0  0.00000000000E+00  0.00000000000E+00  0.25544508197E+04  0.25544508197E+04  0.50400001928E-02 0. -1.
       -1   -1    0    0    0  501  0.00000000000E+00  0.00000000000E+00 -0.10020068116E+04  0.10020068116E+04  0.50400001928E-02 0.  1.
    10030    2    1    2    0    0  0.00000000000E+00  0.00000000000E+00  0.15524440081E+04  0.35564576313E+04  0.31997356898E+04 0.  0.
        4    1    3    3  502    0  0.89650936252E+03 -0.32483308999E+03 -0.65164882909E+03  0.11549430214E+04  0.12699999809E+01 0.  1.
       -4    1    3    3    0  502 -0.89650936252E+03  0.32483308999E+03  0.22040928372E+04  0.24015146098E+04  0.12699999809E+01 0. -1.
</event>
<event>
 5   0  0.9157524E-08  0.3199784E+04  0.7818609E-02  0.8188874E-01
       -2   -1    0    0    0  501  0.00000000000E+00  0.00000000000E+00  0.24246056939E+04  0.24246056939E+04  0.25500000920E-02 0.  1.
        2   -1    0    0  501    0  0.00000000000E+00  0.00000000000E+00 -0.10556991768E+04  0.10556991768E+04  0.25500000920E-02 0. -1.
    10030    2    1    2    0    0  0.00000000000E+00  0.00000000000E+00  0.13689065172E+04  0.34803048707E+04  0.31997838896E+04 0.  0.
        5    1    3    3  502    0 -0.60843397035E+03 -0.34773829520E+03 -0.87986937274E+03  0.11248582228E+04  0.46999998093E+01 0. -1.
       -5    1    3    3    0  502  0.60843397035E+03  0.34773829520E+03  0.22487758899E+04  0.23554466479E+04  0.46999998093E+01 0.  1.
</event>
<event>
 5   0  0.3427667E-08  0.3199970E+04  0.7818609E-02  0.8188825E-01
        1   -1    0    0  501    0  0.00000000000E+00  0.00000000000E+00  0.26325702874E+04  0.26325702874E+04  0.50400001928E-02 0.  1.
       -1   -1    0    0    0  501  0.00000000000E+00  0.00000000000E+00 -0.97241571237E+03  0.97241571238E+03  0.50400001928E-02 0. -1.
    10030    2    1    2    0    0  0.00000000000E+00  0.00000000000E+00  0.16601545751E+04  0.36049859998E+04  0.31999704445E+04 0.  0.
        2    1    3    3  502    0 -0.11015688942E+04  0.84953352058E+03 -0.60404752481E+02  0.13924115647E+04  0.25500000920E-02 0. -1.
       -2    1    3    3    0  502  0.11015688942E+04 -0.84953352058E+03  0.17205593275E+04  0.22125744351E+04  0.25500000920E-02 0.  1.
</event>
<event>
 5   0  0.3270966E-08  0.3195710E+04  0.7818609E-02  0.8189951E-01
        1   -1    0    0  501    0  0.00000000000E+00  0.00000000000E+00  0.23989401362E+04  0.23989401362E+04  0.50400001928E-02 0. -1.
       -1   -1    0    0    0  501  0.00000000000E+00  0.00000000000E+00 -0.10642786960E+04  0.10642786960E+04  0.50400001928E-02 0.  1.
    10030    2    1    2    0    0  0.00000000000E+00  0.00000000000E+00  0.13346614402E+04  0.34632188323E+04  0.31957101746E+04 0.  0.
        3    1    3    3  502    0  0.53559725358E+02 -0.14833343861E+04  0.26207968771E+02  0.14845323886E+04  0.10100000352E+00 0.  1.
       -3    1    3    3    0  502 -0.53559725358E+02  0.14833343861E+04  0.13084534714E+04  0.19786864436E+04  0.10100000352E+00 0. -1.
</event>
<event>
 5   0  0.3343140E-08  0.3195525E+04  0.7818609E-02  0.8190000E-01
       -1   -1    0    0    0  501  0.00000000000E+00  0.00000000000E+00  0.79495547674E+03  0.79495547676E+03  0.50400001928E-02 0.  1.
        1   -1    0    0  501    0  0.00000000000E+00  0.00000000000E+00 -0.32113064002E+04  0.32113064002E+04  0.50400001928E-02 0. -1.
    10030    2    1    2    0    0  0.00000000000E+00  0.00000000000E+00 -0.24163509235E+04  0.40062618770E+04  0.31955253780E+04 0.  0.
        1    1    3    3  502    0  0.31310582735E+03 -0.36340704506E+02  0.75558803706E+03  0.81869969323E+03  0.50400001928E-02 0.  1.
       -1    1    3    3    0  502 -0.31310582735E+03  0.36340704506E+02 -0.31719389605E+04  0.31875621838E+04  0.50400001928E-02 0. -1.
</event>
<event>
 5   0  0.9329929E-08  0.3202467E+04  0.7818609E-02  0.8188166E-01
       -2   -1    0    0    0  501  0.00000000000E+00  0.00000000000E+00  0.21621037586E+04  0.21621037586E+04  0.25500000920E-02 0. -1.
        2   -1    0    0  501    0  0.00000000000E+00  0.00000000000E+00 -0.11858580967E+04  0.11858580967E+04  0.25500000920E-02 0.  1.
    10030    2    1    2    0    0  0.00000000000E+00  0.00000000000E+00  0.97624566192E+03  0.33479618554E+04  0.32024667044E+04 0.  0.
        1    1    3    3  502    0 -0.59246429921E+03 -0.37814981064E+03 -0.10159693180E+04  0.12353966490E+04  0.50400001928E-02 0.  1.
       -1    1    3    3    0  502  0.59246429921E+03  0.37814981064E+03  0.19922149799E+04  0.21125652064E+04  0.50400001928E-02 0. -1.
</event>
<event>
 5   0  0.9707721E-08  0.3201072E+04  0.7818609E-02  0.8188534E-01
       -2   -1    0    0    0  501  0.00000000000E+00  0.00000000000E+00  0.20817580425E+04  0.20817580425E+04  0.25500000920E-02 0.  1.
        2   -1    0    0  501    0  0.00000000000E+00  0.00000000000E+00 -0.12305539824E+04  0.12305539824E+04  0.25500000920E-02 0. -1.
    10030    2    1    2    0    0  0.00000000000E+00  0.00000000000E+00  0.85120406014E+03  0.33123120249E+04  0.32010721014E+04 0.  0.
        3    1    3    3  502    0 -0.44830915924E+03 -0.45178216855E+03 -0.10939771868E+04  0.12656517395E+04  0.10100000352E+00 0. -1.
       -3    1    3    3    0  502  0.44830915924E+03  0.45178216855E+03  0.19451812470E+04  0.20466602854E+04  0.10100000352E+00 0.  1.
</event>
<event>
 5   0  0.9157524E-08  0.3198828E+04  0.7818609E-02  0.8189127E-01
        2   -1    0    0  501    0  0.00000000000E+00  0.00000000000E+00  0.16201568508E+04  0.16201568508E+04  0.25500000920E-02 0. -1.
       -2   -1    0    0    0  501  0.00000000000E+00  0.00000000000E+00 -0.15789370572E+04  0.15789370572E+04  0.25500000920E-02 0.  1.
    10030    2    1    2    0    0  0.00000000000E+00  0.00000000000E+00  0.41219793575E+02  0.31990939079E+04  0.31988283418E+04 0.  0.
        5    1    3    3  502    0 -0.56909996413E+03 -0.14388392968E+04 -0.38435619507E+03  0.15943290331E+04  0.46999998093E+01 0.  1.
       -5    1    3    3    0  502  0.56909996413E+03  0.14388392968E+04  0.42557598865E+03  0.16047648748E+04  0.46999998093E+01 0. -1.
</event>
<event>
 5   0  0.9727083E-08  0.3199282E+04  0.7818609E-02  0.8189007E-01
       -2   -1    0    0    0  501  0.00000000000E+00  0.00000000000E+00  0.17216976571E+04  0.17216976571E+04  0.25500000920E-02 0.  1.
        2   -1    0    0  501    0  0.00000000000E+00  0.00000000000E+00 -0.14862377486E+04  0.14862377486E+04  0.25500000920E-02 0. -1.
    10030    2    1    2    0    0  0.00000000000E+00  0.00000000000E+00  0.23545990857E+03  0.32079354057E+04  0.31992824506E+04 0.  0.
        4    1    3    3  502    0  0.11454856380E+04  0.28546133061E+03  0.12001053536E+04  0.16834131967E+04  0.12699999809E+01 0.  1.
       -4    1    3    3    0  502 -0.11454856380E+04 -0.28546133061E+03 -0.96464544508E+03  0.15245222090E+04  0.12699999809E+01 0. -1.
</event>
<event>
 5   0  0.9329929E-08  0.3205573E+04  0.7818609E-02  0.8187347E-01
       -2   -1    0    0    0  501  0.00000000000E+00  0.00000000000E+00  0.23320318842E+04  0.23320318842E+04  0.25500000920E-02 0. -1.
        2   -1    0    0  501    0  0.00000000000E+00  0.00000000000E+00 -0.11015822608E+04  0.11015822609E+04  0.25500000920E-02 0.  1.
    10030    2    1    2    0    0  0.00000000000E+00  0.00000000000E+00  0.12304496234E+04  0.34336141451E+04  0.32055732439E+04 0.  0.
        1    1    3    3  502    0 -0.40618880995E+03 -0.20982503464E+03  0.22607078836E+04  0.23064726379E+04  0.50400001928E-02 0. -1.
       -1    1    3    3    0  502  0.40618880995E+03  0.20982503464E+03 -0.10302582602E+04  0.11271415072E+04  0.50400001928E-02 0.  1.
</event>
<event>
 5   0  0.3427667E-08  0.3200542E+04  0.7818609E-02  0.8188674E-01
       -1   -1    0    0    0  501  0.00000000000E+00  0.00000000000E+00  0.23632446182E+04  0.23632446182E+04  0.50400001928E-02 0. -1.
        1   -1    0    0  501    0  0.00000000000E+00  0.00000000000E+00 -0.10836236292E+04  0.10836236292E+04  0.50400001928E-02 0.  1.
    10030    2    1    2    0    0  0.00000000000E+00  0.00000000000E+00  0.12796209890E+04  0.34468682474E+04  0.32005422727E+04 0.  0.
        2    1    3    3  502    0  0.23283183773E+02 -0.22294804895E+03  0.23462527151E+04  0.23569365164E+04  0.25500000920E-02 0. -1.
       -2    1    3    3    0  502 -0.23283183773E+02  0.22294804895E+03 -0.10666317261E+04  0.10899317310E+04  0.25500000920E-02 0.  1.
</event>
<event>
 5   0  0.3270966E-08  0.3199272E+04  0.7818609E-02  0.8189009E-01
       -1   -1    0    0    0  501  0.00000000000E+00  0.00000000000E+00  0.16173316086E+04  0.16173316086E+04  0.50400001928E-02 0.  1.
        1   -1    0    0  501    0  0.00000000000E+00  0.00000000000E+00 -0.15821341204E+04  0.15821341204E+04  0.50400001928E-02 0. -1.
    10030    2    1    2    0    0  0.00000000000E+00  0.00000000000E+00  0.35197488184E+02  0.31994657290E+04  0.31992721184E+04 0.  0.
        3    1    3    3  502    0 -0.24193373760E+03 -0.17427523662E+03  0.15892954945E+04  0.16170231818E+04  0.10100000352E+00 0.  1.
       -3    1    3    3    0  502  0.24193373760E+03  0.17427523662E+03 -0.15540980063E+04  0.15824425471E+04  0.10100000352E+00 0. -1.
</event>
<event>
 5   0  0.9707721E-08  0.3198876E+04  0.7818609E-02  0.8189114E-01
       -2   -1    0    0    0  501  0.00000000000E+00  0.00000000000E+00  0.10352257080E+04  0.10352257080E+04  0.25500000920E-02 0. -1.
        2   -1    0    0  501    0  0.00000000000E+00  0.00000000000E+00 -0.24711536332E+04  0.24711536332E+04  0.25500000920E-02 0.  1.
    10030    2    1    2    0    0  0.00000000000E+00  0.00000000000E+00 -0.14359279251E+04  0.35063793412E+04  0.31988759086E+04 0.  0.
        3    1    3    3  502    0 -0.13951367834E+02 -0.10765231903E+03 -0.24671111729E+04  0.24694981701E+04  0.10100000352E+00 0.  1.
       -3    1    3    3    0  502  0.13951367834E+02  0.10765231903E+03  0.10311832477E+04  0.10368811711E+04  0.10100000352E+00 0. -1.
</event>
<event>
 5   0  0.9707721E-08  0.3200344E+04  0.7818609E-02  0.8188726E-01
        2   -1    0    0  501    0  0.00000000000E+00  0.00000000000E+00  0.11600542418E+04  0.11600542418E+04  0.25500000920E-02 0. -1.
       -2   -1    0    0    0  501  0.00000000000E+00  0.00000000000E+00 -0.22072682347E+04  0.22072682347E+04  0.25500000920E-02 0.  1.
    10030    2    1    2    0    0  0.00000000000E+00  0.00000000000E+00 -0.10472139929E+04  0.33673224765E+04  0.32003442805E+04 0.  0.
        3    1    3    3  502    0 -0.73531573742E+03  0.11588288455E+04 -0.13893222609E+04  0.19528926959E+04  0.10100000352E+00 0.  1.
       -3    1    3    3    0  502  0.73531573742E+03 -0.11588288455E+04  0.34210826807E+03  0.14144297805E+04  0.10100000352E+00 0. -1.
</event>
<event>
 5   0  0.3220147E-08  0.3199636E+04  0.7818609E-02  0.8188913E-01
        1   -1    0    0  501    0  0.00000000000E+00  0.00000000000E+00  0.18928140808E+04  0.18928140808E+04  0.50400001928E-02 0. -1.
       -1   -1    0    0    0  501  0.00000000000E+00  0.00000000000E+00 -0.13521757949E+04  0.13521757949E+04  0.50400001928E-02 0.  1.
    10030    2    1    2    0    0  0.00000000000E+00  0.00000000000E+00  0.54063828597E+03  0.32449898757E+04  0.31996358445E+04 0.  0.
        4    1    3    3  502    0 -0.97641230535E+02 -0.56998318459E+03  0.17831065853E+04  0.18745360354E+04  0.12699999809E+01 0. -1.
       -4    1    3    3    0  502  0.97641230535E+02  0.56998318459E+03 -0.12424682993E+04  0.13704538403E+04  0.12699999809E+01 0.  1.
</event>
<event>
 5   0  0.3343140E-08  0.3199867E+04  0.7818609E-02  0.8188852E-01
       -1   -1    0    0    0  501  0.00000000000E+00  0.00000000000E+00  0.10353706628E+04  0.10353706629E+04  0.50400001928E-02 0. -1.
        1   -1    0    0  501    0  0.00000000000E+00  0.00000000000E+00 -0.24723386044E+04  0.24723386044E+04  0.50400001928E-02 0.  1.
    10030    2    1    2    0    0  0.00000000000E+00  0.00000000000E+00 -0.14369679415E+04  0.35077092672E+04  0.31998667845E+04 0.  0.
        1    1    3    3  502    0 -0.68745340672E+03 -0.13936071978E+04 -0.30098440835E+03  0.15828217911E+04  0.50400001928E-02 0. -1.
       -1    1    3    3    0  502  0.68745340672E+03  0.13936071978E+04 -0.11359835332E+04  0.19248874761E+04  0.50400001928E-02 0.  1.
</event>
<event>
 5   0  0.9157524E-08  0.3195001E+04  0.7818609E-02  0.8190139E-01
       -2   -1    0    0    0  501  0.00000000000E+00  0.00000000000E+00  0.13338805094E+04  0.13338805094E+04  0.25500000920E-02 0. -1.
        2   -1    0    0  501    0  0.00000000000E+00  0.00000000000E+00 -0.19132203586E+04  0.19132203586E+04  0.25500000920E-02 0.  1.
    10030    2    1    2    0    0  0.00000000000E+00  0.00000000000E+00 -0.57933984915E+03  0.32471008680E+04  0.31950006864E+04 0.  0.
        5    1    3    3  502    0  0.84757451586E+03  0.43574601572E+03  0.10133162710E+04  0.13910748021E+04  0.46999998093E+01 0. -1.
       -5    1    3    3    0  502 -0.84757451586E+03 -0.43574601572E+03 -0.15926561201E+04  0.18560260658E+04  0.46999998093E+01 0.  1.
</event>
<event>
 5   0  0.3220147E-08  0.3198723E+04  0.7818609E-02  0.8189154E-01
       -1   -1    0    0    0  501  0.00000000000E+00  0.00000000000E+00  0.10061641095E+04  0.10061641095E+04  0.50400001928E-02 0.  1.
        1   -1    0    0  501    0  0.00000000000E+00  0.00000000000E+00 -0.25422869166E+04  0.25422869166E+04  0.50400001928E-02 0. -1.
    10030    2    1    2    0    0  0.00000000000E+00  0.00000000000E+00 -0.15361228071E+04  0.35484510260E+04  0.31987234025E+04 0.  0.
        4    1    3    3  502    0 -0.99657269938E+03  0.31961365104E+03  0.57356554355E+03  0.11934358285E+04  0.12699999809E+01 0.  1.
       -4    1    3    3    0  502  0.99657269938E+03 -0.31961365104E+03 -0.21096883506E+04  0.23550151976E+04  0.12699999809E+01 0. -1.
</event>
<event>
 5   0  0.3343140E-08  0.3199725E+04  0.7818609E-02  0.8188890E-01
        1   -1    0    0  501    0  0.00000000000E+00  0.00000000000E+00  0.21930257701E+04  0.21930257701E+04  0.50400001928E-02 0. -1.
       -1   -1    0    0    0  501  0.00000000000E+00  0.00000000000E+00 -0.11671359706E+04  0.11671359706E+04  0.50400001928E-02 0.  1.
    10030    2    1    2    0    0  0.00000000000E+00  0.00000000000E+00  0.10258897996E+04  0.33601617407E+04  0.31997245261E+04 0.  0.
        1    1    3    3  502    0  0.37576260306E+03  0.94228784077E+03  0.18120907923E+04  0.20767226460E+04  0.50400001928E-02 0. -1.
       -1    1    3    3    0  502 -0.37576260306E+03 -0.94228784077E+03 -0.78620099277E+03  0.12834390947E+04  0.50400001928E-02 0.  1.
</event>
<event>
 5   0  0.9727083E-08  0.3206020E+04  0.7818609E-02  0.8187229E-01
       -2   -1    0    0    0  501  0.00000000000E+00  0.00000000000E+00  0.12231993357E+04  0.12231993357E+04  0.25500000920E-02 0.  1.
        2   -1    0    0  501    0  0.00000000000E+00  0.00000000000E+00 -0.21007540326E+04  0.21007540326E+04  0.25500000920E-02 0. -1.
    10030    2    1    2    0    0  0.00000000000E+00  0.00000000000E+00 -0.87755469690E+03  0.33239533683E+04  0.32060199233E+04 0.  0.
        4    1    3    3  502    0 -0.11991542402E+04  0.22685296828E+03 -0.15163387612E+04  0.19464629492E+04  0.12699999809E+01 0. -1.
       -4    1    3    3    0  502  0.11991542402E+04 -0.22685296828E+03  0.63878406432E+03  0.13774904191E+04  0.12699999809E+01 0.  1.
</event>
<event>
 5   0  0.3270966E-08  0.3208652E+04  0.7818609E-02  0.8186536E-01
       -1   -1    0    0    0  501  0.00000000000E+00  0.00000000000E+00  0.13886553296E+04  0.13886553296E+04  0.50400001928E-02 0.  1.
        1   -1    0    0  501    0  0.00000000000E+00  0.00000000000E+00 -0.18534925628E+04  0.18534925628E+04  0.50400001928E-02 0. -1.
    10030    2    1    2    0    0  0.00000000000E+00  0.00000000000E+00 -0.46483723324E+03  0.32421478924E+04  0.32086522565E+04 0.  0.
        3    1    3    3  502    0 -0.32516855266E+03  0.13957470397E+04 -0.96106921864E+03  0.17255429406E+04  0.10100000352E+00 0. -1.
       -3    1    3    3    0  502  0.32516855266E+03 -0.13957470397E+04  0.49623198539E+03  0.15166049519E+04  0.10100000352E+00 0.  1.
</event>
<event>
 5   0  0.3270966E-08  0.3199320E+04  0.7818609E-02  0.8188997E-01
        1   -1    0    0  501    0  0.00000000000E+00  0.00000000000E+00  0.14959054852E+04  0.14959054852E+04  0.50400001928E-02 0. -1.
       -1   -1    0    0    0  501  0.00000000000E+00  0.00000000000E+00 -0.17106108758E+04  0.17106108758E+04  0.50400001928E-02 0.  1.
    10030    2    1    2    0    0  0.00000000000E+00  0.00000000000E+00 -0.21470539063E+03  0.32065163610E+04  0.31993200478E+04 0.  0.
        3    1    3    3  502    0  0.10525666306E+04 -0.52804317008E+03 -0.11924634123E+04  0.16759161975E+04  0.10100000352E+00 0.  1.
       -3    1    3    3    0  502 -0.10525666306E+04  0.52804317008E+03  0.97775802166E+03  0.15306001635E+04  0.10100000352E+00 0. -1.
</event>
<event>
 5   0  0.3343140E-08  0.3198800E+04  0.7818609E-02  0.8189134E-01
        1   -1    0    0  501    0  0.00000000000E+00  0.00000000000E+00  0.21006519313E+04  0.21006519313E+04  0.50400001928E-02 0. -1.
       -1   -1    0    0    0  501  0.00000000000E+00  0.00000000000E+00 -0.12177555271E+04  0.12177555271E+04  0.50400001928E-02 0.  1.
    10030    2    1    2    0    0  0.00000000000E+00  0.00000000000E+00  0.88289640413E+03  0.33184074584E+04  0.31988000875E+04 0.  0.
        1    1    3    3  502    0 -0.14638599930E+04  0.63887121416E+03  0.35441859706E+03  0.16360486085E+04  0.50400001928E-02 0. -1.
       -1    1    3    3    0  502  0.14638599930E+04 -0.63887121416E+03  0.52847780707E+03  0.16823588499E+04  0.50400001928E-02 0.  1.
</event>
<event>
 5   0  0.3283581E-08  0.3200020E+04  0.7818609E-02  0.8188812E-01
       -1   -1    0    0    0  501  0.00000000000E+00  0.00000000000E+00  0.16048006954E+04  0.16048006954E+04  0.50400001928E-02 0. -1.
        1   -1    0    0  501    0  0.00000000000E+00  0.00000000000E+00 -0.15952334148E+04  0.15952334148E+04  0.50400001928E-02 0.  1.
    10030    2    1    2    0    0  0.00000000000E+00  0.00000000000E+00  0.95672805844E+01  0.32000341103E+04  0.32000198084E+04 0.  0.
        5    1    3    3  502    0  0.35037293414E+03  0.12075306821E+04 -0.98472472972E+03  0.15970586791E+04  0.46999998093E+01 0.  1.
       -5    1    3    3    0  502 -0.35037293414E+03 -0.12075306821E+04  0.99429201031E+03  0.16029754312E+04  0.46999998093E+01 0. -1.
</event>
<event>
 5   0  0.3283581E-08  0.3199409E+04  0.7818609E-02  0.8188973E-01
       -1   -1    0    0    0  501  0.00000000000E+00  0.00000000000E+00  0.17109453259E+04  0.17109453259E+04  0.50400001928E-02 0.  1.
        1   -1    0    0  501    0  0.00000000000E+00  0.00000000000E+00 -0.14956964685E+04  0.14956964686E+04  0.50400001928E-02 0. -1.
    10030    2    1    2    0    0  0.00000000000E+00  0.00000000000E+00  0.21524885732E+03  0.32066417944E+04  0.31994092466E+04 0.  0.
        5    1    3    3  502    0  0.52410483274E+03  0.11438915642E+04 -0.88246446819E+03  0.15368602454E+04  0.46999998093E+01 0. -1.
       -5    1    3    3    0  502 -0.52410483274E+03 -0.11438915642E+04  0.10977133255E+04  0.16697815490E+04  0.46999998093E+01 0.  1.
</event>
<event>
 5   0  0.3427667E-08  0.3207712E+04  0.7818609E-02  0.8186784E-01
        1   -1    0    0  501    0  0.00000000000E+00  0.00000000000E+00  0.15416457995E+04  0.15416457995E+04  0.50400001928E-02 0.  1.
       -1   -1    0    0    0  501  0.00000000000E+00  0.00000000000E+00 -0.16685760754E+04  0.16685760754E+04  0.50400001928E-02 0. -1.
    10030    2    1    2    0    0  0.00000000000E+00  0.00000000000E+00 -0.12693027590E+03  0.32102218749E+04  0.32077115194E+04 0.  0.
        2    1    3    3  502    0 -0.31140308682E+03 -0.14341386056E+04 -0.71098607837E+03  0.16307135328E+04  0.25500000920E-02 0. -1.
       -2    1    3    3    0  502  0.31140308682E+03  0.14341386056E+04  0.58405580248E+03  0.15795083421E+04  0.25500000920E-02 0.  1.
</event>
<event>
 5   0  0.3427667E-08  0.3199060E+04  0.7818609E-02  0.8189065E-01
       -1   -1    0    0    0  501  0.00000000000E+00  0.00000000000E+00  0.19469648567E+04  0.19469648567E+04  0.50400001928E-02 0.  1.
        1   -1    0    0  501    0  0.00000000000E+00  0.00000000000E+00 -0.13140946618E+04  0.13140946618E+04  0.50400001928E-02 0. -1.
    10030    2    1    2    0    0  0.00000000000E+00  0.00000000000E+00  0.63287019491E+03  0.32610595185E+04  0.31990599399E+04 0.  0.
        2    1    3    3  502    0  0.13374684825E+04  0.22110510578E+03  0.11818806186E+04  0.17984858093E+04  0.25500000920E-02 0.  1.
       -2    1    3    3    0  502 -0.13374684825E+04 -0.22110510578E+03 -0.54901042372E+03  0.14625737092E+04  0.25500000920E-02 0. -1.
</event>
<event>
 5   0  0.3427667E-08  0.3199308E+04  0.7818609E-02  0.8189000E-01
        1   -1    0    0  501    0  0.00000000000E+00  0.00000000000E+00  0.15954979403E+04  0.15954979403E+04  0.50400001928E-02 0.  1.
       -1   -1    0    0    0  501  0.00000000000E+00  0.00000000000E+00 -0.16038213494E+04  0.16038213494E+04  0.50400001928E-02 0. -1.
    10030    2    1    2    0    0  0.00000000000E+00  0.00000000000E+00 -0.83234091036E+01  0.31993192898E+04  0.31993084626E+04 0.  0.
        2    1    3    3  502    0  0.32179520158E+03  0.50894905053E+03  0.14778393878E+04  0.15958040430E+04  0.25500000920E-02 0.  1.
       -2    1    3    3    0  502 -0.32179520158E+03 -0.50894905053E+03 -0.14861627969E+04  0.16035152467E+04  0.25500000920E-02 0. -1.
</event>
<event>
 5   0  0.9157524E-08  0.3196088E+04  0.7818609E-02  0.8189851E-01
        2   -1    0    0  501    0  0.00000000000E+00  0.00000000000E+00  0.17819557363E+04  0.17819557363E+04  0.25500000920E-02 0. -1.
       -2   -1    0    0    0  501  0.00000000000E+00  0.00000000000E+00 -0.14331131288E+04  0.14331131288E+04  0.25500000920E-02 0.  1.
    10030    2    1    2    0    0  0.00000000000E+00  0.00000000000E+00  0.34884260752E+03  0.32150688650E+04  0.31960877088E+04 0.  0.
        5    1    3    3  502    0 -0.73786113011E+03 -0.77479086380E+03 -0.10196337055E+04  0.14779766282E+04  0.46999998093E+01 0. -1.
       -5    1    3    3    0  502  0.73786113011E+03  0.77479086380E+03  0.13684763131E+04  0.17370922369E+04  0.46999998093E+01 0.  1.
</event>
<event>
 5   0  0.3343140E-08  0.3206178E+04  0.7818609E-02  0.8187187E-01
       -1   -1    0    0    0  501  0.00000000000E+00  0.00000000000E+00  0.12281940776E+04  0.12281940776E+04  0.50400001928E-02 0.  1.
        1   -1    0    0  501    0  0.00000000000E+00  0.00000000000E+00 -0.20924175573E+04  0.20924175573E+04  0.50400001928E-02 0. -1.
    10030    2    1    2    0    0  0.00000000000E+00  0.00000000000E+00 -0.86422347973E+03  0.33206116350E+04  0.32061783181E+04 0.  0.
        1    1    3    3  502    0  0.59699454992E+03  0.39451782696E+03 -0.19178320611E+04  0.20469798785E+04  0.50400001928E-02 0. -1.
       -1    1    3    3    0  502 -0.59699454992E+03 -0.39451782696E+03  0.10536085813E+04  0.12736317565E+04  0.50400001928E-02 0.  1.
</event>
<event>
 5   0  0.3080500E-08  0.3201414E+04  0.7818609E-02  0.8188444E-01
        3   -1    0    0  501    0  0.00000000000E+00  0.00000000000E+00  0.14472299131E+04  0.14472299166E+04  0.10100000352E+00 0. -1.
       -3   -1    0    0    0  501  0.00000000000E+00  0.00000000000E+00 -0.17704600827E+04  0.17704600856E+04  0.10100000352E+00 0.  1.
    10030    2    1    2    0    0  0.00000000000E+00  0.00000000000E+00 -0.32323016958E+03  0.32176900022E+04  0.32014139388E+04 0.  0.
        5    1    3    3  502    0 -0.14793347527E+04 -0.60563463428E+03 -0.24580304395E+03  0.16173020272E+04  0.46999998093E+01 0.  1.
       -5    1    3    3    0  502  0.14793347527E+04  0.60563463428E+03 -0.77427125626E+02  0.16003879750E+04  0.46999998093E+01 0. -1.
</event>
<event>
 5   0  0.9707721E-08  0.3200345E+04  0.7818609E-02  0.8188726E-01
        2   -1    0    0  501    0  0.00000000000E+00  0.00000000000E+00  0.14710883969E+04  0.14710883969E+04  0.25500000920E-02 0. -1.
       -2   -1    0    0    0  501  0.00000000000E+00  0.00000000000E+00 -0.17405835949E+04  0.17405835949E+04  0.25500000920E-02 0.  1.
    10030    2    1    2    0    0  0.00000000000E+00  0.00000000000E+00 -0.26949519799E+03  0.32116719918E+04  0.32003451878E+04 0.  0.
        3    1    3    3  502    0 -0.84116374257E+03 -0.86984999923E+03  0.91602884737E+03  0.15176641006E+04  0.10100000352E+00 0. -1.
       -3    1    3    3    0  502  0.84116374257E+03  0.86984999923E+03 -0.11855240454E+04  0.16940078912E+04  0.10100000352E+00 0.  1.
</event>
<event>
 5   0  0.3220147E-08  0.3202453E+04  0.7818609E-02  0.8188170E-01
        1   -1    0    0  501    0  0.00000000000E+00  0.00000000000E+00  0.15077735871E+04  0.15077735871E+04  0.50400001928E-02 0.  1.
       -1   -1    0    0    0  501  0.00000000000E+00  0.00000000000E+00 -0.17004716090E+04  0.17004716090E+04  0.50400001928E-02 0. -1.
    10030    2    1    2    0    0  0.00000000000E+00  0.00000000000E+00 -0.19269802195E+03  0.32082451961E+04  0.32024529210E+04 0.  0.
        4    1    3    3  502    0 -0.14157031971E+03  0.10973365790E+03  0.14977049077E+04  0.15083783459E+04  0.12699999809E+01 0.  1.
       -4    1    3    3    0  502  0.14157031971E+03 -0.10973365790E+03 -0.16904029296E+04  0.16998668502E+04  0.12699999809E+01 0. -1.
</event>
<event>
 5   0  0.9727083E-08  0.3200211E+04  0.7818609E-02  0.8188761E-01
       -2   -1    0    0    0  501  0.00000000000E+00  0.00000000000E+00  0.96705471963E+03  0.96705471964E+03  0.25500000920E-02 0. -1.
        2   -1    0    0  501    0  0.00000000000E+00  0.00000000000E+00 -0.26475624245E+04  0.26475624245E+04  0.25500000920E-02 0.  1.
    10030    2    1    2    0    0  0.00000000000E+00  0.00000000000E+00 -0.16805077049E+04  0.36146171442E+04  0.32002110794E+04 0.  0.
        4    1    3    3  502    0 -0.13739568400E+04 -0.74718999057E+03 -0.45841518835E+03  0.16297841507E+04  0.12699999809E+01 0. -1.
       -4    1    3    3    0  502  0.13739568400E+04  0.74718999057E+03 -0.12220925165E+04  0.19848329935E+04  0.12699999809E+01 0.  1.
</event>
<event>
 5   0  0.9329929E-08  0.3199870E+04  0.7818609E-02  0.8188851E-01
        2   -1    0    0  501    0  0.00000000000E+00  0.00000000000E+00  0.22413021194E+04  0.22413021194E+04  0.25500000920E-02 0.  1.
       -2   -1    0    0    0  501  0.00000000000E+00  0.00000000000E+00 -0.11421006070E+04  0.11421006070E+04  0.25500000920E-02 0. -1.
    10030    2    1    2    0    0  0.00000000000E+00  0.00000000000E+00  0.10992015124E+04  0.33834027264E+04  0.31998703168E+04 0.  0.
        1    1    3    3  502    0  0.64661482844E+03 -0.66979103330E+03  0.19254083931E+04  0.21386744130E+04  0.50400001928E-02 0.  1.
       -1    1    3    3    0  502 -0.64661482844E+03  0.66979103330E+03 -0.82620688068E+03  0.12447283135E+04  0.50400001928E-02 0. -1.
</event>
<event>
 5   0  0.3270966E-08  0.3208863E+04  0.7818609E-02  0.8186481E-01
       -1   -1    0    0    0  501  0.00000000000E+00  0.00000000000E+00  0.15908022420E+04  0.15908022420E+04  0.50400001928E-02 0. -1.
        1   -1    0    0  501    0  0.00000000000E+00  0.00000000000E+00 -0.16181770618E+04  0.16181770618E+04  0.50400001928E-02 0.  1.
    10030    2    1    2    0    0  0.00000000000E+00  0.00000000000E+00 -0.27374819794E+02  0.32089793037E+04  0.32088625385E+04 0.  0.
        3    1    3    3  502    0  0.80618176075E+03  0.22041234878E+03 -0.13832952230E+04  0.16161733567E+04  0.10100000352E+00 0.  1.
       -3    1    3    3    0  502 -0.80618176075E+03 -0.22041234878E+03  0.13559204032E+04  0.15928059470E+04  0.10100000352E+00 0. -1.
</event>
<event>
 5   0  0.9707721E-08  0.3199658E+04  0.7818609E-02  0.8188908E-01
       -2   -1    0    0    0  501  0.00000000000E+00  0.00000000000E+00  0.12609203034E+04  0.12609203035E+04  0.25500000920E-02 0.  1.
        2   -1    0    0  501    0  0.00000000000E+00  0.00000000000E+00 -0.20298290130E+04  0.20298290130E+04  0.25500000920E-02 0. -1.
    10030    2    1    2    0    0  0.00000000000E+00  0.00000000000E+00 -0.76890870950E+03  0.32907493164E+04  0.31996578661E+04 0.  0.
        3    1    3    3  502    0  0.13910344238E+04  0.70019248159E+03 -0.76122559925E+03  0.17334101369E+04  0.10100000352E+00 0.  1.
       -3    1    3    3    0  502 -0.13910344238E+04 -0.70019248159E+03 -0.76831102517E+01  0.15573391795E+04  0.10100000352E+00 0. -1.
</event>
<event>
 5   0  0.3220147E-08  0.3198854E+04  0.7818609E-02  0.8189120E-01
        1   -1    0    0  501    0  0.00000000000E+00  0.00000000000E+00  0.19801440912E+04  0.19801440912E+04  0.50400001928E-02 0. -1.
       -1   -1    0    0    0  501  0.00000000000E+00  0.00000000000E+00 -0.12919095894E+04  0.12919095894E+04  0.50400001928E-02 0.  1.
    10030    2    1    2    0    0  0.00000000000E+00  0.00000000000E+00  0.68823450180E+03  0.32720536805E+04  0.31988542572E+04 0.  0.
        4    1    3    3  502    0  0.52359473091E+03 -0.22505972204E+03 -0.11845239036E+04  0.13144967903E+04  0.12699999809E+01 0.  1.
       -4    1    3    3    0  502 -0.52359473091E+03  0.22505972204E+03  0.18727584054E+04  0.19575568902E+04  0.12699999809E+01 0. -1.
</event>
<event>
 5   0  0.9353994E-08  0.3199882E+04  0.7818609E-02  0.8188848E-01
        2   -1    0    0  501    0  0.00000000000E+00  0.00000000000E+00  0.16820964818E+04  0.16820964818E+04  0.25500000920E-02 0.  1.
       -2   -1    0    0    0  501  0.00000000000E+00  0.00000000000E+00 -0.15217976354E+04  0.15217976354E+04  0.25500000920E-02 0. -1.
    10030    2    1    2    0    0  0.00000000000E+00  0.00000000000E+00  0.16029884642E+03  0.32038941172E+04  0.31998815281E+04 0.  0.
        2    1    3    3  502    0 -0.70037256062E+03 -0.55006634914E+03  0.14109947819E+04  0.16685325848E+04  0.25500000920E-02 0.  1.
       -2    1    3    3    0  502  0.70037256062E+03  0.55006634914E+03 -0.12506959354E+04  0.15353615324E+04  0.25500000920E-02 0. -1.
</event>
<event>
 5   0  0.3220147E-08  0.3199212E+04  0.7818609E-02  0.8189025E-01
       -1   -1    0    0    0  501  0.00000000000E+00  0.00000000000E+00  0.10903906292E+04  0.10903906292E+04  0.50400001928E-02 0. -1.
        1   -1    0    0  501    0  0.00000000000E+00  0.00000000000E+00 -0.23466256190E+04  0.23466256191E+04  0.50400001928E-02 0.  1.
    10030    2    1    2    0    0  0.00000000000E+00  0.00000000000E+00 -0.12562349899E+04  0.34370162482E+04  0.31992115186E+04 0.  0.
        4    1    3    3  502    0  0.72933072423E+03 -0.13307934339E+04 -0.11714817003E+04  0.19171086188E+04  0.12699999809E+01 0.  1.
       -4    1    3    3    0  502 -0.72933072423E+03  0.13307934339E+04 -0.84753289602E+02  0.15199076295E+04  0.12699999809E+01 0. -1.
</event>
<event>
 5   0  0.3220147E-08  0.3197831E+04  0.7818609E-02  0.8189390E-01
        1   -1    0    0  501    0  0.00000000000E+00  0.00000000000E+00  0.12998644026E+04  0.12998644026E+04  0.50400001928E-02 0. -1.
       -1   -1    0    0    0  501  0.00000000000E+00  0.00000000000E+00 -0.19667668401E+04  0.19667668401E+04  0.50400001928E-02 0.  1.
    10030    2    1    2    0    0  0.00000000000E+00  0.00000000000E+00 -0.66690243752E+03  0.32666312427E+04  0.31978306420E+04 0.  0.
        4    1    3    3  502    0 -0.13029162742E+04 -0.49900978304E+03 -0.11312320272E+04  0.17961873771E+04  0.12699999809E+01 0.  1.
       -4    1    3    3    0  502  0.13029162742E+04  0.49900978304E+03  0.46432958972E+03  0.14704438657E+04  0.12699999809E+01 0. -1.
</event>
<event>
 5   0  0.3427667E-08  0.3200370E+04  0.7818609E-02  0.8188719E-01
       -1   -1    0    0    0  501  0.00000000000E+00  0.00000000000E+00  0.11063642676E+04  0.11063642676E+04  0.50400001928E-02 0. -1.
        1   -1    0    0  501    0  0.00000000000E+00  0.00000000000E+00 -0.23144207946E+04  0.23144207946E+04  0.50400001928E-02 0.  1.
    10030    2    1    2    0    0  0.00000000000E+00  0.00000000000E+00 -0.12080565271E+04  0.34207850622E+04  0.32003702707E+04 0.  0.
        2    1    3    3  502    0 -0.34100372190E+03 -0.25445887046E+03 -0.22528505697E+04  0.22926771566E+04  0.25500000920E-02 0.  1.
       -2    1    3    3    0  502  0.34100372190E+03  0.25445887046E+03  0.10447940427E+04  0.11281079056E+04  0.25500000920E-02 0. -1.
</event>
<event>
 5   0  0.9353994E-08  0.3200354E+04  0.7818609E-02  0.8188724E-01
       -2   -1    0    0    0  501  0.00000000000E+00  0.00000000000E+00  0.28304967168E+04  0.28304967168E+04  0.25500000920E-02 0. -1.
        2   -1    0    0  501    0  0.00000000000E+00  0.00000000000E+00 -0.90463504349E+03  0.90463504349E+03  0.25500000920E-02 0.  1.
    10030    2    1    2    0    0  0.00000000000E+00  0.00000000000E+00  0.19258616733E+04  0.37351317603E+04  0.32003540557E+04 0.  0.
        2    1    3    3  502    0 -0.85613205772E+03 -0.33852029739E+03  0.24904534542E+04  0.26551678854E+04  0.25500000920E-02 0. -1.
       -2    1    3    3    0  502  0.85613205772E+03  0.33852029739E+03 -0.56459178090E+03  0.10799638749E+04  0.25500000920E-02 0.  1.
</event>
<event>
 5   0  0.9329929E-08  0.3200990E+04  0.7818609E-02  0.8188556E-01
        2   -1    0    0  501    0  0.00000000000E+00  0.00000000000E+00  0.15113791106E+04  0.15113791106E+04  0.25500000920E-02 0.  1.
       -2   -1    0    0    0  501  0.00000000000E+00  0.00000000000E+00 -0.16948649943E+04  0.16948649943E+04  0.25500000920E-02 0. -1.
    10030    2    1    2    0    0  0.00000000000E+00  0.00000000000E+00 -0.18348588368E+03  0.32062441049E+04  0.32009895643E+04 0.  0.
        1    1    3    3  502    0 -0.13842978162E+04  0.33285213266E+03 -0.82404673481E+03  0.16450300932E+04  0.50400001928E-02 0. -1.
       -1    1    3    3    0  502  0.13842978162E+04 -0.33285213266E+03  0.64056085113E+03  0.15612140117E+04  0.50400001928E-02 0.  1.
</event>
<event>
 5   0  0.9157524E-08  0.3201344E+04  0.7818609E-02  0.8188462E-01
        2   -1    0    0  501    0  0.00000000000E+00  0.00000000000E+00  0.23610350649E+04  0.23610350649E+04  0.25500000920E-02 0.  1.
       -2   -1    0    0    0  501  0.00000000000E+00  0.00000000000E+00 -0.10851813650E+04  0.10851813650E+04  0.25500000920E-02 0. -1.
    10030    2    1    2    0    0  0.00000000000E+00  0.00000000000E+00  0.12758536999E+04  0.34462164300E+04  0.32013442518E+04 0.  0.
        5    1    3    3  502    0  0.36230709604E+03  0.15478087760E+04  0.43610075381E+03  0.16483884240E+04  0.46999998093E+01 0.  1.
       -5    1    3    3    0  502 -0.36230709604E+03 -0.15478087760E+04  0.83975294607E+03  0.17978280060E+04  0.46999998093E+01 0. -1.
</event>
<event>
 5   0  0.9329929E-08  0.3196276E+04  0.7818609E-02  0.8189801E-01
       -2   -1    0    0    0  501  0.00000000000E+00  0.00000000000E+00  0.11574354703E+04  0.11574354703E+04  0.25500000920E-02 0.  1.
        2   -1    0    0  501    0  0.00000000000E+00  0.00000000000E+00 -0.22066413799E+04  0.22066413799E+04  0.25500000920E-02 0. -1.
    10030    2    1    2    0    0  0.00000000000E+00  0.00000000000E+00 -0.10492059096E+04  0.33640768502E+04  0.31962759601E+04 0.  0.
        1    1    3    3  502    0 -0.22674603294E+03  0.13805367710E+04  0.28844780259E+03  0.14284598960E+04  0.50400001928E-02 0.  1.
       -1    1    3    3    0  502  0.22674603294E+03 -0.13805367710E+04 -0.13376537122E+04  0.19356169542E+04  0.50400001928E-02 0. -1.
</event>
<event>
 5   0  0.3343140E-08  0.3201256E+04  0.7818609E-02  0.8188486E-01
        1   -1    0    0  501    0  0.00000000000E+00  0.00000000000E+00  0.18113247031E+04  0.18113247031E+04  0.50400001928E-02 0.  1.
       -1   -1    0    0    0  501  0.00000000000E+00  0.00000000000E+00 -0.14144399339E+04  0.14144399339E+04  0.50400001928E-02 0. -1.
    10030    2    1    2    0    0  0.00000000000E+00  0.00000000000E+00  0.39688476917E+03  0.32257646369E+04  0.32012559993E+04 0.  0.
        1    1    3    3  502    0 -0.71788781533E+02  0.10481224310E+04  0.14152868575E+04  0.17625978409E+04  0.50400001928E-02 0.  1.
       -1    1    3    3    0  502  0.71788781533E+02 -0.10481224310E+04 -0.10184020883E+04  0.14631667961E+04  0.50400001928E-02 0. -1.
</event>
<event>
 5   0  0.9157524E-08  0.3200491E+04  0.7818609E-02  0.8188687E-01
       -2   -1    0    0    0  501  0.00000000000E+00  0.00000000000E+00  0.98467654008E+03  0.98467654008E+03  0.25500000920E-02 0. -1.
        2   -1    0    0  501    0  0.00000000000E+00  0.00000000000E+00 -0.26006368086E+04  0.26006368086E+04  0.25500000920E-02 0.  1.
    10030    2    1    2    0    0  0.00000000000E+00  0.00000000000E+00 -0.16159602685E+04  0.35853133487E+04  0.32004912465E+04 0.  0.
        5    1    3    3  502    0  0.13781513390E+04  0.71022909728E+03 -0.12519077215E+04  0.19927422103E+04  0.46999998093E+01 0. -1.
       -5    1    3    3    0  502 -0.13781513390E+04 -0.71022909728E+03 -0.36405254700E+03  0.15925711383E+04  0.46999998093E+01 0.  1.
</event>
<event>
 5   0  0.9727083E-08  0.3199192E+04  0.7818609E-02  0.8189031E-01
       -2   -1    0    0    0  501  0.00000000000E+00  0.00000000000E+00  0.16465773359E+04  0.16465773359E+04  0.25500000920E-02 0. -1.
        2   -1    0    0  501    0  0.00000000000E+00  0.00000000000E+00 -0.15539554548E+04  0.15539554548E+04  0.25500000920E-02 0.  1.
    10030    2    1    2    0    0  0.00000000000E+00  0.00000000000E+00  0.92621881076E+02  0.32005327908E+04  0.31991922937E+04 0.  0.
        4    1    3    3  502    0  0.43307105787E+03 -0.12324996837E+03  0.15818694347E+04  0.16447047203E+04  0.12699999809E+01 0. -1.
       -4    1    3    3    0  502 -0.43307105787E+03  0.12324996837E+03 -0.14892475536E+04  0.15558280704E+04  0.12699999809E+01 0.  1.
</event>
<event>
 5   0  0.9727083E-08  0.3198729E+04  0.7818609E-02  0.8189153E-01
        2   -1    0    0  501    0  0.00000000000E+00  0.00000000000E+00  0.15888357757E+04  0.15888357757E+04  0.25500000920E-02 0.  1.
       -2   -1    0    0    0  501  0.00000000000E+00  0.00000000000E+00 -0.16099627975E+04  0.16099627975E+04  0.25500000920E-02 0. -1.
    10030    2    1    2    0    0  0.00000000000E+00  0.00000000000E+00 -0.21127021792E+02  0.31987985732E+04  0.31987288039E+04 0.  0.
        4    1    3    3  502    0 -0.11348157466E+04 -0.11268067055E+04 -0.32121972656E+02  0.15995416732E+04  0.12699999809E+01 0.  1.
       -4    1    3    3    0  502  0.11348157466E+04  0.11268067055E+04  0.10994950864E+02  0.15992569000E+04  0.12699999809E+01 0. -1.
</event>
<event>
 5   0  0.3427667E-08  0.3199663E+04  0.7818609E-02  0.8188906E-01
        1   -1    0    0  501    0  0.00000000000E+00  0.00000000000E+00  0.29609848264E+04  0.29609848264E+04  0.50400001928E-02 0.  1.
       -1   -1    0    0    0  501  0.00000000000E+00  0.00000000000E+00 -0.86439521198E+03  0.86439521199E+03  0.50400001928E-02 0. -1.
    10030    2    1    2    0    0  0.00000000000E+00  0.00000000000E+00  0.20965896144E+04  0.38253800384E+04  0.31996631740E+04 0.  0.
        2    1    3    3  502    0 -0.81225540152E+03 -0.82573416641E+03 -0.27108539375E+03  0.11895726298E+04  0.25500000920E-02 0. -1.
       -2    1    3    3    0  502  0.81225540152E+03  0.82573416641E+03  0.23676750082E+04  0.26358074086E+04  0.25500000920E-02 0.  1.
</event>
<event>
 5   0  0.3270966E-08  0.3200256E+04  0.7818609E-02  0.8188750E-01
        1   -1    0    0  501    0  0.00000000000E+00  0.00000000000E+00  0.22363063033E+04  0.22363063033E+04  0.50400001928E-02 0. -1.
       -1   -1    0    0    0  501  0.00000000000E+00  0.00000000000E+00 -0.11449280272E+04  0.11449280272E+04  0.50400001928E-02 0.  1.
    10030    2    1    2    0    0  0.00000000000E+00  0.00000000000E+00  0.10913782761E+04  0.33812343305E+04  0.32002560923E+04 0.  0.
        3    1    3    3  502    0 -0.70948856692E+02  0.15970876209E+04  0.47335476456E+03  0.16672694300E+04  0.10100000352E+00 0. -1.
       -3    1    3    3    0  502  0.70948856692E+02 -0.15970876209E+04  0.61802351155E+03  0.17139649005E+04  0.10100000352E+00 0.  1.
</event>
<event>
 5   0  0.3283581E-08  0.3200838E+04  0.7818609E-02  0.8188596E-01
        1   -1    0    0  501    0  0.00000000000E+00  0.00000000000E+00  0.11203964527E+04  0.11203964527E+04  0.50400001928E-02 0.  1.
       -1   -1    0    0    0  501  0.00000000000E+00  0.00000000000E+00 -0.22861017977E+04  0.22861017977E+04  0.50400001928E-02 0. -1.
    10030    2    1    2    0    0  0.00000000000E+00  0.00000000000E+00 -0.11657053450E+04  0.34064982504E+04  0.32008376058E+04 0.  0.
        5    1    3    3  502    0 -0.42279850529E+03 -0.11552034304E+04  0.50667578705E+03  0.13304119606E+04  0.46999998093E+01 0.  1.
       -5    1    3    3    0  502  0.42279850529E+03  0.11552034304E+04 -0.16723811321E+04  0.20760862898E+04  0.46999998093E+01 0. -1.
</event>
<event>
 5   0  0.9727083E-08  0.3199537E+04  0.7818609E-02  0.8188939E-01
        2   -1    0    0  501    0  0.00000000000E+00  0.00000000000E+00  0.20517447900E+04  0.20517447900E+04  0.25500000920E-02 0. -1.
       -2   -1    0    0    0  501  0.00000000000E+00  0.00000000000E+00 -0.12473574911E+04  0.12473574911E+04  0.25500000920E-02 0.  1.
    10030    2    1    2    0    0  0.00000000000E+00  0.00000000000E+00  0.80438729896E+03  0.32991022811E+04  0.31995369875E+04 0.  0.
        4    1    3    3  502    0  0.76618077748E+03  0.93417229824E+02 -0.10426600055E+04  0.12972668432E+04  0.12699999809E+01 0.  1.
       -4    1    3    3    0  502 -0.76618077748E+03 -0.93417229824E+02  0.18470473044E+04  0.20018354379E+04  0.12699999809E+01 0. -1.
</event>
<event>
 5   0  0.9157524E-08  0.3201625E+04  0.7818609E-02  0.8188388E-01
        2   -1    0    0  501    0  0.00000000000E+00  0.00000000000E+00  0.16151239533E+04  0.16151239533E+04  0.25500000920E-02 0. -1.
       -2   -1    0    0    0  501  0.00000000000E+00  0.00000000000E+00 -0.15866275956E+04  0.15866275956E+04  0.25500000920E-02 0.  1.
    10030    2    1    2    0    0  0.00000000000E+00  0.00000000000E+00  0.28496357729E+02  0.32017515489E+04  0.32016247342E+04 0.  0.
        5    1    3    3  502    0 -0.11092887796E+04  0.30349029664E+03 -0.10993264335E+04  0.15909646930E+04  0.46999998093E+01 0.  1.
       -5    1    3    3    0  502  0.11092887796E+04 -0.30349029664E+03  0.11278227913E+04  0.16107868559E+04  0.46999998093E+01 0. -1.
</event>
<event>
 5   0  0.9329929E-08  0.3205157E+04  0.7818609E-02  0.8187456E-01
        2   -1    0    0  501    0  0.00000000000E+00  0.00000000000E+00  0.16656283668E+04  0.16656283668E+04  0.25500000920E-02 0.  1.
       -2   -1    0    0    0  501  0.00000000000E+00  0.00000000000E+00 -0.15419157693E+04  0.15419157693E+04  0.25500000920E-02 0. -1.
    10030    2    1    2    0    0  0.00000000000E+00  0.00000000000E+00  0.12371259745E+03  0.32075441361E+04  0.32051574966E+04 0.  0.
        1    1    3    3  502    0 -0.16604063702E+03 -0.10911477415E+04  0.12246534094E+04  0.16486202898E+04  0.50400001928E-02 0.  1.
       -1    1    3    3    0  502  0.16604063702E+03  0.10911477415E+04 -0.11009408119E+04  0.15589238462E+04  0.50400001928E-02 0. -1.
</event>
<event>
 5   0  0.9329929E-08  0.3200312E+04  0.7818609E-02  0.8188735E-01
        2   -1    0    0  501    0  0.00000000000E+00  0.00000000000E+00  0.27783209604E+04  0.27783209604E+04  0.25500000920E-02 0.  1.
       -2   -1    0    0    0  501  0.00000000000E+00  0.00000000000E+00 -0.92159974277E+03  0.92159974277E+03  0.25500000920E-02 0. -1.
    10030    2    1    2    0    0  0.00000000000E+00  0.00000000000E+00  0.18567212176E+04  0.36999207032E+04  0.32003124113E+04 0.  0.
        1    1    3    3  502    0 -0.24856879563E+03  0.50256304707E+03  0.26610424377E+04  0.27194673960E+04  0.50400001928E-02 0.  1.
       -1    1    3    3    0  502  0.24856879563E+03 -0.50256304707E+03 -0.80432122009E+03  0.98045330718E+03  0.50400001928E-02 0. -1.
</event>
<event>
 5   0  0.3080500E-08  0.3200003E+04  0.7818609E-02  0.8188817E-01
        3   -1    0    0  501    0  0.00000000000E+00  0.00000000000E+00  0.15071705543E+04  0.15071705576E+04  0.10100000352E+00 0.  1.
       -3   -1    0    0    0  501  0.00000000000E+00  0.00000000000E+00 -0.16985496826E+04  0.16985496856E+04  0.10100000352E+00 0. -1.
    10030    2    1    2    0    0  0.00000000000E+00  0.00000000000E+00 -0.19137912834E+03  0.32057202432E+04  0.32000025480E+04 0.  0.
        4    1    3    3  502    0  0.33990859599E+03  0.12680736422E+04 -0.10119022218E+04  0.16575573399E+04  0.12699999809E+01 0. -1.
       -4    1    3    3    0  502 -0.33990859599E+03 -0.12680736422E+04  0.82052309346E+03  0.15481629034E+04  0.12699999809E+01 0.  1.
</event>
<event>
 5   0  0.3080500E-08  0.3198192E+04  0.7818609E-02  0.8189295E-01
       -3   -1    0    0    0  501  0.00000000000E+00  0.00000000000E+00  0.16404102881E+04  0.16404102912E+04  0.10100000352E+00 0.  1.
        3   -1    0    0  501    0  0.00000000000E+00  0.00000000000E+00 -0.15588219205E+04  0.15588219238E+04  0.10100000352E+00 0. -1.
    10030    2    1    2    0    0  0.00000000000E+00  0.00000000000E+00  0.81588367555E+02  0.31992322150E+04  0.31981916928E+04 0.  0.
        4    1    3    3  502    0  0.88521974768E+03 -0.81242682391E+03  0.10963410578E+04  0.16265351745E+04  0.12699999809E+01 0.  1.
       -4    1    3    3    0  502 -0.88521974768E+03  0.81242682391E+03 -0.10147526903E+04  0.15726970405E+04  0.12699999809E+01 0. -1.
</event>
<event>
 5   0  0.9727083E-08  0.3200074E+04  0.7818609E-02  0.8188798E-01
        2   -1    0    0  501    0  0.00000000000E+00  0.00000000000E+00  0.23622495812E+04  0.23622495812E+04  0.25500000920E-02 0. -1.
       -2   -1    0    0    0  501  0.00000000000E+00  0.00000000000E+00 -0.10837630511E+04  0.10837630511E+04  0.25500000920E-02 0.  1.
    10030    2    1    2    0    0  0.00000000000E+00  0.00000000000E+00  0.12784865301E+04  0.34460126323E+04  0.32000742576E+04 0.  0.
        4    1    3    3  502    0 -0.26115349799E+03  0.92634960901E+03 -0.73719029093E+03  0.12123431385E+04  0.12699999809E+01 0.  1.
       -4    1    3    3    0  502  0.26115349799E+03 -0.92634960901E+03  0.20156768210E+04  0.22336694937E+04  0.12699999809E+01 0. -1.
</event>
<event>
 5   0  0.3220147E-08  0.3203855E+04  0.7818609E-02  0.8187800E-01
       -1   -1    0    0    0  501  0.00000000000E+00  0.00000000000E+00  0.14268695362E+04  0.14268695362E+04  0.50400001928E-02 0. -1.
        1   -1    0    0  501    0  0.00000000000E+00  0.00000000000E+00 -0.17984629305E+04  0.17984629305E+04  0.50400001928E-02 0.  1.
    10030    2    1    2    0    0  0.00000000000E+00  0.00000000000E+00 -0.37159339426E+03  0.32253324667E+04  0.32038551575E+04 0.  0.
        4    1    3    3  502    0  0.85271496865E+03  0.48638252396E+03 -0.14601735250E+04  0.17594883101E+04  0.12699999809E+01 0.  1.
       -4    1    3    3    0  502 -0.85271496865E+03 -0.48638252396E+03  0.10885801308E+04  0.14658441566E+04  0.12699999809E+01 0. -1.
</event>
<event>
 5   0  0.9727083E-08  0.3198991E+04  0.7818609E-02  0.8189084E-01
       -2   -1    0    0    0  501  0.00000000000E+00  0.00000000000E+00  0.26088827033E+04  0.26088827033E+04  0.25500000920E-02 0.  1.
        2   -1    0    0  501    0  0.00000000000E+00  0.00000000000E+00 -0.98064450436E+03  0.98064450436E+03  0.25500000920E-02 0. -1.
    10030    2    1    2    0    0  0.00000000000E+00  0.00000000000E+00  0.16282381989E+04  0.35895272076E+04  0.31989913945E+04 0.  0.
        4    1    3    3  502    0  0.29569392831E+03  0.11804441220E+04  0.19788702531E+04  0.23231040261E+04  0.12699999809E+01 0. -1.
       -4    1    3    3    0  502 -0.29569392831E+03 -0.11804441220E+04 -0.35063205417E+03  0.12664231816E+04  0.12699999809E+01 0.  1.
</event>
<event>
 5   0  0.3270966E-08  0.3201533E+04  0.7818609E-02  0.8188412E-01
       -1   -1    0    0    0  501  0.00000000000E+00  0.00000000000E+00  0.11399038117E+04  0.11399038117E+04  0.50400001928E-02 0. -1.
        1   -1    0    0  501    0  0.00000000000E+00  0.00000000000E+00 -0.22479562640E+04  0.22479562640E+04  0.50400001928E-02 0.  1.
    10030    2    1    2    0    0  0.00000000000E+00  0.00000000000E+00 -0.11080524523E+04  0.33878600757E+04  0.32015333288E+04 0.  0.
        3    1    3    3  502    0  0.49039066354E+03  0.91666761750E+03  0.73406408861E+03  0.12726400199E+04  0.10100000352E+00 0. -1.
       -3    1    3    3    0  502 -0.49039066354E+03 -0.91666761750E+03 -0.18421165410E+04  0.21152200558E+04  0.10100000352E+00 0.  1.
</event>
<event>
 5   0  0.3220147E-08  0.3197273E+04  0.7818609E-02  0.8189538E-01
       -1   -1    0    0    0  501  0.00000000000E+00  0.00000000000E+00  0.16162515028E+04  0.16162515028E+04  0.50400001928E-02 0. -1.
        1   -1    0    0  501    0  0.00000000000E+00  0.00000000000E+00 -0.15812131263E+04  0.15812131263E+04  0.50400001928E-02 0.  1.
    10030    2    1    2    0    0  0.00000000000E+00  0.00000000000E+00  0.35038376437E+02  0.31974646291E+04  0.31972726450E+04 0.  0.
        4    1    3    3  502    0  0.11192692248E+04  0.64889362399E+03  0.95662293534E+03  0.16090231776E+04  0.12699999809E+01 0.  1.
       -4    1    3    3    0  502 -0.11192692248E+04 -0.64889362399E+03 -0.92158455890E+03  0.15884414515E+04  0.12699999809E+01 0. -1.
</event>
<event>
 5   0  0.3427667E-08  0.3200165E+04  0.7818609E-02  0.8188774E-01
       -1   -1    0    0    0  501  0.00000000000E+00  0.00000000000E+00  0.19165717685E+04  0.19165717685E+04  0.50400001928E-02 0.  1.
        1   -1    0    0  501    0  0.00000000000E+00  0.00000000000E+00 -0.13358563579E+04  0.13358563579E+04  0.50400001928E-02 0. -1.
    10030    2    1    2    0    0  0.00000000000E+00  0.00000000000E+00  0.58071541056E+03  0.32524281264E+04  0.32001653597E+04 0.  0.
        2    1    3    3  502    0 -0.12927418256E+04 -0.84494970991E+03 -0.13497801496E+03  0.15502711068E+04  0.25500000920E-02 0.  1.
       -2    1    3    3    0  502  0.12927418256E+04  0.84494970991E+03  0.71569342552E+03  0.17021570196E+04  0.25500000920E-02 0. -1.
</event>
<event>
 5   0  0.9329929E-08  0.3198246E+04  0.7818609E-02  0.8189281E-01
       -2   -1    0    0    0  501  0.00000000000E+00  0.00000000000E+00  0.11204609318E+04  0.11204609318E+04  0.25500000920E-02 0. -1.
        2   -1    0    0  501    0  0.00000000000E+00  0.00000000000E+00 -0.22822697469E+04  0.22822697469E+04  0.25500000920E-02 0.  1.
    10030    2    1    2    0    0  0.00000000000E+00  0.00000000000E+00 -0.11618088151E+04  0.34027306788E+04  0.31982458238E+04 0.  0.
        1    1    3    3  502    0  0.12179893779E+04 -0.99773143609E+03 -0.28332923549E+03  0.15997629821E+04  0.50400001928E-02 0.  1.
       -1    1    3    3    0  502 -0.12179893779E+04  0.99773143609E+03 -0.87847957960E+03  0.18029676966E+04  0.50400001928E-02 0. -1.
</event>
<event>
 5   0  0.3270966E-08  0.3198709E+04  0.7818609E-02  0.8189158E-01
        1   -1    0    0  501    0  0.00000000000E+00  0.00000000000E+00  0.23386851847E+04  0.23386851847E+04  0.50400001928E-02 0. -1.
       -1   -1    0    0    0  501  0.00000000000E+00  0.00000000000E+00 -0.10937491724E+04  0.10937491724E+04  0.50400001928E-02 0.  1.
    10030    2    1    2    0    0  0.00000000000E+00  0.00000000000E+00  0.12449360123E+04  0.34324343571E+04  0.31987091054E+04 0.  0.
        3    1    3    3  502    0  0.50074125997E+03 -0.31083308822E+03  0.22179070461E+04  0.22948792328E+04  0.10100000352E+00 0. -1.
       -3    1    3    3    0  502 -0.50074125997E+03  0.31083308822E+03 -0.97297103371E+03  0.11375551243E+04  0.10100000352E+00 0.  1.
</event>
<event>
 5   0  0.9329929E-08  0.3200438E+04  0.7818609E-02  0.8188702E-01
       -2   -1    0    0    0  501  0.00000000000E+00  0.00000000000E+00  0.92922827214E+03  0.92922827214E+03  0.25500000920E-02 0.  1.
        2   -1    0    0  501    0  0.00000000000E+00  0.00000000000E+00 -0.27557285344E+04  0.27557285344E+04  0.25500000920E-02 0. -1.
    10030    2    1    2    0    0  0.00000000000E+00  0.00000000000E+00 -0.18265002623E+04  0.36849568066E+04  0.32004380104E+04 0.  0.
        1    1    3    3  502    0  0.95422746870E+03  0.47111282246E+03  0.46274858946E+03  0.11604454363E+04  0.50400001928E-02 0.  1.
       -1    1    3    3    0  502 -0.95422746870E+03 -0.47111282246E+03 -0.22892488517E+04  0.25245113703E+04  0.50400001928E-02 0. -1.
</event>
<event>
 5   0  0.9353994E-08  0.3201643E+04  0.7818609E-02  0.8188383E-01
       -2   -1    0    0    0  501  0.00000000000E+00  0.00000000000E+00  0.12772322779E+04  0.12772322779E+04  0.25500000920E-02 0.  1.
        2   -1    0    0  501    0  0.00000000000E+00  0.00000000000E+00 -0.20063931487E+04  0.20063931487E+04  0.25500000920E-02 0. -1.
    10030    2    1    2    0    0  0.00000000000E+00  0.00000000000E+00 -0.72916087080E+03  0.32836254267E+04  0.32016433854E+04 0.  0.
        2    1    3    3  502    0 -0.12628575271E+04 -0.76910553752E+03  0.26455825667E+03  0.15021063653E+04  0.25500000920E-02 0.  1.
       -2    1    3    3    0  502  0.12628575271E+04  0.76910553752E+03 -0.99371912747E+03  0.17815190613E+04  0.25500000920E-02 0. -1.
</event>
<event>
 5   0  0.9727083E-08  0.3204502E+04  0.7818609E-02  0.8187629E-01
       -2   -1    0    0    0  501  0.00000000000E+00  0.00000000000E+00  0.18728102169E+04  0.18728102169E+04  0.25500000920E-02 0. -1.
        2   -1    0    0  501    0  0.00000000000E+00  0.00000000000E+00 -0.13707789431E+04  0.13707789431E+04  0.25500000920E-02 0.  1.
    10030    2    1    2    0    0  0.00000000000E+00  0.00000000000E+00  0.50203127385E+03  0.32435891600E+04  0.32045023387E+04 0.  0.
        4    1    3    3  502    0  0.14284205506E+04 -0.29312372805E+03 -0.42108684256E+03  0.15177689321E+04  0.12699999809E+01 0.  1.
       -4    1    3    3    0  502 -0.14284205506E+04  0.29312372805E+03  0.92311811640E+03  0.17258202279E+04  0.12699999809E+01 0. -1.
</event>
<event>
 5   0  0.3220147E-08  0.3199804E+04  0.7818609E-02  0.8188869E-01
       -1   -1    0    0    0  501  0.00000000000E+00  0.00000000000E+00  0.12273387779E+04  0.12273387779E+04  0.50400001928E-02 0. -1.
        1   -1    0    0  501    0  0.00000000000E+00  0.00000000000E+00 -0.20855581060E+04  0.20855581060E+04  0.50400001928E-02 0.  1.
    10030    2    1    2    0    0  0.00000000000E+00  0.00000000000E+00 -0.85821932813E+03  0.33128968839E+04  0.31998039546E+04 0.  0.
        4    1    3    3  502    0 -0.51968995210E+03 -0.16626864198E+03 -0.19862479475E+04  0.20598314080E+04  0.12699999809E+01 0.  1.
       -4    1    3    3    0  502  0.51968995210E+03  0.16626864198E+03  0.11280286194E+04  0.12530654758E+04  0.12699999809E+01 0. -1.
</event>
<event>
 5   0  0.3343140E-08  0.3200392E+04  0.7818609E-02  0.8188714E-01
        1   -1    0    0  501    0  0.00000000000E+00  0.00000000000E+00  0.16005286964E+04  0.16005286964E+04  0.50400001928E-02 0. -1.
       -1   -1    0    0    0  501  0.00000000000E+00  0.00000000000E+00 -0.15998632980E+04  0.15998632980E+04  0.50400001928E-02 0.  1.
    10030    2    1    2    0    0  0.00000000000E+00  0.00000000000E+00  0.66539832864E+00  0.32003919944E+04  0.32003919252E+04 0.  0.
        1    1    3    3  502    0  0.12254970109E+04  0.10271509705E+04 -0.60864351683E+02  0.16001832736E+04  0.50400001928E-02 0.  1.
       -1    1    3    3    0  502 -0.12254970109E+04 -0.10271509705E+04  0.61529750012E+02  0.16002087208E+04  0.50400001928E-02 0. -1.
</event>
<event>
 5   0  0.9727083E-08  0.3198287E+04  0.7818609E-02  0.8189270E-01
       -2   -1    0    0    0  501  0.00000000000E+00  0.00000000000E+00  0.15537066346E+04  0.15537066346E+04  0.25500000920E-02 0.  1.
        2   -1    0    0  501    0  0.00000000000E+00  0.00000000000E+00 -0.16459094004E+04  0.16459094004E+04  0.25500000920E-02 0. -1.
    10030    2    1    2    0    0  0.00000000000E+00  0.00000000000E+00 -0.92202765718E+02  0.31996160350E+04  0.31982872637E+04 0.  0.
        4    1    3    3  502    0  0.86831836778E+03 -0.19083675663E+03 -0.13758877288E+04  0.16381282339E+04  0.12699999809E+01 0. -1.
       -4    1    3    3    0  502 -0.86831836778E+03  0.19083675663E+03  0.12836849631E+04  0.15614878011E+04  0.12699999809E+01 0.  1.
</event>
<event>
 5   0  0.9157524E-08  0.3200699E+04  0.7818609E-02  0.8188633E-01
       -2   -1    0    0    0  501  0.00000000000E+00  0.00000000000E+00  0.14888443407E+04  0.14888443407E+04  0.25500000920E-02 0. -1.
        2   -1    0    0  501    0  0.00000000000E+00  0.00000000000E+00 -0.17202060139E+04  0.17202060139E+04  0.25500000920E-02 0.  1.
    10030    2    1    2    0    0  0.00000000000E+00  0.00000000000E+00 -0.23136167318E+03  0.32090503546E+04  0.32006992914E+04 0.  0.
        5    1    3    3  502    0 -0.45872263115E+03 -0.72258496818E+03 -0.14714447129E+04  0.17022711657E+04  0.46999998093E+01 0.  1.
       -5    1    3    3    0  502  0.45872263115E+03  0.72258496818E+03  0.12400830397E+04  0.15067791888E+04  0.46999998093E+01 0. -1.
</event>
<event>
 5   0  0.3427667E-08  0.3202644E+04  0.7818609E-02  0.8188119E-01
        1   -1    0    0  501    0  0.00000000000E+00  0.00000000000E+00  0.18637456261E+04  0.18637456261E+04  0.50400001928E-02 0.  1.
       -1   -1    0    0    0  501  0.00000000000E+00  0.00000000000E+00 -0.13758484862E+04  0.13758484862E+04  0.50400001928E-02 0. -1.
    10030    2    1    2    0    0  0.00000000000E+00  0.00000000000E+00  0.48789713991E+03  0.32395941124E+04  0.32026436570E+04 0.  0.
        2    1    3    3  502    0  0.69753039475E+03  0.12531091486E+03 -0.12085784457E+04  0.14010400910E+04  0.25500000920E-02 0. -1.
       -2    1    3    3    0  502 -0.69753039475E+03 -0.12531091486E+03  0.16964755856E+04  0.18385540214E+04  0.25500000920E-02 0.  1.
</event>
<event>
 5   0  0.3270966E-08  0.3191231E+04  0.7818609E-02  0.8191137E-01
       -1   -1    0    0    0  501  0.00000000000E+00  0.00000000000E+00  0.14242742938E+04  0.14242742938E+04  0.50400001928E-02 0. -1.
        1   -1    0    0  501    0  0.00000000000E+00  0.00000000000E+00 -0.17875693057E+04  0.17875693057E+04  0.50400001928E-02 0.  1.
    10030    2    1    2    0    0  0.00000000000E+00  0.00000000000E+00 -0.36329501191E+03  0.32118435995E+04  0.31912311169E+04 0.  0.
        3    1    3    3  502    0  0.11296920057E+04  0.17739062812E+02 -0.13156327496E+04  0.17341880648E+04  0.10100000352E+00 0.  1.
       -3    1    3    3    0  502 -0.11296920057E+04 -0.17739062812E+02  0.95233773769E+03  0.14776555346E+04  0.10100000352E+00 0. -1.
</event>
<event>
 5   0  0.9353994E-08  0.3197905E+04  0.7818609E-02  0.8189371E-01
        2   -1    0    0  501    0  0.00000000000E+00  0.00000000000E+00  0.15489973297E+04  0.15489973297E+04  0.25500000920E-02 0. -1.
       -2   -1    0    0    0  501  0.00000000000E+00  0.00000000000E+00 -0.16505186663E+04  0.16505186663E+04  0.25500000920E-02 0.  1.
    10030    2    1    2    0    0  0.00000000000E+00  0.00000000000E+00 -0.10152133657E+03  0.31995159960E+04  0.31979049434E+04 0.  0.
        2    1    3    3  502    0  0.20300993055E+03  0.92364480282E+03  0.12391973042E+04  0.15588273517E+04  0.25500000920E-02 0. -1.
       -2    1    3    3    0  502 -0.20300993055E+03 -0.92364480282E+03 -0.13407186408E+04  0.16406886443E+04  0.25500000920E-02 0.  1.
</event>
<event>
 5   0  0.9727083E-08  0.3200627E+04  0.7818609E-02  0.8188652E-01
       -2   -1    0    0    0  501  0.00000000000E+00  0.00000000000E+00  0.14640831573E+04  0.14640831573E+04  0.25500000920E-02 0.  1.
        2   -1    0    0  501    0  0.00000000000E+00  0.00000000000E+00 -0.17492195793E+04  0.17492195793E+04  0.25500000920E-02 0. -1.
    10030    2    1    2    0    0  0.00000000000E+00  0.00000000000E+00 -0.28513642201E+03  0.32133027365E+04  0.32006267663E+04 0.  0.
        4    1    3    3  502    0 -0.25028883721E+03 -0.14623088200E+04 -0.74495262577E+03  0.16601046999E+04  0.12699999809E+01 0. -1.
       -4    1    3    3    0  502  0.25028883721E+03  0.14623088200E+04  0.45981620376E+03  0.15531980367E+04  0.12699999809E+01 0.  1.
</event>
<event>
 5   0  0.3343140E-08  0.3201152E+04  0.7818609E-02  0.8188513E-01
       -1   -1    0    0    0  501  0.00000000000E+00  0.00000000000E+00  0.81705110885E+03  0.81705110886E+03  0.50400001928E-02 0. -1.
        1   -1    0    0  501    0  0.00000000000E+00  0.00000000000E+00 -0.31354756974E+04  0.31354756974E+04  0.50400001928E-02 0.  1.
    10030    2    1    2    0    0  0.00000000000E+00  0.00000000000E+00 -0.23184245885E+04  0.39525268062E+04  0.32011522271E+04 0.  0.
        1    1    3    3  502    0 -0.88262366942E+03  0.43655342248E+03  0.39880697675E+03  0.10623796107E+04  0.50400001928E-02 0. -1.
       -1    1    3    3    0  502  0.88262366942E+03 -0.43655342248E+03 -0.27172315653E+04  0.28901471955E+04  0.50400001928E-02 0.  1.
</event>
<event>
 5   0  0.3343140E-08  0.3197415E+04  0.7818609E-02  0.8189500E-01
       -1   -1    0    0    0  501  0.00000000000E+00  0.00000000000E+00  0.28952885261E+04  0.28952885261E+04  0.50400001928E-02 0. -1.
        1   -1    0    0  501    0  0.00000000000E+00  0.00000000000E+00 -0.88276720207E+03  0.88276720209E+03  0.50400001928E-02 0.  1.
    10030    2    1    2    0    0  0.00000000000E+00  0.00000000000E+00  0.20125213240E+04  0.37780557282E+04  0.31974150506E+04 0.  0.
        1    1    3    3  502    0 -0.72451939467E+02  0.15241779915E+03  0.28847341538E+04  0.28896663488E+04  0.50400001928E-02 0. -1.
       -1    1    3    3    0  502  0.72451939467E+02 -0.15241779915E+03 -0.87221282978E+03  0.88838937943E+03  0.50400001928E-02 0.  1.
</event>
<event>
 5   0  0.9707721E-08  0.3197954E+04  0.7818609E-02  0.8189358E-01
        2   -1    0    0  501    0  0.00000000000E+00  0.00000000000E+00  0.17143574641E+04  0.17143574641E+04  0.25500000920E-02 0. -1.
       -2   -1    0    0    0  501  0.00000000000E+00  0.00000000000E+00 -0.14913618978E+04  0.14913618978E+04  0.25500000920E-02 0.  1.
    10030    2    1    2    0    0  0.00000000000E+00  0.00000000000E+00  0.22299556630E+03  0.32057193620E+04  0.31979539717E+04 0.  0.
        3    1    3    3  502    0 -0.11168385942E+03  0.15937120127E+04  0.45488607893E+02  0.15982679648E+04  0.10100000352E+00 0.  1.
       -3    1    3    3    0  502  0.11168385942E+03 -0.15937120127E+04  0.17750695841E+03  0.16074513972E+04  0.10100000352E+00 0. -1.
</event>
<event>
 5   0  0.3220147E-08  0.3203874E+04  0.7818609E-02  0.8187795E-01
        1   -1    0    0  501    0  0.00000000000E+00  0.00000000000E+00  0.12779582504E+04  0.12779582504E+04  0.50400001928E-02 0. -1.
       -1   -1    0    0    0  501  0.00000000000E+00  0.00000000000E+00 -0.20080483477E+04  0.20080483477E+04  0.50400001928E-02 0.  1.
    10030    2    1    2    0    0  0.00000000000E+00  0.00000000000E+00 -0.73009009735E+03  0.32860065981E+04  0.32038738758E+04 0.  0.
        4    1    3    3  502    0 -0.42947061233E+03 -0.60147137347E+03  0.10926522972E+04  0.13191298175E+04  0.12699999809E+01 0. -1.
       -4    1    3    3    0  502  0.42947061233E+03  0.60147137347E+03 -0.18227423946E+04  0.19668767805E+04  0.12699999809E+01 0.  1.
</event>
<event>
 5   0  0.3270966E-08  0.3199721E+04  0.7818609E-02  0.8188891E-01
        1   -1    0    0  501    0  0.00000000000E+00  0.00000000000E+00  0.80146288611E+03  0.80146288612E+03  0.50400001928E-02 0.  1.
       -1   -1    0    0    0  501  0.00000000000E+00  0.00000000000E+00 -0.31936023503E+04  0.31936023503E+04  0.50400001928E-02 0. -1.
    10030    2    1    2    0    0  0.00000000000E+00  0.00000000000E+00 -0.23921394642E+04  0.39950652364E+04  0.31997210858E+04 0.  0.
        3    1    3    3  502    0  0.66504567140E+03  0.14519679653E+04 -0.13148938613E+04  0.20686813660E+04  0.10100000352E+00 0. -1.
       -3    1    3    3    0  502 -0.66504567140E+03 -0.14519679653E+04 -0.10772456029E+04  0.19263838705E+04  0.10100000352E+00 0.  1.
</event>
<event>
 5   0  0.3343140E-08  0.3200065E+04  0.7818609E-02  0.8188800E-01
        1   -1    0    0  501    0  0.00000000000E+00  0.00000000000E+00  0.20076635768E+04  0.20076635768E+04  0.50400001928E-02 0. -1.
       -1   -1    0    0    0  501  0.00000000000E+00  0.00000000000E+00 -0.12751661460E+04  0.12751661460E+04  0.50400001928E-02 0.  1.
    10030    2    1    2    0    0  0.00000000000E+00  0.00000000000E+00  0.73249743079E+03  0.32828297228E+04  0.32000653904E+04 0.  0.
        1    1    3    3  502    0  0.13510101495E+04  0.49997779267E+03 -0.34810759158E+03  0.14820206181E+04  0.50400001928E-02 0.  1.
       -1    1    3    3    0  502 -0.13510101495E+04 -0.49997779267E+03  0.10806050224E+04  0.18008091047E+04  0.50400001928E-02 0. -1.
</event>
<event>
 5   0  0.3270966E-08  0.3199668E+04  0.7818609E-02  0.8188905E-01
       -1   -1    0    0    0  501  0.00000000000E+00  0.00000000000E+00  0.16039331770E+04  0.16039331770E+04  0.50400001928E-02 0.  1.
        1   -1    0    0  501    0  0.00000000000E+00  0.00000000000E+00 -0.15957455246E+04  0.15957455246E+04  0.50400001928E-02 0. -1.
    10030    2    1    2    0    0  0.00000000000E+00  0.00000000000E+00  0.81876523714E+01  0.31996787016E+04  0.31996682259E+04 0.  0.
        3    1    3    3  502    0  0.12229563209E+04 -0.50845758666E+03  0.90149182695E+03  0.16021357010E+04  0.10100000352E+00 0.  1.
       -3    1    3    3    0  502 -0.12229563209E+04  0.50845758666E+03 -0.89330417458E+03  0.15975430006E+04  0.10100000352E+00 0. -1.
</event>
<event>
 5   0  0.9157524E-08  0.3197811E+04  0.7818609E-02  0.8189395E-01
       -2   -1    0    0    0  501  0.00000000000E+00  0.00000000000E+00  0.13082467589E+04  0.13082467589E+04  0.25500000920E-02 0.  1.
        2   -1    0    0  501    0  0.00000000000E+00  0.00000000000E+00 -0.19541416993E+04  0.19541416993E+04  0.25500000920E-02 0. -1.
    10030    2    1    2    0    0  0.00000000000E+00  0.00000000000E+00 -0.64589494037E+03  0.32623884582E+04  0.31978114670E+04 0.  0.
        5    1    3    3  502    0  0.89068929081E+03  0.13195786852E+04 -0.17210310019E+03  0.16013297244E+04  0.46999998093E+01 0. -1.
       -5    1    3    3    0  502 -0.89068929081E+03 -0.13195786852E+04 -0.47379184018E+03  0.16610587338E+04  0.46999998093E+01 0.  1.
</event>
<event>
 5   0  0.3220147E-08  0.3201552E+04  0.7818609E-02  0.8188407E-01
        1   -1    0    0  501    0  0.00000000000E+00  0.00000000000E+00  0.18181115903E+04  0.18181115903E+04  0.50400001928E-02 0. -1.
       -1   -1    0    0    0  501  0.00000000000E+00  0.00000000000E+00 -0.14094204612E+04  0.14094204612E+04  0.50400001928E-02 0.  1.
    10030    2    1    2    0    0  0.00000000000E+00  0.00000000000E+00  0.40869112908E+03  0.32275320514E+04  0.32015519212E+04 0.  0.
        4    1    3    3  502    0 -0.65050874501E+03  0.13705359559E+04 -0.31063402997E+03  0.15485559554E+04  0.12699999809E+01 0.  1.
       -4    1    3    3    0  502  0.65050874501E+03 -0.13705359559E+04  0.71932515905E+03  0.16789760960E+04  0.12699999809E+01 0. -1.
</event>
<event>
 5   0  0.3343140E-08  0.3198340E+04  0.7818609E-02  0.8189256E-01
        1   -1    0    0  501    0  0.00000000000E+00  0.00000000000E+00  0.20601787197E+04  0.20601787197E+04  0.50400001928E-02 0. -1.
       -1   -1    0    0    0  501  0.00000000000E+00  0.00000000000E+00 -0.12413217180E+04  0.12413217180E+04  0.50400001928E-02 0.  1.
    10030    2    1    2    0    0  0.00000000000E+00  0.00000000000E+00  0.81885700173E+03  0.33015004377E+04  0.31983399367E+04 0.  0.
        1    1    3    3  502    0  0.22636242168E+03  0.79232088604E+03 -0.10052994903E+04  0.12998612994E+04  0.50400001928E-02 0.  1.
       -1    1    3    3    0  502 -0.22636242168E+03 -0.79232088604E+03  0.18241564920E+04  0.20016391383E+04  0.50400001928E-02 0. -1.
</event>
<event>
 5   0  0.3270966E-08  0.3200866E+04  0.7818609E-02  0.8188589E-01
        1   -1    0    0  501    0  0.00000000000E+00  0.00000000000E+00  0.90957466027E+03  0.90957466029E+03  0.50400001928E-02 0. -1.
       -1   -1    0    0    0  501  0.00000000000E+00  0.00000000000E+00 -0.28160251118E+04  0.28160251118E+04  0.50400001928E-02 0.  1.
    10030    2    1    2    0    0  0.00000000000E+00  0.00000000000E+00 -0.19064504515E+04  0.37255997720E+04  0.32008655607E+04 0.  0.
        3    1    3    3  502    0  0.11180120445E+04  0.85544617557E+03 -0.18393812208E+04  0.23162604293E+04  0.10100000352E+00 0.  1.
       -3    1    3    3    0  502 -0.11180120445E+04 -0.85544617557E+03 -0.67069230706E+02  0.14093393427E+04  0.10100000352E+00 0. -1.
</event>
<event>
 5   0  0.9157524E-08  0.3201591E+04  0.7818609E-02  0.8188397E-01
        2   -1    0    0  501    0  0.00000000000E+00  0.00000000000E+00  0.21797789331E+04  0.21797789331E+04  0.25500000920E-02 0.  1.
       -2   -1    0    0    0  501  0.00000000000E+00  0.00000000000E+00 -0.11755990770E+04  0.11755990770E+04  0.25500000920E-02 0. -1.
    10030    2    1    2    0    0  0.00000000000E+00  0.00000000000E+00  0.10041798561E+04  0.33553780101E+04  0.32015909182E+04 0.  0.
        5    1    3    3  502    0  0.10713771180E+04 -0.11355687600E+04  0.87286121265E+03  0.17886514820E+04  0.46999998093E+01 0.  1.
       -5    1    3    3    0  502 -0.10713771180E+04  0.11355687600E+04  0.13131864342E+03  0.15667265281E+04  0.46999998093E+01 0. -1.
</event>
<event>
 5   0  0.9727083E-08  0.3199635E+04  0.7818609E-02  0.8188914E-01
        2   -1    0    0  501    0  0.00000000000E+00  0.00000000000E+00  0.11445750485E+04  0.11445750485E+04  0.25500000920E-02 0.  1.
       -2   -1    0    0    0  501  0.00000000000E+00  0.00000000000E+00 -0.22361274335E+04  0.22361274335E+04  0.25500000920E-02 0. -1.
    10030    2    1    2    0    0  0.00000000000E+00  0.00000000000E+00 -0.10915523850E+04  0.33807024820E+04  0.31996347702E+04 0.  0.
        4    1    3    3  502    0  0.12156900187E+04  0.13952333019E+03  0.54309878761E+03  0.13387781322E+04  0.12699999809E+01 0.  1.
       -4    1    3    3    0  502 -0.12156900187E+04 -0.13952333019E+03 -0.16346511726E+04  0.20419243498E+04  0.12699999809E+01 0. -1.
</event>
<event>
 5   0  0.3283581E-08  0.3202114E+04  0.7818609E-02  0.8188259E-01
        1   -1    0    0  501    0  0.00000000000E+00  0.00000000000E+00  0.18630941767E+04  0.18630941767E+04  0.50400001928E-02 0.  1.
       -1   -1    0    0    0  501  0.00000000000E+00  0.00000000000E+00 -0.13758740236E+04  0.13758740236E+04  0.50400001928E-02 0. -1.
    10030    2    1    2    0    0  0.00000000000E+00  0.00000000000E+00  0.48722015316E+03  0.32389682003E+04  0.32021136027E+04 0.  0.
        5    1    3    3  502    0 -0.65368804686E+03 -0.38464175494E+03 -0.11826194987E+04  0.14049442377E+04  0.46999998093E+01 0. -1.
       -5    1    3    3    0  502  0.65368804686E+03  0.38464175494E+03  0.16698396519E+04  0.18340239626E+04  0.46999998093E+01 0.  1.
</event>
<event>
 5   0  0.9727083E-08  0.3201833E+04  0.7818609E-02  0.8188333E-01
        2   -1    0    0  501    0  0.00000000000E+00  0.00000000000E+00  0.94966376609E+03  0.94966376609E+03  0.25500000920E-02 0.  1.
       -2   -1    0    0    0  501  0.00000000000E+00  0.00000000000E+00 -0.26987792854E+04  0.26987792854E+04  0.25500000920E-02 0. -1.
    10030    2    1    2    0    0  0.00000000000E+00  0.00000000000E+00 -0.17491155193E+04  0.36484430515E+04  0.32018325378E+04 0.  0.
        4    1    3    3  502    0 -0.10970259375E+04  0.52116528047E+03 -0.20630432698E+04  0.23939983925E+04  0.12699999809E+01 0. -1.
       -4    1    3    3    0  502  0.10970259375E+04 -0.52116528047E+03  0.31392775053E+03  0.12544446590E+04  0.12699999809E+01 0.  1.
</event>
<event>
 5   0  0.3270966E-08  0.3198564E+04  0.7818609E-02  0.8189197E-01
       -1   -1    0    0    0  501  0.00000000000E+00  0.00000000000E+00  0.16202634831E+04  0.16202634831E+04  0.50400001928E-02 0.  1.
        1   -1    0    0  501    0  0.00000000000E+00  0.00000000000E+00 -0.15785719298E+04  0.15785719298E+04  0.50400001928E-02 0. -1.
    10030    2    1    2    0    0  0.00000000000E+00  0.00000000000E+00  0.41691553347E+02  0.31988354129E+04  0.31985637110E+04 0.  0.
        3    1    3    3  502    0 -0.91024394842E+03 -0.12875325535E+04  0.28811054240E+03  0.16029010627E+04  0.10100000352E+00 0.  1.
       -3    1    3    3    0  502  0.91024394842E+03  0.12875325535E+04 -0.24641898905E+03  0.15959343502E+04  0.10100000352E+00 0. -1.
</event>
<event>
 5   0  0.9353994E-08  0.3199765E+04  0.7818609E-02  0.8188879E-01
       -2   -1    0    0    0  501  0.00000000000E+00  0.00000000000E+00  0.10866120133E+04  0.10866120133E+04  0.25500000920E-02 0.  1.
        2   -1    0    0  501    0  0.00000000000E+00  0.00000000000E+00 -0.23556009520E+04  0.23556009520E+04  0.25500000920E-02 0. -1.
    10030    2    1    2    0    0  0.00000000000E+00  0.00000000000E+00 -0.12689889387E+04  0.34422129653E+04  0.31997651744E+04 0.  0.
        2    1    3    3  502    0 -0.12835478426E+04  0.45347312514E+03 -0.15387122738E+04  0.20544508758E+04  0.25500000920E-02 0. -1.
       -2    1    3    3    0  502  0.12835478426E+04 -0.45347312514E+03  0.26972333505E+03  0.13877620895E+04  0.25500000920E-02 0.  1.
</event>
<event>
 5   0  0.9329929E-08  0.3200150E+04  0.7818609E-02  0.8188778E-01
       -2   -1    0    0    0  501  0.00000000000E+00  0.00000000000E+00  0.12827863000E+04  0.12827863000E+04  0.25500000920E-02 0.  1.
        2   -1    0    0  501    0  0.00000000000E+00  0.00000000000E+00 -0.19958432093E+04  0.19958432093E+04  0.25500000920E-02 0. -1.
    10030    2    1    2    0    0  0.00000000000E+00  0.00000000000E+00 -0.71305690935E+03  0.32786295093E+04  0.32001502001E+04 0.  0.
        1    1    3    3  502    0 -0.46566513120E+03  0.15294018009E+04 -0.42391721323E+03  0.16539708845E+04  0.50400001928E-02 0.  1.
       -1    1    3    3    0  502  0.46566513120E+03 -0.15294018009E+04 -0.28913969612E+03  0.16246586248E+04  0.50400001928E-02 0. -1.
</event>
<event>
 5   0  0.3220147E-08  0.3199185E+04  0.7818609E-02  0.8189032E-01
        1   -1    0    0  501    0  0.00000000000E+00  0.00000000000E+00  0.19963770283E+04  0.19963770283E+04  0.50400001928E-02 0. -1.
       -1   -1    0    0    0  501  0.00000000000E+00  0.00000000000E+00 -0.12816698933E+04  0.12816698933E+04  0.50400001928E-02 0.  1.
    10030    2    1    2    0    0  0.00000000000E+00  0.00000000000E+00  0.71470713505E+03  0.32780469216E+04  0.31991851043E+04 0.  0.
        4    1    3    3  502    0  0.59044851917E+02  0.15649015839E+04  0.23293181200E+02  0.15661888287E+04  0.12699999809E+01 0.  1.
       -4    1    3    3    0  502 -0.59044851917E+02 -0.15649015839E+04  0.69141395385E+03  0.17118580930E+04  0.12699999809E+01 0. -1.
</event>
<event>
 5   0  0.9329929E-08  0.3200680E+04  0.7818609E-02  0.8188638E-01
        2   -1    0    0  501    0  0.00000000000E+00  0.00000000000E+00  0.13656552100E+04  0.13656552100E+04  0.25500000920E-02 0. -1.
       -2   -1    0    0    0  501  0.00000000000E+00  0.00000000000E+00 -0.18753546774E+04  0.18753546774E+04  0.25500000920E-02 0.  1.
    10030    2    1    2    0    0  0.00000000000E+00  0.00000000000E+00 -0.50969946742E+03  0.32410098874E+04  0.32006798564E+04 0.  0.
        1    1    3    3  502    0  0.10161181694E+03 -0.15580956157E+04 -0.61012818673E+03  0.16763780341E+04  0.50400001928E-02 0.  1.
       -1    1    3    3    0  502 -0.10161181694E+03  0.15580956157E+04  0.10042871931E+03  0.15646318534E+04  0.50400001928E-02 0. -1.
</event>
<event>
 5   0  0.3427667E-08  0.3199998E+04  0.7818609E-02  0.8188818E-01
       -1   -1    0    0    0  501  0.00000000000E+00  0.00000000000E+00  0.10690735575E+04  0.10690735575E+04  0.50400001928E-02 0.  1.
        1   -1    0    0  501    0  0.00000000000E+00  0.00000000000E+00 -0.23945933835E+04  0.23945933835E+04  0.50400001928E-02 0. -1.
    10030    2    1    2    0    0  0.00000000000E+00  0.00000000000E+00 -0.13255198260E+04  0.34636669410E+04  0.31999977920E+04 0.  0.
        2    1    3    3  502    0 -0.25750228384E+03 -0.74907022952E+03 -0.21674792583E+04  0.23076784806E+04  0.25500000920E-02 0. -1.
       -2    1    3    3    0  502  0.25750228384E+03  0.74907022952E+03  0.84195943222E+03  0.11559884603E+04  0.25500000920E-02 0.  1.
</event>
<event>
 5   0  0.9727083E-08  0.3200495E+04  0.7818609E-02  0.8188686E-01
       -2   -1    0    0    0  501  0.00000000000E+00  0.00000000000E+00  0.12143238888E+04  0.12143238888E+04  0.25500000920E-02 0. -1.
        2   -1    0    0  501    0  0.00000000000E+00  0.00000000000E+00 -0.21088211006E+04  0.21088211006E+04  0.25500000920E-02 0.  1.
    10030    2    1    2    0    0  0.00000000000E+00  0.00000000000E+00 -0.89449721179E+03  0.33231449895E+04  0.32004948616E+04 0.  0.
        4    1    3    3  502    0  0.84567811858E+03  0.11024292213E+04  0.37706976190E+03  0.14396891632E+04  0.12699999809E+01 0. -1.
       -4    1    3    3    0  502 -0.84567811858E+03 -0.11024292213E+04 -0.12715669737E+04  0.18834558263E+04  0.12699999809E+01 0.  1.
</event>
<event>
 5   0  0.9707721E-08  0.3202951E+04  0.7818609E-02  0.8188038E-01
        2   -1    0    0  501    0  0.00000000000E+00  0.00000000000E+00  0.25671532546E+04  0.25671532546E+04  0.25500000920E-02 0.  1.
       -2   -1    0    0    0  501  0.00000000000E+00  0.00000000000E+00 -0.99905388763E+03  0.99905388763E+03  0.25500000920E-02 0. -1.
    10030    2    1    2    0    0  0.00000000000E+00  0.00000000000E+00  0.15680993670E+04  0.35662071423E+04  0.32029514134E+04 0.  0.
        3    1    3    3  502    0 -0.45144661110E+02  0.11936563987E+04 -0.40363919347E+03  0.12608640876E+04  0.10100000352E+00 0. -1.
       -3    1    3    3    0  502  0.45144661110E+02 -0.11936563987E+04  0.19717385605E+04  0.23053430547E+04  0.10100000352E+00 0.  1.
</event>
<event>
 5   0  0.3427667E-08  0.3199782E+04  0.7818609E-02  0.8188875E-01
        1   -1    0    0  501    0  0.00000000000E+00  0.00000000000E+00  0.19875913141E+04  0.19875913141E+04  0.50400001928E-02 0.  1.
       -1   -1    0    0    0  501  0.00000000000E+00  0.00000000000E+00 -0.12878153874E+04  0.12878153874E+04  0.50400001928E-02 0. -1.
    10030    2    1    2    0    0  0.00000000000E+00  0.00000000000E+00  0.69977592664E+03  0.32754067015E+04  0.31997816664E+04 0.  0.
        2    1    3    3  502    0  0.83241607602E+03 -0.90330845006E+03  0.13991846619E+04  0.18618808763E+04  0.25500000920E-02 0.  1.
       -2    1    3    3    0  502 -0.83241607602E+03  0.90330845006E+03 -0.69940873523E+03  0.14135258252E+04  0.25500000920E-02 0. -1.
</event>
<event>
 5   0  0.3220147E-08  0.3199813E+04  0.7818609E-02  0.8188866E-01
        1   -1    0    0  501    0  0.00000000000E+00  0.00000000000E+00  0.18215337501E+04  0.18215337502E+04  0.50400001928E-02 0. -1.
       -1   -1    0    0    0  501  0.00000000000E+00  0.00000000000E+00 -0.14052451594E+04  0.14052451594E+04  0.50400001928E-02 0.  1.
    10030    2    1    2    0    0  0.00000000000E+00  0.00000000000E+00  0.41628859078E+03  0.32267789095E+04  0.31998134227E+04 0.  0.
        4    1    3    3  502    0  0.32126887549E+03 -0.74111436799E+03 -0.11845209403E+04  0.14337209170E+04  0.12699999809E+01 0.  1.
       -4    1    3    3    0  502 -0.32126887549E+03  0.74111436799E+03  0.16008095311E+04  0.17930579925E+04  0.12699999809E+01 0. -1.
</event>
<event>
 5   0  0.3270966E-08  0.3200159E+04  0.7818609E-02  0.8188775E-01
       -1   -1    0    0    0  501  0.00000000000E+00  0.00000000000E+00  0.14355701351E+04  0.14355701351E+04  0.50400001928E-02 0. -1.
        1   -1    0    0  501    0  0.00000000000E+00  0.00000000000E+00 -0.17834407659E+04  0.17834407659E+04  0.50400001928E-02 0.  1.
    10030    2    1    2    0    0  0.00000000000E+00  0.00000000000E+00 -0.34787063079E+03  0.32190109010E+04  0.32001589344E+04 0.  0.
        3    1    3    3  502    0  0.12619811913E+04  0.62019631480E+03 -0.94198709762E+03  0.16925069271E+04  0.10100000352E+00 0.  1.
       -3    1    3    3    0  502 -0.12619811913E+04 -0.62019631480E+03  0.59411646684E+03  0.15265039739E+04  0.10100000352E+00 0. -1.
</event>
<event>
 5   0  0.3270966E-08  0.3201327E+04  0.7818609E-02  0.8188467E-01
        1   -1    0    0  501    0  0.00000000000E+00  0.00000000000E+00  0.24344234774E+04  0.24344234774E+04  0.50400001928E-02 0.  1.
       -1   -1    0    0    0  501  0.00000000000E+00  0.00000000000E+00 -0.10524559552E+04  0.10524559552E+04  0.50400001928E-02 0. -1.
    10030    2    1    2    0    0  0.00000000000E+00  0.00000000000E+00  0.13819675222E+04  0.34868794326E+04  0.32013269038E+04 0.  0.
        3    1    3    3  502    0 -0.97644959987E+02  0.21402660006E+01 -0.10492073988E+04  0.10537434673E+04  0.10100000352E+00 0. -1.
       -3    1    3    3    0  502  0.97644959987E+02 -0.21402660006E+01  0.24311749210E+04  0.24331359653E+04  0.10100000352E+00 0.  1.
</event>
<event>
 5   0  0.9329929E-08  0.3199930E+04  0.7818609E-02  0.8188836E-01
        2   -1    0    0  501    0  0.00000000000E+00  0.00000000000E+00  0.15457199882E+04  0.15457199882E+04  0.25500000920E-02 0. -1.
       -2   -1    0    0    0  501  0.00000000000E+00  0.00000000000E+00 -0.16561136469E+04  0.16561136469E+04  0.25500000920E-02 0.  1.
    10030    2    1    2    0    0  0.00000000000E+00  0.00000000000E+00 -0.11039365866E+03  0.32018336351E+04  0.31999299785E+04 0.  0.
        1    1    3    3  502    0 -0.32550391914E+03 -0.13913555428E+04 -0.77539229023E+03  0.16257479053E+04  0.50400001928E-02 0.  1.
       -1    1    3    3    0  502  0.32550391914E+03  0.13913555428E+04  0.66499863157E+03  0.15760857298E+04  0.50400001928E-02 0. -1.
</event>
<event>
 5   0  0.9157524E-08  0.3199530E+04  0.7818609E-02  0.8188941E-01
        2   -1    0    0  501    0  0.00000000000E+00  0.00000000000E+00  0.13028401511E+04  0.13028401511E+04  0.25500000920E-02 0.  1.
       -2   -1    0    0    0  501  0.00000000000E+00  0.00000000000E+00 -0.19643603815E+04  0.19643603815E+04  0.25500000920E-02 0. -1.
    10030    2    1    2    0    0  0.00000000000E+00  0.00000000000E+00 -0.66152023040E+03  0.32672005326E+04  0.31995297006E+04 0.  0.
        5    1    3    3  502    0 -0.28199034695E+03 -0.25388003168E+03  0.12562177079E+04  0.13122799419E+04  0.46999998093E+01 0.  1.
       -5    1    3    3    0  502  0.28199034695E+03  0.25388003168E+03 -0.19177379383E+04  0.19549205907E+04  0.46999998093E+01 0. -1.
</event>
<event>
 5   0  0.9353994E-08  0.3190030E+04  0.7818609E-02  0.8191455E-01
        2   -1    0    0  501    0  0.00000000000E+00  0.00000000000E+00  0.13386350132E+04  0.13386350132E+04  0.25500000920E-02 0.  1.
       -2   -1    0    0    0  501  0.00000000000E+00  0.00000000000E+00 -0.19004982951E+04  0.19004982951E+04  0.25500000920E-02 0. -1.
    10030    2    1    2    0    0  0.00000000000E+00  0.00000000000E+00 -0.56186328184E+03  0.32391333083E+04  0.31900304452E+04 0.  0.
        2    1    3    3  502    0 -0.36640260704E+02 -0.14235133744E+04 -0.10105608034E+04  0.17461288536E+04  0.25500000920E-02 0. -1.
       -2    1    3    3    0  502  0.36640260704E+02  0.14235133744E+04  0.44869752156E+03  0.14930044547E+04  0.25500000920E-02 0.  1.
</event>
<event>
 5   0  0.3343140E-08  0.3199920E+04  0.7818609E-02  0.8188838E-01
        1   -1    0    0  501    0  0.00000000000E+00  0.00000000000E+00  0.13198894996E+04  0.13198894996E+04  0.50400001928E-02 0. -1.
       -1   -1    0    0    0  501  0.00000000000E+00  0.00000000000E+00 -0.19394591181E+04  0.19394591181E+04  0.50400001928E-02 0.  1.
    10030    2    1    2    0    0  0.00000000000E+00  0.00000000000E+00 -0.61956961847E+03  0.32593486177E+04  0.31999198271E+04 0.  0.
        1    1    3    3  502    0 -0.72361225632E+03 -0.13447015795E+04 -0.79618325297E+03  0.17221337950E+04  0.50400001928E-02 0.  1.
       -1    1    3    3    0  502  0.72361225632E+03  0.13447015795E+04  0.17661363451E+03  0.15372148228E+04  0.50400001928E-02 0. -1.
</event>
<event>
 5   0  0.9353994E-08  0.3198297E+04  0.7818609E-02  0.8189267E-01
       -2   -1    0    0    0  501  0.00000000000E+00  0.00000000000E+00  0.15909575178E+04  0.15909575178E+04  0.25500000920E-02 0.  1.
        2   -1    0    0  501    0  0.00000000000E+00  0.00000000000E+00 -0.16073820252E+04  0.16073820252E+04  0.25500000920E-02 0. -1.
    10030    2    1    2    0    0  0.00000000000E+00  0.00000000000E+00 -0.16424507435E+02  0.31983395430E+04  0.31982973702E+04 0.  0.
        2    1    3    3  502    0 -0.70794987769E+03  0.69628619011E+03 -0.12617314865E+04  0.16056069980E+04  0.25500000920E-02 0. -1.
       -2    1    3    3    0  502  0.70794987769E+03 -0.69628619011E+03  0.12453069791E+04  0.15927325451E+04  0.25500000920E-02 0.  1.
</event>
<event>
 5   0  0.3343140E-08  0.3199348E+04  0.7818609E-02  0.8188989E-01
       -1   -1    0    0    0  501  0.00000000000E+00  0.00000000000E+00  0.11370434148E+04  0.11370434148E+04  0.50400001928E-02 0. -1.
        1   -1    0    0  501    0  0.00000000000E+00  0.00000000000E+00 -0.22505362229E+04  0.22505362229E+04  0.50400001928E-02 0.  1.
    10030    2    1    2    0    0  0.00000000000E+00  0.00000000000E+00 -0.11134928080E+04  0.33875796377E+04  0.31993483037E+04 0.  0.
        1    1    3    3  502    0 -0.14385621391E+04  0.52373142598E+03 -0.10479379658E+04  0.18552438155E+04  0.50400001928E-02 0.  1.
       -1    1    3    3    0  502  0.14385621391E+04 -0.52373142598E+03 -0.65554842209E+02  0.15323358222E+04  0.50400001928E-02 0. -1.
</event>
<event>
 5   0  0.3283581E-08  0.3200528E+04  0.7818609E-02  0.8188678E-01
       -1   -1    0    0    0  501  0.00000000000E+00  0.00000000000E+00  0.18719964027E+04  0.18719964027E+04  0.50400001928E-02 0. -1.
        1   -1    0    0  501    0  0.00000000000E+00  0.00000000000E+00 -0.13679751930E+04  0.13679751930E+04  0.50400001928E-02 0.  1.
    10030    2    1    2    0    0  0.00000000000E+00  0.00000000000E+00  0.50402120976E+03  0.32399715957E+04  0.32005278566E+04 0.  0.
        5    1    3    3  502    0 -0.75425312551E+03  0.13937853843E+04  0.27267634867E+02  0.15850240026E+04  0.46999998093E+01 0.  1.
       -5    1    3    3    0  502  0.75425312551E+03 -0.13937853843E+04  0.47675357490E+03  0.16549475931E+04  0.46999998093E+01 0. -1.
</event>
<event>
 5   0  0.9727083E-08  0.3200970E+04  0.7818609E-02  0.8188561E-01
       -2   -1    0    0    0  501  0.00000000000E+00  0.00000000000E+00  0.11513151431E+04  0.11513151431E+04  0.25500000920E-02 0. -1.
        2   -1    0    0  501    0  0.00000000000E+00  0.00000000000E+00 -0.22248927729E+04  0.22248927729E+04  0.25500000920E-02 0.  1.
    10030    2    1    2    0    0  0.00000000000E+00  0.00000000000E+00 -0.10735776298E+04  0.33762079160E+04  0.32009703162E+04 0.  0.
        4    1    3    3  502    0 -0.11210974234E+03  0.10820032972E+03  0.11432964630E+04  0.11538649492E+04  0.12699999809E+01 0. -1.
       -4    1    3    3    0  502  0.11210974234E+03 -0.10820032972E+03 -0.22168740929E+04  0.22223429668E+04  0.12699999809E+01 0.  1.
</event>
<event>
 5   0  0.3270966E-08  0.3200599E+04  0.7818609E-02  0.8188659E-01
        1   -1    0    0  501    0  0.00000000000E+00  0.00000000000E+00  0.21226034102E+04  0.21226034102E+04  0.50400001928E-02 0.  1.
       -1   -1    0    0    0  501  0.00000000000E+00  0.00000000000E+00 -0.12065177646E+04  0.12065177646E+04  0.50400001928E-02 0. -1.
    10030    2    1    2    0    0  0.00000000000E+00  0.00000000000E+00  0.91608564562E+03  0.33291211748E+04  0.32005991449E+04 0.  0.
        3    1    3    3  502    0 -0.11786609550E+04  0.27603594883E+03 -0.63065841126E+03  0.13649789499E+04  0.10100000352E+00 0. -1.
       -3    1    3    3    0  502  0.11786609550E+04 -0.27603594883E+03  0.15467440569E+04  0.19641422249E+04  0.10100000352E+00 0.  1.
</event>
<event>
 5   0  0.3080500E-08  0.3200269E+04  0.7818609E-02  0.8188746E-01
        3   -1    0    0  501    0  0.00000000000E+00  0.00000000000E+00  0.19538821901E+04  0.19538821927E+04  0.10100000352E+00 0.  1.
       -3   -1    0    0    0  501  0.00000000000E+00  0.00000000000E+00 -0.13104325671E+04  0.13104325710E+04  0.10100000352E+00 0. -1.
    10030    2    1    2    0    0  0.00000000000E+00  0.00000000000E+00  0.64344962299E+03  0.32643147637E+04  0.32002692792E+04 0.  0.
        5    1    3    3  502    0  0.61395577719E+03  0.86908386279E+03 -0.89724791179E+03  0.13918779983E+04  0.46999998093E+01 0. -1.
       -5    1    3    3    0  502 -0.61395577719E+03 -0.86908386279E+03  0.15406975348E+04  0.18724367654E+04  0.46999998093E+01 0.  1.
</event>
<event>
 5   0  0.3343140E-08  0.3197942E+04  0.7818609E-02  0.8189361E-01
        1   -1    0    0  501    0  0.00000000000E+00  0.00000000000E+00  0.22377431111E+04  0.22377431111E+04  0.50400001928E-02 0. -1.
       -1   -1    0    0    0  501  0.00000000000E+00  0.00000000000E+00 -0.11425385274E+04  0.11425385274E+04  0.50400001928E-02 0.  1.
    10030    2    1    2    0    0  0.00000000000E+00  0.00000000000E+00  0.10952045837E+04  0.33802816385E+04  0.31979416623E+04 0.  0.
        1    1    3    3  502    0 -0.68831756576E+03 -0.30999142227E+03 -0.94231760091E+03  0.12074097127E+04  0.50400001928E-02 0.  1.
       -1    1    3    3    0  502  0.68831756576E+03  0.30999142227E+03  0.20375221847E+04  0.21728719259E+04  0.50400001928E-02 0. -1.
</event>
<event>
 5   0  0.3427667E-08  0.3200737E+04  0.7818609E-02  0.8188623E-01
       -1   -1    0    0    0  501  0.00000000000E+00  0.00000000000E+00  0.28413081018E+04  0.28413081018E+04  0.50400001928E-02 0. -1.
        1   -1    0    0  501    0  0.00000000000E+00  0.00000000000E+00 -0.90140847715E+03  0.90140847717E+03  0.50400001928E-02 0.  1.
    10030    2    1    2    0    0  0.00000000000E+00  0.00000000000E+00  0.19398996246E+04  0.37427165789E+04  0.32007369209E+04 0.  0.
        2    1    3    3  502    0  0.14771663345E+04  0.48688490616E+03  0.14107450874E+04  0.20998283247E+04  0.25500000920E-02 0. -1.
       -2    1    3    3    0  502 -0.14771663345E+04 -0.48688490616E+03  0.52915453716E+03  0.16428882542E+04  0.25500000920E-02 0.  1.
</event>
<event>
 5   0  0.3220147E-08  0.3197564E+04  0.7818609E-02  0.8189461E-01
       -1   -1    0    0    0  501  0.00000000000E+00  0.00000000000E+00  0.15894477049E+04  0.15894477049E+04  0.50400001928E-02 0. -1.
        1   -1    0    0  501    0  0.00000000000E+00  0.00000000000E+00 -0.16081707646E+04  0.16081707646E+04  0.50400001928E-02 0.  1.
    10030    2    1    2    0    0  0.00000000000E+00  0.00000000000E+00 -0.18723059698E+02  0.31976184694E+04  0.31975636543E+04 0.  0.
        4    1    3    3  502    0 -0.15783246602E+04  0.97511729118E+01 -0.26411655832E+03  0.16003009054E+04  0.12699999809E+01 0.  1.
       -4    1    3    3    0  502  0.15783246602E+04 -0.97511729118E+01  0.24539349862E+03  0.15973175641E+04  0.12699999809E+01 0. -1.
</event>
<event>
 5   0  0.3080500E-08  0.3199650E+04  0.7818609E-02  0.8188909E-01
        3   -1    0    0  501    0  0.00000000000E+00  0.00000000000E+00  0.19531481844E+04  0.19531481870E+04  0.10100000352E+00 0.  1.
       -3   -1    0    0    0  501  0.00000000000E+00  0.00000000000E+00 -0.13104181200E+04  0.13104181239E+04  0.10100000352E+00 0. -1.
    10030    2    1    2    0    0  0.00000000000E+00  0.00000000000E+00  0.64273006438E+03  0.32635663109E+04  0.31996504699E+04 0.  0.
        4    1    3    3  502    0 -0.78437695381E+03 -0.10522203951E+04 -0.61180097693E+03  0.14480044937E+04  0.12699999809E+01 0. -1.
       -4    1    3    3    0  502  0.78437695381E+03  0.10522203951E+04  0.12545310413E+04  0.18155618172E+04  0.12699999809E+01 0.  1.
</event>
<event>
 5   0  0.9329929E-08  0.3199613E+04  0.7818609E-02  0.8188919E-01
        2   -1    0    0  501    0  0.00000000000E+00  0.00000000000E+00  0.22290540415E+04  0.22290540415E+04  0.25500000920E-02 0.  1.
       -2   -1    0    0    0  501  0.00000000000E+00  0.00000000000E+00 -0.11481917117E+04  0.11481917117E+04  0.25500000920E-02 0. -1.
    10030    2    1    2    0    0  0.00000000000E+00  0.00000000000E+00  0.10808623298E+04  0.33772457532E+04  0.31996133363E+04 0.  0.
        1    1    3    3  502    0 -0.99278572279E+03  0.95218849188E+03  0.14025338459E+04  0.19645324137E+04  0.50400001928E-02 0.  1.
       -1    1    3    3    0  502  0.99278572279E+03 -0.95218849188E+03 -0.32167151611E+03  0.14127133395E+04  0.50400001928E-02 0. -1.
</event>
<event>
 5   0  0.3427667E-08  0.3197103E+04  0.7818609E-02  0.8189583E-01
        1   -1    0    0  501    0  0.00000000000E+00  0.00000000000E+00  0.17697867249E+04  0.17697867249E+04  0.50400001928E-02 0. -1.
       -1   -1    0    0    0  501  0.00000000000E+00  0.00000000000E+00 -0.14438841825E+04  0.14438841825E+04  0.50400001928E-02 0.  1.
    10030    2    1    2    0    0  0.00000000000E+00  0.00000000000E+00  0.32590254242E+03  0.32136709075E+04  0.31971031004E+04 0.  0.
        2    1    3    3  502    0 -0.35013387934E+03  0.37935543222E+03 -0.13577875693E+04  0.14526153519E+04  0.25500000920E-02 0.  1.
       -2    1    3    3    0  502  0.35013387934E+03 -0.37935543222E+03  0.16836901117E+04  0.17610555555E+04  0.25500000920E-02 0. -1.
</event>
<event>
 5   0  0.9707721E-08  0.3199925E+04  0.7818609E-02  0.8188837E-01
       -2   -1    0    0    0  501  0.00000000000E+00  0.00000000000E+00  0.12935067606E+04  0.12935067606E+04  0.25500000920E-02 0.  1.
        2   -1    0    0  501    0  0.00000000000E+00  0.00000000000E+00 -0.19790229160E+04  0.19790229160E+04  0.25500000920E-02 0. -1.
    10030    2    1    2    0    0  0.00000000000E+00  0.00000000000E+00 -0.68551615536E+03  0.32725296766E+04  0.31999246999E+04 0.  0.
        3    1    3    3  502    0 -0.77448876321E+03  0.13827335645E+04 -0.11847743283E+03  0.15892834445E+04  0.10100000352E+00 0.  1.
       -3    1    3    3    0  502  0.77448876321E+03 -0.13827335645E+04 -0.56703872253E+03  0.16832462321E+04  0.10100000352E+00 0. -1.
</event>
<event>
 5   0  0.3220147E-08  0.3198747E+04  0.7818609E-02  0.8189148E-01
        1   -1    0    0  501    0  0.00000000000E+00  0.00000000000E+00  0.23673434228E+04  0.23673434228E+04  0.50400001928E-02 0.  1.
       -1   -1    0    0    0  501  0.00000000000E+00  0.00000000000E+00 -0.10805344075E+04  0.10805344075E+04  0.50400001928E-02 0. -1.
    10030    2    1    2    0    0  0.00000000000E+00  0.00000000000E+00  0.12868090153E+04  0.34478778302E+04  0.31987472689E+04 0.  0.
        4    1    3    3  502    0  0.12027528806E+04 -0.41206541363E+03  0.16893306489E+04  0.21142970583E+04  0.12699999809E+01 0.  1.
       -4    1    3    3    0  502 -0.12027528806E+04  0.41206541363E+03 -0.40252163356E+03  0.13335807719E+04  0.12699999809E+01 0. -1.
</event>
<event>
 5   0  0.9329929E-08  0.3203864E+04  0.7818609E-02  0.8187797E-01
       -2   -1    0    0    0  501  0.00000000000E+00  0.00000000000E+00  0.13227406672E+04  0.13227406673E+04  0.25500000920E-02 0.  1.
        2   -1    0    0  501    0  0.00000000000E+00  0.00000000000E+00 -0.19400528409E+04  0.19400528409E+04  0.25500000920E-02 0. -1.
    10030    2    1    2    0    0  0.00000000000E+00  0.00000000000E+00 -0.61731217362E+03  0.32627935081E+04  0.32038644099E+04 0.  0.
        1    1    3    3  502    0 -0.14202674473E+04  0.28713997993E+03 -0.10042847946E+04  0.17630079236E+04  0.50400001928E-02 0. -1.
       -1    1    3    3    0  502  0.14202674473E+04 -0.28713997993E+03  0.38697262103E+03  0.14997855845E+04  0.50400001928E-02 0.  1.
</event>
<event>
 5   0  0.3270966E-08  0.3199796E+04  0.7818609E-02  0.8188871E-01
       -1   -1    0    0    0  501  0.00000000000E+00  0.00000000000E+00  0.11464821770E+04  0.11464821771E+04  0.50400001928E-02 0.  1.
        1   -1    0    0  501    0  0.00000000000E+00  0.00000000000E+00 -0.22326321145E+04  0.22326321145E+04  0.50400001928E-02 0. -1.
    10030    2    1    2    0    0  0.00000000000E+00  0.00000000000E+00 -0.10861499374E+04  0.33791142915E+04  0.31997955730E+04 0.  0.
        3    1    3    3  502    0 -0.22794220402E+02 -0.15734236667E+04 -0.23793347081E+03  0.15914754030E+04  0.10100000352E+00 0.  1.
       -3    1    3    3    0  502  0.22794220402E+02  0.15734236667E+04 -0.84821646664E+03  0.17876388886E+04  0.10100000352E+00 0. -1.
</event>
<event>
 5   0  0.9727083E-08  0.3200074E+04  0.7818609E-02  0.8188798E-01
       -2   -1    0    0    0  501  0.00000000000E+00  0.00000000000E+00  0.16191442608E+04  0.16191442608E+04  0.25500000920E-02 0. -1.
        2   -1    0    0  501    0  0.00000000000E+00  0.00000000000E+00 -0.15811548281E+04  0.15811548281E+04  0.25500000920E-02 0.  1.
    10030    2    1    2    0    0  0.00000000000E+00  0.00000000000E+00  0.37989432664E+02  0.32002990889E+04  0.32000736025E+04 0.  0.
        4    1    3    3  502    0 -0.96861502717E+03  0.82326969069E+03 -0.95273629306E+03  0.15886145258E+04  0.12699999809E+01 0.  1.
       -4    1    3    3    0  502  0.96861502717E+03 -0.82326969069E+03  0.99072572573E+03  0.16116845631E+04  0.12699999809E+01 0. -1.
</event>
<event>
 5   0  0.9727083E-08  0.3202410E+04  0.7818609E-02  0.8188181E-01
       -2   -1    0    0    0  501  0.00000000000E+00  0.00000000000E+00  0.15922696381E+04  0.15922696382E+04  0.25500000920E-02 0.  1.
        2   -1    0    0  501    0  0.00000000000E+00  0.00000000000E+00 -0.16101909845E+04  0.16101909845E+04  0.25500000920E-02 0. -1.
    10030    2    1    2    0    0  0.00000000000E+00  0.00000000000E+00 -0.17921346313E+02  0.32024606226E+04  0.32024104772E+04 0.  0.
        4    1    3    3  502    0  0.50315841966E+03  0.59031204228E+03  0.13918538587E+04  0.15933911884E+04  0.12699999809E+01 0.  1.
       -4    1    3    3    0  502 -0.50315841966E+03 -0.59031204228E+03 -0.14097752050E+04  0.16090694342E+04  0.12699999809E+01 0. -1.
</event>
<event>
 5   0  0.9157524E-08  0.3199491E+04  0.7818609E-02  0.8188952E-01
        2   -1    0    0  501    0  0.00000000000E+00  0.00000000000E+00  0.13128393993E+04  0.13128393993E+04  0.25500000920E-02 0. -1.
       -2   -1    0    0    0  501  0.00000000000E+00  0.00000000000E+00 -0.19493520658E+04  0.19493520658E+04  0.25500000920E-02 0.  1.
    10030    2    1    2    0    0  0.00000000000E+00  0.00000000000E+00 -0.63651266650E+03  0.32621914651E+04  0.31994913315E+04 0.  0.
        5    1    3    3  502    0  0.65484419733E+03  0.10569383001E+04 -0.13445729833E+04  0.18313487081E+04  0.46999998093E+01 0.  1.
       -5    1    3    3    0  502 -0.65484419733E+03 -0.10569383001E+04  0.70806031684E+03  0.14308427570E+04  0.46999998093E+01 0. -1.
</event>
<event>
 5   0  0.9353994E-08  0.3191241E+04  0.7818609E-02  0.8191134E-01
        2   -1    0    0  501    0  0.00000000000E+00  0.00000000000E+00  0.96852756470E+03  0.96852756470E+03  0.25500000920E-02 0.  1.
       -2   -1    0    0    0  501  0.00000000000E+00  0.00000000000E+00 -0.26287372434E+04  0.26287372434E+04  0.25500000920E-02 0. -1.
    10030    2    1    2    0    0  0.00000000000E+00  0.00000000000E+00 -0.16602096787E+04  0.35972648081E+04  0.31912408124E+04 0.  0.
        2    1    3    3  502    0  0.87599541504E+03  0.67344985874E+03  0.46748505240E+03  0.11997687084E+04  0.25500000920E-02 0. -1.
       -2    1    3    3    0  502 -0.87599541504E+03 -0.67344985874E+03 -0.21276947311E+04  0.23974960997E+04  0.25500000920E-02 0.  1.
</event>
<event>
 5   0  0.9707721E-08  0.3201468E+04  0.7818609E-02  0.8188430E-01
       -2   -1    0    0    0  501  0.00000000000E+00  0.00000000000E+00  0.11711650406E+04  0.11711650406E+04  0.25500000920E-02 0. -1.
        2   -1    0    0  501    0  0.00000000000E+00  0.00000000000E+00 -0.21878631018E+04  0.21878631018E+04  0.25500000920E-02 0.  1.
    10030    2    1    2    0    0  0.00000000000E+00  0.00000000000E+00 -0.10166980612E+04  0.33590281423E+04  0.32014676499E+04 0.  0.
        3    1    3    3  502    0 -0.13677162224E+04  0.48344182058E+03  0.20170304881E+03  0.14645981664E+04  0.10100000352E+00 0. -1.
       -3    1    3    3    0  502  0.13677162224E+04 -0.48344182058E+03 -0.12184011100E+04  0.18944299760E+04  0.10100000352E+00 0.  1.
</event>
<event>
 5   0  0.9707721E-08  0.3200269E+04  0.7818609E-02  0.8188746E-01
        2   -1    0    0  501    0  0.00000000000E+00  0.00000000000E+00  0.21637472661E+04  0.21637472661E+04  0.25500000920E-02 0.  1.
       -2   -1    0    0    0  501  0.00000000000E+00  0.00000000000E+00 -0.11833314080E+04  0.11833314080E+04  0.25500000920E-02 0. -1.
    10030    2    1    2    0    0  0.00000000000E+00  0.00000000000E+00  0.98041585804E+03  0.33470786741E+04  0.32002688006E+04 0.  0.
        3    1    3    3  502    0  0.70331715587E+03  0.93034384301E+03 -0.65560225810E+03  0.13379121866E+04  0.10100000352E+00 0. -1.
       -3    1    3    3    0  502 -0.70331715587E+03 -0.93034384301E+03  0.16360181161E+04  0.20091664875E+04  0.10100000352E+00 0.  1.
</event>
<event>
 5   0  0.9353994E-08  0.3200826E+04  0.7818609E-02  0.8188599E-01
       -2   -1    0    0    0  501  0.00000000000E+00  0.00000000000E+00  0.12166908741E+04  0.12166908741E+04  0.25500000920E-02 0. -1.
        2   -1    0    0  501    0  0.00000000000E+00  0.00000000000E+00 -0.21051543315E+04  0.21051543315E+04  0.25500000920E-02 0.  1.
    10030    2    1    2    0    0  0.00000000000E+00  0.00000000000E+00 -0.88846345737E+03  0.33218452056E+04  0.32008261832E+04 0.  0.
        2    1    3    3  502    0 -0.15857255961E+04 -0.16442792393E+02 -0.22037749740E+03  0.16010503656E+04  0.25500000920E-02 0. -1.
       -2    1    3    3    0  502  0.15857255961E+04  0.16442792393E+02 -0.66808595997E+03  0.17207948401E+04  0.25500000920E-02 0.  1.
</event>
<event>
 5   0  0.9157524E-08  0.3193034E+04  0.7818609E-02  0.8190659E-01
       -2   -1    0    0    0  501  0.00000000000E+00  0.00000000000E+00  0.12960803094E+04  0.12960803094E+04  0.25500000920E-02 0. -1.
        2   -1    0    0  501    0  0.00000000000E+00  0.00000000000E+00 -0.19665959440E+04  0.19665959441E+04  0.25500000920E-02 0.  1.
    10030    2    1    2    0    0  0.00000000000E+00  0.00000000000E+00 -0.67051563466E+03  0.32626762534E+04  0.31930338424E+04 0.  0.
        5    1    3    3  502    0  0.25105233746E+03  0.49691432244E+03 -0.18641861775E+04  0.19455496176E+04  0.46999998093E+01 0.  1.
       -5    1    3    3    0  502 -0.25105233746E+03 -0.49691432244E+03  0.11936705429E+04  0.13171266359E+04  0.46999998093E+01 0. -1.
</event>
<event>
 5   0  0.9707721E-08  0.3204159E+04  0.7818609E-02  0.8187720E-01
        2   -1    0    0  501    0  0.00000000000E+00  0.00000000000E+00  0.14676863384E+04  0.14676863384E+04  0.25500000920E-02 0.  1.
       -2   -1    0    0    0  501  0.00000000000E+00  0.00000000000E+00 -0.17487788837E+04  0.17487788837E+04  0.25500000920E-02 0. -1.
    10030    2    1    2    0    0  0.00000000000E+00  0.00000000000E+00 -0.28109254535E+03  0.32164652221E+04  0.32041590949E+04 0.  0.
        3    1    3    3  502    0 -0.12173807996E+04  0.99012607633E+03  0.18363864163E+03  0.15799015219E+04  0.10100000352E+00 0. -1.
       -3    1    3    3    0  502  0.12173807996E+04 -0.99012607633E+03 -0.46473118698E+03  0.16365637001E+04  0.10100000352E+00 0.  1.
</event>
<event>
 5   0  0.3343140E-08  0.3200858E+04  0.7818609E-02  0.8188591E-01
        1   -1    0    0  501    0  0.00000000000E+00  0.00000000000E+00  0.12135585914E+04  0.12135585914E+04  0.50400001928E-02 0.  1.
       -1   -1    0    0    0  501  0.00000000000E+00  0.00000000000E+00 -0.21106304008E+04  0.21106304008E+04  0.50400001928E-02 0. -1.
    10030    2    1    2    0    0  0.00000000000E+00  0.00000000000E+00 -0.89707180937E+03  0.33241889922E+04  0.32008584200E+04 0.  0.
        1    1    3    3  502    0 -0.93597891119E+03 -0.12877119787E+04 -0.27752492350E+03  0.16159451554E+04  0.50400001928E-02 0.  1.
       -1    1    3    3    0  502  0.93597891119E+03  0.12877119787E+04 -0.61954688587E+03  0.17082438368E+04  0.50400001928E-02 0. -1.
</event>
<event>
 5   0  0.9329929E-08  0.3198975E+04  0.7818609E-02  0.8189088E-01
        2   -1    0    0  501    0  0.00000000000E+00  0.00000000000E+00  0.20542935742E+04  0.20542935742E+04  0.25500000920E-02 0.  1.
       -2   -1    0    0    0  501  0.00000000000E+00  0.00000000000E+00 -0.12453724250E+04  0.12453724250E+04  0.25500000920E-02 0. -1.
    10030    2    1    2    0    0  0.00000000000E+00  0.00000000000E+00  0.80892114924E+03  0.32996659992E+04  0.31989751922E+04 0.  0.
        1    1    3    3  502    0  0.11853433504E+04  0.66811320222E+03 -0.46280552717E+03  0.14372206043E+04  0.50400001928E-02 0. -1.
       -1    1    3    3    0  502 -0.11853433504E+04 -0.66811320222E+03  0.12717266764E+04  0.18624453949E+04  0.50400001928E-02 0.  1.
</event>
<event>
 5   0  0.9353994E-08  0.3201136E+04  0.7818609E-02  0.8188517E-01
       -2   -1    0    0    0  501  0.00000000000E+00  0.00000000000E+00  0.12117276428E+04  0.12117276428E+04  0.25500000920E-02 0. -1.
        2   -1    0    0  501    0  0.00000000000E+00  0.00000000000E+00 -0.21141868484E+04  0.21141868484E+04  0.25500000920E-02 0.  1.
    10030    2    1    2    0    0  0.00000000000E+00  0.00000000000E+00 -0.90245920561E+03  0.33259144913E+04  0.32011364522E+04 0.  0.
        2    1    3    3  502    0 -0.19754112159E+03  0.10420943900E+04 -0.16966340361E+04  0.20008873694E+04  0.25500000920E-02 0.  1.
       -2    1    3    3    0  502  0.19754112159E+03 -0.10420943900E+04  0.79417483052E+03  0.13250271219E+04  0.25500000920E-02 0. -1.
</event>
<event>
 5   0  0.3427667E-08  0.3198484E+04  0.7818609E-02  0.8189218E-01
       -1   -1    0    0    0  501  0.00000000000E+00  0.00000000000E+00  0.15404677840E+04  0.15404677840E+04  0.50400001928E-02 0.  1.
        1   -1    0    0  501    0  0.00000000000E+00  0.00000000000E+00 -0.16602581600E+04  0.16602581600E+04  0.50400001928E-02 0. -1.
    10030    2    1    2    0    0  0.00000000000E+00  0.00000000000E+00 -0.11979037597E+03  0.32007259440E+04  0.31984835211E+04 0.  0.
        2    1    3    3  502    0  0.15513701409E+04 -0.35155422676E+03 -0.22503973459E+03  0.16065436722E+04  0.25500000920E-02 0.  1.
       -2    1    3    3    0  502 -0.15513701409E+04  0.35155422676E+03  0.10524935863E+03  0.15941822719E+04  0.25500000920E-02 0. -1.
</event>
<event>
 5   0  0.9157524E-08  0.3202570E+04  0.7818609E-02  0.8188139E-01
        2   -1    0    0  501    0  0.00000000000E+00  0.00000000000E+00  0.10340561563E+04  0.10340561563E+04  0.25500000920E-02 0.  1.
       -2   -1    0    0    0  501  0.00000000000E+00  0.00000000000E+00 -0.24796663076E+04  0.24796663076E+04  0.25500000920E-02 0. -1.
    10030    2    1    2    0    0  0.00000000000E+00  0.00000000000E+00 -0.14456101513E+04  0.35137224638E+04  0.32025703495E+04 0.  0.
        5    1    3    3  502    0 -0.13538862032E+04 -0.84185323889E+03 -0.88689294240E+03  0.18243700031E+04  0.46999998093E+01 0. -1.
       -5    1    3    3    0  502  0.13538862032E+04  0.84185323889E+03 -0.55871720886E+03  0.16893524607E+04  0.46999998093E+01 0.  1.
</event>
<event>
 5   0  0.3270966E-08  0.3200760E+04  0.7818609E-02  0.8188617E-01
       -1   -1    0    0    0  501  0.00000000000E+00  0.00000000000E+00  0.13440062396E+04  0.13440062396E+04  0.50400001928E-02 0. -1.
        1   -1    0    0  501    0  0.00000000000E+00  0.00000000000E+00 -0.19056577433E+04  0.19056577433E+04  0.50400001928E-02 0.  1.
    10030    2    1    2    0    0  0.00000000000E+00  0.00000000000E+00 -0.56165150371E+03  0.32496639830E+04  0.32007598458E+04 0.  0.
        3    1    3    3  502    0  0.11856888054E+04  0.76907903877E+03  0.48156379308E+03  0.14930653730E+04  0.10100000352E+00 0. -1.
       -3    1    3    3    0  502 -0.11856888054E+04 -0.76907903877E+03 -0.10432152968E+04  0.17565986100E+04  0.10100000352E+00 0.  1.
</event>
<event>
 5   0  0.3270966E-08  0.3202634E+04  0.7818609E-02  0.8188122E-01
        1   -1    0    0  501    0  0.00000000000E+00  0.00000000000E+00  0.12346847941E+04  0.12346847941E+04  0.50400001928E-02 0.  1.
       -1   -1    0    0    0  501  0.00000000000E+00  0.00000000000E+00 -0.20768184671E+04  0.20768184671E+04  0.50400001928E-02 0. -1.
    10030    2    1    2    0    0  0.00000000000E+00  0.00000000000E+00 -0.84213367300E+03  0.33115032611E+04  0.32026340292E+04 0.  0.
        3    1    3    3  502    0 -0.54069796537E+03  0.99607182738E+03 -0.15907612955E+04  0.19532114285E+04  0.10100000352E+00 0. -1.
       -3    1    3    3    0  502  0.54069796537E+03 -0.99607182738E+03  0.74862762252E+03  0.13582918326E+04  0.10100000352E+00 0.  1.
</event>
<event>
 5   0  0.3220147E-08  0.3194809E+04  0.7818609E-02  0.8190189E-01
        1   -1    0    0  501    0  0.00000000000E+00  0.00000000000E+00  0.14319983210E+04  0.14319983210E+04  0.50400001928E-02 0. -1.
       -1   -1    0    0    0  501  0.00000000000E+00  0.00000000000E+00 -0.17819161065E+04  0.17819161065E+04  0.50400001928E-02 0.  1.
    10030    2    1    2    0    0  0.00000000000E+00  0.00000000000E+00 -0.34991778548E+03  0.32139144274E+04  0.31948088347E+04 0.  0.
        4    1    3    3  502    0  0.12901808527E+04 -0.58984105407E+03  0.56374857954E+03  0.15265297821E+04  0.12699999809E+01 0. -1.
       -4    1    3    3    0  502 -0.12901808527E+04  0.58984105407E+03 -0.91366636503E+03  0.16873846453E+04  0.12699999809E+01 0.  1.
</event>
<event>
 5   0  0.9727083E-08  0.3201325E+04  0.7818609E-02  0.8188467E-01
       -2   -1    0    0    0  501  0.00000000000E+00  0.00000000000E+00  0.20116011734E+04  0.20116011734E+04  0.25500000920E-02 0. -1.
        2   -1    0    0  501    0  0.00000000000E+00  0.00000000000E+00 -0.12736718864E+04  0.12736718864E+04  0.25500000920E-02 0.  1.
    10030    2    1    2    0    0  0.00000000000E+00  0.00000000000E+00  0.73792928703E+03  0.32852730597E+04  0.32013246390E+04 0.  0.
        4    1    3    3  502    0  0.22383219239E+03  0.62234224699E+03 -0.11268966795E+04  0.13066401425E+04  0.12699999809E+01 0.  1.
       -4    1    3    3    0  502 -0.22383219239E+03 -0.62234224699E+03  0.18648259666E+04  0.19786329172E+04  0.12699999809E+01 0. -1.
</event>
<event>
 5   0  0.9353994E-08  0.3200066E+04  0.7818609E-02  0.8188800E-01
        2   -1    0    0  501    0  0.00000000000E+00  0.00000000000E+00  0.18119090008E+04  0.18119090008E+04  0.25500000920E-02 0.  1.
       -2   -1    0    0    0  501  0.00000000000E+00  0.00000000000E+00 -0.14129323845E+04  0.14129323845E+04  0.25500000920E-02 0. -1.
    10030    2    1    2    0    0  0.00000000000E+00  0.00000000000E+00  0.39897661630E+03  0.32248413853E+04  0.32000655650E+04 0.  0.
        2    1    3    3  502    0  0.83644377801E+03  0.66804638511E+03  0.13978886962E+04  0.17606865063E+04  0.25500000920E-02 0. -1.
       -2    1    3    3    0  502 -0.83644377801E+03 -0.66804638511E+03 -0.99891207992E+03  0.14641548791E+04  0.25500000920E-02 0.  1.
</event>
<event>
 5   0  0.9727083E-08  0.3202390E+04  0.7818609E-02  0.8188186E-01
        2   -1    0    0  501    0  0.00000000000E+00  0.00000000000E+00  0.17041122373E+04  0.17041122373E+04  0.25500000920E-02 0. -1.
       -2   -1    0    0    0  501  0.00000000000E+00  0.00000000000E+00 -0.15044937547E+04  0.15044937547E+04  0.25500000920E-02 0.  1.
    10030    2    1    2    0    0  0.00000000000E+00  0.00000000000E+00  0.19961848258E+03  0.32086059920E+04  0.32023904936E+04 0.  0.
        4    1    3    3  502    0 -0.10828152341E+03  0.15032364722E+04 -0.44196182047E+03  0.15705975434E+04  0.12699999809E+01 0.  1.
       -4    1    3    3    0  502  0.10828152341E+03 -0.15032364722E+04  0.64158030304E+03  0.16380084486E+04  0.12699999809E+01 0. -1.
</event>
<event>
 5   0  0.9329929E-08  0.3208647E+04  0.7818609E-02  0.8186537E-01
        2   -1    0    0  501    0  0.00000000000E+00  0.00000000000E+00  0.21832460812E+04  0.21832460812E+04  0.25500000920E-02 0. -1.
       -2   -1    0    0    0  501  0.00000000000E+00  0.00000000000E+00 -0.11789112474E+04  0.11789112474E+04  0.25500000920E-02 0.  1.
    10030    2    1    2    0    0  0.00000000000E+00  0.00000000000E+00  0.10043348339E+04  0.33621573286E+04  0.32086466686E+04 0.  0.
        1    1    3    3  502    0  0.13942991945E+04  0.72711825454E+03  0.83531249053E+03  0.17805948884E+04  0.50400001928E-02 0.  1.
       -1    1    3    3    0  502 -0.13942991945E+04 -0.72711825454E+03  0.16902234333E+03  0.15815624402E+04  0.50400001928E-02 0. -1.
</event>
<event>
 5   0  0.9707721E-08  0.3199793E+04  0.7818609E-02  0.8188872E-01
        2   -1    0    0  501    0  0.00000000000E+00  0.00000000000E+00  0.21469225962E+04  0.21469225962E+04  0.25500000920E-02 0.  1.
       -2   -1    0    0    0  501  0.00000000000E+00  0.00000000000E+00 -0.11922497980E+04  0.11922497980E+04  0.25500000920E-02 0. -1.
    10030    2    1    2    0    0  0.00000000000E+00  0.00000000000E+00  0.95467279823E+03  0.33391723942E+04  0.31997925130E+04 0.  0.
        3    1    3    3  502    0 -0.82395454951E+03 -0.13648332137E+04  0.61733372541E+03  0.17096115757E+04  0.10100000352E+00 0.  1.
       -3    1    3    3    0  502  0.82395454951E+03  0.13648332137E+04  0.33733907281E+03  0.16295608185E+04  0.10100000352E+00 0. -1.
</event>
<event>
 5   0  0.3343140E-08  0.3202064E+04  0.7818609E-02  0.8188272E-01
       -1   -1    0    0    0  501  0.00000000000E+00  0.00000000000E+00  0.14047331749E+04  0.14047331749E+04  0.50400001928E-02 0. -1.
        1   -1    0    0  501    0  0.00000000000E+00  0.00000000000E+00 -0.18247618740E+04  0.18247618740E+04  0.50400001928E-02 0.  1.
    10030    2    1    2    0    0  0.00000000000E+00  0.00000000000E+00 -0.42002869908E+03  0.32294950489E+04  0.32020640473E+04 0.  0.
        1    1    3    3  502    0  0.15789487088E+04  0.24132149543E+03 -0.99584582736E+02  0.16003850094E+04  0.50400001928E-02 0. -1.
       -1    1    3    3    0  502 -0.15789487088E+04 -0.24132149543E+03 -0.32044411634E+03  0.16291100395E+04  0.50400001928E-02 0.  1.
</event>
<event>
 5   0  0.9353994E-08  0.3197261E+04  0.7818609E-02  0.8189541E-01
       -2   -1    0    0    0  501  0.00000000000E+00  0.00000000000E+00  0.19628738580E+04  0.19628738580E+04  0.25500000920E-02 0.  1.
        2   -1    0    0  501    0  0.00000000000E+00  0.00000000000E+00 -0.13019786793E+04  0.13019786793E+04  0.25500000920E-02 0. -1.
    10030    2    1    2    0    0  0.00000000000E+00  0.00000000000E+00  0.66089517875E+03  0.32648525373E+04  0.31972612738E+04 0.  0.
        2    1    3    3  502    0  0.10014894883E+04  0.89642926233E+02 -0.93864661520E+03  0.13755269963E+04  0.25500000920E-02 0. -1.
       -2    1    3    3    0  502 -0.10014894883E+04 -0.89642926233E+02  0.15995417940E+04  0.18893255410E+04  0.25500000920E-02 0.  1.
</event>
<event>
 5   0  0.3220147E-08  0.3202697E+04  0.7818609E-02  0.8188105E-01
       -1   -1    0    0    0  501  0.00000000000E+00  0.00000000000E+00  0.19008264579E+04  0.19008264579E+04  0.50400001928E-02 0.  1.
        1   -1    0    0  501    0  0.00000000000E+00  0.00000000000E+00 -0.13490539512E+04  0.13490539512E+04  0.50400001928E-02 0. -1.
    10030    2    1    2    0    0  0.00000000000E+00  0.00000000000E+00  0.55177250666E+03  0.32498804091E+04  0.32026972654E+04 0.  0.
        4    1    3    3  502    0  0.27342354501E+03  0.12175150785E+04 -0.74249882921E+03  0.14520363376E+04  0.12699999809E+01 0. -1.
       -4    1    3    3    0  502 -0.27342354501E+03 -0.12175150785E+04  0.12942713359E+04  0.17978440714E+04  0.12699999809E+01 0.  1.
</event>
<event>
 5   0  0.9353994E-08  0.3200164E+04  0.7818609E-02  0.8188774E-01
       -2   -1    0    0    0  501  0.00000000000E+00  0.00000000000E+00  0.16153113511E+04  0.16153113511E+04  0.25500000920E-02 0. -1.
        2   -1    0    0  501    0  0.00000000000E+00  0.00000000000E+00 -0.15849958170E+04  0.15849958170E+04  0.25500000920E-02 0.  1.
    10030    2    1    2    0    0  0.00000000000E+00  0.00000000000E+00  0.30315534055E+02  0.32003071681E+04  0.32001635800E+04 0.  0.
        2    1    3    3  502    0  0.75957018087E+03 -0.69332276004E+03 -0.12107106070E+04  0.15885413067E+04  0.25500000920E-02 0.  1.
       -2    1    3    3    0  502 -0.75957018087E+03  0.69332276004E+03  0.12410261410E+04  0.16117658614E+04  0.25500000920E-02 0. -1.
</event>
<event>
 5   0  0.9727083E-08  0.3199591E+04  0.7818609E-02  0.8188925E-01
       -2   -1    0    0    0  501  0.00000000000E+00  0.00000000000E+00  0.13055755371E+04  0.13055755371E+04  0.25500000920E-02 0.  1.
        2   -1    0    0  501    0  0.00000000000E+00  0.00000000000E+00 -0.19603195580E+04  0.19603195580E+04  0.25500000920E-02 0. -1.
    10030    2    1    2    0    0  0.00000000000E+00  0.00000000000E+00 -0.65474402088E+03  0.32658950951E+04  0.31995907612E+04 0.  0.
        4    1    3    3  502    0 -0.98507995591E+03  0.12314698805E+04 -0.52641943573E+02  0.15778698848E+04  0.12699999809E+01 0.  1.
       -4    1    3    3    0  502  0.98507995591E+03 -0.12314698805E+04 -0.60210207730E+03  0.16880252103E+04  0.12699999809E+01 0. -1.
</event>
<event>
 5   0  0.3343140E-08  0.3198782E+04  0.7818609E-02  0.8189139E-01
        1   -1    0    0  501    0  0.00000000000E+00  0.00000000000E+00  0.30021456717E+04  0.30021456717E+04  0.50400001928E-02 0.  1.
       -1   -1    0    0    0  501  0.00000000000E+00  0.00000000000E+00 -0.85207448730E+03  0.85207448732E+03  0.50400001928E-02 0. -1.
    10030    2    1    2    0    0  0.00000000000E+00  0.00000000000E+00  0.21500711844E+04  0.38542201590E+04  0.31987821020E+04 0.  0.
        1    1    3    3  502    0  0.12505840408E+04 -0.62643377944E+02 -0.12392830751E+03  0.12582697887E+04  0.50400001928E-02 0. -1.
       -1    1    3    3    0  502 -0.12505840408E+04  0.62643377944E+02  0.22739994919E+04  0.25959503703E+04  0.50400001928E-02 0.  1.
</event>
<event>
 5   0  0.3270966E-08  0.3200041E+04  0.7818609E-02  0.8188806E-01
        1   -1    0    0  501    0  0.00000000000E+00  0.00000000000E+00  0.21274841613E+04  0.21274841613E+04  0.50400001928E-02 0.  1.
       -1   -1    0    0    0  501  0.00000000000E+00  0.00000000000E+00 -0.12033302732E+04  0.12033302733E+04  0.50400001928E-02 0. -1.
    10030    2    1    2    0    0  0.00000000000E+00  0.00000000000E+00  0.92415388804E+03  0.33308144345E+04  0.32000413104E+04 0.  0.
        3    1    3    3  502    0  0.55697359046E+03 -0.20212954983E+03 -0.10849281475E+04  0.12361816335E+04  0.10100000352E+00 0. -1.
       -3    1    3    3    0  502 -0.55697359046E+03  0.20212954983E+03  0.20090820356E+04  0.20946328011E+04  0.10100000352E+00 0.  1.
</event>
<event>
 5   0  0.9707721E-08  0.3198204E+04  0.7818609E-02  0.8189292E-01
       -2   -1    0    0    0  501  0.00000000000E+00  0.00000000000E+00  0.13674406866E+04  0.13674406866E+04  0.25500000920E-02 0.  1.
        2   -1    0    0  501    0  0.00000000000E+00  0.00000000000E+00 -0.18700100799E+04  0.18700100799E+04  0.25500000920E-02 0. -1.
    10030    2    1    2    0    0  0.00000000000E+00  0.00000000000E+00 -0.50256939328E+03  0.32374507665E+04  0.31982044135E+04 0.  0.
        3    1    3    3  502    0 -0.18993980224E+03 -0.15555692141E+04 -0.57339566478E+03  0.16687286499E+04  0.10100000352E+00 0. -1.
       -3    1    3    3    0  502  0.18993980224E+03  0.15555692141E+04  0.70826271493E+02  0.15687221167E+04  0.10100000352E+00 0.  1.
</event>
<event>
 5   0  0.3283581E-08  0.3200129E+04  0.7818609E-02  0.8188783E-01
       -1   -1    0    0    0  501  0.00000000000E+00  0.00000000000E+00  0.11041727073E+04  0.11041727073E+04  0.50400001928E-02 0. -1.
        1   -1    0    0  501    0  0.00000000000E+00  0.00000000000E+00 -0.23186649861E+04  0.23186649861E+04  0.50400001928E-02 0.  1.
    10030    2    1    2    0    0  0.00000000000E+00  0.00000000000E+00 -0.12144922788E+04  0.34228376935E+04  0.32001291194E+04 0.  0.
        5    1    3    3  502    0 -0.56109227435E+03 -0.11817269573E+04 -0.15927136340E+04  0.20610827135E+04  0.46999998093E+01 0.  1.
       -5    1    3    3    0  502  0.56109227435E+03  0.11817269573E+04  0.37822135515E+03  0.13617549800E+04  0.46999998093E+01 0. -1.
</event>
<event>
 5   0  0.3220147E-08  0.3198947E+04  0.7818609E-02  0.8189095E-01
        1   -1    0    0  501    0  0.00000000000E+00  0.00000000000E+00  0.15134101231E+04  0.15134101231E+04  0.50400001928E-02 0. -1.
       -1   -1    0    0    0  501  0.00000000000E+00  0.00000000000E+00 -0.16904314933E+04  0.16904314933E+04  0.50400001928E-02 0.  1.
    10030    2    1    2    0    0  0.00000000000E+00  0.00000000000E+00 -0.17702137019E+03  0.32038416164E+04  0.31989474108E+04 0.  0.
        4    1    3    3  502    0  0.10537639970E+04 -0.94843517381E+03 -0.83016148141E+03  0.16428991260E+04  0.12699999809E+01 0.  1.
       -4    1    3    3    0  502 -0.10537639970E+04  0.94843517381E+03  0.65314011122E+03  0.15609424903E+04  0.12699999809E+01 0. -1.
</event>
<event>
 5   0  0.9727083E-08  0.3199812E+04  0.7818609E-02  0.8188867E-01
        2   -1    0    0  501    0  0.00000000000E+00  0.00000000000E+00  0.11122487605E+04  0.11122487605E+04  0.25500000920E-02 0.  1.
       -2   -1    0    0    0  501  0.00000000000E+00  0.00000000000E+00 -0.23013730033E+04  0.23013730033E+04  0.25500000920E-02 0. -1.
    10030    2    1    2    0    0  0.00000000000E+00  0.00000000000E+00 -0.11891242428E+04  0.34136217638E+04  0.31998120384E+04 0.  0.
        4    1    3    3  502    0  0.14022914308E+04 -0.68769688620E+02  0.22386790449E+03  0.14217133953E+04  0.12699999809E+01 0.  1.
       -4    1    3    3    0  502 -0.14022914308E+04  0.68769688620E+02 -0.14129921473E+04  0.19919083684E+04  0.12699999809E+01 0. -1.
</event>
<event>
 5   0  0.9329929E-08  0.3198616E+04  0.7818609E-02  0.8189183E-01
        2   -1    0    0  501    0  0.00000000000E+00  0.00000000000E+00  0.17035969048E+04  0.17035969048E+04  0.25500000920E-02 0. -1.
       -2   -1    0    0    0  501  0.00000000000E+00  0.00000000000E+00 -0.15014029092E+04  0.15014029092E+04  0.25500000920E-02 0.  1.
    10030    2    1    2    0    0  0.00000000000E+00  0.00000000000E+00  0.20219399558E+03  0.32049998140E+04  0.31986155436E+04 0.  0.
        1    1    3    3  502    0  0.14969141650E+04 -0.12033949092E+03 -0.45004790046E+03  0.15677297992E+04  0.50400001928E-02 0.  1.
       -1    1    3    3    0  502 -0.14969141650E+04  0.12033949092E+03  0.65224189604E+03  0.16372700148E+04  0.50400001928E-02 0. -1.
</event>
<event>
 5   0  0.3427667E-08  0.3201326E+04  0.7818609E-02  0.8188467E-01
        1   -1    0    0  501    0  0.00000000000E+00  0.00000000000E+00  0.17710538334E+04  0.17710538334E+04  0.50400001928E-02 0.  1.
       -1   -1    0    0    0  501  0.00000000000E+00  0.00000000000E+00 -0.14466650001E+04  0.14466650001E+04  0.50400001928E-02 0. -1.
    10030    2    1    2    0    0  0.00000000000E+00  0.00000000000E+00  0.32438883329E+03  0.32177188335E+04  0.32013257217E+04 0.  0.
        2    1    3    3  502    0  0.93226538442E+03 -0.45707553038E+02  0.14692045225E+04  0.17406234102E+04  0.25500000920E-02 0.  1.
       -2    1    3    3    0  502 -0.93226538442E+03  0.45707553038E+02 -0.11448156892E+04  0.14770954233E+04  0.25500000920E-02 0. -1.
</event>
<event>
 5   0  0.9353994E-08  0.3199626E+04  0.7818609E-02  0.8188916E-01
       -2   -1    0    0    0  501  0.00000000000E+00  0.00000000000E+00  0.16283325949E+04  0.16283325949E+04  0.25500000920E-02 0.  1.
        2   -1    0    0  501    0  0.00000000000E+00  0.00000000000E+00 -0.15717933597E+04  0.15717933597E+04  0.25500000920E-02 0. -1.
    10030    2    1    2    0    0  0.00000000000E+00  0.00000000000E+00  0.56539235244E+02  0.32001259546E+04  0.31996264532E+04 0.  0.
        2    1    3    3  502    0 -0.12542449214E+04  0.93793085859E+03  0.35475241073E+03  0.16058312151E+04  0.25500000920E-02 0.  1.
       -2    1    3    3    0  502  0.12542449214E+04 -0.93793085859E+03 -0.29821317548E+03  0.15942947395E+04  0.25500000920E-02 0. -1.
</event>
<event>
 5   0  0.9329929E-08  0.3199996E+04  0.7818609E-02  0.8188818E-01
        2   -1    0    0  501    0  0.00000000000E+00  0.00000000000E+00  0.15068160527E+04  0.15068160527E+04  0.25500000920E-02 0. -1.
       -2   -1    0    0    0  501  0.00000000000E+00  0.00000000000E+00 -0.16989427151E+04  0.16989427151E+04  0.25500000920E-02 0.  1.
    10030    2    1    2    0    0  0.00000000000E+00  0.00000000000E+00 -0.19212666242E+03  0.32057587678E+04  0.31999963473E+04 0.  0.
        1    1    3    3  502    0  0.75319504865E+03  0.84311816660E+03  0.10381605743E+04  0.15349033853E+04  0.50400001928E-02 0. -1.
       -1    1    3    3    0  502 -0.75319504865E+03 -0.84311816660E+03 -0.12302872367E+04  0.16708553825E+04  0.50400001928E-02 0.  1.
</event>
<event>
 5   0  0.9707721E-08  0.3205754E+04  0.7818609E-02  0.8187299E-01
        2   -1    0    0  501    0  0.00000000000E+00  0.00000000000E+00  0.27395532499E+04  0.27395532499E+04  0.25500000920E-02 0.  1.
       -2   -1    0    0    0  501  0.00000000000E+00  0.00000000000E+00 -0.93782243860E+03  0.93782243861E+03  0.25500000920E-02 0. -1.
    10030    2    1    2    0    0  0.00000000000E+00  0.00000000000E+00  0.18017308113E+04  0.36773756885E+04  0.32057538954E+04 0.  0.
        3    1    3    3  502    0  0.40562492174E+03  0.13026444530E+04  0.18659451684E+04  0.23115288296E+04  0.10100000352E+00 0.  1.
       -3    1    3    3    0  502 -0.40562492174E+03 -0.13026444530E+04 -0.64214357124E+02  0.13658468589E+04  0.10100000352E+00 0. -1.
</event>
<event>
 5   0  0.9353994E-08  0.3200715E+04  0.7818609E-02  0.8188628E-01
        2   -1    0    0  501    0  0.00000000000E+00  0.00000000000E+00  0.96026163328E+03  0.96026163328E+03  0.25500000920E-02 0.  1.
       -2   -1    0    0    0  501  0.00000000000E+00  0.00000000000E+00 -0.26671316739E+04  0.26671316739E+04  0.25500000920E-02 0. -1.
    10030    2    1    2    0    0  0.00000000000E+00  0.00000000000E+00 -0.17068700406E+04  0.36273933072E+04  0.32007150560E+04 0.  0.
        2    1    3    3  502    0  0.41069971188E+03 -0.55351957599E+03 -0.24903033399E+04  0.25839250955E+04  0.25500000920E-02 0. -1.
       -2    1    3    3    0  502 -0.41069971188E+03  0.55351957599E+03  0.78343329930E+03  0.10434682117E+04  0.25500000920E-02 0.  1.
</event>
<event>
 5   0  0.3283581E-08  0.3195030E+04  0.7818609E-02  0.8190131E-01
        1   -1    0    0  501    0  0.00000000000E+00  0.00000000000E+00  0.10076838958E+04  0.10076838958E+04  0.50400001928E-02 0.  1.
       -1   -1    0    0    0  501  0.00000000000E+00  0.00000000000E+00 -0.25325945152E+04  0.25325945152E+04  0.50400001928E-02 0. -1.
    10030    2    1    2    0    0  0.00000000000E+00  0.00000000000E+00 -0.15249106194E+04  0.35402784110E+04  0.31950303333E+04 0.  0.
        5    1    3    3  502    0 -0.97570324546E+02 -0.14830424743E+04 -0.14114950880E+04  0.20497013008E+04  0.46999998093E+01 0. -1.
       -5    1    3    3    0  502  0.97570324546E+02  0.14830424743E+04 -0.11341553137E+03  0.14905771103E+04  0.46999998093E+01 0.  1.
</event>
<event>
 5   0  0.9727083E-08  0.3197371E+04  0.7818609E-02  0.8189512E-01
        2   -1    0    0  501    0  0.00000000000E+00  0.00000000000E+00  0.18835322546E+04  0.18835322546E+04  0.25500000920E-02 0.  1.
       -2   -1    0    0    0  501  0.00000000000E+00  0.00000000000E+00 -0.13569157785E+04  0.13569157785E+04  0.25500000920E-02 0. -1.
    10030    2    1    2    0    0  0.00000000000E+00  0.00000000000E+00  0.52661647609E+03  0.32404480331E+04  0.31973705669E+04 0.  0.
        4    1    3    3  502    0  0.15965571069E+04  0.65052216393E+02  0.31465277601E+03  0.16285681959E+04  0.12699999809E+01 0. -1.
       -4    1    3    3    0  502 -0.15965571069E+04 -0.65052216393E+02  0.21196370008E+03  0.16118798372E+04  0.12699999809E+01 0.  1.
</event>
<event>
 5   0  0.3270966E-08  0.3200431E+04  0.7818609E-02  0.8188703E-01
       -1   -1    0    0    0  501  0.00000000000E+00  0.00000000000E+00  0.19828493340E+04  0.19828493340E+04  0.50400001928E-02 0. -1.
        1   -1    0    0  501    0  0.00000000000E+00  0.00000000000E+00 -0.12914189052E+04  0.12914189052E+04  0.50400001928E-02 0.  1.
    10030    2    1    2    0    0  0.00000000000E+00  0.00000000000E+00  0.69143042877E+03  0.32742682392E+04  0.32004306686E+04 0.  0.
        3    1    3    3  502    0  0.10982823771E+04  0.11557879528E+04  0.48531526407E+03  0.16666135987E+04  0.10100000352E+00 0.  1.
       -3    1    3    3    0  502 -0.10982823771E+04 -0.11557879528E+04  0.20611516470E+03  0.16076546405E+04  0.10100000352E+00 0. -1.
</event>
<event>
 5   0  0.3270966E-08  0.3201185E+04  0.7818609E-02  0.8188504E-01
        1   -1    0    0  501    0  0.00000000000E+00  0.00000000000E+00  0.25479342439E+04  0.25479342439E+04  0.50400001928E-02 0.  1.
       -1   -1    0    0    0  501  0.00000000000E+00  0.00000000000E+00 -0.10054798172E+04  0.10054798172E+04  0.50400001928E-02 0. -1.
    10030    2    1    2    0    0  0.00000000000E+00  0.00000000000E+00  0.15424544267E+04  0.35534140611E+04  0.32011850667E+04 0.  0.
        3    1    3    3  502    0 -0.33140975553E+01 -0.13850964948E+04 -0.11914839805E+03  0.13902156790E+04  0.10100000352E+00 0. -1.
       -3    1    3    3    0  502  0.33140975553E+01  0.13850964948E+04  0.16616028247E+04  0.21631983821E+04  0.10100000352E+00 0.  1.
</event>
<event>
 5   0  0.9707721E-08  0.3206996E+04  0.7818609E-02  0.8186972E-01
       -2   -1    0    0    0  501  0.00000000000E+00  0.00000000000E+00  0.14955689531E+04  0.14955689531E+04  0.25500000920E-02 0. -1.
        2   -1    0    0  501    0  0.00000000000E+00  0.00000000000E+00 -0.17192161545E+04  0.17192161545E+04  0.25500000920E-02 0.  1.
    10030    2    1    2    0    0  0.00000000000E+00  0.00000000000E+00 -0.22364720139E+03  0.32147851077E+04  0.32069962921E+04 0.  0.
        3    1    3    3  502    0  0.93287713993E+03 -0.88575481003E+02  0.11925287130E+04  0.15166509538E+04  0.10100000352E+00 0. -1.
       -3    1    3    3    0  502 -0.93287713993E+03  0.88575481003E+02 -0.14161759144E+04  0.16981341539E+04  0.10100000352E+00 0.  1.
</event>
<event>
 5   0  0.3080500E-08  0.3203076E+04  0.7818609E-02  0.8188005E-01
        3   -1    0    0  501    0  0.00000000000E+00  0.00000000000E+00  0.17180876356E+04  0.17180876386E+04  0.10100000352E+00 0. -1.
       -3   -1    0    0    0  501  0.00000000000E+00  0.00000000000E+00 -0.14928948006E+04  0.14928948040E+04  0.10100000352E+00 0.  1.
    10030    2    1    2    0    0  0.00000000000E+00  0.00000000000E+00  0.22519283502E+03  0.32109824426E+04  0.32030760893E+04 0.  0.
        5    1    3    3  502    0  0.14523909231E+04 -0.49087966041E+03  0.57688083178E+03  0.16380524468E+04  0.46999998093E+01 0. -1.
       -5    1    3    3    0  502 -0.14523909231E+04  0.49087966041E+03 -0.35168799676E+03  0.15729299958E+04  0.46999998093E+01 0.  1.
</event>
<event>
 5   0  0.3270966E-08  0.3199746E+04  0.7818609E-02  0.8188884E-01
        1   -1    0    0  501    0  0.00000000000E+00  0.00000000000E+00  0.16547903828E+04  0.16547903828E+04  0.50400001928E-02 0. -1.
       -1   -1    0    0    0  501  0.00000000000E+00  0.00000000000E+00 -0.15467785020E+04  0.15467785020E+04  0.50400001928E-02 0.  1.
    10030    2    1    2    0    0  0.00000000000E+00  0.00000000000E+00  0.10801188074E+03  0.32015688848E+04  0.31997463583E+04 0.  0.
        3    1    3    3  502    0  0.38321935700E+03 -0.90817393665E+03 -0.12068535569E+04  0.15582466084E+04  0.10100000352E+00 0.  1.
       -3    1    3    3    0  502 -0.38321935700E+03  0.90817393665E+03  0.13148654376E+04  0.16433222764E+04  0.10100000352E+00 0. -1.
</event>
<event>
 5   0  0.3220147E-08  0.3200010E+04  0.7818609E-02  0.8188814E-01
        1   -1    0    0  501    0  0.00000000000E+00  0.00000000000E+00  0.25811042394E+04  0.25811042394E+04  0.50400001928E-02 0.  1.
       -1   -1    0    0    0  501  0.00000000000E+00  0.00000000000E+00 -0.99182988542E+03  0.99182988544E+03  0.50400001928E-02 0. -1.
    10030    2    1    2    0    0  0.00000000000E+00  0.00000000000E+00  0.15892743540E+04  0.35729341249E+04  0.32000102013E+04 0.  0.
        4    1    3    3  502    0  0.85296512481E+03 -0.27427550918E+03  0.22747300178E+04  0.24448261340E+04  0.12699999809E+01 0.  1.
       -4    1    3    3    0  502 -0.85296512481E+03  0.27427550918E+03 -0.68545566376E+03  0.11281079908E+04  0.12699999809E+01 0. -1.
</event>
<event>
 5   0  0.3283581E-08  0.3193364E+04  0.7818609E-02  0.8190572E-01
        1   -1    0    0  501    0  0.00000000000E+00  0.00000000000E+00  0.16797890125E+04  0.16797890126E+04  0.50400001928E-02 0.  1.
       -1   -1    0    0    0  501  0.00000000000E+00  0.00000000000E+00 -0.15176865071E+04  0.15176865072E+04  0.50400001928E-02 0. -1.
    10030    2    1    2    0    0  0.00000000000E+00  0.00000000000E+00  0.16210250540E+03  0.31974755197E+04  0.31933638184E+04 0.  0.
        5    1    3    3  502    0  0.14625994881E+04 -0.55238219138E+03 -0.24347666510E+03  0.15822851590E+04  0.46999998093E+01 0.  1.
       -5    1    3    3    0  502 -0.14625994881E+04  0.55238219138E+03  0.40557917051E+03  0.16151903607E+04  0.46999998093E+01 0. -1.
</event>
<event>
 5   0  0.3220147E-08  0.3199796E+04  0.7818609E-02  0.8188871E-01
       -1   -1    0    0    0  501  0.00000000000E+00  0.00000000000E+00  0.93303191061E+03  0.93303191062E+03  0.50400001928E-02 0.  1.
        1   -1    0    0  501    0  0.00000000000E+00  0.00000000000E+00 -0.27433939445E+04  0.27433939445E+04  0.50400001928E-02 0. -1.
    10030    2    1    2    0    0  0.00000000000E+00  0.00000000000E+00 -0.18103620339E+04  0.36764258551E+04  0.31997963020E+04 0.  0.
        4    1    3    3  502    0  0.32982250527E+03  0.23449867695E+03  0.87325326010E+03  0.96246838060E+03  0.12699999809E+01 0.  1.
       -4    1    3    3    0  502 -0.32982250527E+03 -0.23449867695E+03 -0.26836152940E+04  0.27139574745E+04  0.12699999809E+01 0. -1.
</event>
<event>
 5   0  0.9707721E-08  0.3200731E+04  0.7818609E-02  0.8188624E-01
        2   -1    0    0  501    0  0.00000000000E+00  0.00000000000E+00  0.23435632314E+04  0.23435632314E+04  0.25500000920E-02 0. -1.
       -2   -1    0    0    0  501  0.00000000000E+00  0.00000000000E+00 -0.10928527240E+04  0.10928527240E+04  0.25500000920E-02 0.  1.
    10030    2    1    2    0    0  0.00000000000E+00  0.00000000000E+00  0.12507105074E+04  0.34364159554E+04  0.32007308299E+04 0.  0.
        3    1    3    3  502    0 -0.11669483063E+04  0.26550356721E+03 -0.51538307289E+03  0.13030273274E+04  0.10100000352E+00 0.  1.
       -3    1    3    3    0  502  0.11669483063E+04 -0.26550356721E+03  0.17660935803E+04  0.21333886281E+04  0.10100000352E+00 0. -1.
</event>
<event>
 5   0  0.3343140E-08  0.3202357E+04  0.7818609E-02  0.8188195E-01
       -1   -1    0    0    0  501  0.00000000000E+00  0.00000000000E+00  0.14560342664E+04  0.14560342664E+04  0.50400001928E-02 0. -1.
        1   -1    0    0  501    0  0.00000000000E+00  0.00000000000E+00 -0.17607916104E+04  0.17607916104E+04  0.50400001928E-02 0.  1.
    10030    2    1    2    0    0  0.00000000000E+00  0.00000000000E+00 -0.30475734403E+03  0.32168258768E+04  0.32023572073E+04 0.  0.
        1    1    3    3  502    0 -0.11768678573E+04  0.78231911838E+03  0.60383853877E+03  0.15367700340E+04  0.50400001928E-02 0. -1.
       -1    1    3    3    0  502  0.11768678573E+04 -0.78231911838E+03 -0.90859588281E+03  0.16800558428E+04  0.50400001928E-02 0.  1.
</event>
<event>
 5   0  0.9707721E-08  0.3201102E+04  0.7818609E-02  0.8188526E-01
        2   -1    0    0  501    0  0.00000000000E+00  0.00000000000E+00  0.22104484768E+04  0.22104484768E+04  0.25500000920E-02 0. -1.
       -2   -1    0    0    0  501  0.00000000000E+00  0.00000000000E+00 -0.11589334965E+04  0.11589334965E+04  0.25500000920E-02 0.  1.
    10030    2    1    2    0    0  0.00000000000E+00  0.00000000000E+00  0.10515149803E+04  0.33693819733E+04  0.32011015492E+04 0.  0.
        3    1    3    3  502    0 -0.23776807767E+03 -0.72265408082E+03 -0.95646082245E+03  0.12221210637E+04  0.10100000352E+00 0.  1.
       -3    1    3    3    0  502  0.23776807767E+03  0.72265408082E+03  0.20079758027E+04  0.21472609096E+04  0.10100000352E+00 0. -1.
</event>
<event>
 5   0  0.9727083E-08  0.3199545E+04  0.7818609E-02  0.8188937E-01
       -2   -1    0    0    0  501  0.00000000000E+00  0.00000000000E+00  0.95509785237E+03  0.95509785237E+03  0.25500000920E-02 0.  1.
        2   -1    0    0  501    0  0.00000000000E+00  0.00000000000E+00 -0.26795909241E+04  0.26795909241E+04  0.25500000920E-02 0. -1.
    10030    2    1    2    0    0  0.00000000000E+00  0.00000000000E+00 -0.17244930717E+04  0.36346887765E+04  0.31995446781E+04 0.  0.
        4    1    3    3  502    0  0.12768274640E+04 -0.46197211692E+03 -0.18232016102E+04  0.22732734842E+04  0.12699999809E+01 0. -1.
       -4    1    3    3    0  502 -0.12768274640E+04  0.46197211692E+03  0.98708538488E+02  0.13614152923E+04  0.12699999809E+01 0.  1.
</event>
<event>
 5   0  0.3220147E-08  0.3203758E+04  0.7818609E-02  0.8187825E-01
        1   -1    0    0  501    0  0.00000000000E+00  0.00000000000E+00  0.16863908207E+04  0.16863908207E+04  0.50400001928E-02 0. -1.
       -1   -1    0    0    0  501  0.00000000000E+00  0.00000000000E+00 -0.15216028007E+04  0.15216028007E+04  0.50400001928E-02 0.  1.
    10030    2    1    2    0    0  0.00000000000E+00  0.00000000000E+00  0.16478802000E+03  0.32079936214E+04  0.32037584153E+04 0.  0.
        4    1    3    3  502    0  0.15501227367E+04 -0.70634186706E+02  0.48059508166E+03  0.16244515790E+04  0.12699999809E+01 0. -1.
       -4    1    3    3    0  502 -0.15501227367E+04  0.70634186706E+02 -0.31580706166E+03  0.15835420424E+04  0.12699999809E+01 0.  1.
</event>
<event>
 5   0  0.3343140E-08  0.3200839E+04  0.7818609E-02  0.8188596E-01
        1   -1    0    0  501    0  0.00000000000E+00  0.00000000000E+00  0.14648883828E+04  0.14648883828E+04  0.50400001928E-02 0.  1.
       -1   -1    0    0    0  501  0.00000000000E+00  0.00000000000E+00 -0.17484900106E+04  0.17484900107E+04  0.50400001928E-02 0. -1.
    10030    2    1    2    0    0  0.00000000000E+00  0.00000000000E+00 -0.28360162781E+03  0.32133783935E+04  0.32008390801E+04 0.  0.
        1    1    3    3  502    0  0.49603743470E+03 -0.72142795632E+03 -0.14867622813E+04  0.17253908294E+04  0.50400001928E-02 0. -1.
       -1    1    3    3    0  502 -0.49603743470E+03  0.72142795632E+03  0.12031606535E+04  0.14879875641E+04  0.50400001928E-02 0.  1.
</event>
<event>
 5   0  0.9353994E-08  0.3201070E+04  0.7818609E-02  0.8188535E-01
        2   -1    0    0  501    0  0.00000000000E+00  0.00000000000E+00  0.20391212343E+04  0.20391212343E+04  0.25500000920E-02 0. -1.
       -2   -1    0    0    0  501  0.00000000000E+00  0.00000000000E+00 -0.12562824254E+04  0.12562824254E+04  0.25500000920E-02 0.  1.
    10030    2    1    2    0    0  0.00000000000E+00  0.00000000000E+00  0.78283880892E+03  0.32954036597E+04  0.32010699273E+04 0.  0.
        2    1    3    3  502    0 -0.13185869380E+03  0.15950610224E+04  0.40200792276E+03  0.16502171827E+04  0.25500000920E-02 0.  1.
       -2    1    3    3    0  502  0.13185869380E+03 -0.15950610224E+04  0.38083088616E+03  0.16451864770E+04  0.25500000920E-02 0. -1.
</event>
<event>
 5   0  0.9707721E-08  0.3198993E+04  0.7818609E-02  0.8189083E-01
       -2   -1    0    0    0  501  0.00000000000E+00  0.00000000000E+00  0.16711857747E+04  0.16711857747E+04  0.25500000920E-02 0. -1.
        2   -1    0    0  501    0  0.00000000000E+00  0.00000000000E+00 -0.15308828423E+04  0.15308828423E+04  0.25500000920E-02 0.  1.
    10030    2    1    2    0    0  0.00000000000E+00  0.00000000000E+00  0.14030293240E+03  0.32020686170E+04  0.31989933597E+04 0.  0.
        3    1    3    3  502    0  0.15678523588E+04  0.29081343417E+03  0.19539627369E+03  0.16065220778E+04  0.10100000352E+00 0.  1.
       -3    1    3    3    0  502 -0.15678523588E+04 -0.29081343417E+03 -0.55093341288E+02  0.15955465393E+04  0.10100000352E+00 0. -1.
</event>
<event>
 5   0  0.3220147E-08  0.3200656E+04  0.7818609E-02  0.8188644E-01
       -1   -1    0    0    0  501  0.00000000000E+00  0.00000000000E+00  0.12525159335E+04  0.12525159335E+04  0.50400001928E-02 0.  1.
        1   -1    0    0  501    0  0.00000000000E+00  0.00000000000E+00 -0.20447248736E+04  0.20447248736E+04  0.50400001928E-02 0. -1.
    10030    2    1    2    0    0  0.00000000000E+00  0.00000000000E+00 -0.79220894009E+03  0.32972408071E+04  0.32006564851E+04 0.  0.
        4    1    3    3  502    0 -0.32718911019E+03  0.12968858718E+04  0.50909366388E+03  0.14311336938E+04  0.12699999809E+01 0.  1.
       -4    1    3    3    0  502  0.32718911019E+03 -0.12968858718E+04 -0.13013026040E+04  0.18661071133E+04  0.12699999809E+01 0. -1.
</event>
<event>
 5   0  0.3427667E-08  0.3199167E+04  0.7818609E-02  0.8189037E-01
       -1   -1    0    0    0  501  0.00000000000E+00  0.00000000000E+00  0.94478092503E+03  0.94478092504E+03  0.50400001928E-02 0. -1.
        1   -1    0    0  501    0  0.00000000000E+00  0.00000000000E+00 -0.27082122428E+04  0.27082122428E+04  0.50400001928E-02 0.  1.
    10030    2    1    2    0    0  0.00000000000E+00  0.00000000000E+00 -0.17634313178E+04  0.36529931679E+04  0.31991669341E+04 0.  0.
        2    1    3    3  502    0 -0.15309126545E+04 -0.44736244151E+03 -0.74261247278E+03  0.17593464680E+04  0.25500000920E-02 0.  1.
       -2    1    3    3    0  502  0.15309126545E+04  0.44736244151E+03 -0.10208188450E+04  0.18936466999E+04  0.25500000920E-02 0. -1.
</event>
<event>
 5   0  0.3343140E-08  0.3200242E+04  0.7818609E-02  0.8188753E-01
       -1   -1    0    0    0  501  0.00000000000E+00  0.00000000000E+00  0.88150620534E+03  0.88150620536E+03  0.50400001928E-02 0.  1.
        1   -1    0    0  501    0  0.00000000000E+00  0.00000000000E+00 -0.29045596254E+04  0.29045596254E+04  0.50400001928E-02 0. -1.
    10030    2    1    2    0    0  0.00000000000E+00  0.00000000000E+00 -0.20230534201E+04  0.37860658308E+04  0.32002420743E+04 0.  0.
        1    1    3    3  502    0 -0.54998027346E+03 -0.33531397337E+03 -0.27444004280E+04  0.28189798636E+04  0.50400001928E-02 0. -1.
       -1    1    3    3    0  502  0.54998027346E+03  0.33531397337E+03  0.72134700798E+03  0.96708596716E+03  0.50400001928E-02 0.  1.
</event>
<event>
 5   0  0.9353994E-08  0.3196257E+04  0.7818609E-02  0.8189807E-01
       -2   -1    0    0    0  501  0.00000000000E+00  0.00000000000E+00  0.14445409611E+04  0.14445409611E+04  0.25500000920E-02 0.  1.
        2   -1    0    0  501    0  0.00000000000E+00  0.00000000000E+00 -0.17680454002E+04  0.17680454002E+04  0.25500000920E-02 0. -1.
    10030    2    1    2    0    0  0.00000000000E+00  0.00000000000E+00 -0.32350443912E+03  0.32125863613E+04  0.31962565615E+04 0.  0.
        2    1    3    3  502    0 -0.10283050982E+04  0.10323782822E+04  0.49795292566E+03  0.15398614901E+04  0.25500000920E-02 0.  1.
       -2    1    3    3    0  502  0.10283050982E+04 -0.10323782822E+04 -0.82145736478E+03  0.16727248712E+04  0.25500000920E-02 0. -1.
</event>
<event>
 5   0  0.3283581E-08  0.3198952E+04  0.7818609E-02  0.8189094E-01
        1   -1    0    0  501    0  0.00000000000E+00  0.00000000000E+00  0.20194056410E+04  0.20194056410E+04  0.50400001928E-02 0.  1.
       -1   -1    0    0    0  501  0.00000000000E+00  0.00000000000E+00 -0.12668695349E+04  0.12668695349E+04  0.50400001928E-02 0. -1.
    10030    2    1    2    0    0  0.00000000000E+00  0.00000000000E+00  0.75253610616E+03  0.32862751759E+04  0.31989520066E+04 0.  0.
        5    1    3    3  502    0 -0.66780089848E+03  0.99591414899E+03  0.14636993170E+04  0.18921524285E+04  0.46999998093E+01 0.  1.
       -5    1    3    3    0  502  0.66780089848E+03 -0.99591414899E+03 -0.71116321086E+03  0.13941227473E+04  0.46999998093E+01 0. -1.
</event>
<event>
 5   0  0.3270966E-08  0.3200638E+04  0.7818609E-02  0.8188649E-01
       -1   -1    0    0    0  501  0.00000000000E+00  0.00000000000E+00  0.11228926604E+04  0.11228926604E+04  0.50400001928E-02 0.  1.
        1   -1    0    0  501    0  0.00000000000E+00  0.00000000000E+00 -0.22807359606E+04  0.22807359606E+04  0.50400001928E-02 0. -1.
    10030    2    1    2    0    0  0.00000000000E+00  0.00000000000E+00 -0.11578433002E+04  0.34036286210E+04  0.32006384804E+04 0.  0.
        3    1    3    3  502    0  0.98837079977E+03  0.42908012261E+03  0.67935171052E+03  0.12737760189E+04  0.10100000352E+00 0.  1.
       -3    1    3    3    0  502 -0.98837079977E+03 -0.42908012261E+03 -0.18371950107E+04  0.21298526022E+04  0.10100000352E+00 0. -1.
</event>
<event>
 5   0  0.9707721E-08  0.3200308E+04  0.7818609E-02  0.8188736E-01
       -2   -1    0    0    0  501  0.00000000000E+00  0.00000000000E+00  0.12784378149E+04  0.12784378149E+04  0.25500000920E-02 0. -1.
        2   -1    0    0  501    0  0.00000000000E+00  0.00000000000E+00 -0.20028293708E+04  0.20028293708E+04  0.25500000920E-02 0.  1.
    10030    2    1    2    0    0  0.00000000000E+00  0.00000000000E+00 -0.72439155591E+03  0.32812671857E+04  0.32003079879E+04 0.  0.
        3    1    3    3  502    0  0.29771568292E+03  0.15511386925E+04 -0.99137727575E+02  0.15825593735E+04  0.10100000352E+00 0. -1.
       -3    1    3    3    0  502 -0.29771568292E+03 -0.15511386925E+04 -0.62525382834E+03  0.16987078122E+04  0.10100000352E+00 0.  1.
</event>
<event>
 5   0  0.9707721E-08  0.3215661E+04  0.7818609E-02  0.8184693E-01
       -2   -1    0    0    0  501  0.00000000000E+00  0.00000000000E+00  0.14739579022E+04  0.14739579022E+04  0.25500000920E-02 0.  1.
        2   -1    0    0  501    0  0.00000000000E+00  0.00000000000E+00 -0.17538625384E+04  0.17538625384E+04  0.25500000920E-02 0. -1.
    10030    2    1    2    0    0  0.00000000000E+00  0.00000000000E+00 -0.27990463615E+03  0.32278204407E+04  0.32156613926E+04 0.  0.
        3    1    3    3  502    0 -0.79374362258E+02 -0.37218395401E+03 -0.17080045298E+04  0.17498859017E+04  0.10100000352E+00 0. -1.
       -3    1    3    3    0  502  0.79374362258E+02  0.37218395401E+03  0.14280998936E+04  0.14779345389E+04  0.10100000352E+00 0.  1.
</event>
<event>
 5   0  0.3343140E-08  0.3199961E+04  0.7818609E-02  0.8188827E-01
       -1   -1    0    0    0  501  0.00000000000E+00  0.00000000000E+00  0.14265585365E+04  0.14265585365E+04  0.50400001928E-02 0.  1.
        1   -1    0    0  501    0  0.00000000000E+00  0.00000000000E+00 -0.17944849581E+04  0.17944849581E+04  0.50400001928E-02 0. -1.
    10030    2    1    2    0    0  0.00000000000E+00  0.00000000000E+00 -0.36792642159E+03  0.32210434946E+04  0.31999611471E+04 0.  0.
        1    1    3    3  502    0 -0.76189329549E+03 -0.39423686536E+03  0.11755026852E+04  0.14552356038E+04  0.50400001928E-02 0.  1.
       -1    1    3    3    0  502  0.76189329549E+03  0.39423686536E+03 -0.15434291068E+04  0.17658078908E+04  0.50400001928E-02 0. -1.
</event>
<event>
 5   0  0.9329929E-08  0.3198597E+04  0.7818609E-02  0.8189188E-01
        2   -1    0    0  501    0  0.00000000000E+00  0.00000000000E+00  0.19781834020E+04  0.19781834020E+04  0.25500000920E-02 0. -1.
       -2   -1    0    0    0  501  0.00000000000E+00  0.00000000000E+00 -0.12929817888E+04  0.12929817888E+04  0.25500000920E-02 0.  1.
    10030    2    1    2    0    0  0.00000000000E+00  0.00000000000E+00  0.68520161317E+03  0.32711651908E+04  0.31985966383E+04 0.  0.
        1    1    3    3  502    0 -0.79095654392E+03 -0.12620761507E+04 -0.25311508369E+03  0.15107996923E+04  0.50400001928E-02 0. -1.
       -1    1    3    3    0  502  0.79095654392E+03  0.12620761507E+04  0.93831669686E+03  0.17603654985E+04  0.50400001928E-02 0.  1.
</event>
<event>
 5   0  0.3427667E-08  0.3198685E+04  0.7818609E-02  0.8189165E-01
       -1   -1    0    0    0  501  0.00000000000E+00  0.00000000000E+00  0.90506699115E+03  0.90506699116E+03  0.50400001928E-02 0.  1.
        1   -1    0    0  501    0  0.00000000000E+00  0.00000000000E+00 -0.28261949349E+04  0.28261949349E+04  0.50400001928E-02 0. -1.
    10030    2    1    2    0    0  0.00000000000E+00  0.00000000000E+00 -0.19211279437E+04  0.37312619260E+04  0.31986845710E+04 0.  0.
        2    1    3    3  502    0 -0.11517933255E+02  0.51237738474E+03 -0.27278126414E+04  0.27755404976E+04  0.25500000920E-02 0. -1.
       -2    1    3    3    0  502  0.11517933255E+02 -0.51237738474E+03  0.80668469772E+03  0.95572142841E+03  0.25500000920E-02 0.  1.
</event>
<event>
 5   0  0.3343140E-08  0.3208412E+04  0.7818609E-02  0.8186599E-01
       -1   -1    0    0    0  501  0.00000000000E+00  0.00000000000E+00  0.13488395632E+04  0.13488395632E+04  0.50400001928E-02 0. -1.
        1   -1    0    0  501    0  0.00000000000E+00  0.00000000000E+00 -0.19079193604E+04  0.19079193604E+04  0.50400001928E-02 0.  1.
    10030    2    1    2    0    0  0.00000000000E+00  0.00000000000E+00 -0.55907979719E+03  0.32567589237E+04  0.32084121411E+04 0.  0.
        1    1    3    3  502    0 -0.49422781324E+03 -0.10610656155E+04 -0.13930456858E+04  0.18195322626E+04  0.50400001928E-02 0.  1.
       -1    1    3    3    0  502  0.49422781324E+03  0.10610656155E+04  0.83396588865E+03  0.14372266611E+04  0.50400001928E-02 0. -1.
</event>
<event>
 5   0  0.3080500E-08  0.3200146E+04  0.7818609E-02  0.8188779E-01
       -4   -1    0    0    0  501  0.00000000000E+00  0.00000000000E+00  0.15727778439E+04  0.15727783567E+04  0.12699999809E+01 0.  1.
        4   -1    0    0  501    0  0.00000000000E+00  0.00000000000E+00 -0.16278409859E+04  0.16278414813E+04  0.12699999809E+01 0. -1.
    10030    2    1    2    0    0  0.00000000000E+00  0.00000000000E+00 -0.55063142021E+02  0.32006198380E+04  0.32001461526E+04 0.  0.
        1    1    3    3  502    0  0.98432838085E+03  0.12608602985E+04  0.12006492865E+02  0.15996297101E+04  0.50400001928E-02 0.  1.
       -1    1    3    3    0  502 -0.98432838085E+03 -0.12608602985E+04 -0.67069634887E+02  0.16009901279E+04  0.50400001928E-02 0. -1.
</event>
<event>
 5   0  0.9329929E-08  0.3201675E+04  0.7818609E-02  0.8188375E-01
       -2   -1    0    0    0  501  0.00000000000E+00  0.00000000000E+00  0.91384400861E+03  0.91384400862E+03  0.25500000920E-02 0.  1.
        2   -1    0    0  501    0  0.00000000000E+00  0.00000000000E+00 -0.28042869523E+04  0.28042869523E+04  0.25500000920E-02 0. -1.
    10030    2    1    2    0    0  0.00000000000E+00  0.00000000000E+00 -0.18904429436E+04  0.37181309609E+04  0.32016750802E+04 0.  0.
        1    1    3    3  502    0  0.40818744986E+03  0.49528535093E+03 -0.26483327475E+04  0.27249937458E+04  0.50400001928E-02 0. -1.
       -1    1    3    3    0  502 -0.40818744986E+03 -0.49528535093E+03  0.75788980389E+03  0.99313721506E+03  0.50400001928E-02 0.  1.
</event>
<event>
 5   0  0.3220147E-08  0.3199304E+04  0.7818609E-02  0.8189001E-01
       -1   -1    0    0    0  501  0.00000000000E+00  0.00000000000E+00  0.10050008481E+04  0.10050008481E+04  0.50400001928E-02 0.  1.
        1   -1    0    0  501    0  0.00000000000E+00  0.00000000000E+00 -0.25461536711E+04  0.25461536712E+04  0.50400001928E-02 0. -1.
    10030    2    1    2    0    0  0.00000000000E+00  0.00000000000E+00 -0.15411528231E+04  0.35511545192E+04  0.31993040486E+04 0.  0.
        4    1    3    3  502    0  0.49371072519E+02 -0.14830318395E+04 -0.14338414647E+04  0.20634252830E+04  0.12699999809E+01 0. -1.
       -4    1    3    3    0  502 -0.49371072519E+02  0.14830318395E+04 -0.10731135838E+03  0.14877292362E+04  0.12699999809E+01 0.  1.
</event>
<event>
 5   0  0.3427667E-08  0.3200115E+04  0.7818609E-02  0.8188787E-01
       -1   -1    0    0    0  501  0.00000000000E+00  0.00000000000E+00  0.12668049867E+04  0.12668049867E+04  0.50400001928E-02 0. -1.
        1   -1    0    0  501    0  0.00000000000E+00  0.00000000000E+00 -0.20209771582E+04  0.20209771582E+04  0.50400001928E-02 0.  1.
    10030    2    1    2    0    0  0.00000000000E+00  0.00000000000E+00 -0.75417217146E+03  0.32877821449E+04  0.32001149617E+04 0.  0.
        2    1    3    3  502    0 -0.13948689547E+04 -0.21031871864E+03 -0.11529499951E+04  0.18218636216E+04  0.25500000920E-02 0.  1.
       -2    1    3    3    0  502  0.13948689547E+04  0.21031871864E+03  0.39877782369E+03  0.14659185233E+04  0.25500000920E-02 0. -1.
</event>
<event>
 5   0  0.9353994E-08  0.3199762E+04  0.7818609E-02  0.8188880E-01
       -2   -1    0    0    0  501  0.00000000000E+00  0.00000000000E+00  0.10550892256E+04  0.10550892256E+04  0.25500000920E-02 0. -1.
        2   -1    0    0  501    0  0.00000000000E+00  0.00000000000E+00 -0.24259742946E+04  0.24259742946E+04  0.25500000920E-02 0.  1.
    10030    2    1    2    0    0  0.00000000000E+00  0.00000000000E+00 -0.13708850690E+04  0.34810635202E+04  0.31997620786E+04 0.  0.
        2    1    3    3  502    0  0.15284280184E+04 -0.47249381358E+03 -0.70354014584E+03  0.17476588191E+04  0.25500000920E-02 0. -1.
       -2    1    3    3    0  502 -0.15284280184E+04  0.47249381358E+03 -0.66734492311E+03  0.17334047011E+04  0.25500000920E-02 0.  1.
</event>
<event>
 5   0  0.3270966E-08  0.3201117E+04  0.7818609E-02  0.8188522E-01
       -1   -1    0    0    0  501  0.00000000000E+00  0.00000000000E+00  0.20705055170E+04  0.20705055170E+04  0.50400001928E-02 0. -1.
        1   -1    0    0  501    0  0.00000000000E+00  0.00000000000E+00 -0.12372761683E+04  0.12372761683E+04  0.50400001928E-02 0.  1.
    10030    2    1    2    0    0  0.00000000000E+00  0.00000000000E+00  0.83322934870E+03  0.33077816853E+04  0.32011167630E+04 0.  0.
        3    1    3    3  502    0  0.87006711185E+03  0.33958859694E+03  0.17597135482E+04  0.19922171007E+04  0.10100000352E+00 0. -1.
       -3    1    3    3    0  502 -0.87006711185E+03 -0.33958859694E+03 -0.92648419948E+03  0.13155645846E+04  0.10100000352E+00 0.  1.
</event>
<event>
 5   0  0.9157524E-08  0.3199001E+04  0.7818609E-02  0.8189081E-01
        2   -1    0    0  501    0  0.00000000000E+00  0.00000000000E+00  0.29236520108E+04  0.29236520108E+04  0.25500000920E-02 0. -1.
       -2   -1    0    0    0  501  0.00000000000E+00  0.00000000000E+00 -0.87507053239E+03  0.87507053239E+03  0.25500000920E-02 0.  1.
    10030    2    1    2    0    0  0.00000000000E+00  0.00000000000E+00  0.20485814784E+04  0.37987225432E+04  0.31990009200E+04 0.  0.
        5    1    3    3  502    0 -0.10734583717E+04  0.56562498583E+03 -0.21326605760E+03  0.12319695620E+04  0.46999998093E+01 0.  1.
       -5    1    3    3    0  502  0.10734583717E+04 -0.56562498583E+03  0.22618475360E+04  0.25667529812E+04  0.46999998093E+01 0. -1.
</event>
<event>
 5   0  0.3270966E-08  0.3199400E+04  0.7818609E-02  0.8188976E-01
       -1   -1    0    0    0  501  0.00000000000E+00  0.00000000000E+00  0.10586124430E+04  0.10586124430E+04  0.50400001928E-02 0. -1.
        1   -1    0    0  501    0  0.00000000000E+00  0.00000000000E+00 -0.24173530833E+04  0.24173530833E+04  0.50400001928E-02 0.  1.
    10030    2    1    2    0    0  0.00000000000E+00  0.00000000000E+00 -0.13587406403E+04  0.34759655263E+04  0.31993999770E+04 0.  0.
        3    1    3    3  502    0 -0.14368336156E+04  0.24882234234E+03  0.35238833234E+02  0.14586449817E+04  0.10100000352E+00 0.  1.
       -3    1    3    3    0  502  0.14368336156E+04 -0.24882234234E+03 -0.13939794735E+04  0.20173205446E+04  0.10100000352E+00 0. -1.
</event>
<event>
 5   0  0.9353994E-08  0.3199707E+04  0.7818609E-02  0.8188894E-01
        2   -1    0    0  501    0  0.00000000000E+00  0.00000000000E+00  0.22219931702E+04  0.22219931702E+04  0.25500000920E-02 0.  1.
       -2   -1    0    0    0  501  0.00000000000E+00  0.00000000000E+00 -0.11519081336E+04  0.11519081337E+04  0.25500000920E-02 0. -1.
    10030    2    1    2    0    0  0.00000000000E+00  0.00000000000E+00  0.10700850365E+04  0.33739013038E+04  0.31997074902E+04 0.  0.
        2    1    3    3  502    0 -0.76394766782E+03  0.84215567872E+03 -0.65170198628E+03  0.13105562580E+04  0.25500000920E-02 0. -1.
       -2    1    3    3    0  502  0.76394766782E+03 -0.84215567872E+03  0.17217870228E+04  0.20633450459E+04  0.25500000920E-02 0.  1.
</event>
<event>
 5   0  0.9353994E-08  0.3201869E+04  0.7818609E-02  0.8188324E-01
        2   -1    0    0  501    0  0.00000000000E+00  0.00000000000E+00  0.17940614267E+04  0.17940614267E+04  0.25500000920E-02 0. -1.
       -2   -1    0    0    0  501  0.00000000000E+00  0.00000000000E+00 -0.14285971760E+04  0.14285971760E+04  0.25500000920E-02 0.  1.
    10030    2    1    2    0    0  0.00000000000E+00  0.00000000000E+00  0.36546425067E+03  0.32226586027E+04  0.32018688841E+04 0.  0.
        2    1    3    3  502    0 -0.15422605452E+04 -0.40987663788E+03  0.31172291182E+03  0.16259574475E+04  0.25500000920E-02 0. -1.
       -2    1    3    3    0  502  0.15422605452E+04  0.40987663788E+03  0.53741338843E+02  0.15967011552E+04  0.25500000920E-02 0.  1.
</event>
<event>
 5   0  0.3343140E-08  0.3209240E+04  0.7818609E-02  0.8186381E-01
       -1   -1    0    0    0  501  0.00000000000E+00  0.00000000000E+00  0.84488632240E+03  0.84488632242E+03  0.50400001928E-02 0.  1.
        1   -1    0    0  501    0  0.00000000000E+00  0.00000000000E+00 -0.30475177101E+04  0.30475177101E+04  0.50400001928E-02 0. -1.
    10030    2    1    2    0    0  0.00000000000E+00  0.00000000000E+00 -0.22026313877E+04  0.38924040325E+04  0.32092404276E+04 0.  0.
        1    1    3    3  502    0  0.46118330634E+03 -0.83550522402E+03 -0.26658981451E+04  0.28315670469E+04  0.50400001928E-02 0. -1.
       -1    1    3    3    0  502 -0.46118330634E+03  0.83550522402E+03  0.46326675739E+03  0.10608369856E+04  0.50400001928E-02 0.  1.
</event>
<event>
 5   0  0.9707721E-08  0.3200416E+04  0.7818609E-02  0.8188707E-01
        2   -1    0    0  501    0  0.00000000000E+00  0.00000000000E+00  0.18860380739E+04  0.18860380739E+04  0.25500000920E-02 0.  1.
       -2   -1    0    0    0  501  0.00000000000E+00  0.00000000000E+00 -0.13576957390E+04  0.13576957390E+04  0.25500000920E-02 0. -1.
    10030    2    1    2    0    0  0.00000000000E+00  0.00000000000E+00  0.52834233498E+03  0.32437338129E+04  0.32004161332E+04 0.  0.
        3    1    3    3  502    0 -0.61834333147E+03 -0.36306812159E+03  0.17140927541E+04  0.18580314627E+04  0.10100000352E+00 0.  1.
       -3    1    3    3    0  502  0.61834333147E+03  0.36306812159E+03 -0.11857504192E+04  0.13857023502E+04  0.10100000352E+00 0. -1.
</event>
<event>
 5   0  0.9353994E-08  0.3199830E+04  0.7818609E-02  0.8188862E-01
        2   -1    0    0  501    0  0.00000000000E+00  0.00000000000E+00  0.19528491332E+04  0.19528491332E+04  0.25500000920E-02 0.  1.
       -2   -1    0    0    0  501  0.00000000000E+00  0.00000000000E+00 -0.13107662055E+04  0.13107662055E+04  0.25500000920E-02 0. -1.
    10030    2    1    2    0    0  0.00000000000E+00  0.00000000000E+00  0.64208292768E+03  0.32636153387E+04  0.31998304006E+04 0.  0.
        2    1    3    3  502    0 -0.75171098941E+03 -0.72145793270E+03 -0.91731015511E+03  0.13881746579E+04  0.25500000920E-02 0. -1.
       -2    1    3    3    0  502  0.75171098941E+03  0.72145793270E+03  0.15593930828E+04  0.18754406807E+04  0.25500000920E-02 0.  1.
</event>
<event>
 5   0  0.3270966E-08  0.3181545E+04  0.7818609E-02  0.8193708E-01
       -1   -1    0    0    0  501  0.00000000000E+00  0.00000000000E+00  0.14201846590E+04  0.14201846590E+04  0.50400001928E-02 0. -1.
        1   -1    0    0  501    0  0.00000000000E+00  0.00000000000E+00 -0.17818510215E+04  0.17818510215E+04  0.50400001928E-02 0.  1.
    10030    2    1    2    0    0  0.00000000000E+00  0.00000000000E+00 -0.36166636250E+03  0.32020356804E+04  0.31815452128E+04 0.  0.
        3    1    3    3  502    0  0.27297451127E+03 -0.15403879344E+04  0.10955130741E+03  0.15682192358E+04  0.10100000352E+00 0. -1.
       -3    1    3    3    0  502 -0.27297451127E+03  0.15403879344E+04 -0.47121766991E+03  0.16338164447E+04  0.10100000352E+00 0.  1.
</event>
<event>
 5   0  0.3270966E-08  0.3199443E+04  0.7818609E-02  0.8188964E-01
       -1   -1    0    0    0  501  0.00000000000E+00  0.00000000000E+00  0.13887956450E+04  0.13887956450E+04  0.50400001928E-02 0.  1.
        1   -1    0    0  501    0  0.00000000000E+00  0.00000000000E+00 -0.18426819373E+04  0.18426819374E+04  0.50400001928E-02 0. -1.
    10030    2    1    2    0    0  0.00000000000E+00  0.00000000000E+00 -0.45388629233E+03  0.32314775824E+04  0.31994428576E+04 0.  0.
        3    1    3    3  502    0  0.27834779728E+03 -0.41645262844E+03  0.13075443457E+04  0.14002080253E+04  0.10100000352E+00 0.  1.
       -3    1    3    3    0  502 -0.27834779728E+03  0.41645262844E+03 -0.17614306380E+04  0.18312695571E+04  0.10100000352E+00 0. -1.
</event>
<event>
 5   0  0.3220147E-08  0.3195210E+04  0.7818609E-02  0.8190083E-01
        1   -1    0    0  501    0  0.00000000000E+00  0.00000000000E+00  0.15036082511E+04  0.15036082512E+04  0.50400001928E-02 0.  1.
       -1   -1    0    0    0  501  0.00000000000E+00  0.00000000000E+00 -0.16974782143E+04  0.16974782143E+04  0.50400001928E-02 0. -1.
    10030    2    1    2    0    0  0.00000000000E+00  0.00000000000E+00 -0.19386996314E+03  0.32010864654E+04  0.31952103212E+04 0.  0.
        4    1    3    3  502    0  0.72395410812E+02  0.10708539376E+04  0.10886141827E+04  0.15287418693E+04  0.12699999809E+01 0.  1.
       -4    1    3    3    0  502 -0.72395410812E+02 -0.10708539376E+04 -0.12824841458E+04  0.16723445962E+04  0.12699999809E+01 0. -1.
</event>
<event>
 5   0  0.9707721E-08  0.3199778E+04  0.7818609E-02  0.8188876E-01
       -2   -1    0    0    0  501  0.00000000000E+00  0.00000000000E+00  0.16865715670E+04  0.16865715670E+04  0.25500000920E-02 0.  1.
        2   -1    0    0  501    0  0.00000000000E+00  0.00000000000E+00 -0.15176620044E+04  0.15176620044E+04  0.25500000920E-02 0. -1.
    10030    2    1    2    0    0  0.00000000000E+00  0.00000000000E+00  0.16890956258E+03  0.32042335715E+04  0.31997784830E+04 0.  0.
        3    1    3    3  502    0  0.65521823782E+02  0.12013567296E+04  0.11404819558E+04  0.16577847276E+04  0.10100000352E+00 0.  1.
       -3    1    3    3    0  502 -0.65521823782E+02 -0.12013567296E+04 -0.97157239326E+03  0.15464488439E+04  0.10100000352E+00 0. -1.
</event>
<event>
 5   0  0.9353994E-08  0.3200689E+04  0.7818609E-02  0.8188635E-01
        2   -1    0    0  501    0  0.00000000000E+00  0.00000000000E+00  0.23474903007E+04  0.23474903007E+04  0.25500000920E-02 0.  1.
       -2   -1    0    0    0  501  0.00000000000E+00  0.00000000000E+00 -0.10909958795E+04  0.10909958795E+04  0.25500000920E-02 0. -1.
    10030    2    1    2    0    0  0.00000000000E+00  0.00000000000E+00  0.12564944212E+04  0.34384861802E+04  0.32006888292E+04 0.  0.
        2    1    3    3  502    0 -0.75292491730E+03  0.14013964935E+04  0.44126364164E+03  0.16509154020E+04  0.25500000920E-02 0. -1.
       -2    1    3    3    0  502  0.75292491730E+03 -0.14013964935E+04  0.81523077960E+03  0.17875707782E+04  0.25500000920E-02 0.  1.
</event>
<event>
 5   0  0.9727083E-08  0.3176651E+04  0.7818609E-02  0.8195011E-01
       -2   -1    0    0    0  501  0.00000000000E+00  0.00000000000E+00  0.11548271812E+04  0.11548271812E+04  0.25500000920E-02 0. -1.
        2   -1    0    0  501    0  0.00000000000E+00  0.00000000000E+00 -0.21845500010E+04  0.21845500010E+04  0.25500000920E-02 0.  1.
    10030    2    1    2    0    0  0.00000000000E+00  0.00000000000E+00 -0.10297228198E+04  0.33393771822E+04  0.31766508904E+04 0.  0.
        4    1    3    3  502    0 -0.34334403891E+03  0.10541094864E+04 -0.17105557925E+04  0.20383902154E+04  0.12699999809E+01 0.  1.
       -4    1    3    3    0  502  0.34334403891E+03 -0.10541094864E+04  0.68083297267E+03  0.13009869668E+04  0.12699999809E+01 0. -1.
</event>
<event>
 5   0  0.3427667E-08  0.3199568E+04  0.7818609E-02  0.8188931E-01
        1   -1    0    0  501    0  0.00000000000E+00  0.00000000000E+00  0.19740690950E+04  0.19740690950E+04  0.50400001928E-02 0. -1.
       -1   -1    0    0    0  501  0.00000000000E+00  0.00000000000E+00 -0.12964636905E+04  0.12964636906E+04  0.50400001928E-02 0.  1.
    10030    2    1    2    0    0  0.00000000000E+00  0.00000000000E+00  0.67760540446E+03  0.32705327856E+04  0.31995680361E+04 0.  0.
        2    1    3    3  502    0 -0.56495878023E+03  0.13430983464E+04 -0.33631361779E+03  0.14953924037E+04  0.25500000920E-02 0.  1.
       -2    1    3    3    0  502  0.56495878023E+03 -0.13430983464E+04  0.10139190222E+04  0.17751403818E+04  0.25500000920E-02 0. -1.
</event>
<event>
 5   0  0.9329929E-08  0.3201141E+04  0.7818609E-02  0.8188516E-01
       -2   -1    0    0    0  501  0.00000000000E+00  0.00000000000E+00  0.90816642499E+03  0.90816642499E+03  0.25500000920E-02 0. -1.
        2   -1    0    0  501    0  0.00000000000E+00  0.00000000000E+00 -0.28208774028E+04  0.28208774028E+04  0.25500000920E-02 0.  1.
    10030    2    1    2    0    0  0.00000000000E+00  0.00000000000E+00 -0.19127109778E+04  0.37290438278E+04  0.32011411379E+04 0.  0.
        1    1    3    3  502    0 -0.13535123369E+04  0.26682107289E+03 -0.19017557811E+04  0.23494391208E+04  0.50400001928E-02 0.  1.
       -1    1    3    3    0  502  0.13535123369E+04 -0.26682107289E+03 -0.10955196672E+02  0.13796047070E+04  0.50400001928E-02 0. -1.
</event>
<event>
 5   0  0.9353994E-08  0.3200588E+04  0.7818609E-02  0.8188662E-01
        2   -1    0    0  501    0  0.00000000000E+00  0.00000000000E+00  0.17958118093E+04  0.17958118093E+04  0.25500000920E-02 0. -1.
       -2   -1    0    0    0  501  0.00000000000E+00  0.00000000000E+00 -0.14260633864E+04  0.14260633864E+04  0.25500000920E-02 0.  1.
    10030    2    1    2    0    0  0.00000000000E+00  0.00000000000E+00  0.36974842288E+03  0.32218751956E+04  0.32005883647E+04 0.  0.
        2    1    3    3  502    0 -0.14336736128E+04 -0.54708088620E+03  0.64201338357E+03  0.16633997441E+04  0.25500000920E-02 0. -1.
       -2    1    3    3    0  502  0.14336736128E+04  0.54708088620E+03 -0.27226496069E+03  0.15584754515E+04  0.25500000920E-02 0.  1.
</event>
<event>
 5   0  0.3343140E-08  0.3198942E+04  0.7818609E-02  0.8189097E-01
       -1   -1    0    0    0  501  0.00000000000E+00  0.00000000000E+00  0.10998172587E+04  0.10998172587E+04  0.50400001928E-02 0.  1.
        1   -1    0    0  501    0  0.00000000000E+00  0.00000000000E+00 -0.23261211202E+04  0.23261211202E+04  0.50400001928E-02 0. -1.
    10030    2    1    2    0    0  0.00000000000E+00  0.00000000000E+00 -0.12263038615E+04  0.34259383789E+04  0.31989424214E+04 0.  0.
        1    1    3    3  502    0  0.25055381434E+03  0.34526296856E+03  0.10377679208E+04  0.11220276239E+04  0.50400001928E-02 0.  1.
       -1    1    3    3    0  502 -0.25055381434E+03 -0.34526296856E+03 -0.22640717823E+04  0.23039107550E+04  0.50400001928E-02 0. -1.
</event>
<event>
 5   0  0.3270966E-08  0.3201736E+04  0.7818609E-02  0.8188359E-01
        1   -1    0    0  501    0  0.00000000000E+00  0.00000000000E+00  0.22787215605E+04  0.22787215605E+04  0.50400001928E-02 0. -1.
       -1   -1    0    0    0  501  0.00000000000E+00  0.00000000000E+00 -0.11246560770E+04  0.11246560770E+04  0.50400001928E-02 0.  1.
    10030    2    1    2    0    0  0.00000000000E+00  0.00000000000E+00  0.11540654835E+04  0.34033776375E+04  0.32017358109E+04 0.  0.
        3    1    3    3  502    0 -0.75964138039E+03 -0.86641479654E+03  0.17583502442E+04  0.21022666857E+04  0.10100000352E+00 0. -1.
       -3    1    3    3    0  502  0.75964138039E+03  0.86641479654E+03 -0.60428476070E+03  0.13011109517E+04  0.10100000352E+00 0.  1.
</event>
<event>
 5   0  0.3220147E-08  0.3198330E+04  0.7818609E-02  0.8189258E-01
        1   -1    0    0  501    0  0.00000000000E+00  0.00000000000E+00  0.23938909816E+04  0.23938909816E+04  0.50400001928E-02 0.  1.
       -1   -1    0    0    0  501  0.00000000000E+00  0.00000000000E+00 -0.10682730912E+04  0.10682730912E+04  0.50400001928E-02 0. -1.
    10030    2    1    2    0    0  0.00000000000E+00  0.00000000000E+00  0.13256178904E+04  0.34621640728E+04  0.31983303888E+04 0.  0.
        4    1    3    3  502    0 -0.40726086690E+03  0.15079137217E+04  0.10341246835E+04  0.18732540350E+04  0.12699999809E+01 0. -1.
       -4    1    3    3    0  502  0.40726086690E+03 -0.15079137217E+04  0.29149320690E+03  0.15889100378E+04  0.12699999809E+01 0.  1.
</event>
<event>
 5   0  0.3270966E-08  0.3198600E+04  0.7818609E-02  0.8189187E-01
        1   -1    0    0  501    0  0.00000000000E+00  0.00000000000E+00  0.18696238698E+04  0.18696238699E+04  0.50400001928E-02 0.  1.
       -1   -1    0    0    0  501  0.00000000000E+00  0.00000000000E+00 -0.13680615273E+04  0.13680615273E+04  0.50400001928E-02 0. -1.
    10030    2    1    2    0    0  0.00000000000E+00  0.00000000000E+00  0.50156234259E+03  0.32376853971E+04  0.31985999980E+04 0.  0.
        3    1    3    3  502    0  0.29315715240E+03  0.55570201907E+02 -0.13396380897E+04  0.13724647117E+04  0.10100000352E+00 0. -1.
       -3    1    3    3    0  502 -0.29315715240E+03 -0.55570201907E+02  0.18412004323E+04  0.18652206854E+04  0.10100000352E+00 0.  1.
</event>
<event>
 5   0  0.9707721E-08  0.3200340E+04  0.7818609E-02  0.8188727E-01
       -2   -1    0    0    0  501  0.00000000000E+00  0.00000000000E+00  0.18667318731E+04  0.18667318731E+04  0.25500000920E-02 0. -1.
        2   -1    0    0  501    0  0.00000000000E+00  0.00000000000E+00 -0.13716718030E+04  0.13716718030E+04  0.25500000920E-02 0.  1.
    10030    2    1    2    0    0  0.00000000000E+00  0.00000000000E+00  0.49506007013E+03  0.32384036761E+04  0.32003396533E+04 0.  0.
        3    1    3    3  502    0 -0.55540388734E+03 -0.60060768425E+03  0.16391471470E+04  0.18319406236E+04  0.10100000352E+00 0. -1.
       -3    1    3    3    0  502  0.55540388734E+03  0.60060768425E+03 -0.11440870769E+04  0.14064630526E+04  0.10100000352E+00 0.  1.
</event>
<event>
 5   0  0.3220147E-08  0.3199798E+04  0.7818609E-02  0.8188870E-01
       -1   -1    0    0    0  501  0.00000000000E+00  0.00000000000E+00  0.27725663003E+04  0.27725663003E+04  0.50400001928E-02 0.  1.
        1   -1    0    0  501    0  0.00000000000E+00  0.00000000000E+00 -0.92321596108E+03  0.92321596109E+03  0.50400001928E-02 0. -1.
    10030    2    1    2    0    0  0.00000000000E+00  0.00000000000E+00  0.18493503392E+04  0.36957822614E+04  0.31997984072E+04 0.  0.
        4    1    3    3  502    0 -0.15278020354E+04 -0.38696346997E+03  0.12425765800E+04  0.20069673531E+04  0.12699999809E+01 0. -1.
       -4    1    3    3    0  502  0.15278020354E+04  0.38696346997E+03  0.60677375926E+03  0.16888149083E+04  0.12699999809E+01 0.  1.
</event>
<event>
 5   0  0.9329929E-08  0.3199541E+04  0.7818609E-02  0.8188938E-01
       -2   -1    0    0    0  501  0.00000000000E+00  0.00000000000E+00  0.18549007203E+04  0.18549007203E+04  0.25500000920E-02 0.  1.
        2   -1    0    0  501    0  0.00000000000E+00  0.00000000000E+00 -0.13797318125E+04  0.13797318125E+04  0.25500000920E-02 0. -1.
    10030    2    1    2    0    0  0.00000000000E+00  0.00000000000E+00  0.47516890779E+03  0.32346325327E+04  0.31995409250E+04 0.  0.
        1    1    3    3  502    0  0.15123322825E+04  0.38878764076E+03 -0.11402419760E+03  0.15656648045E+04  0.50400001928E-02 0.  1.
       -1    1    3    3    0  502 -0.15123322825E+04 -0.38878764076E+03  0.58919310539E+03  0.16689677282E+04  0.50400001928E-02 0. -1.
</event>
<event>
 5   0  0.3427667E-08  0.3199796E+04  0.7818609E-02  0.8188871E-01
        1   -1    0    0  501    0  0.00000000000E+00  0.00000000000E+00  0.92492721622E+03  0.92492721623E+03  0.50400001928E-02 0.  1.
       -1   -1    0    0    0  501  0.00000000000E+00  0.00000000000E+00 -0.27674331079E+04  0.27674331079E+04  0.50400001928E-02 0. -1.
    10030    2    1    2    0    0  0.00000000000E+00  0.00000000000E+00 -0.18425058917E+04  0.36923603242E+04  0.31997963689E+04 0.  0.
        2    1    3    3  502    0 -0.18999708585E+03 -0.27423421630E+03 -0.27268479282E+04  0.27471809044E+04  0.25500000920E-02 0. -1.
       -2    1    3    3    0  502  0.18999708585E+03  0.27423421630E+03  0.88434203649E+03  0.94517941975E+03  0.25500000920E-02 0.  1.
</event>
<event>
 5   0  0.3270966E-08  0.3200434E+04  0.7818609E-02  0.8188702E-01
       -1   -1    0    0    0  501  0.00000000000E+00  0.00000000000E+00  0.18133291649E+04  0.18133291649E+04  0.50400001928E-02 0.  1.
        1   -1    0    0  501    0  0.00000000000E+00  0.00000000000E+00 -0.14121512327E+04  0.14121512327E+04  0.50400001928E-02 0. -1.
    10030    2    1    2    0    0  0.00000000000E+00  0.00000000000E+00  0.40117793218E+03  0.32254803977E+04  0.32004343553E+04 0.  0.
        3    1    3    3  502    0  0.10607259181E+03 -0.72021118022E+03  0.16367812456E+04  0.17913705354E+04  0.10100000352E+00 0.  1.
       -3    1    3    3    0  502 -0.10607259181E+03  0.72021118022E+03 -0.12356033134E+04  0.14341098623E+04  0.10100000352E+00 0. -1.
</event>
<event>
 5   0  0.9329929E-08  0.3200671E+04  0.7818609E-02  0.8188640E-01
        2   -1    0    0  501    0  0.00000000000E+00  0.00000000000E+00  0.24290071139E+04  0.24290071139E+04  0.25500000920E-02 0.  1.
       -2   -1    0    0    0  501  0.00000000000E+00  0.00000000000E+00 -0.10543707667E+04  0.10543707667E+04  0.25500000920E-02 0. -1.
    10030    2    1    2    0    0  0.00000000000E+00  0.00000000000E+00  0.13746363472E+04  0.34833778805E+04  0.32006712377E+04 0.  0.
        1    1    3    3  502    0 -0.15168622047E+04  0.46030249752E+03  0.44807235530E+03  0.16472759857E+04  0.50400001928E-02 0. -1.
       -1    1    3    3    0  502  0.15168622047E+04 -0.46030249752E+03  0.92656399186E+03  0.18361018949E+04  0.50400001928E-02 0.  1.
</event>
<event>
 5   0  0.3220147E-08  0.3199509E+04  0.7818609E-02  0.8188947E-01
        1   -1    0    0  501    0  0.00000000000E+00  0.00000000000E+00  0.11391342324E+04  0.11391342325E+04  0.50400001928E-02 0.  1.
       -1   -1    0    0    0  501  0.00000000000E+00  0.00000000000E+00 -0.22466308995E+04  0.22466308995E+04  0.50400001928E-02 0. -1.
    10030    2    1    2    0    0  0.00000000000E+00  0.00000000000E+00 -0.11074966671E+04  0.33857651320E+04  0.31995088156E+04 0.  0.
        4    1    3    3  502    0  0.63073793257E+03 -0.12465645490E+04  0.27102007193E+03  0.14230976800E+04  0.12699999809E+01 0.  1.
       -4    1    3    3    0  502 -0.63073793257E+03  0.12465645490E+04 -0.13785167390E+04  0.19626674520E+04  0.12699999809E+01 0. -1.
</event>
<event>
 5   0  0.9353994E-08  0.3199843E+04  0.7818609E-02  0.8188859E-01
        2   -1    0    0  501    0  0.00000000000E+00  0.00000000000E+00  0.19936154986E+04  0.19936154986E+04  0.25500000920E-02 0. -1.
       -2   -1    0    0    0  501  0.00000000000E+00  0.00000000000E+00 -0.12839729287E+04  0.12839729287E+04  0.25500000920E-02 0.  1.
    10030    2    1    2    0    0  0.00000000000E+00  0.00000000000E+00  0.70964256990E+03  0.32775884273E+04  0.31998427027E+04 0.  0.
        2    1    3    3  502    0  0.69290981578E+03  0.27455742434E+03  0.18049312112E+04  0.19527627785E+04  0.25500000920E-02 0. -1.
       -2    1    3    3    0  502 -0.69290981578E+03 -0.27455742434E+03 -0.10952886413E+04  0.13248256488E+04  0.25500000920E-02 0.  1.
</event>
<event>
 5   0  0.3283581E-08  0.3194312E+04  0.7818609E-02  0.8190321E-01
       -1   -1    0    0    0  501  0.00000000000E+00  0.00000000000E+00  0.24008571701E+04  0.24008571701E+04  0.50400001928E-02 0.  1.
        1   -1    0    0  501    0  0.00000000000E+00  0.00000000000E+00 -0.10624983834E+04  0.10624983834E+04  0.50400001928E-02 0. -1.
    10030    2    1    2    0    0  0.00000000000E+00  0.00000000000E+00  0.13383587867E+04  0.34633555534E+04  0.31943117330E+04 0.  0.
        5    1    3    3  502    0  0.14941412188E+03 -0.11025233178E+04 -0.57319520514E+03  0.12515818309E+04  0.46999998093E+01 0. -1.
       -5    1    3    3    0  502 -0.14941412188E+03  0.11025233178E+04  0.19115539919E+04  0.22117737226E+04  0.46999998093E+01 0.  1.
</event>
<event>
 5   0  0.9707721E-08  0.3200964E+04  0.7818609E-02  0.8188563E-01
        2   -1    0    0  501    0  0.00000000000E+00  0.00000000000E+00  0.14567691211E+04  0.14567691211E+04  0.25500000920E-02 0.  1.
       -2   -1    0    0    0  501  0.00000000000E+00  0.00000000000E+00 -0.17583724677E+04  0.17583724677E+04  0.25500000920E-02 0. -1.
    10030    2    1    2    0    0  0.00000000000E+00  0.00000000000E+00 -0.30160334654E+03  0.32151415888E+04  0.32009640512E+04 0.  0.
        3    1    3    3  502    0  0.84211459267E+03 -0.46475597839E+03  0.11340778147E+04  0.14870398807E+04  0.10100000352E+00 0.  1.
       -3    1    3    3    0  502 -0.84211459267E+03  0.46475597839E+03 -0.14356811613E+04  0.17281017081E+04  0.10100000352E+00 0. -1.
</event>
<event>
 5   0  0.3427667E-08  0.3201850E+04  0.7818609E-02  0.8188329E-01
       -1   -1    0    0    0  501  0.00000000000E+00  0.00000000000E+00  0.12250703765E+04  0.12250703765E+04  0.50400001928E-02 0. -1.
        1   -1    0    0  501    0  0.00000000000E+00  0.00000000000E+00 -0.20920928654E+04  0.20920928654E+04  0.50400001928E-02 0.  1.
    10030    2    1    2    0    0  0.00000000000E+00  0.00000000000E+00 -0.86702248896E+03  0.33171632419E+04  0.32018500866E+04 0.  0.
        2    1    3    3  502    0  0.10549984378E+04  0.49825565595E+03 -0.15692027402E+04  0.19554226250E+04  0.25500000920E-02 0.  1.
       -2    1    3    3    0  502 -0.10549984378E+04 -0.49825565595E+03  0.70218025123E+03  0.13617406169E+04  0.25500000920E-02 0. -1.
</event>
<event>
 5   0  0.9353994E-08  0.3207846E+04  0.7818609E-02  0.8186748E-01
       -2   -1    0    0    0  501  0.00000000000E+00  0.00000000000E+00  0.27596002296E+04  0.27596002296E+04  0.25500000920E-02 0.  1.
        2   -1    0    0  501    0  0.00000000000E+00  0.00000000000E+00 -0.93222510434E+03  0.93222510435E+03  0.25500000920E-02 0. -1.
    10030    2    1    2    0    0  0.00000000000E+00  0.00000000000E+00  0.18273751252E+04  0.36918253339E+04  0.32078457643E+04 0.  0.
        2    1    3    3  502    0  0.10283791433E+04  0.11950100280E+04  0.57431447458E+03  0.16779301967E+04  0.25500000920E-02 0. -1.
       -2    1    3    3    0  502 -0.10283791433E+04 -0.11950100280E+04  0.12530606506E+04  0.20138951372E+04  0.25500000920E-02 0.  1.
</event>
<event>
 5   0  0.9329929E-08  0.3219025E+04  0.7818609E-02  0.8183811E-01
        2   -1    0    0  501    0  0.00000000000E+00  0.00000000000E+00  0.28013039382E+04  0.28013039382E+04  0.25500000920E-02 0.  1.
       -2   -1    0    0    0  501  0.00000000000E+00  0.00000000000E+00 -0.92475856908E+03  0.92475856909E+03  0.25500000920E-02 0. -1.
    10030    2    1    2    0    0  0.00000000000E+00  0.00000000000E+00  0.18765453692E+04  0.37260625073E+04  0.32190245861E+04 0.  0.
        1    1    3    3  502    0 -0.47794618101E+03  0.69378868381E+03 -0.64914751006E+03  0.10635637167E+04  0.50400001928E-02 0. -1.
       -1    1    3    3    0  502  0.47794618101E+03 -0.69378868381E+03  0.25256928792E+04  0.26624987906E+04  0.50400001928E-02 0.  1.
</event>
<event>
 5   0  0.3270966E-08  0.3197413E+04  0.7818609E-02  0.8189501E-01
        1   -1    0    0  501    0  0.00000000000E+00  0.00000000000E+00  0.15237018623E+04  0.15237018623E+04  0.50400001928E-02 0.  1.
       -1   -1    0    0    0  501  0.00000000000E+00  0.00000000000E+00 -0.16774028601E+04  0.16774028601E+04  0.50400001928E-02 0. -1.
    10030    2    1    2    0    0  0.00000000000E+00  0.00000000000E+00 -0.15370099777E+03  0.32011047224E+04  0.31974126176E+04 0.  0.
        3    1    3    3  502    0  0.30880211945E+03 -0.14518286755E+04 -0.67141891288E+03  0.16291005551E+04  0.10100000352E+00 0. -1.
       -3    1    3    3    0  502 -0.30880211945E+03  0.14518286755E+04  0.51771791511E+03  0.15720041672E+04  0.10100000352E+00 0.  1.
</event>
<event>
 5   0  0.3220147E-08  0.3199238E+04  0.7818609E-02  0.8189019E-01
        1   -1    0    0  501    0  0.00000000000E+00  0.00000000000E+00  0.18598819795E+04  0.18598819795E+04  0.50400001928E-02 0.  1.
       -1   -1    0    0    0  501  0.00000000000E+00  0.00000000000E+00 -0.13757757747E+04  0.13757757747E+04  0.50400001928E-02 0. -1.
    10030    2    1    2    0    0  0.00000000000E+00  0.00000000000E+00  0.48410620478E+03  0.32356577542E+04  0.31992377662E+04 0.  0.
        4    1    3    3  502    0 -0.45237786975E+03 -0.27593406653E+03 -0.12844310915E+04  0.13894424018E+04  0.12699999809E+01 0. -1.
       -4    1    3    3    0  502  0.45237786975E+03  0.27593406653E+03  0.17685372963E+04  0.18462153524E+04  0.12699999809E+01 0.  1.
</event>
<event>
 5   0  0.9353994E-08  0.3198976E+04  0.7818609E-02  0.8189088E-01
        2   -1    0    0  501    0  0.00000000000E+00  0.00000000000E+00  0.72191771856E+03  0.72191771856E+03  0.25500000920E-02 0.  1.
       -2   -1    0    0    0  501  0.00000000000E+00  0.00000000000E+00 -0.35438405636E+04  0.35438405636E+04  0.25500000920E-02 0. -1.
    10030    2    1    2    0    0  0.00000000000E+00  0.00000000000E+00 -0.28219228451E+04  0.42657582822E+04  0.31989756452E+04 0.  0.
        2    1    3    3  502    0 -0.15862060394E+04 -0.12021044903E+03 -0.16335407240E+04  0.22801218056E+04  0.25500000920E-02 0. -1.
       -2    1    3    3    0  502  0.15862060394E+04  0.12021044903E+03 -0.11883821211E+04  0.19856364766E+04  0.25500000920E-02 0.  1.
</event>
<event>
 5   0  0.9727083E-08  0.3200669E+04  0.7818609E-02  0.8188641E-01
       -2   -1    0    0    0  501  0.00000000000E+00  0.00000000000E+00  0.11501121413E+04  0.11501121413E+04  0.25500000920E-02 0.  1.
        2   -1    0    0  501    0  0.00000000000E+00  0.00000000000E+00 -0.22268000081E+04  0.22268000081E+04  0.25500000920E-02 0. -1.
    10030    2    1    2    0    0  0.00000000000E+00  0.00000000000E+00 -0.10766878668E+04  0.33769121494E+04  0.32006685086E+04 0.  0.
        4    1    3    3  502    0  0.12751028213E+04  0.54038581412E+03 -0.13844795112E+04  0.19582362378E+04  0.12699999809E+01 0. -1.
       -4    1    3    3    0  502 -0.12751028213E+04 -0.54038581412E+03  0.30779164438E+03  0.14186759116E+04  0.12699999809E+01 0.  1.
</event>
<event>
 5   0  0.9707721E-08  0.3195641E+04  0.7818609E-02  0.8189969E-01
       -2   -1    0    0    0  501  0.00000000000E+00  0.00000000000E+00  0.15897281867E+04  0.15897281867E+04  0.25500000920E-02 0.  1.
        2   -1    0    0  501    0  0.00000000000E+00  0.00000000000E+00 -0.16059535281E+04  0.16059535281E+04  0.25500000920E-02 0. -1.
    10030    2    1    2    0    0  0.00000000000E+00  0.00000000000E+00 -0.16225341441E+02  0.31956817149E+04  0.31956405244E+04 0.  0.
        3    1    3    3  502    0 -0.14770389486E+04  0.45683625283E+03  0.39523625569E+03  0.15957929457E+04  0.10100000352E+00 0.  1.
       -3    1    3    3    0  502  0.14770389486E+04 -0.45683625283E+03 -0.41146159713E+03  0.15998887692E+04  0.10100000352E+00 0. -1.
</event>
<event>
 5   0  0.9157524E-08  0.3202723E+04  0.7818609E-02  0.8188099E-01
       -2   -1    0    0    0  501  0.00000000000E+00  0.00000000000E+00  0.13740039118E+04  0.13740039118E+04  0.25500000920E-02 0. -1.
        2   -1    0    0  501    0  0.00000000000E+00  0.00000000000E+00 -0.18663397104E+04  0.18663397104E+04  0.25500000920E-02 0.  1.
    10030    2    1    2    0    0  0.00000000000E+00  0.00000000000E+00 -0.49233579862E+03  0.32403436223E+04  0.32027226311E+04 0.  0.
        5    1    3    3  502    0  0.30314093084E+01  0.13633099655E+04  0.60376709729E+03  0.14910332153E+04  0.46999998093E+01 0. -1.
       -5    1    3    3    0  502 -0.30314093084E+01 -0.13633099655E+04 -0.10961028959E+04  0.17493104069E+04  0.46999998093E+01 0.  1.
</event>
<event>
 5   0  0.3220147E-08  0.3198711E+04  0.7818609E-02  0.8189158E-01
        1   -1    0    0  501    0  0.00000000000E+00  0.00000000000E+00  0.14919924104E+04  0.14919924105E+04  0.50400001928E-02 0.  1.
       -1   -1    0    0    0  501  0.00000000000E+00  0.00000000000E+00 -0.17144445828E+04  0.17144445828E+04  0.50400001928E-02 0. -1.
    10030    2    1    2    0    0  0.00000000000E+00  0.00000000000E+00 -0.22245217236E+03  0.32064369933E+04  0.31987111815E+04 0.  0.
        4    1    3    3  502    0  0.11131791739E+04  0.11065600727E+04 -0.41904042615E+03  0.16245736546E+04  0.12699999809E+01 0. -1.
       -4    1    3    3    0  502 -0.11131791739E+04 -0.11065600727E+04  0.19658825379E+03  0.15818633386E+04  0.12699999809E+01 0.  1.
</event>
<event>
 5   0  0.3283581E-08  0.3200518E+04  0.7818609E-02  0.8188680E-01
       -1   -1    0    0    0  501  0.00000000000E+00  0.00000000000E+00  0.11234725751E+04  0.11234725751E+04  0.50400001928E-02 0. -1.
        1   -1    0    0  501    0  0.00000000000E+00  0.00000000000E+00 -0.22793877353E+04  0.22793877353E+04  0.50400001928E-02 0.  1.
    10030    2    1    2    0    0  0.00000000000E+00  0.00000000000E+00 -0.11559151602E+04  0.34028603103E+04  0.32005184633E+04 0.  0.
        5    1    3    3  502    0  0.15302163222E+04 -0.42324705128E+03 -0.36502782216E+03  0.16291001995E+04  0.46999998093E+01 0. -1.
       -5    1    3    3    0  502 -0.15302163222E+04  0.42324705128E+03 -0.79088733803E+03  0.17737601108E+04  0.46999998093E+01 0.  1.
</event>
<event>
 5   0  0.3343140E-08  0.3201060E+04  0.7818609E-02  0.8188537E-01
       -1   -1    0    0    0  501  0.00000000000E+00  0.00000000000E+00  0.14714345640E+04  0.14714345641E+04  0.50400001928E-02 0.  1.
        1   -1    0    0  501    0  0.00000000000E+00  0.00000000000E+00 -0.17409519975E+04  0.17409519975E+04  0.50400001928E-02 0. -1.
    10030    2    1    2    0    0  0.00000000000E+00  0.00000000000E+00 -0.26951743348E+03  0.32123865616E+04  0.32010604140E+04 0.  0.
        1    1    3    3  502    0  0.24980167664E+03  0.89568183366E+03 -0.14420767863E+04  0.17158765347E+04  0.50400001928E-02 0. -1.
       -1    1    3    3    0  502 -0.24980167664E+03 -0.89568183366E+03  0.11725593528E+04  0.14965100269E+04  0.50400001928E-02 0.  1.
</event>
<event>
 5   0  0.9727083E-08  0.3200126E+04  0.7818609E-02  0.8188784E-01
       -2   -1    0    0    0  501  0.00000000000E+00  0.00000000000E+00  0.16802713929E+04  0.16802713929E+04  0.25500000920E-02 0.  1.
        2   -1    0    0  501    0  0.00000000000E+00  0.00000000000E+00 -0.15236834402E+04  0.15236834402E+04  0.25500000920E-02 0. -1.
    10030    2    1    2    0    0  0.00000000000E+00  0.00000000000E+00  0.15658795275E+03  0.32039548331E+04  0.32001260578E+04 0.  0.
        4    1    3    3  502    0  0.15006879298E+04  0.45489214290E+03  0.39680816147E+03  0.16175442665E+04  0.12699999809E+01 0. -1.
       -4    1    3    3    0  502 -0.15006879298E+04 -0.45489214290E+03 -0.24022020872E+03  0.15864105666E+04  0.12699999809E+01 0.  1.
</event>
<event>
 5   0  0.9727083E-08  0.3212247E+04  0.7818609E-02  0.8185590E-01
        2   -1    0    0  501    0  0.00000000000E+00  0.00000000000E+00  0.14652177077E+04  0.14652177077E+04  0.25500000920E-02 0. -1.
       -2   -1    0    0    0  501  0.00000000000E+00  0.00000000000E+00 -0.17605794624E+04  0.17605794624E+04  0.25500000920E-02 0.  1.
    10030    2    1    2    0    0  0.00000000000E+00  0.00000000000E+00 -0.29536175466E+03  0.32257971701E+04  0.32122466929E+04 0.  0.
        4    1    3    3  502    0 -0.10539908616E+04  0.18111608223E+03 -0.13510390847E+04  0.17230809595E+04  0.12699999809E+01 0.  1.
       -4    1    3    3    0  502  0.10539908616E+04 -0.18111608223E+03  0.10556773300E+04  0.15027162106E+04  0.12699999809E+01 0. -1.
</event>
<event>
 5   0  0.3080500E-08  0.3200737E+04  0.7818609E-02  0.8188623E-01
       -3   -1    0    0    0  501  0.00000000000E+00  0.00000000000E+00  0.19865940390E+04  0.19865940416E+04  0.10100000352E+00 0.  1.
        3   -1    0    0  501    0  0.00000000000E+00  0.00000000000E+00 -0.12892311356E+04  0.12892311395E+04  0.10100000352E+00 0. -1.
    10030    2    1    2    0    0  0.00000000000E+00  0.00000000000E+00  0.69736290345E+03  0.32758251811E+04  0.32007367274E+04 0.  0.
        1    1    3    3  502    0 -0.26655831444E+02 -0.51679058283E+03  0.18986049970E+04  0.19678627936E+04  0.50400001928E-02 0.  1.
       -1    1    3    3    0  502  0.26655831444E+02  0.51679058283E+03 -0.12012420935E+04  0.13079623875E+04  0.50400001928E-02 0. -1.
</event>
<event>
 5   0  0.9353994E-08  0.3198763E+04  0.7818609E-02  0.8189144E-01
        2   -1    0    0  501    0  0.00000000000E+00  0.00000000000E+00  0.23063132018E+04  0.23063132018E+04  0.25500000920E-02 0. -1.
       -2   -1    0    0    0  501  0.00000000000E+00  0.00000000000E+00 -0.11091383427E+04  0.11091383427E+04  0.25500000920E-02 0.  1.
    10030    2    1    2    0    0  0.00000000000E+00  0.00000000000E+00  0.11971748590E+04  0.34154515445E+04  0.31987625123E+04 0.  0.
        2    1    3    3  502    0 -0.19069511843E+03  0.10091914769E+03 -0.10935289255E+04  0.11146097135E+04  0.25500000920E-02 0.  1.
       -2    1    3    3    0  502  0.19069511843E+03 -0.10091914769E+03  0.22907037845E+04  0.23008418310E+04  0.25500000920E-02 0. -1.
</event>
<event>
 5   0  0.3427667E-08  0.3206495E+04  0.7818609E-02  0.8187104E-01
        1   -1    0    0  501    0  0.00000000000E+00  0.00000000000E+00  0.17750505461E+04  0.17750505461E+04  0.50400001928E-02 0.  1.
       -1   -1    0    0    0  501  0.00000000000E+00  0.00000000000E+00 -0.14480725352E+04  0.14480725352E+04  0.50400001928E-02 0. -1.
    10030    2    1    2    0    0  0.00000000000E+00  0.00000000000E+00  0.32697801092E+03  0.32231230813E+04  0.32064946246E+04 0.  0.
        2    1    3    3  502    0 -0.14539899264E+04 -0.45773453888E+03 -0.33587123815E+03  0.15609026564E+04  0.25500000920E-02 0. -1.
       -2    1    3    3    0  502  0.14539899264E+04  0.45773453888E+03  0.66284924906E+03  0.16622204249E+04  0.25500000920E-02 0.  1.
</event>
<event>
 5   0  0.3270966E-08  0.3199971E+04  0.7818609E-02  0.8188825E-01
       -1   -1    0    0    0  501  0.00000000000E+00  0.00000000000E+00  0.10655693636E+04  0.10655693636E+04  0.50400001928E-02 0. -1.
        1   -1    0    0  501    0  0.00000000000E+00  0.00000000000E+00 -0.24024278386E+04  0.24024278386E+04  0.50400001928E-02 0.  1.
    10030    2    1    2    0    0  0.00000000000E+00  0.00000000000E+00 -0.13368584750E+04  0.34679972022E+04  0.31999709393E+04 0.  0.
        3    1    3    3  502    0 -0.67629413927E+03 -0.68058734678E+03  0.71919730691E+03  0.11990903535E+04  0.10100000352E+00 0. -1.
       -3    1    3    3    0  502  0.67629413927E+03  0.68058734678E+03 -0.20560557819E+04  0.22689068487E+04  0.10100000352E+00 0.  1.
</event>
<event>
 5   0  0.9157524E-08  0.3200373E+04  0.7818609E-02  0.8188719E-01
        2   -1    0    0  501    0  0.00000000000E+00  0.00000000000E+00  0.17241252875E+04  0.17241252875E+04  0.25500000920E-02 0.  1.
       -2   -1    0    0    0  501  0.00000000000E+00  0.00000000000E+00 -0.14851570211E+04  0.14851570211E+04  0.25500000920E-02 0. -1.
    10030    2    1    2    0    0  0.00000000000E+00  0.00000000000E+00  0.23896826639E+03  0.32092823086E+04  0.32003729632E+04 0.  0.
        5    1    3    3  502    0 -0.10475394090E+04 -0.90371319191E+03  0.92579863512E+03  0.16646806149E+04  0.46999998093E+01 0.  1.
       -5    1    3    3    0  502  0.10475394090E+04  0.90371319191E+03 -0.68683036873E+03  0.15446016937E+04  0.46999998093E+01 0. -1.
</event>
<event>
 5   0  0.9329929E-08  0.3199819E+04  0.7818609E-02  0.8188865E-01
       -2   -1    0    0    0  501  0.00000000000E+00  0.00000000000E+00  0.11237144058E+04  0.11237144058E+04  0.25500000920E-02 0.  1.
        2   -1    0    0  501    0  0.00000000000E+00  0.00000000000E+00 -0.22779007978E+04  0.22779007978E+04  0.25500000920E-02 0. -1.
    10030    2    1    2    0    0  0.00000000000E+00  0.00000000000E+00 -0.11541863920E+04  0.34016152036E+04  0.31998187083E+04 0.  0.
        1    1    3    3  502    0  0.69340936656E+03  0.13642927128E+04 -0.10729862719E+04  0.18690667980E+04  0.50400001928E-02 0. -1.
       -1    1    3    3    0  502 -0.69340936656E+03 -0.13642927128E+04 -0.81200120093E+02  0.15325484056E+04  0.50400001928E-02 0.  1.
</event>
<event>
 5   0  0.3220147E-08  0.3199867E+04  0.7818609E-02  0.8188852E-01
        1   -1    0    0  501    0  0.00000000000E+00  0.00000000000E+00  0.25139951492E+04  0.25139951492E+04  0.50400001928E-02 0.  1.
       -1   -1    0    0    0  501  0.00000000000E+00  0.00000000000E+00 -0.10182148311E+04  0.10182148311E+04  0.50400001928E-02 0. -1.
    10030    2    1    2    0    0  0.00000000000E+00  0.00000000000E+00  0.14957803181E+04  0.35322099803E+04  0.31998669636E+04 0.  0.
        4    1    3    3  502    0  0.10516442320E+04  0.58001248224E+03 -0.41897837598E+03  0.12719727052E+04  0.12699999809E+01 0. -1.
       -4    1    3    3    0  502 -0.10516442320E+04 -0.58001248224E+03  0.19147586941E+04  0.22602372751E+04  0.12699999809E+01 0.  1.
</event>
<event>
 5   0  0.3220147E-08  0.3200588E+04  0.7818609E-02  0.8188662E-01
       -1   -1    0    0    0  501  0.00000000000E+00  0.00000000000E+00  0.17860216312E+04  0.17860216312E+04  0.50400001928E-02 0.  1.
        1   -1    0    0  501    0  0.00000000000E+00  0.00000000000E+00 -0.14338801738E+04  0.14338801738E+04  0.50400001928E-02 0. -1.
    10030    2    1    2    0    0  0.00000000000E+00  0.00000000000E+00  0.35214145738E+03  0.32199018050E+04  0.32005880753E+04 0.  0.
        4    1    3    3  502    0 -0.74657431002E+03 -0.14111195229E+04  0.28768110465E+03  0.16221570637E+04  0.12699999809E+01 0.  1.
       -4    1    3    3    0  502  0.74657431002E+03  0.14111195229E+04  0.64460352728E+02  0.15977447413E+04  0.12699999809E+01 0. -1.
</event>
<event>
 5   0  0.3283581E-08  0.3199661E+04  0.7818609E-02  0.8188907E-01
       -1   -1    0    0    0  501  0.00000000000E+00  0.00000000000E+00  0.12336215900E+04  0.12336215900E+04  0.50400001928E-02 0.  1.
        1   -1    0    0  501    0  0.00000000000E+00  0.00000000000E+00 -0.20747509932E+04  0.20747509932E+04  0.50400001928E-02 0. -1.
    10030    2    1    2    0    0  0.00000000000E+00  0.00000000000E+00 -0.84112940323E+03  0.33083725832E+04  0.31996609940E+04 0.  0.
        5    1    3    3  502    0  0.91345371855E+03 -0.55137110127E+02 -0.17773987515E+04  0.19991513722E+04  0.46999998093E+01 0. -1.
       -5    1    3    3    0  502 -0.91345371855E+03  0.55137110127E+02  0.93626934832E+03  0.13092212110E+04  0.46999998093E+01 0.  1.
</event>
<event>
 5   0  0.9727083E-08  0.3198412E+04  0.7818609E-02  0.8189237E-01
        2   -1    0    0  501    0  0.00000000000E+00  0.00000000000E+00  0.13120215822E+04  0.13120215822E+04  0.25500000920E-02 0.  1.
       -2   -1    0    0    0  501  0.00000000000E+00  0.00000000000E+00 -0.19492511934E+04  0.19492511934E+04  0.25500000920E-02 0. -1.
    10030    2    1    2    0    0  0.00000000000E+00  0.00000000000E+00 -0.63722961119E+03  0.32612727755E+04  0.31984118777E+04 0.  0.
        4    1    3    3  502    0  0.44758765731E+03  0.15116843830E+04 -0.45139103815E+02  0.15772011718E+04  0.12699999809E+01 0.  1.
       -4    1    3    3    0  502 -0.44758765731E+03 -0.15116843830E+04 -0.59209050738E+03  0.16840716037E+04  0.12699999809E+01 0. -1.
</event>
<event>
 5   0  0.3283581E-08  0.3201480E+04  0.7818609E-02  0.8188426E-01
        1   -1    0    0  501    0  0.00000000000E+00  0.00000000000E+00  0.20018408996E+04  0.20018408996E+04  0.50400001928E-02 0. -1.
       -1   -1    0    0    0  501  0.00000000000E+00  0.00000000000E+00 -0.12800059791E+04  0.12800059791E+04  0.50400001928E-02 0.  1.
    10030    2    1    2    0    0  0.00000000000E+00  0.00000000000E+00  0.72183492050E+03  0.32818468787E+04  0.32014798582E+04 0.  0.
        5    1    3    3  502    0  0.23188232507E+03 -0.14182641716E+04  0.10836722459E+04  0.17998917467E+04  0.46999998093E+01 0. -1.
       -5    1    3    3    0  502 -0.23188232507E+03  0.14182641716E+04 -0.36183732536E+03  0.14819551320E+04  0.46999998093E+01 0.  1.
</event>
<event>
 5   0  0.9707721E-08  0.3218116E+04  0.7818609E-02  0.8184049E-01
       -2   -1    0    0    0  501  0.00000000000E+00  0.00000000000E+00  0.11050906436E+04  0.11050906436E+04  0.25500000920E-02 0. -1.
        2   -1    0    0  501    0  0.00000000000E+00  0.00000000000E+00 -0.23428557140E+04  0.23428557140E+04  0.25500000920E-02 0.  1.
    10030    2    1    2    0    0  0.00000000000E+00  0.00000000000E+00 -0.12377650704E+04  0.34479463577E+04  0.32181161750E+04 0.  0.
        3    1    3    3  502    0 -0.65096941428E+03 -0.11844399595E+02  0.95765540549E+03  0.11580178556E+04  0.10100000352E+00 0. -1.
       -3    1    3    3    0  502  0.65096941428E+03  0.11844399595E+02 -0.21954204759E+04  0.22899285020E+04  0.10100000352E+00 0.  1.
</event>
<event>
 5   0  0.9707721E-08  0.3199727E+04  0.7818609E-02  0.8188889E-01
       -2   -1    0    0    0  501  0.00000000000E+00  0.00000000000E+00  0.95706183188E+03  0.95706183188E+03  0.25500000920E-02 0. -1.
        2   -1    0    0  501    0  0.00000000000E+00  0.00000000000E+00 -0.26743961223E+04  0.26743961223E+04  0.25500000920E-02 0.  1.
    10030    2    1    2    0    0  0.00000000000E+00  0.00000000000E+00 -0.17173342904E+04  0.36314579542E+04  0.31997265208E+04 0.  0.
        3    1    3    3  502    0 -0.10667501904E+04  0.11166958759E+03  0.48857193535E+03  0.11786130034E+04  0.10100000352E+00 0. -1.
       -3    1    3    3    0  502  0.10667501904E+04 -0.11166958759E+03 -0.22059062257E+04  0.24528449508E+04  0.10100000352E+00 0.  1.
</event>
<event>
 5   0  0.3080500E-08  0.3197107E+04  0.7818609E-02  0.8189582E-01
       -3   -1    0    0    0  501  0.00000000000E+00  0.00000000000E+00  0.21927755157E+04  0.21927755181E+04  0.10100000352E+00 0.  1.
        3   -1    0    0  501    0  0.00000000000E+00  0.00000000000E+00 -0.11653598627E+04  0.11653598671E+04  0.10100000352E+00 0. -1.
    10030    2    1    2    0    0  0.00000000000E+00  0.00000000000E+00  0.10274156530E+04  0.33581353852E+04  0.31971065577E+04 0.  0.
        5    1    3    3  502    0 -0.12479534784E+04  0.78940412062E+02  0.15597231314E+04  0.19990942473E+04  0.46999998093E+01 0.  1.
       -5    1    3    3    0  502  0.12479534784E+04 -0.78940412062E+02 -0.53230747835E+03  0.13590411379E+04  0.46999998093E+01 0. -1.
</event>
<event>
 5   0  0.3283581E-08  0.3199067E+04  0.7818609E-02  0.8189064E-01
        1   -1    0    0  501    0  0.00000000000E+00  0.00000000000E+00  0.14857091891E+04  0.14857091891E+04  0.50400001928E-02 0.  1.
       -1   -1    0    0    0  501  0.00000000000E+00  0.00000000000E+00 -0.17220785685E+04  0.17220785685E+04  0.50400001928E-02 0. -1.
    10030    2    1    2    0    0  0.00000000000E+00  0.00000000000E+00 -0.23636937943E+03  0.32077877577E+04  0.31990673351E+04 0.  0.
        5    1    3    3  502    0 -0.10476960902E+04 -0.39276322524E+03  0.10279778965E+04  0.15194376243E+04  0.46999998093E+01 0.  1.
       -5    1    3    3    0  502  0.10476960902E+04  0.39276322524E+03 -0.12643472759E+04  0.16883501333E+04  0.46999998093E+01 0. -1.
</event>
<event>
 5   0  0.9707721E-08  0.3199671E+04  0.7818609E-02  0.8188904E-01
        2   -1    0    0  501    0  0.00000000000E+00  0.00000000000E+00  0.21639574871E+04  0.21639574871E+04  0.25500000920E-02 0. -1.
       -2   -1    0    0    0  501  0.00000000000E+00  0.00000000000E+00 -0.11827745342E+04  0.11827745342E+04  0.25500000920E-02 0.  1.
    10030    2    1    2    0    0  0.00000000000E+00  0.00000000000E+00  0.98118295288E+03  0.33467320214E+04  0.31996711137E+04 0.  0.
        3    1    3    3  502    0  0.98971668018E+03  0.12491494618E+04  0.63687772664E+03  0.17162536916E+04  0.10100000352E+00 0. -1.
       -3    1    3    3    0  502 -0.98971668018E+03 -0.12491494618E+04  0.34430522624E+03  0.16304783298E+04  0.10100000352E+00 0.  1.
</event>
<event>
 5   0  0.9353994E-08  0.3199890E+04  0.7818609E-02  0.8188846E-01
        2   -1    0    0  501    0  0.00000000000E+00  0.00000000000E+00  0.15447732018E+04  0.15447732018E+04  0.25500000920E-02 0. -1.
       -2   -1    0    0    0  501  0.00000000000E+00  0.00000000000E+00 -0.16570870069E+04  0.16570870069E+04  0.25500000920E-02 0.  1.
    10030    2    1    2    0    0  0.00000000000E+00  0.00000000000E+00 -0.11231380515E+03  0.32018602087E+04  0.31998897489E+04 0.  0.
        2    1    3    3  502    0 -0.86954453206E+03  0.97853117657E+03 -0.97661065976E+03  0.16332174802E+04  0.25500000920E-02 0.  1.
       -2    1    3    3    0  502  0.86954453206E+03 -0.97853117657E+03  0.86429685461E+03  0.15686427285E+04  0.25500000920E-02 0. -1.
</event>
<event>
 5   0  0.9329929E-08  0.3192998E+04  0.7818609E-02  0.8190669E-01
       -2   -1    0    0    0  501  0.00000000000E+00  0.00000000000E+00  0.14102990682E+04  0.14102990682E+04  0.25500000920E-02 0. -1.
        2   -1    0    0  501    0  0.00000000000E+00  0.00000000000E+00 -0.18072822841E+04  0.18072822841E+04  0.25500000920E-02 0.  1.
    10030    2    1    2    0    0  0.00000000000E+00  0.00000000000E+00 -0.39698321586E+03  0.32175813523E+04  0.31929976644E+04 0.  0.
        1    1    3    3  502    0 -0.88392308383E+03  0.43378653913E+03  0.10678932017E+04  0.14525448943E+04  0.50400001928E-02 0. -1.
       -1    1    3    3    0  502  0.88392308383E+03 -0.43378653913E+03 -0.14648764175E+04  0.17650364581E+04  0.50400001928E-02 0.  1.
</event>
<event>
 5   0  0.3343140E-08  0.3199964E+04  0.7818609E-02  0.8188827E-01
        1   -1    0    0  501    0  0.00000000000E+00  0.00000000000E+00  0.10095968392E+04  0.10095968392E+04  0.50400001928E-02 0.  1.
       -1   -1    0    0    0  501  0.00000000000E+00  0.00000000000E+00 -0.25356086994E+04  0.25356086994E+04  0.50400001928E-02 0. -1.
    10030    2    1    2    0    0  0.00000000000E+00  0.00000000000E+00 -0.15260118602E+04  0.35452055387E+04  0.31999640801E+04 0.  0.
        1    1    3    3  502    0  0.68155994125E+01 -0.76792374906E+03 -0.23180771430E+04  0.24419735825E+04  0.50400001928E-02 0. -1.
       -1    1    3    3    0  502 -0.68155994125E+01  0.76792374906E+03  0.79206528280E+03  0.11032319561E+04  0.50400001928E-02 0.  1.
</event>
<event>
 5   0  0.9727083E-08  0.3198042E+04  0.7818609E-02  0.8189335E-01
       -2   -1    0    0    0  501  0.00000000000E+00  0.00000000000E+00  0.10768568998E+04  0.10768568998E+04  0.25500000920E-02 0.  1.
        2   -1    0    0  501    0  0.00000000000E+00  0.00000000000E+00 -0.23743803833E+04  0.23743803833E+04  0.25500000920E-02 0. -1.
    10030    2    1    2    0    0  0.00000000000E+00  0.00000000000E+00 -0.12975234836E+04  0.34512372831E+04  0.31980418374E+04 0.  0.
        4    1    3    3  502    0  0.25717245343E+03 -0.17634300835E+03 -0.23412502337E+04  0.23619248077E+04  0.12699999809E+01 0. -1.
       -4    1    3    3    0  502 -0.25717245343E+03  0.17634300835E+03  0.10437267501E+04  0.10893124754E+04  0.12699999809E+01 0.  1.
</event>
<event>
 5   0  0.9727083E-08  0.3201141E+04  0.7818609E-02  0.8188516E-01
       -2   -1    0    0    0  501  0.00000000000E+00  0.00000000000E+00  0.26971745189E+04  0.26971745189E+04  0.25500000920E-02 0.  1.
        2   -1    0    0  501    0  0.00000000000E+00  0.00000000000E+00 -0.94981843179E+03  0.94981843179E+03  0.25500000920E-02 0. -1.
    10030    2    1    2    0    0  0.00000000000E+00  0.00000000000E+00  0.17473560872E+04  0.36469929507E+04  0.32011410915E+04 0.  0.
        4    1    3    3  502    0  0.65237473794E+03 -0.49266079354E+03  0.24413843747E+04  0.25746197261E+04  0.12699999809E+01 0.  1.
       -4    1    3    3    0  502 -0.65237473794E+03  0.49266079354E+03 -0.69402828751E+03  0.10723732247E+04  0.12699999809E+01 0. -1.
</event>
<event>
 5   0  0.9157524E-08  0.3198711E+04  0.7818609E-02  0.8189158E-01
        2   -1    0    0  501    0  0.00000000000E+00  0.00000000000E+00  0.19133830342E+04  0.19133830342E+04  0.25500000920E-02 0.  1.
       -2   -1    0    0    0  501  0.00000000000E+00  0.00000000000E+00 -0.13368667788E+04  0.13368667788E+04  0.25500000920E-02 0. -1.
    10030    2    1    2    0    0  0.00000000000E+00  0.00000000000E+00  0.57651625544E+03  0.32502498129E+04  0.31987111238E+04 0.  0.
        5    1    3    3  502    0  0.28004038946E+03 -0.15412125030E+04  0.61619258049E+03  0.16832926024E+04  0.46999998093E+01 0. -1.
       -5    1    3    3    0  502 -0.28004038946E+03  0.15412125030E+04 -0.39676325055E+02  0.15669572106E+04  0.46999998093E+01 0.  1.
</event>
<event>
 5   0  0.3220147E-08  0.3200658E+04  0.7818609E-02  0.8188643E-01
        1   -1    0    0  501    0  0.00000000000E+00  0.00000000000E+00  0.17906173738E+04  0.17906173738E+04  0.50400001928E-02 0.  1.
       -1   -1    0    0    0  501  0.00000000000E+00  0.00000000000E+00 -0.14302628823E+04  0.14302628823E+04  0.50400001928E-02 0. -1.
    10030    2    1    2    0    0  0.00000000000E+00  0.00000000000E+00  0.36035449150E+03  0.32208802562E+04  0.32006584112E+04 0.  0.
        4    1    3    3  502    0 -0.84245098095E+03  0.26944547118E+03  0.15222929386E+04  0.17605970354E+04  0.12699999809E+01 0.  1.
       -4    1    3    3    0  502  0.84245098095E+03 -0.26944547118E+03 -0.11619384471E+04  0.14602832208E+04  0.12699999809E+01 0. -1.
</event>
<event>
 5   0  0.3427667E-08  0.3198221E+04  0.7818609E-02  0.8189287E-01
        1   -1    0    0  501    0  0.00000000000E+00  0.00000000000E+00  0.17584280598E+04  0.17584280598E+04  0.50400001928E-02 0.  1.
       -1   -1    0    0    0  501  0.00000000000E+00  0.00000000000E+00 -0.14542275978E+04  0.14542275978E+04  0.50400001928E-02 0. -1.
    10030    2    1    2    0    0  0.00000000000E+00  0.00000000000E+00  0.30420046199E+03  0.32126556575E+04  0.31982211388E+04 0.  0.
        2    1    3    3  502    0  0.35537202678E+03 -0.14196782519E+04 -0.49530761174E+03  0.15450259695E+04  0.25500000920E-02 0. -1.
       -2    1    3    3    0  502 -0.35537202678E+03  0.14196782519E+04  0.79950807374E+03  0.16676296880E+04  0.25500000920E-02 0.  1.
</event>
<event>
 5   0  0.9707721E-08  0.3200269E+04  0.7818609E-02  0.8188746E-01
        2   -1    0    0  501    0  0.00000000000E+00  0.00000000000E+00  0.14114132807E+04  0.14114132807E+04  0.25500000920E-02 0. -1.
       -2   -1    0    0    0  501  0.00000000000E+00  0.00000000000E+00 -0.18140894958E+04  0.18140894958E+04  0.25500000920E-02 0.  1.
    10030    2    1    2    0    0  0.00000000000E+00  0.00000000000E+00 -0.40267621513E+03  0.32255027765E+04  0.32002687430E+04 0.  0.
        3    1    3    3  502    0  0.12098292373E+04 -0.56243587082E+03 -0.10917114194E+04  0.17239068205E+04  0.10100000352E+00 0.  1.
       -3    1    3    3    0  502 -0.12098292373E+04  0.56243587082E+03  0.68903520424E+03  0.15015959560E+04  0.10100000352E+00 0. -1.
</event>
<event>
 5   0  0.9727083E-08  0.3199877E+04  0.7818609E-02  0.8188850E-01
        2   -1    0    0  501    0  0.00000000000E+00  0.00000000000E+00  0.21230170626E+04  0.21230170626E+04  0.25500000920E-02 0.  1.
       -2   -1    0    0    0  501  0.00000000000E+00  0.00000000000E+00 -0.12057384349E+04  0.12057384349E+04  0.25500000920E-02 0. -1.
    10030    2    1    2    0    0  0.00000000000E+00  0.00000000000E+00  0.91727862766E+03  0.33287554975E+04  0.31998770417E+04 0.  0.
        4    1    3    3  502    0 -0.37945370107E+03 -0.66611686669E+03 -0.10022375415E+04  0.12618155546E+04  0.12699999809E+01 0. -1.
       -4    1    3    3    0  502  0.37945370107E+03  0.66611686669E+03  0.19195161691E+04  0.20669399430E+04  0.12699999809E+01 0.  1.
</event>
<event>
 5   0  0.9727083E-08  0.3199132E+04  0.7818609E-02  0.8189047E-01
        2   -1    0    0  501    0  0.00000000000E+00  0.00000000000E+00  0.19868719389E+04  0.19868719389E+04  0.25500000920E-02 0.  1.
       -2   -1    0    0    0  501  0.00000000000E+00  0.00000000000E+00 -0.12877582039E+04  0.12877582039E+04  0.25500000920E-02 0. -1.
    10030    2    1    2    0    0  0.00000000000E+00  0.00000000000E+00  0.69911373495E+03  0.32746301428E+04  0.31991315318E+04 0.  0.
        4    1    3    3  502    0  0.13454770520E+04  0.59782307156E+03  0.98953847928E+03  0.17739472758E+04  0.12699999809E+01 0.  1.
       -4    1    3    3    0  502 -0.13454770520E+04 -0.59782307156E+03 -0.29042474433E+03  0.15006828670E+04  0.12699999809E+01 0. -1.
</event>
<event>
 5   0  0.3270966E-08  0.3200417E+04  0.7818609E-02  0.8188707E-01
       -1   -1    0    0    0  501  0.00000000000E+00  0.00000000000E+00  0.23626603608E+04  0.23626603608E+04  0.50400001928E-02 0.  1.
        1   -1    0    0  501    0  0.00000000000E+00  0.00000000000E+00 -0.10838064794E+04  0.10838064794E+04  0.50400001928E-02 0. -1.
    10030    2    1    2    0    0  0.00000000000E+00  0.00000000000E+00  0.12788538814E+04  0.34464668402E+04  0.32004166026E+04 0.  0.
        3    1    3    3  502    0  0.72365267942E+03 -0.78160401037E+03  0.19254265565E+04  0.22004193837E+04  0.10100000352E+00 0.  1.
       -3    1    3    3    0  502 -0.72365267942E+03  0.78160401037E+03 -0.64657267508E+03  0.12460474565E+04  0.10100000352E+00 0. -1.
</event>
<event>
 5   0  0.3343140E-08  0.3194991E+04  0.7818609E-02  0.8190141E-01
       -1   -1    0    0    0  501  0.00000000000E+00  0.00000000000E+00  0.19815684484E+04  0.19815684484E+04  0.50400001928E-02 0. -1.
        1   -1    0    0  501    0  0.00000000000E+00  0.00000000000E+00 -0.12878646227E+04  0.12878646228E+04  0.50400001928E-02 0.  1.
    10030    2    1    2    0    0  0.00000000000E+00  0.00000000000E+00  0.69370382568E+03  0.32694330712E+04  0.31949910186E+04 0.  0.
        1    1    3    3  502    0  0.91786434081E+03 -0.30178291110E+03 -0.95497022320E+03  0.13584977000E+04  0.50400001928E-02 0.  1.
       -1    1    3    3    0  502 -0.91786434081E+03  0.30178291110E+03  0.16486740489E+04  0.19109353712E+04  0.50400001928E-02 0. -1.
</event>
<event>
 5   0  0.3220147E-08  0.3198832E+04  0.7818609E-02  0.8189126E-01
       -1   -1    0    0    0  501  0.00000000000E+00  0.00000000000E+00  0.32490496170E+04  0.32490496170E+04  0.50400001928E-02 0.  1.
        1   -1    0    0  501    0  0.00000000000E+00  0.00000000000E+00 -0.78734768832E+03  0.78734768834E+03  0.50400001928E-02 0. -1.
    10030    2    1    2    0    0  0.00000000000E+00  0.00000000000E+00  0.24617019287E+04  0.40363973054E+04  0.31988321027E+04 0.  0.
        4    1    3    3  502    0  0.20879189590E+03 -0.13178620382E+04  0.23436830596E+04  0.26968882632E+04  0.12699999809E+01 0.  1.
       -4    1    3    3    0  502 -0.20879189590E+03  0.13178620382E+04  0.11801886910E+03  0.13395090421E+04  0.12699999809E+01 0. -1.
</event>
<event>
 5   0  0.9329929E-08  0.3191865E+04  0.7818609E-02  0.8190969E-01
       -2   -1    0    0    0  501  0.00000000000E+00  0.00000000000E+00  0.14721373721E+04  0.14721373721E+04  0.25500000920E-02 0. -1.
        2   -1    0    0  501    0  0.00000000000E+00  0.00000000000E+00 -0.17301382670E+04  0.17301382670E+04  0.25500000920E-02 0.  1.
    10030    2    1    2    0    0  0.00000000000E+00  0.00000000000E+00 -0.25800089495E+03  0.32022756391E+04  0.31918654118E+04 0.  0.
        1    1    3    3  502    0 -0.41031981031E+03 -0.17181679641E+03  0.14086815957E+04  0.14772498761E+04  0.50400001928E-02 0. -1.
       -1    1    3    3    0  502  0.41031981031E+03  0.17181679641E+03 -0.16666824907E+04  0.17250257630E+04  0.50400001928E-02 0.  1.
</event>
<event>
 5   0  0.9727083E-08  0.3201385E+04  0.7818609E-02  0.8188451E-01
        2   -1    0    0  501    0  0.00000000000E+00  0.00000000000E+00  0.12698508271E+04  0.12698508271E+04  0.25500000920E-02 0. -1.
       -2   -1    0    0    0  501  0.00000000000E+00  0.00000000000E+00 -0.20177306821E+04  0.20177306821E+04  0.25500000920E-02 0.  1.
    10030    2    1    2    0    0  0.00000000000E+00  0.00000000000E+00 -0.74787985501E+03  0.32875815091E+04  0.32013853098E+04 0.  0.
        4    1    3    3  502    0  0.15431136962E+04  0.30901269012E+03 -0.73616447164E+02  0.15754712679E+04  0.12699999809E+01 0. -1.
       -4    1    3    3    0  502 -0.15431136962E+04 -0.30901269012E+03 -0.67426340784E+03  0.17121102412E+04  0.12699999809E+01 0.  1.
</event>
<event>
 5   0  0.3283581E-08  0.3198537E+04  0.7818609E-02  0.8189204E-01
       -1   -1    0    0    0  501  0.00000000000E+00  0.00000000000E+00  0.14525780596E+04  0.14525780596E+04  0.50400001928E-02 0. -1.
        1   -1    0    0  501    0  0.00000000000E+00  0.00000000000E+00 -0.17607729114E+04  0.17607729114E+04  0.50400001928E-02 0.  1.
    10030    2    1    2    0    0  0.00000000000E+00  0.00000000000E+00 -0.30819485174E+03  0.32133509710E+04  0.31985372276E+04 0.  0.
        5    1    3    3  502    0  0.87944872384E+03  0.20112124538E+03  0.11725327880E+04  0.14794374073E+04  0.46999998093E+01 0. -1.
       -5    1    3    3    0  502 -0.87944872384E+03 -0.20112124538E+03 -0.14807276398E+04  0.17339135637E+04  0.46999998093E+01 0.  1.
</event>
<event>
 5   0  0.9329929E-08  0.3180811E+04  0.7818609E-02  0.8193903E-01
        2   -1    0    0  501    0  0.00000000000E+00  0.00000000000E+00  0.18283727774E+04  0.18283727774E+04  0.25500000920E-02 0.  1.
       -2   -1    0    0    0  501  0.00000000000E+00  0.00000000000E+00 -0.13834100668E+04  0.13834100668E+04  0.25500000920E-02 0. -1.
    10030    2    1    2    0    0  0.00000000000E+00  0.00000000000E+00  0.44496271055E+03  0.32117828442E+04  0.31808107810E+04 0.  0.
        1    1    3    3  502    0  0.26158181599E+03  0.60811905625E+03 -0.12376821872E+04  0.14035993123E+04  0.50400001928E-02 0. -1.
       -1    1    3    3    0  502 -0.26158181599E+03 -0.60811905625E+03  0.16826448978E+04  0.18081835319E+04  0.50400001928E-02 0.  1.
</event>
<event>
 5   0  0.3270966E-08  0.3199717E+04  0.7818609E-02  0.8188892E-01
       -1   -1    0    0    0  501  0.00000000000E+00  0.00000000000E+00  0.10696808702E+04  0.10696808702E+04  0.50400001928E-02 0.  1.
        1   -1    0    0  501    0  0.00000000000E+00  0.00000000000E+00 -0.23928139412E+04  0.23928139412E+04  0.50400001928E-02 0. -1.
    10030    2    1    2    0    0  0.00000000000E+00  0.00000000000E+00 -0.13231330710E+04  0.34624948114E+04  0.31997170493E+04 0.  0.
        3    1    3    3  502    0 -0.13070206261E+04  0.65869457154E+03  0.37528153185E+02  0.14641003477E+04  0.10100000352E+00 0.  1.
       -3    1    3    3    0  502  0.13070206261E+04 -0.65869457154E+03 -0.13606612242E+04  0.19983944637E+04  0.10100000352E+00 0. -1.
</event>
<event>
 5   0  0.3080500E-08  0.3204139E+04  0.7818609E-02  0.8187725E-01
       -3   -1    0    0    0  501  0.00000000000E+00  0.00000000000E+00  0.10775955963E+04  0.10775956010E+04  0.10100000352E+00 0.  1.
        3   -1    0    0  501    0  0.00000000000E+00  0.00000000000E+00 -0.23818088520E+04  0.23818088541E+04  0.10100000352E+00 0. -1.
    10030    2    1    2    0    0  0.00000000000E+00  0.00000000000E+00 -0.13042132557E+04  0.34594044551E+04  0.32041390369E+04 0.  0.
        4    1    3    3  502    0  0.12275322657E+04 -0.77181700374E+03 -0.13876194365E+04  0.20069943358E+04  0.12699999809E+01 0. -1.
       -4    1    3    3    0  502 -0.12275322657E+04  0.77181700374E+03  0.83406180774E+02  0.14524101193E+04  0.12699999809E+01 0.  1.
</event>
<event>
 5   0  0.3283581E-08  0.3200035E+04  0.7818609E-02  0.8188808E-01
       -1   -1    0    0    0  501  0.00000000000E+00  0.00000000000E+00  0.11498044167E+04  0.11498044167E+04  0.50400001928E-02 0.  1.
        1   -1    0    0  501    0  0.00000000000E+00  0.00000000000E+00 -0.22265137410E+04  0.22265137410E+04  0.50400001928E-02 0. -1.
    10030    2    1    2    0    0  0.00000000000E+00  0.00000000000E+00 -0.10767093243E+04  0.33763181578E+04  0.32000345832E+04 0.  0.
        5    1    3    3  502    0 -0.14765528084E+04 -0.24049000650E+03  0.60345833406E+02  0.14972332313E+04  0.46999998093E+01 0.  1.
       -5    1    3    3    0  502  0.14765528084E+04  0.24049000650E+03 -0.11370551577E+04  0.18790849265E+04  0.46999998093E+01 0. -1.
</event>
<event>
 5   0  0.9157524E-08  0.3205981E+04  0.7818609E-02  0.8187239E-01
        2   -1    0    0  501    0  0.00000000000E+00  0.00000000000E+00  0.13639661540E+04  0.13639661540E+04  0.25500000920E-02 0. -1.
       -2   -1    0    0    0  501  0.00000000000E+00  0.00000000000E+00 -0.18839018097E+04  0.18839018097E+04  0.25500000920E-02 0.  1.
    10030    2    1    2    0    0  0.00000000000E+00  0.00000000000E+00 -0.51993565565E+03  0.32478679637E+04  0.32059808520E+04 0.  0.
        5    1    3    3  502    0  0.14074056873E+03  0.15864219255E+04 -0.44403870556E+03  0.16534010087E+04  0.46999998093E+01 0. -1.
       -5    1    3    3    0  502 -0.14074056873E+03 -0.15864219255E+04 -0.75896950090E+02  0.15944669550E+04  0.46999998093E+01 0.  1.
</event>
<event>
 5   0  0.9157524E-08  0.3207259E+04  0.7818609E-02  0.8186903E-01
       -2   -1    0    0    0  501  0.00000000000E+00  0.00000000000E+00  0.10079448116E+04  0.10079448116E+04  0.25500000920E-02 0.  1.
        2   -1    0    0  501    0  0.00000000000E+00  0.00000000000E+00 -0.25513576105E+04  0.25513576105E+04  0.25500000920E-02 0. -1.
    10030    2    1    2    0    0  0.00000000000E+00  0.00000000000E+00 -0.15434127988E+04  0.35593024221E+04  0.32072590579E+04 0.  0.
        5    1    3    3  502    0 -0.13572415309E+04  0.37090781173E+03 -0.16255246581E+04  0.21498906210E+04  0.46999998093E+01 0. -1.
       -5    1    3    3    0  502  0.13572415309E+04 -0.37090781173E+03  0.82111859295E+02  0.14094118012E+04  0.46999998093E+01 0.  1.
</event>
<event>
 5   0  0.9727083E-08  0.3199132E+04  0.7818609E-02  0.8189046E-01
        2   -1    0    0  501    0  0.00000000000E+00  0.00000000000E+00  0.15351005784E+04  0.15351005784E+04  0.25500000920E-02 0. -1.
       -2   -1    0    0    0  501  0.00000000000E+00  0.00000000000E+00 -0.16667390942E+04  0.16667390942E+04  0.25500000920E-02 0.  1.
    10030    2    1    2    0    0  0.00000000000E+00  0.00000000000E+00 -0.13163851576E+03  0.32018396726E+04  0.31991324746E+04 0.  0.
        4    1    3    3  502    0 -0.48793891521E+03 -0.15227424636E+04 -0.10806325798E+03  0.16026566308E+04  0.12699999809E+01 0. -1.
       -4    1    3    3    0  502  0.48793891521E+03  0.15227424636E+04 -0.23575257783E+02  0.15991830418E+04  0.12699999809E+01 0.  1.
</event>
<event>
 5   0  0.3343140E-08  0.3206343E+04  0.7818609E-02  0.8187144E-01
        1   -1    0    0  501    0  0.00000000000E+00  0.00000000000E+00  0.19130260202E+04  0.19130260202E+04  0.50400001928E-02 0.  1.
       -1   -1    0    0    0  501  0.00000000000E+00  0.00000000000E+00 -0.13435046251E+04  0.13435046251E+04  0.50400001928E-02 0. -1.
    10030    2    1    2    0    0  0.00000000000E+00  0.00000000000E+00  0.56952139508E+03  0.32565306453E+04  0.32063432792E+04 0.  0.
        1    1    3    3  502    0 -0.31005243114E+03  0.12410932787E+04 -0.69665307931E+03  0.14566298602E+04  0.50400001928E-02 0. -1.
       -1    1    3    3    0  502  0.31005243114E+03 -0.12410932787E+04  0.12661744744E+04  0.17999007851E+04  0.50400001928E-02 0.  1.
</event>
<event>
 5   0  0.9157524E-08  0.3197507E+04  0.7818609E-02  0.8189476E-01
        2   -1    0    0  501    0  0.00000000000E+00  0.00000000000E+00  0.74286612603E+03  0.74286612603E+03  0.25500000920E-02 0.  1.
       -2   -1    0    0    0  501  0.00000000000E+00  0.00000000000E+00 -0.34407456035E+04  0.34407456035E+04  0.25500000920E-02 0. -1.
    10030    2    1    2    0    0  0.00000000000E+00  0.00000000000E+00 -0.26978794775E+04  0.41836117295E+04  0.31975073774E+04 0.  0.
        5    1    3    3  502    0 -0.44927644623E+03  0.12360158929E+04 -0.25383637995E+04  0.28588279909E+04  0.46999998093E+01 0. -1.
       -5    1    3    3    0  502  0.44927644623E+03 -0.12360158929E+04 -0.15951567793E+03  0.13247837386E+04  0.46999998093E+01 0.  1.
</event>
<event>
 5   0  0.3283581E-08  0.3199953E+04  0.7818609E-02  0.8188830E-01
        1   -1    0    0  501    0  0.00000000000E+00  0.00000000000E+00  0.11967409121E+04  0.11967409121E+04  0.50400001928E-02 0. -1.
       -1   -1    0    0    0  501  0.00000000000E+00  0.00000000000E+00 -0.21390799040E+04  0.21390799040E+04  0.50400001928E-02 0.  1.
    10030    2    1    2    0    0  0.00000000000E+00  0.00000000000E+00 -0.94233899189E+03  0.33358208161E+04  0.31999527718E+04 0.  0.
        5    1    3    3  502    0  0.46313741921E+03  0.10036173523E+04 -0.16770739236E+04  0.20085674233E+04  0.46999998093E+01 0.  1.
       -5    1    3    3    0  502 -0.46313741921E+03 -0.10036173523E+04  0.73473493171E+03  0.13272533928E+04  0.46999998093E+01 0. -1.
</event>
<event>
 5   0  0.9707721E-08  0.3191609E+04  0.7818609E-02  0.8191037E-01
        2   -1    0    0  501    0  0.00000000000E+00  0.00000000000E+00  0.23406565469E+04  0.23406565469E+04  0.25500000920E-02 0.  1.
       -2   -1    0    0    0  501  0.00000000000E+00  0.00000000000E+00 -0.10879821600E+04  0.10879821600E+04  0.25500000920E-02 0. -1.
    10030    2    1    2    0    0  0.00000000000E+00  0.00000000000E+00  0.12526743869E+04  0.34286387068E+04  0.31916093530E+04 0.  0.
        3    1    3    3  502    0 -0.10967989519E+03  0.85603619492E+03  0.20683232362E+04  0.22411578851E+04  0.10100000352E+00 0.  1.
       -3    1    3    3    0  502  0.10967989519E+03 -0.85603619492E+03 -0.81564884928E+03  0.11874808217E+04  0.10100000352E+00 0. -1.
</event>
<event>
 5   0  0.9157524E-08  0.3200000E+04  0.7818609E-02  0.8188817E-01
        2   -1    0    0  501    0  0.00000000000E+00  0.00000000000E+00  0.20717640438E+04  0.20717640438E+04  0.25500000920E-02 0. -1.
       -2   -1    0    0    0  501  0.00000000000E+00  0.00000000000E+00 -0.12356619426E+04  0.12356619426E+04  0.25500000920E-02 0.  1.
    10030    2    1    2    0    0  0.00000000000E+00  0.00000000000E+00  0.83610210118E+03  0.33074259864E+04  0.31999999894E+04 0.  0.
        5    1    3    3  502    0  0.87094428614E+03  0.52300732615E+03  0.16956284968E+04  0.19766787048E+04  0.46999998093E+01 0. -1.
       -5    1    3    3    0  502 -0.87094428614E+03 -0.52300732615E+03 -0.85952639562E+03  0.13307472816E+04  0.46999998093E+01 0.  1.
</event>
<event>
 5   0  0.3220147E-08  0.3201229E+04  0.7818609E-02  0.8188493E-01
        1   -1    0    0  501    0  0.00000000000E+00  0.00000000000E+00  0.20538514921E+04  0.20538514921E+04  0.50400001928E-02 0. -1.
       -1   -1    0    0    0  501  0.00000000000E+00  0.00000000000E+00 -0.12473960288E+04  0.12473960288E+04  0.50400001928E-02 0.  1.
    10030    2    1    2    0    0  0.00000000000E+00  0.00000000000E+00  0.80645546327E+03  0.33012475209E+04  0.32012286360E+04 0.  0.
        4    1    3    3  502    0  0.13704825138E+04 -0.72138097707E+03  0.82002348669E+03  0.17524420008E+04  0.12699999809E+01 0. -1.
       -4    1    3    3    0  502 -0.13704825138E+04  0.72138097707E+03 -0.13568023428E+02  0.15488055200E+04  0.12699999809E+01 0.  1.
</event>
<event>
 5   0  0.9707721E-08  0.3204250E+04  0.7818609E-02  0.8187696E-01
       -2   -1    0    0    0  501  0.00000000000E+00  0.00000000000E+00  0.10275965618E+04  0.10275965618E+04  0.25500000920E-02 0. -1.
        2   -1    0    0  501    0  0.00000000000E+00  0.00000000000E+00 -0.24978726082E+04  0.24978726082E+04  0.25500000920E-02 0.  1.
    10030    2    1    2    0    0  0.00000000000E+00  0.00000000000E+00 -0.14702760464E+04  0.35254691700E+04  0.32042504921E+04 0.  0.
        3    1    3    3  502    0 -0.78783844951E+03 -0.12157488326E+04 -0.14878800519E+04  0.20766611918E+04  0.10100000352E+00 0.  1.
       -3    1    3    3    0  502  0.78783844951E+03  0.12157488326E+04  0.17604005488E+02  0.14488079782E+04  0.10100000352E+00 0. -1.
</event>
<event>
 5   0  0.9353994E-08  0.3199749E+04  0.7818609E-02  0.8188883E-01
        2   -1    0    0  501    0  0.00000000000E+00  0.00000000000E+00  0.19249794945E+04  0.19249794945E+04  0.25500000920E-02 0. -1.
       -2   -1    0    0    0  501  0.00000000000E+00  0.00000000000E+00 -0.13296756636E+04  0.13296756636E+04  0.25500000920E-02 0.  1.
    10030    2    1    2    0    0  0.00000000000E+00  0.00000000000E+00  0.59530383088E+03  0.32546551581E+04  0.31997489819E+04 0.  0.
        2    1    3    3  502    0  0.40820870729E+03 -0.72083842252E+03 -0.10945403908E+04  0.13726838847E+04  0.25500000920E-02 0.  1.
       -2    1    3    3    0  502 -0.40820870729E+03  0.72083842252E+03  0.16898442217E+04  0.18819712734E+04  0.25500000920E-02 0. -1.
</event>
<event>
 5   0  0.9727083E-08  0.3199971E+04  0.7818609E-02  0.8188825E-01
        2   -1    0    0  501    0  0.00000000000E+00  0.00000000000E+00  0.15471262296E+04  0.15471262296E+04  0.25500000920E-02 0.  1.
       -2   -1    0    0    0  501  0.00000000000E+00  0.00000000000E+00 -0.16546511674E+04  0.16546511674E+04  0.25500000920E-02 0. -1.
    10030    2    1    2    0    0  0.00000000000E+00  0.00000000000E+00 -0.10752493782E+03  0.32017773970E+04  0.31999713885E+04 0.  0.
        4    1    3    3  502    0  0.96395586500E+03 -0.12763090719E+04 -0.95938986018E+02  0.16023051078E+04  0.12699999809E+01 0. -1.
       -4    1    3    3    0  502 -0.96395586500E+03  0.12763090719E+04 -0.11585951798E+02  0.15994722891E+04  0.12699999809E+01 0.  1.
</event>
<event>
 5   0  0.9157524E-08  0.3200554E+04  0.7818609E-02  0.8188671E-01
        2   -1    0    0  501    0  0.00000000000E+00  0.00000000000E+00  0.13997868279E+04  0.13997868279E+04  0.25500000920E-02 0.  1.
       -2   -1    0    0    0  501  0.00000000000E+00  0.00000000000E+00 -0.18294827360E+04  0.18294827360E+04  0.25500000920E-02 0. -1.
    10030    2    1    2    0    0  0.00000000000E+00  0.00000000000E+00 -0.42969590806E+03  0.32292695639E+04  0.32005535994E+04 0.  0.
        5    1    3    3  502    0 -0.80682030097E+03  0.12812294766E+04  0.30783058485E+03  0.15450856703E+04  0.46999998093E+01 0.  1.
       -5    1    3    3    0  502  0.80682030097E+03 -0.12812294766E+04 -0.73752649291E+03  0.16841838936E+04  0.46999998093E+01 0. -1.
</event>
<event>
 5   0  0.9329929E-08  0.3199695E+04  0.7818609E-02  0.8188898E-01
       -2   -1    0    0    0  501  0.00000000000E+00  0.00000000000E+00  0.11978935965E+04  0.11978935965E+04  0.25500000920E-02 0. -1.
        2   -1    0    0  501    0  0.00000000000E+00  0.00000000000E+00 -0.21366777396E+04  0.21366777396E+04  0.25500000920E-02 0.  1.
    10030    2    1    2    0    0  0.00000000000E+00  0.00000000000E+00 -0.93878414306E+03  0.33345713361E+04  0.31996953493E+04 0.  0.
        1    1    3    3  502    0 -0.61891954302E+03 -0.14111079644E+04 -0.20872122967E+02  0.15410135410E+04  0.50400001928E-02 0. -1.
       -1    1    3    3    0  502  0.61891954302E+03  0.14111079644E+04 -0.91791202009E+03  0.17935577951E+04  0.50400001928E-02 0.  1.
</event>
<event>
 5   0  0.9329929E-08  0.3200444E+04  0.7818609E-02  0.8188700E-01
       -2   -1    0    0    0  501  0.00000000000E+00  0.00000000000E+00  0.16194850642E+04  0.16194850642E+04  0.25500000920E-02 0.  1.
        2   -1    0    0  501    0  0.00000000000E+00  0.00000000000E+00 -0.15811879382E+04  0.15811879382E+04  0.25500000920E-02 0. -1.
    10030    2    1    2    0    0  0.00000000000E+00  0.00000000000E+00  0.38297125992E+02  0.32006730025E+04  0.32004438753E+04 0.  0.
        1    1    3    3  502    0 -0.12926657473E+04 -0.65261224503E+03 -0.66194554783E+03  0.15921869818E+04  0.50400001928E-02 0. -1.
       -1    1    3    3    0  502  0.12926657473E+04  0.65261224503E+03  0.70024267383E+03  0.16084860207E+04  0.50400001928E-02 0.  1.
</event>
<event>
 5   0  0.3343140E-08  0.3196173E+04  0.7818609E-02  0.8189829E-01
        1   -1    0    0  501    0  0.00000000000E+00  0.00000000000E+00  0.13871132758E+04  0.13871132758E+04  0.50400001928E-02 0. -1.
       -1   -1    0    0    0  501  0.00000000000E+00  0.00000000000E+00 -0.18411474033E+04  0.18411474033E+04  0.50400001928E-02 0.  1.
    10030    2    1    2    0    0  0.00000000000E+00  0.00000000000E+00 -0.45403412749E+03  0.32282606792E+04  0.31961727150E+04 0.  0.
        1    1    3    3  502    0 -0.30063886345E+03  0.15748007486E+03  0.13502935178E+04  0.13922917383E+04  0.50400001928E-02 0. -1.
       -1    1    3    3    0  502  0.30063886345E+03 -0.15748007486E+03 -0.18043276453E+04  0.18359689409E+04  0.50400001928E-02 0.  1.
</event>
<event>
 5   0  0.3427667E-08  0.3195461E+04  0.7818609E-02  0.8190017E-01
       -1   -1    0    0    0  501  0.00000000000E+00  0.00000000000E+00  0.14194263629E+04  0.14194263629E+04  0.50400001928E-02 0. -1.
        1   -1    0    0  501    0  0.00000000000E+00  0.00000000000E+00 -0.17984326252E+04  0.17984326252E+04  0.50400001928E-02 0.  1.
    10030    2    1    2    0    0  0.00000000000E+00  0.00000000000E+00 -0.37900626231E+03  0.32178589882E+04  0.31954609559E+04 0.  0.
        2    1    3    3  502    0 -0.30530601642E+03 -0.82752901369E+03  0.11520232838E+04  0.14509216652E+04  0.25500000920E-02 0. -1.
       -2    1    3    3    0  502  0.30530601642E+03  0.82752901369E+03 -0.15310295461E+04  0.17669373230E+04  0.25500000920E-02 0.  1.
</event>
<event>
 5   0  0.9329929E-08  0.3199590E+04  0.7818609E-02  0.8188926E-01
        2   -1    0    0  501    0  0.00000000000E+00  0.00000000000E+00  0.19079240425E+04  0.19079240425E+04  0.25500000920E-02 0. -1.
       -2   -1    0    0    0  501  0.00000000000E+00  0.00000000000E+00 -0.13414283556E+04  0.13414283556E+04  0.25500000920E-02 0.  1.
    10030    2    1    2    0    0  0.00000000000E+00  0.00000000000E+00  0.56649568687E+03  0.32493523981E+04  0.31995896055E+04 0.  0.
        1    1    3    3  502    0  0.36016565520E+03 -0.30462331414E+03  0.18356919753E+04  0.18953310241E+04  0.50400001928E-02 0. -1.
       -1    1    3    3    0  502 -0.36016565520E+03  0.30462331414E+03 -0.12691962884E+04  0.13540213740E+04  0.50400001928E-02 0.  1.
</event>
<event>
 5   0  0.3283581E-08  0.3200547E+04  0.7818609E-02  0.8188673E-01
        1   -1    0    0  501    0  0.00000000000E+00  0.00000000000E+00  0.26269209314E+04  0.26269209314E+04  0.50400001928E-02 0.  1.
       -1   -1    0    0    0  501  0.00000000000E+00  0.00000000000E+00 -0.97485816040E+03  0.97485816042E+03  0.50400001928E-02 0. -1.
    10030    2    1    2    0    0  0.00000000000E+00  0.00000000000E+00  0.16520627710E+04  0.36017790918E+04  0.32005470199E+04 0.  0.
        5    1    3    3  502    0  0.15338805878E+04 -0.45319263606E+03  0.76777282377E+03  0.17741675292E+04  0.46999998093E+01 0.  1.
       -5    1    3    3    0  502 -0.15338805878E+04  0.45319263606E+03  0.88428994719E+03  0.18276115626E+04  0.46999998093E+01 0. -1.
</event>
<event>
 5   0  0.9157524E-08  0.3201624E+04  0.7818609E-02  0.8188388E-01
       -2   -1    0    0    0  501  0.00000000000E+00  0.00000000000E+00  0.15503944787E+04  0.15503944787E+04  0.25500000920E-02 0.  1.
        2   -1    0    0  501    0  0.00000000000E+00  0.00000000000E+00 -0.16528694048E+04  0.16528694048E+04  0.25500000920E-02 0. -1.
    10030    2    1    2    0    0  0.00000000000E+00  0.00000000000E+00 -0.10247492608E+03  0.32032638834E+04  0.32016243372E+04 0.  0.
        5    1    3    3  502    0  0.47133246692E+03 -0.10143363669E+04 -0.11970509615E+04  0.16382874150E+04  0.46999998093E+01 0. -1.
       -5    1    3    3    0  502 -0.47133246692E+03  0.10143363669E+04  0.10945760354E+04  0.15649764685E+04  0.46999998093E+01 0.  1.
</event>
<event>
 5   0  0.3270966E-08  0.3195921E+04  0.7818609E-02  0.8189895E-01
       -1   -1    0    0    0  501  0.00000000000E+00  0.00000000000E+00  0.12066902945E+04  0.12066902945E+04  0.50400001928E-02 0.  1.
        1   -1    0    0  501    0  0.00000000000E+00  0.00000000000E+00 -0.21161009043E+04  0.21161009043E+04  0.50400001928E-02 0. -1.
    10030    2    1    2    0    0  0.00000000000E+00  0.00000000000E+00 -0.90941060984E+03  0.33227911988E+04  0.31959214155E+04 0.  0.
        3    1    3    3  502    0  0.17126185575E+03  0.47373770069E+03  0.11219780276E+04  0.12298750900E+04  0.10100000352E+00 0.  1.
       -3    1    3    3    0  502 -0.17126185575E+03 -0.47373770069E+03 -0.20313886374E+04  0.20929161089E+04  0.10100000352E+00 0. -1.
</event>
<event>
 5   0  0.9353994E-08  0.3199872E+04  0.7818609E-02  0.8188851E-01
        2   -1    0    0  501    0  0.00000000000E+00  0.00000000000E+00  0.25312742107E+04  0.25312742107E+04  0.25500000920E-02 0.  1.
       -2   -1    0    0    0  501  0.00000000000E+00  0.00000000000E+00 -0.10112671842E+04  0.10112671842E+04  0.25500000920E-02 0. -1.
    10030    2    1    2    0    0  0.00000000000E+00  0.00000000000E+00  0.15200070265E+04  0.35425413950E+04  0.31998715872E+04 0.  0.
        2    1    3    3  502    0  0.15602334785E+04 -0.28543364014E+03  0.52779534310E+03  0.16716365617E+04  0.25500000920E-02 0. -1.
       -2    1    3    3    0  502 -0.15602334785E+04  0.28543364014E+03  0.99221168341E+03  0.18709048332E+04  0.25500000920E-02 0.  1.
</event>
<event>
 5   0  0.3220147E-08  0.3200574E+04  0.7818609E-02  0.8188666E-01
       -1   -1    0    0    0  501  0.00000000000E+00  0.00000000000E+00  0.23936951160E+04  0.23936951160E+04  0.50400001928E-02 0. -1.
        1   -1    0    0  501    0  0.00000000000E+00  0.00000000000E+00 -0.10698597060E+04  0.10698597060E+04  0.50400001928E-02 0.  1.
    10030    2    1    2    0    0  0.00000000000E+00  0.00000000000E+00  0.13238354101E+04  0.34635548220E+04  0.32005736692E+04 0.  0.
        4    1    3    3  502    0 -0.32547272384E+03 -0.10102978051E+04  0.19579372203E+04  0.22271403010E+04  0.12699999809E+01 0. -1.
       -4    1    3    3    0  502  0.32547272384E+03  0.10102978051E+04 -0.63410181023E+03  0.12364145209E+04  0.12699999809E+01 0.  1.
</event>
<event>
 5   0  0.3283581E-08  0.3202015E+04  0.7818609E-02  0.8188285E-01
       -1   -1    0    0    0  501  0.00000000000E+00  0.00000000000E+00  0.13501019785E+04  0.13501019785E+04  0.50400001928E-02 0. -1.
        1   -1    0    0  501    0  0.00000000000E+00  0.00000000000E+00 -0.18985413685E+04  0.18985413685E+04  0.50400001928E-02 0.  1.
    10030    2    1    2    0    0  0.00000000000E+00  0.00000000000E+00 -0.54843938993E+03  0.32486433470E+04  0.32020146520E+04 0.  0.
        5    1    3    3  502    0  0.12651666069E+04 -0.95453899166E+03 -0.50426179795E+03  0.16631576235E+04  0.46999998093E+01 0. -1.
       -5    1    3    3    0  502 -0.12651666069E+04  0.95453899166E+03 -0.44177591980E+02  0.15854857235E+04  0.46999998093E+01 0.  1.
</event>
<event>
 5   0  0.3343140E-08  0.3200907E+04  0.7818609E-02  0.8188578E-01
        1   -1    0    0  501    0  0.00000000000E+00  0.00000000000E+00  0.25865537283E+04  0.25865537283E+04  0.50400001928E-02 0.  1.
       -1   -1    0    0    0  501  0.00000000000E+00  0.00000000000E+00 -0.99029510107E+03  0.99029510108E+03  0.50400001928E-02 0. -1.
    10030    2    1    2    0    0  0.00000000000E+00  0.00000000000E+00  0.15962586273E+04  0.35768488294E+04  0.32009070501E+04 0.  0.
        1    1    3    3  502    0  0.10520796087E+04 -0.11752736875E+04  0.49556737562E+03  0.16533985506E+04  0.50400001928E-02 0. -1.
       -1    1    3    3    0  502 -0.10520796087E+04  0.11752736875E+04  0.11006912517E+04  0.19234502788E+04  0.50400001928E-02 0.  1.
</event>
<event>
 5   0  0.3427667E-08  0.3204309E+04  0.7818609E-02  0.8187680E-01
       -1   -1    0    0    0  501  0.00000000000E+00  0.00000000000E+00  0.97658057512E+03  0.97658057513E+03  0.50400001928E-02 0. -1.
        1   -1    0    0  501    0  0.00000000000E+00  0.00000000000E+00 -0.26284561593E+04  0.26284561593E+04  0.50400001928E-02 0.  1.
    10030    2    1    2    0    0  0.00000000000E+00  0.00000000000E+00 -0.16518755842E+04  0.36050367344E+04  0.32043091160E+04 0.  0.
        2    1    3    3  502    0 -0.13735102293E+03 -0.80988126445E+03  0.72163236344E+03  0.10934012228E+04  0.25500000920E-02 0. -1.
       -2    1    3    3    0  502  0.13735102293E+03  0.80988126445E+03 -0.23735079476E+04  0.25116355116E+04  0.25500000920E-02 0.  1.
</event>
<event>
 5   0  0.9707721E-08  0.3199823E+04  0.7818609E-02  0.8188864E-01
        2   -1    0    0  501    0  0.00000000000E+00  0.00000000000E+00  0.23704245376E+04  0.23704245376E+04  0.25500000920E-02 0.  1.
       -2   -1    0    0    0  501  0.00000000000E+00  0.00000000000E+00 -0.10798559855E+04  0.10798559855E+04  0.25500000920E-02 0. -1.
    10030    2    1    2    0    0  0.00000000000E+00  0.00000000000E+00  0.12905685521E+04  0.34502805230E+04  0.31998231982E+04 0.  0.
        3    1    3    3  502    0  0.11248314631E+03  0.40404347819E+03  0.23100938456E+04  0.23478579975E+04  0.10100000352E+00 0.  1.
       -3    1    3    3    0  502 -0.11248314631E+03 -0.40404347819E+03 -0.10195252935E+04  0.11024225255E+04  0.10100000352E+00 0. -1.
</event>
<event>
 5   0  0.9329929E-08  0.3200580E+04  0.7818609E-02  0.8188664E-01
       -2   -1    0    0    0  501  0.00000000000E+00  0.00000000000E+00  0.13307170980E+04  0.13307170980E+04  0.25500000920E-02 0. -1.
        2   -1    0    0  501    0  0.00000000000E+00  0.00000000000E+00 -0.19244725159E+04  0.19244725159E+04  0.25500000920E-02 0.  1.
    10030    2    1    2    0    0  0.00000000000E+00  0.00000000000E+00 -0.59375541793E+03  0.32551896139E+04  0.32005802484E+04 0.  0.
        1    1    3    3  502    0  0.11366416754E+03  0.14212745991E+04 -0.10359031193E+04  0.17623950470E+04  0.50400001928E-02 0.  1.
       -1    1    3    3    0  502 -0.11366416754E+03 -0.14212745991E+04  0.44214770136E+03  0.14927945669E+04  0.50400001928E-02 0. -1.
</event>
<event>
 5   0  0.3427667E-08  0.3198631E+04  0.7818609E-02  0.8189179E-01
       -1   -1    0    0    0  501  0.00000000000E+00  0.00000000000E+00  0.14748082850E+04  0.14748082851E+04  0.50400001928E-02 0. -1.
        1   -1    0    0  501    0  0.00000000000E+00  0.00000000000E+00 -0.17343340150E+04  0.17343340150E+04  0.50400001928E-02 0.  1.
    10030    2    1    2    0    0  0.00000000000E+00  0.00000000000E+00 -0.25952572995E+03  0.32091423001E+04  0.31986310662E+04 0.  0.
        2    1    3    3  502    0  0.10440087112E+04 -0.12062120187E+04 -0.15773699301E+02  0.15953527612E+04  0.25500000920E-02 0.  1.
       -2    1    3    3    0  502 -0.10440087112E+04  0.12062120187E+04 -0.24375203065E+03  0.16137895388E+04  0.25500000920E-02 0. -1.
</event>
<event>
 5   0  0.3220147E-08  0.3193393E+04  0.7818609E-02  0.8190564E-01
        1   -1    0    0  501    0  0.00000000000E+00  0.00000000000E+00  0.15647719386E+04  0.15647719386E+04  0.50400001928E-02 0. -1.
       -1   -1    0    0    0  501  0.00000000000E+00  0.00000000000E+00 -0.16292722945E+04  0.16292722946E+04  0.50400001928E-02 0.  1.
    10030    2    1    2    0    0  0.00000000000E+00  0.00000000000E+00 -0.64500355985E+02  0.31940442331E+04  0.31933929084E+04 0.  0.
        4    1    3    3  502    0  0.69133283390E+03  0.14392152181E+04 -0.44759635471E+02  0.15972747319E+04  0.12699999809E+01 0. -1.
       -4    1    3    3    0  502 -0.69133283390E+03 -0.14392152181E+04 -0.19740720513E+02  0.15967695013E+04  0.12699999809E+01 0.  1.
</event>
<event>
 5   0  0.3270966E-08  0.3200195E+04  0.7818609E-02  0.8188766E-01
        1   -1    0    0  501    0  0.00000000000E+00  0.00000000000E+00  0.12608250309E+04  0.12608250310E+04  0.50400001928E-02 0.  1.
       -1   -1    0    0    0  501  0.00000000000E+00  0.00000000000E+00 -0.20306635822E+04  0.20306635822E+04  0.50400001928E-02 0. -1.
    10030    2    1    2    0    0  0.00000000000E+00  0.00000000000E+00 -0.76983855122E+03  0.32914886131E+04  0.32001946652E+04 0.  0.
        3    1    3    3  502    0 -0.14320139116E+04 -0.98007833262E+02  0.34239018844E+03  0.14756356020E+04  0.10100000352E+00 0.  1.
       -3    1    3    3    0  502  0.14320139116E+04  0.98007833262E+02 -0.11122287397E+04  0.18158530111E+04  0.10100000352E+00 0. -1.
</event>
<event>
 5   0  0.3220147E-08  0.3200172E+04  0.7818609E-02  0.8188772E-01
        1   -1    0    0  501    0  0.00000000000E+00  0.00000000000E+00  0.23995299071E+04  0.23995299071E+04  0.50400001928E-02 0. -1.
       -1   -1    0    0    0  501  0.00000000000E+00  0.00000000000E+00 -0.10669902470E+04  0.10669902471E+04  0.50400001928E-02 0.  1.
    10030    2    1    2    0    0  0.00000000000E+00  0.00000000000E+00  0.13325396601E+04  0.34665201542E+04  0.32001718756E+04 0.  0.
        4    1    3    3  502    0 -0.14423739179E+04 -0.51952840339E+03  0.11625746433E+04  0.19240409806E+04  0.12699999809E+01 0. -1.
       -4    1    3    3    0  502  0.14423739179E+04  0.51952840339E+03  0.16996501675E+03  0.15424791735E+04  0.12699999809E+01 0.  1.
</event>
<event>
 5   0  0.9353994E-08  0.3200032E+04  0.7818609E-02  0.8188809E-01
       -2   -1    0    0    0  501  0.00000000000E+00  0.00000000000E+00  0.10899942794E+04  0.10899942794E+04  0.25500000920E-02 0.  1.
        2   -1    0    0  501    0  0.00000000000E+00  0.00000000000E+00 -0.23486830039E+04  0.23486830039E+04  0.25500000920E-02 0. -1.
    10030    2    1    2    0    0  0.00000000000E+00  0.00000000000E+00 -0.12586887245E+04  0.34386772834E+04  0.32000318989E+04 0.  0.
        2    1    3    3  502    0 -0.46195513527E+02 -0.51468171287E+03 -0.22565446393E+04  0.23149568031E+04  0.25500000920E-02 0. -1.
       -2    1    3    3    0  502  0.46195513527E+02  0.51468171287E+03  0.99785591478E+03  0.11237204802E+04  0.25500000920E-02 0.  1.
</event>
<event>
 5   0  0.9329929E-08  0.3202564E+04  0.7818609E-02  0.8188140E-01
        2   -1    0    0  501    0  0.00000000000E+00  0.00000000000E+00  0.14285867346E+04  0.14285867346E+04  0.25500000920E-02 0.  1.
       -2   -1    0    0    0  501  0.00000000000E+00  0.00000000000E+00 -0.17948531237E+04  0.17948531237E+04  0.25500000920E-02 0. -1.
    10030    2    1    2    0    0  0.00000000000E+00  0.00000000000E+00 -0.36626638917E+03  0.32234398583E+04  0.32025635750E+04 0.  0.
        1    1    3    3  502    0 -0.12440551998E+04  0.90620446694E+03  0.26158801749E+03  0.15611880627E+04  0.50400001928E-02 0.  1.
       -1    1    3    3    0  502  0.12440551998E+04 -0.90620446694E+03 -0.62785440666E+03  0.16622517956E+04  0.50400001928E-02 0. -1.
</event>
<event>
 5   0  0.3343140E-08  0.3199997E+04  0.7818609E-02  0.8188818E-01
       -1   -1    0    0    0  501  0.00000000000E+00  0.00000000000E+00  0.17347344991E+04  0.17347344991E+04  0.50400001928E-02 0.  1.
        1   -1    0    0  501    0  0.00000000000E+00  0.00000000000E+00 -0.14757275675E+04  0.14757275675E+04  0.50400001928E-02 0. -1.
    10030    2    1    2    0    0  0.00000000000E+00  0.00000000000E+00  0.25900693156E+03  0.32104620666E+04  0.31999972016E+04 0.  0.
        1    1    3    3  502    0  0.93600678366E+03  0.62370162458E+02 -0.11708821886E+04  0.15003212442E+04  0.50400001928E-02 0. -1.
       -1    1    3    3    0  502 -0.93600678366E+03 -0.62370162458E+02  0.14298891202E+04  0.17101408224E+04  0.50400001928E-02 0.  1.
</event>
<event>
 5   0  0.9353994E-08  0.3196681E+04  0.7818609E-02  0.8189694E-01
       -2   -1    0    0    0  501  0.00000000000E+00  0.00000000000E+00  0.13536161092E+04  0.13536161092E+04  0.25500000920E-02 0. -1.
        2   -1    0    0  501    0  0.00000000000E+00  0.00000000000E+00 -0.18873098111E+04  0.18873098111E+04  0.25500000920E-02 0.  1.
    10030    2    1    2    0    0  0.00000000000E+00  0.00000000000E+00 -0.53369370189E+03  0.32409259204E+04  0.31966813814E+04 0.  0.
        2    1    3    3  502    0  0.14282891551E+04 -0.35185364607E+03 -0.90070579753E+03  0.17248425529E+04  0.25500000920E-02 0.  1.
       -2    1    3    3    0  502 -0.14282891551E+04  0.35185364607E+03  0.36701209564E+03  0.15160833674E+04  0.25500000920E-02 0. -1.
</event>
<event>
 5   0  0.3270966E-08  0.3203290E+04  0.7818609E-02  0.8187949E-01
       -1   -1    0    0    0  501  0.00000000000E+00  0.00000000000E+00  0.13855600505E+04  0.13855600506E+04  0.50400001928E-02 0. -1.
        1   -1    0    0  501    0  0.00000000000E+00  0.00000000000E+00 -0.18514291358E+04  0.18514291358E+04  0.50400001928E-02 0.  1.
    10030    2    1    2    0    0  0.00000000000E+00  0.00000000000E+00 -0.46586908523E+03  0.32369891863E+04  0.32032897134E+04 0.  0.
        3    1    3    3  502    0  0.72069477225E+03  0.24307918551E+03  0.11914251586E+04  0.14135000403E+04  0.10100000352E+00 0. -1.
       -3    1    3    3    0  502 -0.72069477225E+03 -0.24307918551E+03 -0.16572942438E+04  0.18234891461E+04  0.10100000352E+00 0.  1.
</event>
<event>
 5   0  0.9329929E-08  0.3200597E+04  0.7818609E-02  0.8188659E-01
       -2   -1    0    0    0  501  0.00000000000E+00  0.00000000000E+00  0.21816687520E+04  0.21816687520E+04  0.25500000920E-02 0.  1.
        2   -1    0    0  501    0  0.00000000000E+00  0.00000000000E+00 -0.11738518385E+04  0.11738518385E+04  0.25500000920E-02 0. -1.
    10030    2    1    2    0    0  0.00000000000E+00  0.00000000000E+00  0.10078169135E+04  0.33555205905E+04  0.32005973664E+04 0.  0.
        1    1    3    3  502    0  0.70295921280E+03  0.10236409557E+04 -0.55438999343E+03  0.13599046753E+04  0.50400001928E-02 0. -1.
       -1    1    3    3    0  502 -0.70295921280E+03 -0.10236409557E+04  0.15622069069E+04  0.19956159152E+04  0.50400001928E-02 0.  1.
</event>
<event>
 5   0  0.3270966E-08  0.3202127E+04  0.7818609E-02  0.8188256E-01
       -1   -1    0    0    0  501  0.00000000000E+00  0.00000000000E+00  0.35254219256E+04  0.35254219256E+04  0.50400001928E-02 0. -1.
        1   -1    0    0  501    0  0.00000000000E+00  0.00000000000E+00 -0.72712000219E+03  0.72712000221E+03  0.50400001928E-02 0.  1.
    10030    2    1    2    0    0  0.00000000000E+00  0.00000000000E+00  0.27983019234E+04  0.42525419278E+04  0.32021272919E+04 0.  0.
        3    1    3    3  502    0 -0.34866232908E+03  0.78208236274E+03  0.31957770074E+04  0.33085055438E+04  0.10100000352E+00 0. -1.
       -3    1    3    3    0  502  0.34866232908E+03 -0.78208236274E+03 -0.39747508399E+03  0.94403638406E+03  0.10100000352E+00 0.  1.
</event>
<event>
 5   0  0.9157524E-08  0.3200778E+04  0.7818609E-02  0.8188612E-01
       -2   -1    0    0    0  501  0.00000000000E+00  0.00000000000E+00  0.15639855765E+04  0.15639855765E+04  0.25500000920E-02 0. -1.
        2   -1    0    0  501    0  0.00000000000E+00  0.00000000000E+00 -0.16376393426E+04  0.16376393426E+04  0.25500000920E-02 0.  1.
    10030    2    1    2    0    0  0.00000000000E+00  0.00000000000E+00 -0.73653766112E+02  0.32016249191E+04  0.32007776001E+04 0.  0.
        5    1    3    3  502    0 -0.10901317583E+04  0.74378328652E+03  0.86874221762E+03  0.15799797335E+04  0.46999998093E+01 0. -1.
       -5    1    3    3    0  502  0.10901317583E+04 -0.74378328652E+03 -0.94239598373E+03  0.16216451856E+04  0.46999998093E+01 0.  1.
</event>
<event>
 5   0  0.9329929E-08  0.3199966E+04  0.7818609E-02  0.8188826E-01
        2   -1    0    0  501    0  0.00000000000E+00  0.00000000000E+00  0.25574372675E+04  0.25574372675E+04  0.25500000920E-02 0.  1.
       -2   -1    0    0    0  501  0.00000000000E+00  0.00000000000E+00 -0.10009805307E+04  0.10009805307E+04  0.25500000920E-02 0. -1.
    10030    2    1    2    0    0  0.00000000000E+00  0.00000000000E+00  0.15564567368E+04  0.35584177981E+04  0.31999655705E+04 0.  0.
        1    1    3    3  502    0 -0.13009831893E+04  0.50207005933E+03 -0.94059408361E+02  0.13976690509E+04  0.50400001928E-02 0. -1.
       -1    1    3    3    0  502  0.13009831893E+04 -0.50207005933E+03  0.16505161451E+04  0.21607487473E+04  0.50400001928E-02 0.  1.
</event>
<event>
 5   0  0.3427667E-08  0.3199192E+04  0.7818609E-02  0.8189031E-01
        1   -1    0    0  501    0  0.00000000000E+00  0.00000000000E+00  0.21361416379E+04  0.21361416379E+04  0.50400001928E-02 0.  1.
       -1   -1    0    0    0  501  0.00000000000E+00  0.00000000000E+00 -0.11978169511E+04  0.11978169511E+04  0.50400001928E-02 0. -1.
    10030    2    1    2    0    0  0.00000000000E+00  0.00000000000E+00  0.93832468680E+03  0.33339585891E+04  0.31991915628E+04 0.  0.
        2    1    3    3  502    0 -0.10333654604E+04  0.12135766080E+04  0.32898077403E+03  0.16275259469E+04  0.25500000920E-02 0.  1.
       -2    1    3    3    0  502  0.10333654604E+04 -0.12135766080E+04  0.60934391277E+03  0.17064326421E+04  0.25500000920E-02 0. -1.
</event>
<event>
 5   0  0.9353994E-08  0.3200259E+04  0.7818609E-02  0.8188749E-01
       -2   -1    0    0    0  501  0.00000000000E+00  0.00000000000E+00  0.16692658996E+04  0.16692658996E+04  0.25500000920E-02 0. -1.
        2   -1    0    0  501    0  0.00000000000E+00  0.00000000000E+00 -0.15338565805E+04  0.15338565805E+04  0.25500000920E-02 0.  1.
    10030    2    1    2    0    0  0.00000000000E+00  0.00000000000E+00  0.13540931908E+03  0.32031224801E+04  0.32002590424E+04 0.  0.
        2    1    3    3  502    0  0.10918043833E+04 -0.21022565011E+02  0.12383389945E+04  0.16510488257E+04  0.25500000920E-02 0. -1.
       -2    1    3    3    0  502 -0.10918043833E+04  0.21022565011E+02 -0.11029296754E+04  0.15520736543E+04  0.25500000920E-02 0.  1.
</event>
<event>
 5   0  0.9329929E-08  0.3200013E+04  0.7818609E-02  0.8188814E-01
        2   -1    0    0  501    0  0.00000000000E+00  0.00000000000E+00  0.17840483670E+04  0.17840483670E+04  0.25500000920E-02 0.  1.
       -2   -1    0    0    0  501  0.00000000000E+00  0.00000000000E+00 -0.14349507785E+04  0.14349507785E+04  0.25500000920E-02 0. -1.
    10030    2    1    2    0    0  0.00000000000E+00  0.00000000000E+00  0.34909758854E+03  0.32189991455E+04  0.32000134956E+04 0.  0.
        1    1    3    3  502    0  0.12908800488E+04  0.66771839808E+02  0.11231131027E+04  0.17123705266E+04  0.50400001928E-02 0.  1.
       -1    1    3    3    0  502 -0.12908800488E+04 -0.66771839808E+02 -0.77401551413E+03  0.15066286189E+04  0.50400001928E-02 0. -1.
</event>
<event>
 5   0  0.3427667E-08  0.3199978E+04  0.7818609E-02  0.8188823E-01
       -1   -1    0    0    0  501  0.00000000000E+00  0.00000000000E+00  0.16436418173E+04  0.16436418173E+04  0.50400001928E-02 0.  1.
        1   -1    0    0  501    0  0.00000000000E+00  0.00000000000E+00 -0.15574954489E+04  0.15574954489E+04  0.50400001928E-02 0. -1.
    10030    2    1    2    0    0  0.00000000000E+00  0.00000000000E+00  0.86146368424E+02  0.32011372662E+04  0.31999779062E+04 0.  0.
        2    1    3    3  502    0 -0.83406605001E+03 -0.47580541469E+01 -0.13228063652E+04  0.15638112081E+04  0.25500000920E-02 0. -1.
       -2    1    3    3    0  502  0.83406605001E+03  0.47580541469E+01  0.14089527336E+04  0.16373260581E+04  0.25500000920E-02 0.  1.
</event>
<event>
 5   0  0.3220147E-08  0.3198087E+04  0.7818609E-02  0.8189323E-01
        1   -1    0    0  501    0  0.00000000000E+00  0.00000000000E+00  0.14802242071E+04  0.14802242071E+04  0.50400001928E-02 0.  1.
       -1   -1    0    0    0  501  0.00000000000E+00  0.00000000000E+00 -0.17274003781E+04  0.17274003781E+04  0.50400001928E-02 0. -1.
    10030    2    1    2    0    0  0.00000000000E+00  0.00000000000E+00 -0.24717617104E+03  0.32076245853E+04  0.31980868375E+04 0.  0.
        4    1    3    3  502    0 -0.66857603332E+03  0.13960490758E+04  0.27884575736E+03  0.15728011647E+04  0.12699999809E+01 0.  1.
       -4    1    3    3    0  502  0.66857603332E+03 -0.13960490758E+04 -0.52602192840E+03  0.16348234206E+04  0.12699999809E+01 0. -1.
</event>
<event>
 5   0  0.9157524E-08  0.3202770E+04  0.7818609E-02  0.8188086E-01
       -2   -1    0    0    0  501  0.00000000000E+00  0.00000000000E+00  0.13473616006E+04  0.13473616006E+04  0.25500000920E-02 0.  1.
        2   -1    0    0  501    0  0.00000000000E+00  0.00000000000E+00 -0.19033009188E+04  0.19033009188E+04  0.25500000920E-02 0. -1.
    10030    2    1    2    0    0  0.00000000000E+00  0.00000000000E+00 -0.55593931820E+03  0.32506625194E+04  0.32027704085E+04 0.  0.
        5    1    3    3  502    0 -0.33157050376E+03 -0.10391337989E+04 -0.14679670358E+04  0.18288486431E+04  0.46999998093E+01 0. -1.
       -5    1    3    3    0  502  0.33157050376E+03  0.10391337989E+04  0.91202771762E+03  0.14218138763E+04  0.46999998093E+01 0.  1.
</event>
<event>
 5   0  0.3283581E-08  0.3200006E+04  0.7818609E-02  0.8188815E-01
        1   -1    0    0  501    0  0.00000000000E+00  0.00000000000E+00  0.21201283233E+04  0.21201283233E+04  0.50400001928E-02 0. -1.
       -1   -1    0    0    0  501  0.00000000000E+00  0.00000000000E+00 -0.12074788939E+04  0.12074788939E+04  0.50400001928E-02 0.  1.
    10030    2    1    2    0    0  0.00000000000E+00  0.00000000000E+00  0.91264942942E+03  0.33276072172E+04  0.32000063767E+04 0.  0.
        5    1    3    3  502    0 -0.10790313623E+04  0.65243884700E+03 -0.56783514103E+03  0.13829114098E+04  0.46999998093E+01 0.  1.
       -5    1    3    3    0  502  0.10790313623E+04 -0.65243884700E+03  0.14804845705E+04  0.19446958074E+04  0.46999998093E+01 0. -1.
</event>
<event>
 5   0  0.3270966E-08  0.3197372E+04  0.7818609E-02  0.8189511E-01
        1   -1    0    0  501    0  0.00000000000E+00  0.00000000000E+00  0.21603946307E+04  0.21603946307E+04  0.50400001928E-02 0. -1.
       -1   -1    0    0    0  501  0.00000000000E+00  0.00000000000E+00 -0.11830234961E+04  0.11830234961E+04  0.50400001928E-02 0.  1.
    10030    2    1    2    0    0  0.00000000000E+00  0.00000000000E+00  0.97737113460E+03  0.33434181268E+04  0.31973724268E+04 0.  0.
        3    1    3    3  502    0 -0.43019157192E+03  0.17453146029E+03 -0.11109851561E+04  0.12040822424E+04  0.10100000352E+00 0.  1.
       -3    1    3    3    0  502  0.43019157192E+03 -0.17453146029E+03  0.20883562907E+04  0.21393358844E+04  0.10100000352E+00 0. -1.
</event>
<event>
 5   0  0.9707721E-08  0.3199953E+04  0.7818609E-02  0.8188830E-01
       -2   -1    0    0    0  501  0.00000000000E+00  0.00000000000E+00  0.11045711169E+04  0.11045711169E+04  0.25500000920E-02 0.  1.
        2   -1    0    0  501    0  0.00000000000E+00  0.00000000000E+00 -0.23175736356E+04  0.23175736356E+04  0.25500000920E-02 0. -1.
    10030    2    1    2    0    0  0.00000000000E+00  0.00000000000E+00 -0.12130025187E+04  0.34221447525E+04  0.31999530617E+04 0.  0.
        3    1    3    3  502    0  0.41333478929E+03 -0.35828569529E+03  0.10014661912E+04  0.11411173602E+04  0.10100000352E+00 0.  1.
       -3    1    3    3    0  502 -0.41333478929E+03  0.35828569529E+03 -0.22144687098E+04  0.22810273923E+04  0.10100000352E+00 0. -1.
</event>
<event>
 5   0  0.9157524E-08  0.3201305E+04  0.7818609E-02  0.8188473E-01
        2   -1    0    0  501    0  0.00000000000E+00  0.00000000000E+00  0.31797440222E+04  0.31797440222E+04  0.25500000920E-02 0. -1.
       -2   -1    0    0    0  501  0.00000000000E+00  0.00000000000E+00 -0.80575324938E+03  0.80575324939E+03  0.25500000920E-02 0.  1.
    10030    2    1    2    0    0  0.00000000000E+00  0.00000000000E+00  0.23739907728E+04  0.39854972716E+04  0.32013054076E+04 0.  0.
        5    1    3    3  502    0  0.79625734240E+03 -0.21002012589E+03 -0.52179231363E+03  0.97489666999E+03  0.46999998093E+01 0.  1.
       -5    1    3    3    0  502 -0.79625734240E+03  0.21002012589E+03  0.28957830864E+04  0.30106006016E+04  0.46999998093E+01 0. -1.
</event>
<event>
 5   0  0.3283581E-08  0.3199986E+04  0.7818609E-02  0.8188821E-01
        1   -1    0    0  501    0  0.00000000000E+00  0.00000000000E+00  0.22534754647E+04  0.22534754647E+04  0.50400001928E-02 0.  1.
       -1   -1    0    0    0  501  0.00000000000E+00  0.00000000000E+00 -0.11360129765E+04  0.11360129766E+04  0.50400001928E-02 0. -1.
    10030    2    1    2    0    0  0.00000000000E+00  0.00000000000E+00  0.11174624882E+04  0.33894884413E+04  0.31999858564E+04 0.  0.
        5    1    3    3  502    0 -0.72005275890E+03  0.26760651368E+03 -0.92790407708E+03  0.12046232971E+04  0.46999998093E+01 0. -1.
       -5    1    3    3    0  502  0.72005275890E+03 -0.26760651368E+03  0.20453665653E+04  0.21848651441E+04  0.46999998093E+01 0.  1.
</event>
<event>
 5   0  0.3427667E-08  0.3201071E+04  0.7818609E-02  0.8188534E-01
       -1   -1    0    0    0  501  0.00000000000E+00  0.00000000000E+00  0.13550207744E+04  0.13550207744E+04  0.50400001928E-02 0. -1.
        1   -1    0    0  501    0  0.00000000000E+00  0.00000000000E+00 -0.18905343354E+04  0.18905343354E+04  0.50400001928E-02 0.  1.
    10030    2    1    2    0    0  0.00000000000E+00  0.00000000000E+00 -0.53551356100E+03  0.32455551099E+04  0.32010706329E+04 0.  0.
        2    1    3    3  502    0  0.16122223552E+03  0.21058387245E+03 -0.18681005837E+04  0.18868327874E+04  0.25500000920E-02 0.  1.
       -2    1    3    3    0  502 -0.16122223552E+03 -0.21058387245E+03  0.13325870227E+04  0.13587223225E+04  0.25500000920E-02 0. -1.
</event>
<event>
 5   0  0.9727083E-08  0.3199210E+04  0.7818609E-02  0.8189026E-01
       -2   -1    0    0    0  501  0.00000000000E+00  0.00000000000E+00  0.90560814948E+03  0.90560814949E+03  0.25500000920E-02 0. -1.
        2   -1    0    0  501    0  0.00000000000E+00  0.00000000000E+00 -0.28254334889E+04  0.28254334889E+04  0.25500000920E-02 0.  1.
    10030    2    1    2    0    0  0.00000000000E+00  0.00000000000E+00 -0.19198253394E+04  0.37310416383E+04  0.31992096482E+04 0.  0.
        4    1    3    3  502    0  0.36418233658E+03 -0.15571149494E+04 -0.10050543972E+04  0.18887487112E+04  0.12699999809E+01 0. -1.
       -4    1    3    3    0  502 -0.36418233658E+03  0.15571149494E+04 -0.91477094219E+03  0.18422929271E+04  0.12699999809E+01 0.  1.
</event>
<event>
 5   0  0.9157524E-08  0.3199347E+04  0.7818609E-02  0.8188990E-01
        2   -1    0    0  501    0  0.00000000000E+00  0.00000000000E+00  0.17518449320E+04  0.17518449320E+04  0.25500000920E-02 0. -1.
       -2   -1    0    0    0  501  0.00000000000E+00  0.00000000000E+00 -0.14607205196E+04  0.14607205196E+04  0.25500000920E-02 0.  1.
    10030    2    1    2    0    0  0.00000000000E+00  0.00000000000E+00  0.29112441240E+03  0.32125654516E+04  0.31993473331E+04 0.  0.
        5    1    3    3  502    0  0.88303724859E+03 -0.81705631545E+03  0.12042416019E+04  0.17022208232E+04  0.46999998093E+01 0. -1.
       -5    1    3    3    0  502 -0.88303724859E+03  0.81705631545E+03 -0.91311718951E+03  0.15103446285E+04  0.46999998093E+01 0.  1.
</event>
<event>
 5   0  0.3343140E-08  0.3199338E+04  0.7818609E-02  0.8188992E-01
        1   -1    0    0  501    0  0.00000000000E+00  0.00000000000E+00  0.19082839888E+04  0.19082839888E+04  0.50400001928E-02 0.  1.
       -1   -1    0    0    0  501  0.00000000000E+00  0.00000000000E+00 -0.13409646521E+04  0.13409646521E+04  0.50400001928E-02 0. -1.
    10030    2    1    2    0    0  0.00000000000E+00  0.00000000000E+00  0.56731933667E+03  0.32492486409E+04  0.31993382910E+04 0.  0.
        1    1    3    3  502    0  0.87063384458E+02  0.69953128205E+03  0.17420337497E+04  0.18792566702E+04  0.50400001928E-02 0.  1.
       -1    1    3    3    0  502 -0.87063384458E+02 -0.69953128205E+03 -0.11747144130E+04  0.13699919707E+04  0.50400001928E-02 0. -1.
</event>
<event>
 5   0  0.9353994E-08  0.3200372E+04  0.7818609E-02  0.8188719E-01
        2   -1    0    0  501    0  0.00000000000E+00  0.00000000000E+00  0.21849208324E+04  0.21849208324E+04  0.25500000920E-02 0.  1.
       -2   -1    0    0    0  501  0.00000000000E+00  0.00000000000E+00 -0.11719397849E+04  0.11719397849E+04  0.25500000920E-02 0. -1.
    10030    2    1    2    0    0  0.00000000000E+00  0.00000000000E+00  0.10129810475E+04  0.33568606173E+04  0.32003722598E+04 0.  0.
        2    1    3    3  502    0 -0.47753784539E+03  0.41382754271E+03 -0.10355306619E+04  0.12131032028E+04  0.25500000920E-02 0. -1.
       -2    1    3    3    0  502  0.47753784539E+03 -0.41382754271E+03  0.20485117094E+04  0.21437574145E+04  0.25500000920E-02 0.  1.
</event>
<event>
 5   0  0.3427667E-08  0.3201638E+04  0.7818609E-02  0.8188385E-01
        1   -1    0    0  501    0  0.00000000000E+00  0.00000000000E+00  0.18453234714E+04  0.18453234714E+04  0.50400001928E-02 0. -1.
       -1   -1    0    0    0  501  0.00000000000E+00  0.00000000000E+00 -0.13887114035E+04  0.13887114035E+04  0.50400001928E-02 0.  1.
    10030    2    1    2    0    0  0.00000000000E+00  0.00000000000E+00  0.45661206794E+03  0.32340348749E+04  0.32016381731E+04 0.  0.
        2    1    3    3  502    0 -0.58593967126E+02 -0.12733634258E+04  0.12064714403E+04  0.17551242131E+04  0.25500000920E-02 0. -1.
       -2    1    3    3    0  502  0.58593967126E+02  0.12733634258E+04 -0.74985937233E+03  0.14789106618E+04  0.25500000920E-02 0.  1.
</event>
<event>
 5   0  0.9329929E-08  0.3190664E+04  0.7818609E-02  0.8191287E-01
        2   -1    0    0  501    0  0.00000000000E+00  0.00000000000E+00  0.13214891607E+04  0.13214891607E+04  0.25500000920E-02 0. -1.
       -2   -1    0    0    0  501  0.00000000000E+00  0.00000000000E+00 -0.19259217401E+04  0.19259217401E+04  0.25500000920E-02 0.  1.
    10030    2    1    2    0    0  0.00000000000E+00  0.00000000000E+00 -0.60443257941E+03  0.32474109007E+04  0.31906643219E+04 0.  0.
        1    1    3    3  502    0 -0.45837748351E+03 -0.12756671471E+04  0.55396317187E+03  0.14643468794E+04  0.50400001928E-02 0. -1.
       -1    1    3    3    0  502  0.45837748351E+03  0.12756671471E+04 -0.11583957513E+04  0.17830640213E+04  0.50400001928E-02 0.  1.
</event>
<event>
 5   0  0.3270966E-08  0.3202643E+04  0.7818609E-02  0.8188120E-01
       -1   -1    0    0    0  501  0.00000000000E+00  0.00000000000E+00  0.10106820507E+04  0.10106820507E+04  0.50400001928E-02 0. -1.
        1   -1    0    0  501    0  0.00000000000E+00  0.00000000000E+00 -0.25371286456E+04  0.25371286456E+04  0.50400001928E-02 0.  1.
    10030    2    1    2    0    0  0.00000000000E+00  0.00000000000E+00 -0.15264465948E+04  0.35478106963E+04  0.32026428977E+04 0.  0.
        3    1    3    3  502    0  0.11817170940E+04 -0.74308812424E+03  0.10593625392E+03  0.13999491957E+04  0.10100000352E+00 0. -1.
       -3    1    3    3    0  502 -0.11817170940E+04  0.74308812424E+03 -0.16323828488E+04  0.21478615006E+04  0.10100000352E+00 0.  1.
</event>
<event>
 5   0  0.3270966E-08  0.3199385E+04  0.7818609E-02  0.8188980E-01
       -1   -1    0    0    0  501  0.00000000000E+00  0.00000000000E+00  0.10607698291E+04  0.10607698291E+04  0.50400001928E-02 0.  1.
        1   -1    0    0  501    0  0.00000000000E+00  0.00000000000E+00 -0.24124140452E+04  0.24124140452E+04  0.50400001928E-02 0. -1.
    10030    2    1    2    0    0  0.00000000000E+00  0.00000000000E+00 -0.13516442162E+04  0.34731838743E+04  0.31993849624E+04 0.  0.
        3    1    3    3  502    0 -0.36689029596E+03  0.43189700746E+02  0.10138286632E+04  0.10790377232E+04  0.10100000352E+00 0.  1.
       -3    1    3    3    0  502  0.36689029596E+03 -0.43189700746E+02 -0.23654728794E+04  0.23941461511E+04  0.10100000352E+00 0. -1.
</event>
<event>
 5   0  0.9727083E-08  0.3200580E+04  0.7818609E-02  0.8188664E-01
       -2   -1    0    0    0  501  0.00000000000E+00  0.00000000000E+00  0.87133559605E+03  0.87133559605E+03  0.25500000920E-02 0.  1.
        2   -1    0    0  501    0  0.00000000000E+00  0.00000000000E+00 -0.29390841490E+04  0.29390841490E+04  0.25500000920E-02 0. -1.
    10030    2    1    2    0    0  0.00000000000E+00  0.00000000000E+00 -0.20677485529E+04  0.38104197450E+04  0.32005803466E+04 0.  0.
        4    1    3    3  502    0 -0.12514759669E+04  0.73051638190E+03 -0.18422859543E+04  0.23438996203E+04  0.12699999809E+01 0. -1.
       -4    1    3    3    0  502  0.12514759669E+04 -0.73051638190E+03 -0.22546259862E+03  0.14665201247E+04  0.12699999809E+01 0.  1.
</event>
<event>
 5   0  0.9329929E-08  0.3200933E+04  0.7818609E-02  0.8188571E-01
        2   -1    0    0  501    0  0.00000000000E+00  0.00000000000E+00  0.17756714504E+04  0.17756714504E+04  0.25500000920E-02 0.  1.
       -2   -1    0    0    0  501  0.00000000000E+00  0.00000000000E+00 -0.14425485528E+04  0.14425485528E+04  0.25500000920E-02 0. -1.
    10030    2    1    2    0    0  0.00000000000E+00  0.00000000000E+00  0.33312289766E+03  0.32182200032E+04  0.32009325397E+04 0.  0.
        1    1    3    3  502    0  0.57171243280E+03  0.53347955114E+03 -0.12374175316E+04  0.14637819800E+04  0.50400001928E-02 0. -1.
       -1    1    3    3    0  502 -0.57171243280E+03 -0.53347955114E+03  0.15705404293E+04  0.17544380232E+04  0.50400001928E-02 0.  1.
</event>
<event>
 5   0  0.3080500E-08  0.3200291E+04  0.7818609E-02  0.8188740E-01
       -4   -1    0    0    0  501  0.00000000000E+00  0.00000000000E+00  0.14002074272E+04  0.14002080032E+04  0.12699999809E+01 0.  1.
        4   -1    0    0  501    0  0.00000000000E+00  0.00000000000E+00 -0.18286323184E+04  0.18286327594E+04  0.12699999809E+01 0. -1.
    10030    2    1    2    0    0  0.00000000000E+00  0.00000000000E+00 -0.42842489110E+03  0.32288407626E+04  0.32002913590E+04 0.  0.
        3    1    3    3  502    0  0.36764487111E+02 -0.93262096298E+03  0.10971257237E+04  0.14404229767E+04  0.10100000352E+00 0.  1.
       -3    1    3    3    0  502 -0.36764487111E+02  0.93262096298E+03 -0.15255506148E+04  0.17884177858E+04  0.10100000352E+00 0. -1.
</event>
<event>
 5   0  0.3220147E-08  0.3208612E+04  0.7818609E-02  0.8186546E-01
       -1   -1    0    0    0  501  0.00000000000E+00  0.00000000000E+00  0.17764368956E+04  0.17764368957E+04  0.50400001928E-02 0. -1.
        1   -1    0    0  501    0  0.00000000000E+00  0.00000000000E+00 -0.14488541795E+04  0.14488541795E+04  0.50400001928E-02 0.  1.
    10030    2    1    2    0    0  0.00000000000E+00  0.00000000000E+00  0.32758271614E+03  0.32252910752E+04  0.32086121741E+04 0.  0.
        4    1    3    3  502    0 -0.44071798212E+03  0.14865721080E+04 -0.25025687542E+03  0.15705919549E+04  0.12699999809E+01 0. -1.
       -4    1    3    3    0  502  0.44071798212E+03 -0.14865721080E+04  0.57783959156E+03  0.16546991203E+04  0.12699999809E+01 0.  1.
</event>
<event>
 5   0  0.3283581E-08  0.3198481E+04  0.7818609E-02  0.8189218E-01
        1   -1    0    0  501    0  0.00000000000E+00  0.00000000000E+00  0.14439149898E+04  0.14439149898E+04  0.50400001928E-02 0.  1.
       -1   -1    0    0    0  501  0.00000000000E+00  0.00000000000E+00 -0.17712748285E+04  0.17712748285E+04  0.50400001928E-02 0. -1.
    10030    2    1    2    0    0  0.00000000000E+00  0.00000000000E+00 -0.32735983874E+03  0.32151898183E+04  0.31984810619E+04 0.  0.
        5    1    3    3  502    0 -0.13881414743E+04 -0.38732526878E+03 -0.86054781368E+03  0.16785476598E+04  0.46999998093E+01 0. -1.
       -5    1    3    3    0  502  0.13881414743E+04  0.38732526878E+03  0.53318797494E+03  0.15366421585E+04  0.46999998093E+01 0.  1.
</event>
<event>
 5   0  0.9353994E-08  0.3200264E+04  0.7818609E-02  0.8188747E-01
        2   -1    0    0  501    0  0.00000000000E+00  0.00000000000E+00  0.18678603770E+04  0.18678603770E+04  0.25500000920E-02 0. -1.
       -2   -1    0    0    0  501  0.00000000000E+00  0.00000000000E+00 -0.13707784356E+04  0.13707784356E+04  0.25500000920E-02 0.  1.
    10030    2    1    2    0    0  0.00000000000E+00  0.00000000000E+00  0.49708194136E+03  0.32386388126E+04  0.32002641925E+04 0.  0.
        2    1    3    3  502    0 -0.12763638649E+03 -0.11901931481E+04 -0.82606392675E+03  0.14543838517E+04  0.25500000920E-02 0.  1.
       -2    1    3    3    0  502  0.12763638649E+03  0.11901931481E+04  0.13231458681E+04  0.17842549609E+04  0.25500000920E-02 0. -1.
</event>
<event>
 5   0  0.3220147E-08  0.3198534E+04  0.7818609E-02  0.8189204E-01
        1   -1    0    0  501    0  0.00000000000E+00  0.00000000000E+00  0.92379010678E+03  0.92379010679E+03  0.50400001928E-02 0. -1.
       -1   -1    0    0    0  501  0.00000000000E+00  0.00000000000E+00 -0.27686539792E+04  0.27686539792E+04  0.50400001928E-02 0.  1.
    10030    2    1    2    0    0  0.00000000000E+00  0.00000000000E+00 -0.18448638725E+04  0.36924440860E+04  0.31985341362E+04 0.  0.
        4    1    3    3  502    0 -0.82866531413E+02 -0.64941399620E+03  0.76200857748E+03  0.10046213643E+04  0.12699999809E+01 0. -1.
       -4    1    3    3    0  502  0.82866531413E+02  0.64941399620E+03 -0.26068724499E+04  0.26878227218E+04  0.12699999809E+01 0.  1.
</event>
<event>
 5   0  0.9157524E-08  0.3200126E+04  0.7818609E-02  0.8188784E-01
       -2   -1    0    0    0  501  0.00000000000E+00  0.00000000000E+00  0.17749679600E+04  0.17749679600E+04  0.25500000920E-02 0. -1.
        2   -1    0    0  501    0  0.00000000000E+00  0.00000000000E+00 -0.14423933116E+04  0.14423933116E+04  0.25500000920E-02 0.  1.
    10030    2    1    2    0    0  0.00000000000E+00  0.00000000000E+00  0.33257464841E+03  0.32173612716E+04  0.32001261936E+04 0.  0.
        5    1    3    3  502    0  0.67973025265E+03  0.12611797779E+04 -0.54999070220E+03  0.15346398637E+04  0.46999998093E+01 0.  1.
       -5    1    3    3    0  502 -0.67973025265E+03 -0.12611797779E+04  0.88256535062E+03  0.16827214079E+04  0.46999998093E+01 0. -1.
</event>
<event>
 5   0  0.3283581E-08  0.3199951E+04  0.7818609E-02  0.8188830E-01
       -1   -1    0    0    0  501  0.00000000000E+00  0.00000000000E+00  0.15585613950E+04  0.15585613950E+04  0.50400001928E-02 0. -1.
        1   -1    0    0  501    0  0.00000000000E+00  0.00000000000E+00 -0.16424896264E+04  0.16424896264E+04  0.50400001928E-02 0.  1.
    10030    2    1    2    0    0  0.00000000000E+00  0.00000000000E+00 -0.83928231367E+02  0.32010510214E+04  0.31999505768E+04 0.  0.
        5    1    3    3  502    0 -0.15837348990E+04 -0.18396539497E+03 -0.17557402725E+03  0.16040286238E+04  0.46999998093E+01 0.  1.
       -5    1    3    3    0  502  0.15837348990E+04  0.18396539497E+03  0.91645795881E+02  0.15970223977E+04  0.46999998093E+01 0. -1.
</event>
<event>
 5   0  0.3343140E-08  0.3200476E+04  0.7818609E-02  0.8188692E-01
        1   -1    0    0  501    0  0.00000000000E+00  0.00000000000E+00  0.14718541330E+04  0.14718541330E+04  0.50400001928E-02 0.  1.
       -1   -1    0    0    0  501  0.00000000000E+00  0.00000000000E+00 -0.17398197375E+04  0.17398197375E+04  0.50400001928E-02 0. -1.
    10030    2    1    2    0    0  0.00000000000E+00  0.00000000000E+00 -0.26796560444E+03  0.32116738705E+04  0.32004755092E+04 0.  0.
        1    1    3    3  502    0  0.11272727153E+04  0.11337337025E+04 -0.20252250509E+03  0.16115555367E+04  0.50400001928E-02 0.  1.
       -1    1    3    3    0  502 -0.11272727153E+04 -0.11337337025E+04 -0.65443099353E+02  0.16001183338E+04  0.50400001928E-02 0. -1.
</event>
<event>
 5   0  0.9353994E-08  0.3200222E+04  0.7818609E-02  0.8188759E-01
        2   -1    0    0  501    0  0.00000000000E+00  0.00000000000E+00  0.23328298689E+04  0.23328298689E+04  0.25500000920E-02 0. -1.
       -2   -1    0    0    0  501  0.00000000000E+00  0.00000000000E+00 -0.10975316053E+04  0.10975316053E+04  0.25500000920E-02 0.  1.
    10030    2    1    2    0    0  0.00000000000E+00  0.00000000000E+00  0.12352982635E+04  0.34303614742E+04  0.32002215617E+04 0.  0.
        2    1    3    3  502    0  0.15482707244E+04  0.23398501117E+03  0.97067068772E+03  0.18423063821E+04  0.25500000920E-02 0. -1.
       -2    1    3    3    0  502 -0.15482707244E+04 -0.23398501117E+03  0.26462757580E+03  0.15880550921E+04  0.25500000920E-02 0.  1.
</event>
<event>
 5   0  0.3283581E-08  0.3200105E+04  0.7818609E-02  0.8188789E-01
        1   -1    0    0  501    0  0.00000000000E+00  0.00000000000E+00  0.22182216184E+04  0.22182216184E+04  0.50400001928E-02 0.  1.
       -1   -1    0    0    0  501  0.00000000000E+00  0.00000000000E+00 -0.11541533462E+04  0.11541533462E+04  0.50400001928E-02 0. -1.
    10030    2    1    2    0    0  0.00000000000E+00  0.00000000000E+00  0.10640682722E+04  0.33723749647E+04  0.32001049380E+04 0.  0.
        5    1    3    3  502    0  0.15607266675E+04 -0.10769996209E+03  0.17828715226E+03  0.15745715008E+04  0.46999998093E+01 0.  1.
       -5    1    3    3    0  502 -0.15607266675E+04  0.10769996209E+03  0.88578111997E+03  0.17978034639E+04  0.46999998093E+01 0. -1.
</event>
<event>
 5   0  0.9329929E-08  0.3200533E+04  0.7818609E-02  0.8188677E-01
        2   -1    0    0  501    0  0.00000000000E+00  0.00000000000E+00  0.12420970338E+04  0.12420970338E+04  0.25500000920E-02 0.  1.
       -2   -1    0    0    0  501  0.00000000000E+00  0.00000000000E+00 -0.20617166157E+04  0.20617166157E+04  0.25500000920E-02 0. -1.
    10030    2    1    2    0    0  0.00000000000E+00  0.00000000000E+00 -0.81961958193E+03  0.33038136494E+04  0.32005325137E+04 0.  0.
        1    1    3    3  502    0  0.40456176644E+03 -0.14336875187E+04 -0.10132437534E+04  0.18016084558E+04  0.50400001928E-02 0. -1.
       -1    1    3    3    0  502 -0.40456176644E+03  0.14336875187E+04  0.19362417143E+03  0.15022051937E+04  0.50400001928E-02 0.  1.
</event>
<event>
 5   0  0.3343140E-08  0.3200941E+04  0.7818609E-02  0.8188569E-01
       -1   -1    0    0    0  501  0.00000000000E+00  0.00000000000E+00  0.12068455360E+04  0.12068455360E+04  0.50400001928E-02 0. -1.
        1   -1    0    0  501    0  0.00000000000E+00  0.00000000000E+00 -0.21224805892E+04  0.21224805892E+04  0.50400001928E-02 0.  1.
    10030    2    1    2    0    0  0.00000000000E+00  0.00000000000E+00 -0.91563505315E+03  0.33293261252E+04  0.32009412518E+04 0.  0.
        1    1    3    3  502    0  0.31431854568E+03 -0.48010225355E+01 -0.20900546325E+04  0.21135627657E+04  0.50400001928E-02 0.  1.
       -1    1    3    3    0  502 -0.31431854568E+03  0.48010225355E+01  0.11744195793E+04  0.12157633595E+04  0.50400001928E-02 0. -1.
</event>
<event>
 5   0  0.3427667E-08  0.3200387E+04  0.7818609E-02  0.8188715E-01
        1   -1    0    0  501    0  0.00000000000E+00  0.00000000000E+00  0.12815540993E+04  0.12815540993E+04  0.50400001928E-02 0.  1.
       -1   -1    0    0    0  501  0.00000000000E+00  0.00000000000E+00 -0.19980577556E+04  0.19980577556E+04  0.50400001928E-02 0. -1.
    10030    2    1    2    0    0  0.00000000000E+00  0.00000000000E+00 -0.71650365630E+03  0.32796118549E+04  0.32003869187E+04 0.  0.
        2    1    3    3  502    0  0.33114514266E+02 -0.15540904410E+04 -0.74755810162E+03  0.17248584827E+04  0.25500000920E-02 0.  1.
       -2    1    3    3    0  502 -0.33114514266E+02  0.15540904410E+04  0.31054445318E+02  0.15547533722E+04  0.25500000920E-02 0. -1.
</event>
<event>
 5   0  0.9727083E-08  0.3196584E+04  0.7818609E-02  0.8189720E-01
        2   -1    0    0  501    0  0.00000000000E+00  0.00000000000E+00  0.12940765155E+04  0.12940765155E+04  0.25500000920E-02 0. -1.
       -2   -1    0    0    0  501  0.00000000000E+00  0.00000000000E+00 -0.19740236900E+04  0.19740236900E+04  0.25500000920E-02 0.  1.
    10030    2    1    2    0    0  0.00000000000E+00  0.00000000000E+00 -0.67994717446E+03  0.32681002055E+04  0.31965842384E+04 0.  0.
        4    1    3    3  502    0  0.47178444893E+03  0.79492466769E+03  0.99305693987E+03  0.13567053815E+04  0.12699999809E+01 0. -1.
       -4    1    3    3    0  502 -0.47178444893E+03 -0.79492466769E+03 -0.16730041143E+04  0.19113948240E+04  0.12699999809E+01 0.  1.
</event>
<event>
 5   0  0.9353994E-08  0.3200228E+04  0.7818609E-02  0.8188757E-01
       -2   -1    0    0    0  501  0.00000000000E+00  0.00000000000E+00  0.19639050280E+04  0.19639050280E+04  0.25500000920E-02 0. -1.
        2   -1    0    0  501    0  0.00000000000E+00  0.00000000000E+00 -0.13037113964E+04  0.13037113964E+04  0.25500000920E-02 0.  1.
    10030    2    1    2    0    0  0.00000000000E+00  0.00000000000E+00  0.66019363166E+03  0.32676164244E+04  0.32002283459E+04 0.  0.
        2    1    3    3  502    0  0.20200818303E+03 -0.15758579195E+04  0.13574726673E+03  0.15945415670E+04  0.25500000920E-02 0.  1.
       -2    1    3    3    0  502 -0.20200818303E+03  0.15758579195E+04  0.52444636494E+03  0.16730748574E+04  0.25500000920E-02 0. -1.
</event>
<event>
 5   0  0.9727083E-08  0.3205394E+04  0.7818609E-02  0.8187394E-01
       -2   -1    0    0    0  501  0.00000000000E+00  0.00000000000E+00  0.13356636880E+04  0.13356636880E+04  0.25500000920E-02 0.  1.
        2   -1    0    0  501    0  0.00000000000E+00  0.00000000000E+00 -0.19231175630E+04  0.19231175630E+04  0.25500000920E-02 0. -1.
    10030    2    1    2    0    0  0.00000000000E+00  0.00000000000E+00 -0.58745387501E+03  0.32587812510E+04  0.32053943887E+04 0.  0.
        4    1    3    3  502    0 -0.88410140373E+03 -0.12459043717E+04 -0.78627906249E+03  0.17181819963E+04  0.12699999809E+01 0. -1.
       -4    1    3    3    0  502  0.88410140373E+03  0.12459043717E+04  0.19882518748E+03  0.15405992547E+04  0.12699999809E+01 0.  1.
</event>
<event>
 5   0  0.3427667E-08  0.3200383E+04  0.7818609E-02  0.8188716E-01
       -1   -1    0    0    0  501  0.00000000000E+00  0.00000000000E+00  0.12422816335E+04  0.12422816335E+04  0.50400001928E-02 0. -1.
        1   -1    0    0  501    0  0.00000000000E+00  0.00000000000E+00 -0.20612181240E+04  0.20612181240E+04  0.50400001928E-02 0.  1.
    10030    2    1    2    0    0  0.00000000000E+00  0.00000000000E+00 -0.81893649056E+03  0.33034997575E+04  0.32003833634E+04 0.  0.
        2    1    3    3  502    0  0.10826768988E+03  0.11519925024E+03  0.12342009496E+04  0.12442848323E+04  0.25500000920E-02 0. -1.
       -2    1    3    3    0  502 -0.10826768988E+03 -0.11519925024E+03 -0.20531374402E+04  0.20592149252E+04  0.25500000920E-02 0.  1.
</event>
<event>
 5   0  0.9329929E-08  0.3202496E+04  0.7818609E-02  0.8188158E-01
       -2   -1    0    0    0  501  0.00000000000E+00  0.00000000000E+00  0.16216880745E+04  0.16216880745E+04  0.25500000920E-02 0. -1.
        2   -1    0    0  501    0  0.00000000000E+00  0.00000000000E+00 -0.15810655233E+04  0.15810655233E+04  0.25500000920E-02 0.  1.
    10030    2    1    2    0    0  0.00000000000E+00  0.00000000000E+00  0.40622551197E+02  0.32027535978E+04  0.32024959667E+04 0.  0.
        1    1    3    3  502    0  0.23660998882E+03 -0.92990326323E+03  0.13023234224E+04  0.16176373705E+04  0.50400001928E-02 0. -1.
       -1    1    3    3    0  502 -0.23660998882E+03  0.92990326323E+03 -0.12617008712E+04  0.15851162273E+04  0.50400001928E-02 0.  1.
</event>
<event>
 5   0  0.3220147E-08  0.3199706E+04  0.7818609E-02  0.8188895E-01
       -1   -1    0    0    0  501  0.00000000000E+00  0.00000000000E+00  0.13316935255E+04  0.13316935255E+04  0.50400001928E-02 0.  1.
        1   -1    0    0  501    0  0.00000000000E+00  0.00000000000E+00 -0.19220106882E+04  0.19220106882E+04  0.50400001928E-02 0. -1.
    10030    2    1    2    0    0  0.00000000000E+00  0.00000000000E+00 -0.59031716270E+03  0.32537042137E+04  0.31997057299E+04 0.  0.
        4    1    3    3  502    0 -0.68733051708E+02  0.13440537270E+04  0.58449678251E+03  0.14672568811E+04  0.12699999809E+01 0.  1.
       -4    1    3    3    0  502  0.68733051708E+02 -0.13440537270E+04 -0.11748139452E+04  0.17864473326E+04  0.12699999809E+01 0. -1.
</event>
<event>
 5   0  0.3427667E-08  0.3199905E+04  0.7818609E-02  0.8188842E-01
       -1   -1    0    0    0  501  0.00000000000E+00  0.00000000000E+00  0.30139866021E+04  0.30139866021E+04  0.50400001928E-02 0.  1.
        1   -1    0    0  501    0  0.00000000000E+00  0.00000000000E+00 -0.84932288121E+03  0.84932288123E+03  0.50400001928E-02 0. -1.
    10030    2    1    2    0    0  0.00000000000E+00  0.00000000000E+00  0.21646637209E+04  0.38633094833E+04  0.31999048641E+04 0.  0.
        2    1    3    3  502    0 -0.11525690061E+04  0.74066134191E+03  0.20800000457E+04  0.24906615040E+04  0.25500000920E-02 0.  1.
       -2    1    3    3    0  502  0.11525690061E+04 -0.74066134191E+03  0.84663675183E+02  0.13726479793E+04  0.25500000920E-02 0. -1.
</event>
<event>
 5   0  0.3343140E-08  0.3199832E+04  0.7818609E-02  0.8188861E-01
       -1   -1    0    0    0  501  0.00000000000E+00  0.00000000000E+00  0.13432766292E+04  0.13432766293E+04  0.50400001928E-02 0.  1.
        1   -1    0    0  501    0  0.00000000000E+00  0.00000000000E+00 -0.19055881107E+04  0.19055881107E+04  0.50400001928E-02 0. -1.
    10030    2    1    2    0    0  0.00000000000E+00  0.00000000000E+00 -0.56231148144E+03  0.32488647400E+04  0.31998324794E+04 0.  0.
        1    1    3    3  502    0  0.24142188351E+03 -0.46212024767E+03 -0.18169115935E+04  0.18902400345E+04  0.50400001928E-02 0. -1.
       -1    1    3    3    0  502 -0.24142188351E+03  0.46212024767E+03  0.12546001121E+04  0.13586247055E+04  0.50400001928E-02 0.  1.
</event>
<event>
 5   0  0.9329929E-08  0.3198946E+04  0.7818609E-02  0.8189095E-01
       -2   -1    0    0    0  501  0.00000000000E+00  0.00000000000E+00  0.10440999456E+04  0.10440999456E+04  0.25500000920E-02 0. -1.
        2   -1    0    0  501    0  0.00000000000E+00  0.00000000000E+00 -0.24502583463E+04  0.24502583463E+04  0.25500000920E-02 0.  1.
    10030    2    1    2    0    0  0.00000000000E+00  0.00000000000E+00 -0.14061584007E+04  0.34943582918E+04  0.31989464553E+04 0.  0.
        1    1    3    3  502    0 -0.44183879394E+03  0.89004453537E+03  0.66602543613E+03  0.11962402252E+04  0.50400001928E-02 0.  1.
       -1    1    3    3    0  502  0.44183879394E+03 -0.89004453537E+03 -0.20721838368E+04  0.22981180667E+04  0.50400001928E-02 0. -1.
</event>
<event>
 5   0  0.3270966E-08  0.3200438E+04  0.7818609E-02  0.8188702E-01
       -1   -1    0    0    0  501  0.00000000000E+00  0.00000000000E+00  0.12408455386E+04  0.12408455387E+04  0.50400001928E-02 0. -1.
        1   -1    0    0  501    0  0.00000000000E+00  0.00000000000E+00 -0.20636735734E+04  0.20636735734E+04  0.50400001928E-02 0.  1.
    10030    2    1    2    0    0  0.00000000000E+00  0.00000000000E+00 -0.82282803472E+03  0.33045191120E+04  0.32004375618E+04 0.  0.
        3    1    3    3  502    0 -0.39941025960E+02 -0.96777029329E+03 -0.17266227265E+04  0.19797476294E+04  0.10100000352E+00 0.  1.
       -3    1    3    3    0  502  0.39941025960E+02  0.96777029329E+03  0.90379469179E+03  0.13247714827E+04  0.10100000352E+00 0. -1.
</event>
<event>
 5   0  0.3283581E-08  0.3200210E+04  0.7818609E-02  0.8188762E-01
        1   -1    0    0  501    0  0.00000000000E+00  0.00000000000E+00  0.22957975668E+04  0.22957975668E+04  0.50400001928E-02 0. -1.
       -1   -1    0    0    0  501  0.00000000000E+00  0.00000000000E+00 -0.11152270181E+04  0.11152270181E+04  0.50400001928E-02 0.  1.
    10030    2    1    2    0    0  0.00000000000E+00  0.00000000000E+00  0.11805705487E+04  0.34110245848E+04  0.32002096647E+04 0.  0.
        5    1    3    3  502    0  0.17431742154E+03  0.81903873899E+03  0.20435946283E+04  0.22085090251E+04  0.46999998093E+01 0. -1.
       -5    1    3    3    0  502 -0.17431742154E+03 -0.81903873899E+03 -0.86302407956E+03  0.12025155597E+04  0.46999998093E+01 0.  1.
</event>
<event>
 5   0  0.3270966E-08  0.3201049E+04  0.7818609E-02  0.8188540E-01
        1   -1    0    0  501    0  0.00000000000E+00  0.00000000000E+00  0.19113998504E+04  0.19113998504E+04  0.50400001928E-02 0. -1.
       -1   -1    0    0    0  501  0.00000000000E+00  0.00000000000E+00 -0.13402106480E+04  0.13402106480E+04  0.50400001928E-02 0.  1.
    10030    2    1    2    0    0  0.00000000000E+00  0.00000000000E+00  0.57118920246E+03  0.32516104984E+04  0.32010488482E+04 0.  0.
        3    1    3    3  502    0  0.51607900762E+03 -0.90433739700E+03  0.15203249656E+04  0.18427022768E+04  0.10100000352E+00 0. -1.
       -3    1    3    3    0  502 -0.51607900762E+03  0.90433739700E+03 -0.94913576317E+03  0.14089082216E+04  0.10100000352E+00 0.  1.
</event>
<event>
 5   0  0.9353994E-08  0.3202577E+04  0.7818609E-02  0.8188137E-01
       -2   -1    0    0    0  501  0.00000000000E+00  0.00000000000E+00  0.10795671112E+04  0.10795671112E+04  0.25500000920E-02 0. -1.
        2   -1    0    0  501    0  0.00000000000E+00  0.00000000000E+00 -0.23751412854E+04  0.23751412854E+04  0.25500000920E-02 0.  1.
    10030    2    1    2    0    0  0.00000000000E+00  0.00000000000E+00 -0.12955741742E+04  0.34547083965E+04  0.32025767226E+04 0.  0.
        2    1    3    3  502    0  0.11073763474E+04  0.42019894029E+03  0.51467653452E+03  0.12914106471E+04  0.25500000920E-02 0. -1.
       -2    1    3    3    0  502 -0.11073763474E+04 -0.42019894029E+03 -0.18102507087E+04  0.21632977494E+04  0.25500000920E-02 0.  1.
</event>
<event>
 5   0  0.9353994E-08  0.3199165E+04  0.7818609E-02  0.8189038E-01
       -2   -1    0    0    0  501  0.00000000000E+00  0.00000000000E+00  0.12458858949E+04  0.12458858949E+04  0.25500000920E-02 0. -1.
        2   -1    0    0  501    0  0.00000000000E+00  0.00000000000E+00 -0.20536912295E+04  0.20536912295E+04  0.25500000920E-02 0.  1.
    10030    2    1    2    0    0  0.00000000000E+00  0.00000000000E+00 -0.80780533459E+03  0.32995771244E+04  0.31991654758E+04 0.  0.
        2    1    3    3  502    0  0.66554660779E+03 -0.13416017248E+04 -0.98351770967E+03  0.17916904198E+04  0.25500000920E-02 0.  1.
       -2    1    3    3    0  502 -0.66554660779E+03  0.13416017248E+04  0.17571237508E+03  0.15078867046E+04  0.25500000920E-02 0. -1.
</event>
<event>
 5   0  0.9727083E-08  0.3199081E+04  0.7818609E-02  0.8189060E-01
        2   -1    0    0  501    0  0.00000000000E+00  0.00000000000E+00  0.19678193017E+04  0.19678193017E+04  0.25500000920E-02 0.  1.
       -2   -1    0    0    0  501  0.00000000000E+00  0.00000000000E+00 -0.13001851537E+04  0.13001851538E+04  0.25500000920E-02 0. -1.
    10030    2    1    2    0    0  0.00000000000E+00  0.00000000000E+00  0.66763414796E+03  0.32680044555E+04  0.31990807688E+04 0.  0.
        4    1    3    3  502    0  0.10205156512E+04 -0.17383514012E+03  0.15794556018E+04  0.18884788750E+04  0.12699999809E+01 0.  1.
       -4    1    3    3    0  502 -0.10205156512E+04  0.17383514012E+03 -0.91182145388E+03  0.13795255804E+04  0.12699999809E+01 0. -1.
</event>
<event>
 5   0  0.3080500E-08  0.3199963E+04  0.7818609E-02  0.8188827E-01
        3   -1    0    0  501    0  0.00000000000E+00  0.00000000000E+00  0.17156345739E+04  0.17156345769E+04  0.10100000352E+00 0. -1.
       -3   -1    0    0    0  501  0.00000000000E+00  0.00000000000E+00 -0.14921244396E+04  0.14921244431E+04  0.10100000352E+00 0.  1.
    10030    2    1    2    0    0  0.00000000000E+00  0.00000000000E+00  0.22351013424E+03  0.32077590199E+04  0.31999626794E+04 0.  0.
        5    1    3    3  502    0 -0.89749398635E+03  0.36700608804E+03  0.13875416698E+04  0.16927737296E+04  0.46999998093E+01 0. -1.
       -5    1    3    3    0  502  0.89749398635E+03 -0.36700608804E+03 -0.11640315355E+04  0.15149852903E+04  0.46999998093E+01 0.  1.
</event>
<event>
 5   0  0.3270966E-08  0.3200107E+04  0.7818609E-02  0.8188789E-01
        1   -1    0    0  501    0  0.00000000000E+00  0.00000000000E+00  0.16366424766E+04  0.16366424766E+04  0.50400001928E-02 0. -1.
       -1   -1    0    0    0  501  0.00000000000E+00  0.00000000000E+00 -0.15642821061E+04  0.15642821062E+04  0.50400001928E-02 0.  1.
    10030    2    1    2    0    0  0.00000000000E+00  0.00000000000E+00  0.72360370452E+02  0.32009245828E+04  0.32001065859E+04 0.  0.
        3    1    3    3  502    0  0.84447342410E+03  0.12053880960E+04  0.66409434579E+03  0.16146569717E+04  0.10100000352E+00 0. -1.
       -3    1    3    3    0  502 -0.84447342410E+03 -0.12053880960E+04 -0.59173397534E+03  0.15862676110E+04  0.10100000352E+00 0.  1.
</event>
<event>
 5   0  0.3220147E-08  0.3200098E+04  0.7818609E-02  0.8188791E-01
        1   -1    0    0  501    0  0.00000000000E+00  0.00000000000E+00  0.17805226505E+04  0.17805226505E+04  0.50400001928E-02 0.  1.
       -1   -1    0    0    0  501  0.00000000000E+00  0.00000000000E+00 -0.14378677016E+04  0.14378677016E+04  0.50400001928E-02 0. -1.
    10030    2    1    2    0    0  0.00000000000E+00  0.00000000000E+00  0.34265494895E+03  0.32183903521E+04  0.32000975055E+04 0.  0.
        4    1    3    3  502    0  0.17074811135E+03  0.73780694060E+03 -0.12462119222E+04  0.14582728713E+04  0.12699999809E+01 0. -1.
       -4    1    3    3    0  502 -0.17074811135E+03 -0.73780694060E+03  0.15888668712E+04  0.17601174808E+04  0.12699999809E+01 0.  1.
</event>
<event>
 5   0  0.9157524E-08  0.3200956E+04  0.7818609E-02  0.8188565E-01
       -2   -1    0    0    0  501  0.00000000000E+00  0.00000000000E+00  0.15856357897E+04  0.15856357897E+04  0.25500000920E-02 0. -1.
        2   -1    0    0  501    0  0.00000000000E+00  0.00000000000E+00 -0.16154591003E+04  0.16154591003E+04  0.25500000920E-02 0.  1.
    10030    2    1    2    0    0  0.00000000000E+00  0.00000000000E+00 -0.29823310662E+02  0.32010948900E+04  0.32009559611E+04 0.  0.
        5    1    3    3  502    0  0.13212809285E+04  0.88568874954E+03  0.16195704867E+03  0.15988996306E+04  0.46999998093E+01 0.  1.
       -5    1    3    3    0  502 -0.13212809285E+04 -0.88568874954E+03 -0.19178035934E+03  0.16021952594E+04  0.46999998093E+01 0. -1.
</event>
<event>
 5   0  0.3283581E-08  0.3199616E+04  0.7818609E-02  0.8188919E-01
       -1   -1    0    0    0  501  0.00000000000E+00  0.00000000000E+00  0.32935838102E+04  0.32935838102E+04  0.50400001928E-02 0.  1.
        1   -1    0    0  501    0  0.00000000000E+00  0.00000000000E+00 -0.77708240748E+03  0.77708240749E+03  0.50400001928E-02 0. -1.
    10030    2    1    2    0    0  0.00000000000E+00  0.00000000000E+00  0.25165014027E+04  0.40706662177E+04  0.31996162498E+04 0.  0.
        5    1    3    3  502    0 -0.10497612975E+04  0.36385473139E+02 -0.27691210712E+03  0.10862895975E+04  0.46999998093E+01 0. -1.
       -5    1    3    3    0  502  0.10497612975E+04 -0.36385473139E+02  0.27934135098E+04  0.29843766202E+04  0.46999998093E+01 0.  1.
</event>
<event>
 5   0  0.3427667E-08  0.3219013E+04  0.7818609E-02  0.8183814E-01
       -1   -1    0    0    0  501  0.00000000000E+00  0.00000000000E+00  0.26198577478E+04  0.26198577478E+04  0.50400001928E-02 0. -1.
        1   -1    0    0  501    0  0.00000000000E+00  0.00000000000E+00 -0.98879812806E+03  0.98879812807E+03  0.50400001928E-02 0.  1.
    10030    2    1    2    0    0  0.00000000000E+00  0.00000000000E+00  0.16310596197E+04  0.36086558759E+04  0.32190125423E+04 0.  0.
        2    1    3    3  502    0  0.13756174337E+04  0.64296602362E+03  0.21728502677E+03  0.15339300552E+04  0.25500000920E-02 0.  1.
       -2    1    3    3    0  502 -0.13756174337E+04 -0.64296602362E+03  0.14137745930E+04  0.20747258207E+04  0.25500000920E-02 0. -1.
</event>
<event>
 5   0  0.9707721E-08  0.3200536E+04  0.7818609E-02  0.8188676E-01
       -2   -1    0    0    0  501  0.00000000000E+00  0.00000000000E+00  0.11204761293E+04  0.11204761293E+04  0.25500000920E-02 0.  1.
        2   -1    0    0  501    0  0.00000000000E+00  0.00000000000E+00 -0.22855082228E+04  0.22855082228E+04  0.25500000920E-02 0. -1.
    10030    2    1    2    0    0  0.00000000000E+00  0.00000000000E+00 -0.11650320934E+04  0.34059843521E+04  0.32005358345E+04 0.  0.
        3    1    3    3  502    0  0.11612018483E+04  0.89663160933E+03 -0.12626998848E+04  0.19356520825E+04  0.10100000352E+00 0. -1.
       -3    1    3    3    0  502 -0.11612018483E+04 -0.89663160933E+03  0.97667791364E+02  0.14703322696E+04  0.10100000352E+00 0.  1.
</event>
<event>
 5   0  0.3270966E-08  0.3199765E+04  0.7818609E-02  0.8188879E-01
       -1   -1    0    0    0  501  0.00000000000E+00  0.00000000000E+00  0.16895431738E+04  0.16895431738E+04  0.50400001928E-02 0.  1.
        1   -1    0    0  501    0  0.00000000000E+00  0.00000000000E+00 -0.15149796993E+04  0.15149796993E+04  0.50400001928E-02 0. -1.
    10030    2    1    2    0    0  0.00000000000E+00  0.00000000000E+00  0.17456347448E+03  0.32045228731E+04  0.31997647472E+04 0.  0.
        3    1    3    3  502    0 -0.44334799350E+03 -0.25221674538E+03 -0.14313678719E+04  0.15195343777E+04  0.10100000352E+00 0. -1.
       -3    1    3    3    0  502  0.44334799350E+03  0.25221674538E+03  0.16059313464E+04  0.16849884954E+04  0.10100000352E+00 0.  1.
</event>
<event>
 5   0  0.3270966E-08  0.3196213E+04  0.7818609E-02  0.8189818E-01
        1   -1    0    0  501    0  0.00000000000E+00  0.00000000000E+00  0.15754792900E+04  0.15754792900E+04  0.50400001928E-02 0.  1.
       -1   -1    0    0    0  501  0.00000000000E+00  0.00000000000E+00 -0.16210589536E+04  0.16210589536E+04  0.50400001928E-02 0. -1.
    10030    2    1    2    0    0  0.00000000000E+00  0.00000000000E+00 -0.45579663655E+02  0.31965382436E+04  0.31962132652E+04 0.  0.
        3    1    3    3  502    0 -0.15129436293E+04 -0.35016596451E+03  0.35451523776E+03  0.15928891023E+04  0.10100000352E+00 0.  1.
       -3    1    3    3    0  502  0.15129436293E+04  0.35016596451E+03 -0.40009490141E+03  0.16036491413E+04  0.10100000352E+00 0. -1.
</event>
<event>
 5   0  0.3270966E-08  0.3200345E+04  0.7818609E-02  0.8188726E-01
       -1   -1    0    0    0  501  0.00000000000E+00  0.00000000000E+00  0.11667352138E+04  0.11667352138E+04  0.50400001928E-02 0.  1.
        1   -1    0    0  501    0  0.00000000000E+00  0.00000000000E+00 -0.21946298345E+04  0.21946298345E+04  0.50400001928E-02 0. -1.
    10030    2    1    2    0    0  0.00000000000E+00  0.00000000000E+00 -0.10278946207E+04  0.33613650483E+04  0.32003449246E+04 0.  0.
        3    1    3    3  502    0  0.17012621714E+03  0.15580154232E+04 -0.85298369824E+03  0.17843587611E+04  0.10100000352E+00 0.  1.
       -3    1    3    3    0  502 -0.17012621714E+03 -0.15580154232E+04 -0.17491092249E+03  0.15770062872E+04  0.10100000352E+00 0. -1.
</event>
<event>
 5   0  0.3080500E-08  0.3197014E+04  0.7818609E-02  0.8189606E-01
       -4   -1    0    0    0  501  0.00000000000E+00  0.00000000000E+00  0.22738337745E+04  0.22738341291E+04  0.12699999809E+01 0.  1.
        4   -1    0    0  501    0  0.00000000000E+00  0.00000000000E+00 -0.11237508532E+04  0.11237515708E+04  0.12699999809E+01 0. -1.
    10030    2    1    2    0    0  0.00000000000E+00  0.00000000000E+00  0.11500829213E+04  0.33975857000E+04  0.31970138978E+04 0.  0.
        5    1    3    3  502    0  0.10680110891E+04  0.76298491094E+03 -0.39456210770E+03  0.13705819959E+04  0.46999998093E+01 0. -1.
       -5    1    3    3    0  502 -0.10680110891E+04 -0.76298491094E+03  0.15446450290E+04  0.20270037041E+04  0.46999998093E+01 0.  1.
</event>
<event>
 5   0  0.3220147E-08  0.3184890E+04  0.7818609E-02  0.8192819E-01
        1   -1    0    0  501    0  0.00000000000E+00  0.00000000000E+00  0.27030360228E+04  0.27030360228E+04  0.50400001928E-02 0. -1.
       -1   -1    0    0    0  501  0.00000000000E+00  0.00000000000E+00 -0.93816013239E+03  0.93816013240E+03  0.50400001928E-02 0.  1.
    10030    2    1    2    0    0  0.00000000000E+00  0.00000000000E+00  0.17648758904E+04  0.36411961552E+04  0.31848897206E+04 0.  0.
        4    1    3    3  502    0  0.73570133075E+03 -0.14960148228E+03 -0.72313401295E+03  0.10423825906E+04  0.12699999809E+01 0.  1.
       -4    1    3    3    0  502 -0.73570133075E+03  0.14960148228E+03  0.24880099034E+04  0.25988135646E+04  0.12699999809E+01 0. -1.
</event>
<event>
 5   0  0.3220147E-08  0.3197445E+04  0.7818609E-02  0.8189492E-01
       -1   -1    0    0    0  501  0.00000000000E+00  0.00000000000E+00  0.20155568561E+04  0.20155568561E+04  0.50400001928E-02 0.  1.
        1   -1    0    0  501    0  0.00000000000E+00  0.00000000000E+00 -0.12680929286E+04  0.12680929286E+04  0.50400001928E-02 0. -1.
    10030    2    1    2    0    0  0.00000000000E+00  0.00000000000E+00  0.74746392749E+03  0.32836497848E+04  0.31974448527E+04 0.  0.
        4    1    3    3  502    0  0.10278909402E+04  0.11893660314E+04  0.67271763499E+03  0.17098836132E+04  0.12699999809E+01 0.  1.
       -4    1    3    3    0  502 -0.10278909402E+04 -0.11893660314E+04  0.74746292500E+02  0.15737661715E+04  0.12699999809E+01 0. -1.
</event>
<event>
 5   0  0.9707721E-08  0.3200534E+04  0.7818609E-02  0.8188676E-01
       -2   -1    0    0    0  501  0.00000000000E+00  0.00000000000E+00  0.12899090681E+04  0.12899090681E+04  0.25500000920E-02 0. -1.
        2   -1    0    0  501    0  0.00000000000E+00  0.00000000000E+00 -0.19852989944E+04  0.19852989944E+04  0.25500000920E-02 0.  1.
    10030    2    1    2    0    0  0.00000000000E+00  0.00000000000E+00 -0.69538992628E+03  0.32752080625E+04  0.32005344402E+04 0.  0.
        3    1    3    3  502    0  0.15458348628E+04  0.16543979657E+03 -0.73585938181E+03  0.17200188340E+04  0.10100000352E+00 0. -1.
       -3    1    3    3    0  502 -0.15458348628E+04 -0.16543979657E+03  0.40469455525E+02  0.15551892285E+04  0.10100000352E+00 0.  1.
</event>
<event>
 5   0  0.9727083E-08  0.3198781E+04  0.7818609E-02  0.8189139E-01
       -2   -1    0    0    0  501  0.00000000000E+00  0.00000000000E+00  0.26982607102E+04  0.26982607102E+04  0.25500000920E-02 0. -1.
        2   -1    0    0  501    0  0.00000000000E+00  0.00000000000E+00 -0.94803680371E+03  0.94803680371E+03  0.25500000920E-02 0.  1.
    10030    2    1    2    0    0  0.00000000000E+00  0.00000000000E+00  0.17502239065E+04  0.36462975139E+04  0.31987813050E+04 0.  0.
        4    1    3    3  502    0  0.13104508011E+04 -0.28449303065E+03  0.18687452367E+04  0.23000930327E+04  0.12699999809E+01 0. -1.
       -4    1    3    3    0  502 -0.13104508011E+04  0.28449303065E+03 -0.11852133017E+03  0.13462044812E+04  0.12699999809E+01 0.  1.
</event>
<event>
 5   0  0.9727083E-08  0.3200647E+04  0.7818609E-02  0.8188646E-01
       -2   -1    0    0    0  501  0.00000000000E+00  0.00000000000E+00  0.15237258655E+04  0.15237258655E+04  0.25500000920E-02 0. -1.
        2   -1    0    0  501    0  0.00000000000E+00  0.00000000000E+00 -0.16807714549E+04  0.16807714549E+04  0.25500000920E-02 0.  1.
    10030    2    1    2    0    0  0.00000000000E+00  0.00000000000E+00 -0.15704558937E+03  0.32044973205E+04  0.32006467721E+04 0.  0.
        4    1    3    3  502    0 -0.15299292344E+03  0.25615130648E+03 -0.16526779664E+04  0.16793946529E+04  0.12699999809E+01 0.  1.
       -4    1    3    3    0  502  0.15299292344E+03 -0.25615130648E+03  0.14956323771E+04  0.15251026676E+04  0.12699999809E+01 0. -1.
</event>
<event>
 5   0  0.3283581E-08  0.3200505E+04  0.7818609E-02  0.8188684E-01
        1   -1    0    0  501    0  0.00000000000E+00  0.00000000000E+00  0.24537276813E+04  0.24537276813E+04  0.50400001928E-02 0. -1.
       -1   -1    0    0    0  501  0.00000000000E+00  0.00000000000E+00 -0.10436395737E+04  0.10436395737E+04  0.50400001928E-02 0.  1.
    10030    2    1    2    0    0  0.00000000000E+00  0.00000000000E+00  0.14100881076E+04  0.34973672550E+04  0.32005045298E+04 0.  0.
        5    1    3    3  502    0 -0.76743577302E+03 -0.13541711237E+04  0.29903282301E+03  0.15849857467E+04  0.46999998093E+01 0.  1.
       -5    1    3    3    0  502  0.76743577302E+03  0.13541711237E+04  0.11110552846E+04  0.19123815083E+04  0.46999998093E+01 0. -1.
</event>
<event>
 5   0  0.3270966E-08  0.3200071E+04  0.7818609E-02  0.8188798E-01
        1   -1    0    0  501    0  0.00000000000E+00  0.00000000000E+00  0.26638805771E+04  0.26638805771E+04  0.50400001928E-02 0.  1.
       -1   -1    0    0    0  501  0.00000000000E+00  0.00000000000E+00 -0.96104690623E+03  0.96104690624E+03  0.50400001928E-02 0. -1.
    10030    2    1    2    0    0  0.00000000000E+00  0.00000000000E+00  0.17028336709E+04  0.36249274834E+04  0.32000713662E+04 0.  0.
        3    1    3    3  502    0  0.73345950946E+03  0.61120854104E+03 -0.60301734561E+03  0.11292336614E+04  0.10100000352E+00 0. -1.
       -3    1    3    3    0  502 -0.73345950946E+03 -0.61120854104E+03  0.23058510165E+04  0.24956938220E+04  0.10100000352E+00 0.  1.
</event>
<event>
 5   0  0.9727083E-08  0.3200999E+04  0.7818609E-02  0.8188553E-01
       -2   -1    0    0    0  501  0.00000000000E+00  0.00000000000E+00  0.30136129672E+04  0.30136129672E+04  0.25500000920E-02 0. -1.
        2   -1    0    0  501    0  0.00000000000E+00  0.00000000000E+00 -0.85000895209E+03  0.85000895209E+03  0.25500000920E-02 0.  1.
    10030    2    1    2    0    0  0.00000000000E+00  0.00000000000E+00  0.21636040151E+04  0.38636219193E+04  0.32009985944E+04 0.  0.
        4    1    3    3  502    0  0.82941681936E+03  0.15066255880E+03  0.27239346415E+04  0.28513949237E+04  0.12699999809E+01 0. -1.
       -4    1    3    3    0  502 -0.82941681936E+03 -0.15066255880E+03 -0.56033062638E+03  0.10122269956E+04  0.12699999809E+01 0.  1.
</event>
<event>
 5   0  0.9157524E-08  0.3196770E+04  0.7818609E-02  0.8189671E-01
       -2   -1    0    0    0  501  0.00000000000E+00  0.00000000000E+00  0.14315532191E+04  0.14315532191E+04  0.25500000920E-02 0.  1.
        2   -1    0    0  501    0  0.00000000000E+00  0.00000000000E+00 -0.17846589123E+04  0.17846589123E+04  0.25500000920E-02 0. -1.
    10030    2    1    2    0    0  0.00000000000E+00  0.00000000000E+00 -0.35310569323E+03  0.32162121314E+04  0.31967697515E+04 0.  0.
        5    1    3    3  502    0 -0.45371308672E+03  0.12970624460E+04 -0.99796529766E+03  0.16982883675E+04  0.46999998093E+01 0. -1.
       -5    1    3    3    0  502  0.45371308672E+03 -0.12970624460E+04  0.64485960443E+03  0.15179237640E+04  0.46999998093E+01 0.  1.
</event>
<event>
 5   0  0.3283581E-08  0.3200323E+04  0.7818609E-02  0.8188732E-01
        1   -1    0    0  501    0  0.00000000000E+00  0.00000000000E+00  0.31271210395E+04  0.31271210395E+04  0.50400001928E-02 0. -1.
       -1   -1    0    0    0  501  0.00000000000E+00  0.00000000000E+00 -0.81880973276E+03  0.81880973277E+03  0.50400001928E-02 0.  1.
    10030    2    1    2    0    0  0.00000000000E+00  0.00000000000E+00  0.23083113067E+04  0.39459307723E+04  0.32003231979E+04 0.  0.
        5    1    3    3  502    0 -0.82899424838E+03 -0.12993796769E+04  0.16843022065E+04  0.22830933011E+04  0.46999998093E+01 0.  1.
       -5    1    3    3    0  502  0.82899424838E+03  0.12993796769E+04  0.62400910023E+03  0.16628374712E+04  0.46999998093E+01 0. -1.
</event>
<event>
 5   0  0.3270966E-08  0.3198960E+04  0.7818609E-02  0.8189092E-01
        1   -1    0    0  501    0  0.00000000000E+00  0.00000000000E+00  0.92694292740E+03  0.92694292741E+03  0.50400001928E-02 0. -1.
       -1   -1    0    0    0  501  0.00000000000E+00  0.00000000000E+00 -0.27599723050E+04  0.27599723050E+04  0.50400001928E-02 0.  1.
    10030    2    1    2    0    0  0.00000000000E+00  0.00000000000E+00 -0.18330293776E+04  0.36869152324E+04  0.31989603361E+04 0.  0.
        3    1    3    3  502    0 -0.11033298430E+04  0.10950156792E+04 -0.48229671590E+03  0.16275767916E+04  0.10100000352E+00 0. -1.
       -3    1    3    3    0  502  0.11033298430E+04 -0.10950156792E+04 -0.13507326617E+04  0.20593384408E+04  0.10100000352E+00 0.  1.
</event>
<event>
 5   0  0.9353994E-08  0.3199313E+04  0.7818609E-02  0.8188999E-01
       -2   -1    0    0    0  501  0.00000000000E+00  0.00000000000E+00  0.11216050249E+04  0.11216050249E+04  0.25500000920E-02 0. -1.
        2   -1    0    0  501    0  0.00000000000E+00  0.00000000000E+00 -0.22814633901E+04  0.22814633901E+04  0.25500000920E-02 0.  1.
    10030    2    1    2    0    0  0.00000000000E+00  0.00000000000E+00 -0.11598583652E+04  0.34030684151E+04  0.31993129279E+04 0.  0.
        2    1    3    3  502    0 -0.36319764054E+03  0.11265141222E+04  0.56468639499E+03  0.13114180563E+04  0.25500000920E-02 0. -1.
       -2    1    3    3    0  502  0.36319764054E+03 -0.11265141222E+04 -0.17245447602E+04  0.20916503588E+04  0.25500000920E-02 0.  1.
</event>
<event>
 5   0  0.9157524E-08  0.3199990E+04  0.7818609E-02  0.8188820E-01
        2   -1    0    0  501    0  0.00000000000E+00  0.00000000000E+00  0.20083612632E+04  0.20083612632E+04  0.25500000920E-02 0.  1.
       -2   -1    0    0    0  501  0.00000000000E+00  0.00000000000E+00 -0.12746631077E+04  0.12746631077E+04  0.25500000920E-02 0. -1.
    10030    2    1    2    0    0  0.00000000000E+00  0.00000000000E+00  0.73369815543E+03  0.32830243709E+04  0.31999900057E+04 0.  0.
        5    1    3    3  502    0  0.35976720179E+03  0.13375600224E+04 -0.45484693051E+03  0.14578775920E+04  0.46999998093E+01 0. -1.
       -5    1    3    3    0  502 -0.35976720179E+03 -0.13375600224E+04  0.11885450859E+04  0.18251467789E+04  0.46999998093E+01 0.  1.
</event>
<event>
 5   0  0.9329929E-08  0.3198764E+04  0.7818609E-02  0.8189144E-01
        2   -1    0    0  501    0  0.00000000000E+00  0.00000000000E+00  0.21900115952E+04  0.21900115952E+04  0.25500000920E-02 0. -1.
       -2   -1    0    0    0  501  0.00000000000E+00  0.00000000000E+00 -0.11680406666E+04  0.11680406666E+04  0.25500000920E-02 0.  1.
    10030    2    1    2    0    0  0.00000000000E+00  0.00000000000E+00  0.10219709286E+04  0.33580522618E+04  0.31987638884E+04 0.  0.
        1    1    3    3  502    0  0.28787597156E+03  0.61133043515E+03 -0.10108308193E+04  0.12158850362E+04  0.50400001928E-02 0.  1.
       -1    1    3    3    0  502 -0.28787597156E+03 -0.61133043515E+03  0.20328017479E+04  0.21421672256E+04  0.50400001928E-02 0. -1.
</event>
<event>
 5   0  0.9727083E-08  0.3200115E+04  0.7818609E-02  0.8188787E-01
       -2   -1    0    0    0  501  0.00000000000E+00  0.00000000000E+00  0.11432998569E+04  0.11432998569E+04  0.25500000920E-02 0. -1.
        2   -1    0    0  501    0  0.00000000000E+00  0.00000000000E+00 -0.22392940739E+04  0.22392940739E+04  0.25500000920E-02 0.  1.
    10030    2    1    2    0    0  0.00000000000E+00  0.00000000000E+00 -0.10959942170E+04  0.33825939308E+04  0.32001153694E+04 0.  0.
        4    1    3    3  502    0 -0.49217304300E+03 -0.93890589413E+03  0.71884529901E+03  0.12808273729E+04  0.12699999809E+01 0. -1.
       -4    1    3    3    0  502  0.49217304300E+03  0.93890589413E+03 -0.18148395160E+04  0.21017665580E+04  0.12699999809E+01 0.  1.
</event>
<event>
 5   0  0.9157524E-08  0.3192976E+04  0.7818609E-02  0.8190675E-01
       -2   -1    0    0    0  501  0.00000000000E+00  0.00000000000E+00  0.98584435652E+03  0.98584435652E+03  0.25500000920E-02 0. -1.
        2   -1    0    0  501    0  0.00000000000E+00  0.00000000000E+00 -0.25853707637E+04  0.25853707637E+04  0.25500000920E-02 0.  1.
    10030    2    1    2    0    0  0.00000000000E+00  0.00000000000E+00 -0.15995264072E+04  0.35712151202E+04  0.31929755257E+04 0.  0.
        5    1    3    3  502    0  0.61356944331E+03  0.86736746201E+03 -0.21325419733E+04  0.23825513917E+04  0.46999998093E+01 0.  1.
       -5    1    3    3    0  502 -0.61356944331E+03 -0.86736746201E+03  0.53301556613E+03  0.11886637286E+04  0.46999998093E+01 0. -1.
</event>
<event>
 5   0  0.9707721E-08  0.3199415E+04  0.7818609E-02  0.8188972E-01
       -2   -1    0    0    0  501  0.00000000000E+00  0.00000000000E+00  0.91914319676E+03  0.91914319676E+03  0.25500000920E-02 0. -1.
        2   -1    0    0  501    0  0.00000000000E+00  0.00000000000E+00 -0.27841848276E+04  0.27841848276E+04  0.25500000920E-02 0.  1.
    10030    2    1    2    0    0  0.00000000000E+00  0.00000000000E+00 -0.18650416309E+04  0.37033280244E+04  0.31994152859E+04 0.  0.
        3    1    3    3  502    0 -0.59984564442E+03  0.79171948910E+02  0.78159062683E+03  0.98841636610E+03  0.10100000352E+00 0. -1.
       -3    1    3    3    0  502  0.59984564442E+03 -0.79171948910E+02 -0.26466322577E+04  0.27149116583E+04  0.10100000352E+00 0.  1.
</event>
<event>
 5   0  0.3220147E-08  0.3200256E+04  0.7818609E-02  0.8188750E-01
        1   -1    0    0  501    0  0.00000000000E+00  0.00000000000E+00  0.31433463106E+04  0.31433463106E+04  0.50400001928E-02 0. -1.
       -1   -1    0    0    0  501  0.00000000000E+00  0.00000000000E+00 -0.81454903385E+03  0.81454903387E+03  0.50400001928E-02 0.  1.
    10030    2    1    2    0    0  0.00000000000E+00  0.00000000000E+00  0.23287972768E+04  0.39578953445E+04  0.32002560525E+04 0.  0.
        4    1    3    3  502    0  0.81553416424E+03  0.60185696591E+03  0.26957048042E+04  0.28799572539E+04  0.12699999809E+01 0. -1.
       -4    1    3    3    0  502 -0.81553416424E+03 -0.60185696591E+03 -0.36690752741E+03  0.10779380905E+04  0.12699999809E+01 0.  1.
</event>
<event>
 5   0  0.9157524E-08  0.3198479E+04  0.7818609E-02  0.8189219E-01
        2   -1    0    0  501    0  0.00000000000E+00  0.00000000000E+00  0.20780308681E+04  0.20780308681E+04  0.25500000920E-02 0.  1.
       -2   -1    0    0    0  501  0.00000000000E+00  0.00000000000E+00 -0.12307645793E+04  0.12307645793E+04  0.25500000920E-02 0. -1.
    10030    2    1    2    0    0  0.00000000000E+00  0.00000000000E+00  0.84726628881E+03  0.33087954473E+04  0.31984788803E+04 0.  0.
        5    1    3    3  502    0 -0.69544914637E+02  0.63544943173E+03 -0.10928436537E+04  0.12660812837E+04  0.46999998093E+01 0. -1.
       -5    1    3    3    0  502  0.69544914637E+02 -0.63544943173E+03  0.19401099425E+04  0.20427141637E+04  0.46999998093E+01 0.  1.
</event>
<event>
 5   0  0.3283581E-08  0.3199393E+04  0.7818609E-02  0.8188977E-01
       -1   -1    0    0    0  501  0.00000000000E+00  0.00000000000E+00  0.14321964257E+04  0.14321964257E+04  0.50400001928E-02 0. -1.
        1   -1    0    0  501    0  0.00000000000E+00  0.00000000000E+00 -0.17867866221E+04  0.17867866221E+04  0.50400001928E-02 0.  1.
    10030    2    1    2    0    0  0.00000000000E+00  0.00000000000E+00 -0.35459019642E+03  0.32189830478E+04  0.31993933260E+04 0.  0.
        5    1    3    3  502    0 -0.37791803169E+03  0.15430391886E+04 -0.36610164261E+03  0.16302896917E+04  0.46999998093E+01 0.  1.
       -5    1    3    3    0  502  0.37791803169E+03 -0.15430391886E+04  0.11511446191E+02  0.15886933561E+04  0.46999998093E+01 0. -1.
</event>
<event>
 5   0  0.3283581E-08  0.3201374E+04  0.7818609E-02  0.8188454E-01
       -1   -1    0    0    0  501  0.00000000000E+00  0.00000000000E+00  0.18330850785E+04  0.18330850785E+04  0.50400001928E-02 0.  1.
        1   -1    0    0  501    0  0.00000000000E+00  0.00000000000E+00 -0.13977522828E+04  0.13977522828E+04  0.50400001928E-02 0. -1.
    10030    2    1    2    0    0  0.00000000000E+00  0.00000000000E+00  0.43533279567E+03  0.32308373613E+04  0.32013739881E+04 0.  0.
        5    1    3    3  502    0  0.15946913998E+04  0.15424782736E+02  0.78930561655E+02  0.15967249945E+04  0.46999998093E+01 0. -1.
       -5    1    3    3    0  502 -0.15946913998E+04 -0.15424782736E+02  0.35640223402E+03  0.16341123667E+04  0.46999998093E+01 0.  1.
</event>
<event>
 5   0  0.3283581E-08  0.3197274E+04  0.7818609E-02  0.8189538E-01
        1   -1    0    0  501    0  0.00000000000E+00  0.00000000000E+00  0.22819678860E+04  0.22819678860E+04  0.50400001928E-02 0. -1.
       -1   -1    0    0    0  501  0.00000000000E+00  0.00000000000E+00 -0.11199279829E+04  0.11199279829E+04  0.50400001928E-02 0.  1.
    10030    2    1    2    0    0  0.00000000000E+00  0.00000000000E+00  0.11620399032E+04  0.34018958689E+04  0.31972736458E+04 0.  0.
        5    1    3    3  502    0  0.11350612635E+04  0.17459876043E+03 -0.60225444848E+03  0.12967579997E+04  0.46999998093E+01 0.  1.
       -5    1    3    3    0  502 -0.11350612635E+04 -0.17459876043E+03  0.17642943516E+04  0.21051378692E+04  0.46999998093E+01 0. -1.
</event>
<event>
 5   0  0.3343140E-08  0.3199015E+04  0.7818609E-02  0.8189077E-01
        1   -1    0    0  501    0  0.00000000000E+00  0.00000000000E+00  0.13763665184E+04  0.13763665184E+04  0.50400001928E-02 0.  1.
       -1   -1    0    0    0  501  0.00000000000E+00  0.00000000000E+00 -0.18588245937E+04  0.18588245937E+04  0.50400001928E-02 0. -1.
    10030    2    1    2    0    0  0.00000000000E+00  0.00000000000E+00 -0.48245807535E+03  0.32351911121E+04  0.31990148073E+04 0.  0.
        1    1    3    3  502    0 -0.13588990798E+04 -0.99784385984E+02 -0.10884740674E+04  0.17439436425E+04  0.50400001928E-02 0. -1.
       -1    1    3    3    0  502  0.13588990798E+04  0.99784385984E+02  0.60601599206E+03  0.14912474696E+04  0.50400001928E-02 0.  1.
</event>
<event>
 5   0  0.9707721E-08  0.3199818E+04  0.7818609E-02  0.8188865E-01
       -2   -1    0    0    0  501  0.00000000000E+00  0.00000000000E+00  0.15102401918E+04  0.15102401918E+04  0.25500000920E-02 0.  1.
        2   -1    0    0  501    0  0.00000000000E+00  0.00000000000E+00 -0.16949017583E+04  0.16949017583E+04  0.25500000920E-02 0. -1.
    10030    2    1    2    0    0  0.00000000000E+00  0.00000000000E+00 -0.18466156653E+03  0.32051419501E+04  0.31998179676E+04 0.  0.
        3    1    3    3  502    0 -0.11729776668E+04 -0.66100656659E+03 -0.95800391854E+03  0.16524460070E+04  0.10100000352E+00 0.  1.
       -3    1    3    3    0  502  0.11729776668E+04  0.66100656659E+03  0.77334235201E+03  0.15526959431E+04  0.10100000352E+00 0. -1.
</event>
<event>
 5   0  0.9157524E-08  0.3202189E+04  0.7818609E-02  0.8188239E-01
       -2   -1    0    0    0  501  0.00000000000E+00  0.00000000000E+00  0.95909786276E+03  0.95909786277E+03  0.25500000920E-02 0. -1.
        2   -1    0    0  501    0  0.00000000000E+00  0.00000000000E+00 -0.26728278763E+04  0.26728278763E+04  0.25500000920E-02 0.  1.
    10030    2    1    2    0    0  0.00000000000E+00  0.00000000000E+00 -0.17137300135E+04  0.36319257390E+04  0.32021889411E+04 0.  0.
        5    1    3    3  502    0  0.10713804708E+04  0.11386285399E+04 -0.46535968909E+03  0.16312304544E+04  0.46999998093E+01 0.  1.
       -5    1    3    3    0  502 -0.10713804708E+04 -0.11386285399E+04 -0.12483703244E+04  0.20006952846E+04  0.46999998093E+01 0. -1.
</event>
<event>
 5   0  0.3220147E-08  0.3200047E+04  0.7818609E-02  0.8188805E-01
       -1   -1    0    0    0  501  0.00000000000E+00  0.00000000000E+00  0.10180281093E+04  0.10180281093E+04  0.50400001928E-02 0. -1.
        1   -1    0    0  501    0  0.00000000000E+00  0.00000000000E+00 -0.25147391702E+04  0.25147391703E+04  0.50400001928E-02 0.  1.
    10030    2    1    2    0    0  0.00000000000E+00  0.00000000000E+00 -0.14967110609E+04  0.35327672796E+04  0.32000469765E+04 0.  0.
        4    1    3    3  502    0 -0.88644649171E+03 -0.11992377300E+04 -0.13883889404E+04  0.20375436139E+04  0.12699999809E+01 0.  1.
       -4    1    3    3    0  502  0.88644649171E+03  0.11992377300E+04 -0.10832212049E+03  0.14952236657E+04  0.12699999809E+01 0. -1.
</event>
<event>
 5   0  0.9353994E-08  0.3201748E+04  0.7818609E-02  0.8188356E-01
        2   -1    0    0  501    0  0.00000000000E+00  0.00000000000E+00  0.23141017647E+04  0.23141017647E+04  0.25500000920E-02 0. -1.
       -2   -1    0    0    0  501  0.00000000000E+00  0.00000000000E+00 -0.11074693740E+04  0.11074693740E+04  0.25500000920E-02 0.  1.
    10030    2    1    2    0    0  0.00000000000E+00  0.00000000000E+00  0.12066323907E+04  0.34215711387E+04  0.32017475433E+04 0.  0.
        2    1    3    3  502    0 -0.77078385971E+03 -0.10747235445E+04 -0.36064497238E+03  0.13708403450E+04  0.25500000920E-02 0.  1.
       -2    1    3    3    0  502  0.77078385971E+03  0.10747235445E+04  0.15672773631E+04  0.20507307937E+04  0.25500000920E-02 0. -1.
</event>
<event>
 5   0  0.9353994E-08  0.3197641E+04  0.7818609E-02  0.8189440E-01
       -2   -1    0    0    0  501  0.00000000000E+00  0.00000000000E+00  0.20532937590E+04  0.20532937590E+04  0.25500000920E-02 0.  1.
        2   -1    0    0  501    0  0.00000000000E+00  0.00000000000E+00 -0.12449396655E+04  0.12449396655E+04  0.25500000920E-02 0. -1.
    10030    2    1    2    0    0  0.00000000000E+00  0.00000000000E+00  0.80835409354E+03  0.32982334245E+04  0.31976409088E+04 0.  0.
        2    1    3    3  502    0 -0.11413250833E+04  0.89625975638E+03  0.10963481232E+04  0.18187588361E+04  0.25500000920E-02 0. -1.
       -2    1    3    3    0  502  0.11413250833E+04 -0.89625975638E+03 -0.28799402967E+03  0.14794745884E+04  0.25500000920E-02 0.  1.
</event>
<event>
 5   0  0.3343140E-08  0.3200074E+04  0.7818609E-02  0.8188798E-01
        1   -1    0    0  501    0  0.00000000000E+00  0.00000000000E+00  0.24196705682E+04  0.24196705682E+04  0.50400001928E-02 0. -1.
       -1   -1    0    0    0  501  0.00000000000E+00  0.00000000000E+00 -0.10580445202E+04  0.10580445202E+04  0.50400001928E-02 0.  1.
    10030    2    1    2    0    0  0.00000000000E+00  0.00000000000E+00  0.13616260480E+04  0.34777150885E+04  0.32000744901E+04 0.  0.
        1    1    3    3  502    0 -0.28752370349E+03  0.34581940391E+03  0.23495687068E+04  0.23922236618E+04  0.50400001928E-02 0. -1.
       -1    1    3    3    0  502  0.28752370349E+03 -0.34581940391E+03 -0.98794265879E+03  0.10854914266E+04  0.50400001928E-02 0.  1.
</event>
<event>
 5   0  0.9157524E-08  0.3194648E+04  0.7818609E-02  0.8190232E-01
        2   -1    0    0  501    0  0.00000000000E+00  0.00000000000E+00  0.18272619328E+04  0.18272619328E+04  0.25500000920E-02 0. -1.
       -2   -1    0    0    0  501  0.00000000000E+00  0.00000000000E+00 -0.13963211982E+04  0.13963211982E+04  0.25500000920E-02 0.  1.
    10030    2    1    2    0    0  0.00000000000E+00  0.00000000000E+00  0.43094073453E+03  0.32235831310E+04  0.31946483822E+04 0.  0.
        5    1    3    3  502    0 -0.11784687580E+04  0.29453966072E+03 -0.83117071784E+03  0.14718726431E+04  0.46999998093E+01 0.  1.
       -5    1    3    3    0  502  0.11784687580E+04 -0.29453966072E+03  0.12621114524E+04  0.17517104879E+04  0.46999998093E+01 0. -1.
</event>
<event>
 5   0  0.3270966E-08  0.3192998E+04  0.7818609E-02  0.8190669E-01
       -1   -1    0    0    0  501  0.00000000000E+00  0.00000000000E+00  0.12427562603E+04  0.12427562603E+04  0.50400001928E-02 0. -1.
        1   -1    0    0  501    0  0.00000000000E+00  0.00000000000E+00 -0.20509329859E+04  0.20509329859E+04  0.50400001928E-02 0.  1.
    10030    2    1    2    0    0  0.00000000000E+00  0.00000000000E+00 -0.80817672565E+03  0.32936892462E+04  0.31929984702E+04 0.  0.
        3    1    3    3  502    0  0.12353613778E+03 -0.14559919737E+04 -0.10675152558E+04  0.18096305249E+04  0.10100000352E+00 0.  1.
       -3    1    3    3    0  502 -0.12353613778E+03  0.14559919737E+04  0.25933853020E+03  0.14840587213E+04  0.10100000352E+00 0. -1.
</event>
<event>
 5   0  0.9727083E-08  0.3199555E+04  0.7818609E-02  0.8188935E-01
       -2   -1    0    0    0  501  0.00000000000E+00  0.00000000000E+00  0.10300323940E+04  0.10300323940E+04  0.25500000920E-02 0.  1.
        2   -1    0    0  501    0  0.00000000000E+00  0.00000000000E+00 -0.24846669613E+04  0.24846669613E+04  0.25500000920E-02 0. -1.
    10030    2    1    2    0    0  0.00000000000E+00  0.00000000000E+00 -0.14546345673E+04  0.35146993552E+04  0.31995546305E+04 0.  0.
        4    1    3    3  502    0  0.64830553506E+03  0.16321474918E+03  0.86922804942E+03  0.10965847600E+04  0.12699999809E+01 0.  1.
       -4    1    3    3    0  502 -0.64830553506E+03 -0.16321474918E+03 -0.23238626168E+04  0.24181145952E+04  0.12699999809E+01 0. -1.
</event>
<event>
 5   0  0.9157524E-08  0.3195292E+04  0.7818609E-02  0.8190062E-01
        2   -1    0    0  501    0  0.00000000000E+00  0.00000000000E+00  0.23400953961E+04  0.23400953961E+04  0.25500000920E-02 0. -1.
       -2   -1    0    0    0  501  0.00000000000E+00  0.00000000000E+00 -0.10907560890E+04  0.10907560890E+04  0.25500000920E-02 0.  1.
    10030    2    1    2    0    0  0.00000000000E+00  0.00000000000E+00  0.12493393071E+04  0.34308514851E+04  0.31952923511E+04 0.  0.
        5    1    3    3  502    0  0.13203865674E+04 -0.58143927724E+03  0.13615259845E+04  0.19837508455E+04  0.46999998093E+01 0. -1.
       -5    1    3    3    0  502 -0.13203865674E+04  0.58143927724E+03 -0.11218667742E+03  0.14471006396E+04  0.46999998093E+01 0.  1.
</event>
<event>
 5   0  0.3343140E-08  0.3200074E+04  0.7818609E-02  0.8188798E-01
       -1   -1    0    0    0  501  0.00000000000E+00  0.00000000000E+00  0.16132900774E+04  0.16132900774E+04  0.50400001928E-02 0. -1.
        1   -1    0    0  501    0  0.00000000000E+00  0.00000000000E+00 -0.15868927270E+04  0.15868927270E+04  0.50400001928E-02 0.  1.
    10030    2    1    2    0    0  0.00000000000E+00  0.00000000000E+00  0.26397350406E+02  0.32001828044E+04  0.32000739307E+04 0.  0.
        1    1    3    3  502    0 -0.11369543759E+04 -0.37279124986E+03 -0.10491367284E+04  0.15913285153E+04  0.50400001928E-02 0.  1.
       -1    1    3    3    0  502  0.11369543759E+04  0.37279124986E+03  0.10755340788E+04  0.16088542891E+04  0.50400001928E-02 0. -1.
</event>
<event>
 5   0  0.3343140E-08  0.3198150E+04  0.7818609E-02  0.8189306E-01
        1   -1    0    0  501    0  0.00000000000E+00  0.00000000000E+00  0.16902104911E+04  0.16902104911E+04  0.50400001928E-02 0. -1.
       -1   -1    0    0    0  501  0.00000000000E+00  0.00000000000E+00 -0.15128539374E+04  0.15128539374E+04  0.50400001928E-02 0.  1.
    10030    2    1    2    0    0  0.00000000000E+00  0.00000000000E+00  0.17735655369E+03  0.32030644285E+04  0.31981504633E+04 0.  0.
        1    1    3    3  502    0 -0.14488449478E+04  0.89447639147E+02  0.76044654552E+03  0.16387286265E+04  0.50400001928E-02 0.  1.
       -1    1    3    3    0  502  0.14488449478E+04 -0.89447639147E+02 -0.58308999183E+03  0.15643358020E+04  0.50400001928E-02 0. -1.
</event>
<event>
 5   0  0.3270966E-08  0.3201776E+04  0.7818609E-02  0.8188348E-01
       -1   -1    0    0    0  501  0.00000000000E+00  0.00000000000E+00  0.15480458285E+04  0.15480458285E+04  0.50400001928E-02 0. -1.
        1   -1    0    0  501    0  0.00000000000E+00  0.00000000000E+00 -0.16555343029E+04  0.16555343029E+04  0.50400001928E-02 0.  1.
    10030    2    1    2    0    0  0.00000000000E+00  0.00000000000E+00 -0.10748847439E+03  0.32035801314E+04  0.32017763641E+04 0.  0.
        3    1    3    3  502    0  0.40179325218E+03  0.23605054714E+02  0.14965956650E+04  0.15497721158E+04  0.10100000352E+00 0. -1.
       -3    1    3    3    0  502 -0.40179325218E+03 -0.23605054714E+02 -0.16040841394E+04  0.16538080156E+04  0.10100000352E+00 0.  1.
</event>
<event>
 5   0  0.9727083E-08  0.3200639E+04  0.7818609E-02  0.8188648E-01
        2   -1    0    0  501    0  0.00000000000E+00  0.00000000000E+00  0.16210005690E+04  0.16210005690E+04  0.25500000920E-02 0. -1.
       -2   -1    0    0    0  501  0.00000000000E+00  0.00000000000E+00 -0.15799025790E+04  0.15799025790E+04  0.25500000920E-02 0.  1.
    10030    2    1    2    0    0  0.00000000000E+00  0.00000000000E+00  0.41097990056E+02  0.32009031480E+04  0.32006392984E+04 0.  0.
        4    1    3    3  502    0  0.11314097511E+04 -0.96623643190E+03  0.60993661425E+03  0.16080190153E+04  0.12699999809E+01 0. -1.
       -4    1    3    3    0  502 -0.11314097511E+04  0.96623643190E+03 -0.56883862419E+03  0.15928841328E+04  0.12699999809E+01 0.  1.
</event>
<event>
 5   0  0.9329929E-08  0.3199339E+04  0.7818609E-02  0.8188992E-01
        2   -1    0    0  501    0  0.00000000000E+00  0.00000000000E+00  0.25005208243E+04  0.25005208243E+04  0.25500000920E-02 0.  1.
       -2   -1    0    0    0  501  0.00000000000E+00  0.00000000000E+00 -0.10233639964E+04  0.10233639964E+04  0.25500000920E-02 0. -1.
    10030    2    1    2    0    0  0.00000000000E+00  0.00000000000E+00  0.14771568279E+04  0.35238848207E+04  0.31993392967E+04 0.  0.
        1    1    3    3  502    0 -0.32004518510E+03  0.14375393903E+04  0.50733260373E+02  0.14736085922E+04  0.50400001928E-02 0.  1.
       -1    1    3    3    0  502  0.32004518510E+03 -0.14375393903E+04  0.14264235675E+04  0.20502762285E+04  0.50400001928E-02 0. -1.
</event>
<event>
 5   0  0.3080500E-08  0.3195641E+04  0.7818609E-02  0.8189969E-01
        4   -1    0    0  501    0  0.00000000000E+00  0.00000000000E+00  0.13798527129E+04  0.13798532973E+04  0.12699999809E+01 0. -1.
       -4   -1    0    0    0  501  0.00000000000E+00  0.00000000000E+00 -0.18502187984E+04  0.18502192343E+04  0.12699999809E+01 0.  1.
    10030    2    1    2    0    0  0.00000000000E+00  0.00000000000E+00 -0.47036608553E+03  0.32300725316E+04  0.31956414544E+04 0.  0.
        2    1    3    3  502    0 -0.33465533124E+03 -0.29247933271E+03  0.13161145264E+04  0.13891349097E+04  0.25500000920E-02 0. -1.
       -2    1    3    3    0  502  0.33465533124E+03  0.29247933271E+03 -0.17864806119E+04  0.18409376219E+04  0.25500000920E-02 0.  1.
</event>
<event>
 5   0  0.3427667E-08  0.3199512E+04  0.7818609E-02  0.8188946E-01
        1   -1    0    0  501    0  0.00000000000E+00  0.00000000000E+00  0.26311835847E+04  0.26311835847E+04  0.50400001928E-02 0.  1.
       -1   -1    0    0    0  501  0.00000000000E+00  0.00000000000E+00 -0.97264915421E+03  0.97264915422E+03  0.50400001928E-02 0. -1.
    10030    2    1    2    0    0  0.00000000000E+00  0.00000000000E+00  0.16585344305E+04  0.36038327389E+04  0.31995115179E+04 0.  0.
        2    1    3    3  502    0  0.48573577008E+03 -0.14747559857E+04  0.12631374917E+04  0.20015895630E+04  0.25500000920E-02 0.  1.
       -2    1    3    3    0  502 -0.48573577008E+03  0.14747559857E+04  0.39539693879E+03  0.16022431759E+04  0.25500000920E-02 0. -1.
</event>
<event>
 5   0  0.3080500E-08  0.3203055E+04  0.7818609E-02  0.8188011E-01
       -3   -1    0    0    0  501  0.00000000000E+00  0.00000000000E+00  0.24356859641E+04  0.24356859662E+04  0.10100000352E+00 0.  1.
        3   -1    0    0  501    0  0.00000000000E+00  0.00000000000E+00 -0.10530466022E+04  0.10530466070E+04  0.10100000352E+00 0. -1.
    10030    2    1    2    0    0  0.00000000000E+00  0.00000000000E+00  0.13826393619E+04  0.34887325732E+04  0.32030553167E+04 0.  0.
        4    1    3    3  502    0 -0.62773941197E+03 -0.14731391285E+04  0.72000417713E+03  0.17557344017E+04  0.12699999809E+01 0. -1.
       -4    1    3    3    0  502  0.62773941197E+03  0.14731391285E+04  0.66263518481E+03  0.17329981715E+04  0.12699999809E+01 0.  1.
</event>
<event>
 5   0  0.9727083E-08  0.3199918E+04  0.7818609E-02  0.8188839E-01
        2   -1    0    0  501    0  0.00000000000E+00  0.00000000000E+00  0.11912246085E+04  0.11912246085E+04  0.25500000920E-02 0. -1.
       -2   -1    0    0    0  501  0.00000000000E+00  0.00000000000E+00 -0.21489390354E+04  0.21489390354E+04  0.25500000920E-02 0.  1.
    10030    2    1    2    0    0  0.00000000000E+00  0.00000000000E+00 -0.95771442690E+03  0.33401636440E+04  0.31999181622E+04 0.  0.
        4    1    3    3  502    0 -0.68409193420E+03 -0.57759869888E+03 -0.18629687557E+04  0.20669436928E+04  0.12699999809E+01 0.  1.
       -4    1    3    3    0  502  0.68409193420E+03  0.57759869888E+03  0.90525432883E+03  0.12732199512E+04  0.12699999809E+01 0. -1.
</event>
<event>
 5   0  0.3270966E-08  0.3199341E+04  0.7818609E-02  0.8188991E-01
        1   -1    0    0  501    0  0.00000000000E+00  0.00000000000E+00  0.22881875683E+04  0.22881875683E+04  0.50400001928E-02 0.  1.
       -1   -1    0    0    0  501  0.00000000000E+00  0.00000000000E+00 -0.11183287823E+04  0.11183287823E+04  0.50400001928E-02 0. -1.
    10030    2    1    2    0    0  0.00000000000E+00  0.00000000000E+00  0.11698587860E+04  0.34065163506E+04  0.31993411928E+04 0.  0.
        3    1    3    3  502    0  0.91886307193E+03  0.39785533092E+03  0.19132510326E+04  0.21594276402E+04  0.10100000352E+00 0.  1.
       -3    1    3    3    0  502 -0.91886307193E+03 -0.39785533092E+03 -0.74339224656E+03  0.12470887105E+04  0.10100000352E+00 0. -1.
</event>
<event>
 5   0  0.9727083E-08  0.3203899E+04  0.7818609E-02  0.8187788E-01
       -2   -1    0    0    0  501  0.00000000000E+00  0.00000000000E+00  0.14808127260E+04  0.14808127260E+04  0.25500000920E-02 0.  1.
        2   -1    0    0  501    0  0.00000000000E+00  0.00000000000E+00 -0.17329955643E+04  0.17329955643E+04  0.25500000920E-02 0. -1.
    10030    2    1    2    0    0  0.00000000000E+00  0.00000000000E+00 -0.25218283830E+03  0.32138082904E+04  0.32038988035E+04 0.  0.
        4    1    3    3  502    0 -0.36442400841E+03 -0.41561452040E+03 -0.16343042885E+04  0.17252514042E+04  0.12699999809E+01 0. -1.
       -4    1    3    3    0  502  0.36442400841E+03  0.41561452040E+03  0.13821214502E+04  0.14885568862E+04  0.12699999809E+01 0.  1.
</event>
<event>
 5   0  0.3270966E-08  0.3200109E+04  0.7818609E-02  0.8188789E-01
        1   -1    0    0  501    0  0.00000000000E+00  0.00000000000E+00  0.18760538644E+04  0.18760538644E+04  0.50400001928E-02 0.  1.
       -1   -1    0    0    0  501  0.00000000000E+00  0.00000000000E+00 -0.13646589060E+04  0.13646589060E+04  0.50400001928E-02 0. -1.
    10030    2    1    2    0    0  0.00000000000E+00  0.00000000000E+00  0.51139495837E+03  0.32407127704E+04  0.32001085070E+04 0.  0.
        3    1    3    3  502    0  0.19303707538E+03 -0.14253087669E+04  0.96559509024E+03  0.17323805246E+04  0.10100000352E+00 0.  1.
       -3    1    3    3    0  502 -0.19303707538E+03  0.14253087669E+04 -0.45420013186E+03  0.15083322458E+04  0.10100000352E+00 0. -1.
</event>
<event>
 5   0  0.3270966E-08  0.3201335E+04  0.7818609E-02  0.8188465E-01
        1   -1    0    0  501    0  0.00000000000E+00  0.00000000000E+00  0.20418979125E+04  0.20418979125E+04  0.50400001928E-02 0. -1.
       -1   -1    0    0    0  501  0.00000000000E+00  0.00000000000E+00 -0.12547819341E+04  0.12547819341E+04  0.50400001928E-02 0.  1.
    10030    2    1    2    0    0  0.00000000000E+00  0.00000000000E+00  0.78711597840E+03  0.32966798467E+04  0.32013351040E+04 0.  0.
        3    1    3    3  502    0  0.58876830526E+03 -0.14312488947E+04 -0.27288285446E+02  0.15478585777E+04  0.10100000352E+00 0.  1.
       -3    1    3    3    0  502 -0.58876830526E+03  0.14312488947E+04  0.81440426385E+03  0.17488212690E+04  0.10100000352E+00 0. -1.
</event>
<event>
 5   0  0.9727083E-08  0.3200672E+04  0.7818609E-02  0.8188640E-01
       -2   -1    0    0    0  501  0.00000000000E+00  0.00000000000E+00  0.10063300977E+04  0.10063300977E+04  0.25500000920E-02 0. -1.
        2   -1    0    0  501    0  0.00000000000E+00  0.00000000000E+00 -0.25449659303E+04  0.25449659303E+04  0.25500000920E-02 0.  1.
    10030    2    1    2    0    0  0.00000000000E+00  0.00000000000E+00 -0.15386358326E+04  0.35512960280E+04  0.32006723127E+04 0.  0.
        4    1    3    3  502    0 -0.25053427433E+03 -0.10960668142E+04  0.49427251294E+03  0.12281843566E+04  0.12699999809E+01 0. -1.
       -4    1    3    3    0  502  0.25053427433E+03  0.10960668142E+04 -0.20329083455E+04  0.23231116714E+04  0.12699999809E+01 0.  1.
</event>
<event>
 5   0  0.9329929E-08  0.3201685E+04  0.7818609E-02  0.8188372E-01
        2   -1    0    0  501    0  0.00000000000E+00  0.00000000000E+00  0.16617686145E+04  0.16617686145E+04  0.25500000920E-02 0. -1.
       -2   -1    0    0    0  501  0.00000000000E+00  0.00000000000E+00 -0.15421503264E+04  0.15421503264E+04  0.25500000920E-02 0.  1.
    10030    2    1    2    0    0  0.00000000000E+00  0.00000000000E+00  0.11961828807E+03  0.32039189409E+04  0.32016851883E+04 0.  0.
        1    1    3    3  502    0  0.11350202085E+04  0.56221547421E+03  0.10394405004E+04  0.16385339993E+04  0.50400001928E-02 0. -1.
       -1    1    3    3    0  502 -0.11350202085E+04 -0.56221547421E+03 -0.91982221230E+03  0.15653849416E+04  0.50400001928E-02 0.  1.
</event>
<event>
 5   0  0.9353994E-08  0.3199190E+04  0.7818609E-02  0.8189031E-01
        2   -1    0    0  501    0  0.00000000000E+00  0.00000000000E+00  0.13303517608E+04  0.13303517608E+04  0.25500000920E-02 0. -1.
       -2   -1    0    0    0  501  0.00000000000E+00  0.00000000000E+00 -0.19233289095E+04  0.19233289095E+04  0.25500000920E-02 0.  1.
    10030    2    1    2    0    0  0.00000000000E+00  0.00000000000E+00 -0.59297714872E+03  0.32536806703E+04  0.31991898983E+04 0.  0.
        2    1    3    3  502    0  0.15340637086E+04 -0.34412484840E+03  0.33733445080E+01  0.15721910676E+04  0.25500000920E-02 0.  1.
       -2    1    3    3    0  502 -0.15340637086E+04  0.34412484840E+03 -0.59635049322E+03  0.16814896028E+04  0.25500000920E-02 0. -1.
</event>
<event>
 5   0  0.9727083E-08  0.3204436E+04  0.7818609E-02  0.8187647E-01
       -2   -1    0    0    0  501  0.00000000000E+00  0.00000000000E+00  0.12218650336E+04  0.12218650336E+04  0.25500000920E-02 0. -1.
        2   -1    0    0  501    0  0.00000000000E+00  0.00000000000E+00 -0.21009701803E+04  0.21009701803E+04  0.25500000920E-02 0.  1.
    10030    2    1    2    0    0  0.00000000000E+00  0.00000000000E+00 -0.87910514671E+03  0.33228352139E+04  0.32044356757E+04 0.  0.
        4    1    3    3  502    0 -0.11133164385E+04 -0.34706183295E+03  0.69975860557E+03  0.13599960026E+04  0.12699999809E+01 0. -1.
       -4    1    3    3    0  502  0.11133164385E+04  0.34706183295E+03 -0.15788637523E+04  0.19628392113E+04  0.12699999809E+01 0.  1.
</event>
<event>
 5   0  0.3343140E-08  0.3200229E+04  0.7818609E-02  0.8188757E-01
       -1   -1    0    0    0  501  0.00000000000E+00  0.00000000000E+00  0.14436898432E+04  0.14436898432E+04  0.50400001928E-02 0. -1.
        1   -1    0    0  501    0  0.00000000000E+00  0.00000000000E+00 -0.17734876494E+04  0.17734876494E+04  0.50400001928E-02 0.  1.
    10030    2    1    2    0    0  0.00000000000E+00  0.00000000000E+00 -0.32979780616E+03  0.32171774926E+04  0.32002288084E+04 0.  0.
        1    1    3    3  502    0  0.11580684257E+04 -0.27254790444E+03  0.91079668897E+03  0.14983175389E+04  0.50400001928E-02 0. -1.
       -1    1    3    3    0  502 -0.11580684257E+04  0.27254790444E+03 -0.12405944951E+04  0.17188599536E+04  0.50400001928E-02 0.  1.
</event>
<event>
 5   0  0.3270966E-08  0.3199962E+04  0.7818609E-02  0.8188827E-01
       -1   -1    0    0    0  501  0.00000000000E+00  0.00000000000E+00  0.11966563944E+04  0.11966563944E+04  0.50400001928E-02 0. -1.
        1   -1    0    0  501    0  0.00000000000E+00  0.00000000000E+00 -0.21392429732E+04  0.21392429732E+04  0.50400001928E-02 0.  1.
    10030    2    1    2    0    0  0.00000000000E+00  0.00000000000E+00 -0.94258657885E+03  0.33358993676E+04  0.31999617392E+04 0.  0.
        3    1    3    3  502    0  0.33144561693E+03  0.44255508430E+03 -0.20364831802E+04  0.21102073246E+04  0.10100000352E+00 0.  1.
       -3    1    3    3    0  502 -0.33144561693E+03 -0.44255508430E+03  0.10938966013E+04  0.12256920430E+04  0.10100000352E+00 0. -1.
</event>
<event>
 5   0  0.9353994E-08  0.3202684E+04  0.7818609E-02  0.8188109E-01
       -2   -1    0    0    0  501  0.00000000000E+00  0.00000000000E+00  0.95121760060E+03  0.95121760060E+03  0.25500000920E-02 0. -1.
        2   -1    0    0  501    0  0.00000000000E+00  0.00000000000E+00 -0.26958039099E+04  0.26958039099E+04  0.25500000920E-02 0.  1.
    10030    2    1    2    0    0  0.00000000000E+00  0.00000000000E+00 -0.17445863093E+04  0.36470215105E+04  0.32026839537E+04 0.  0.
        2    1    3    3  502    0 -0.67356316408E+03  0.12673733812E+04 -0.63569078121E+02  0.14366501492E+04  0.25500000920E-02 0. -1.
       -2    1    3    3    0  502  0.67356316408E+03 -0.12673733812E+04 -0.16810172312E+04  0.22103713613E+04  0.25500000920E-02 0.  1.
</event>
<event>
 5   0  0.3427667E-08  0.3200085E+04  0.7818609E-02  0.8188795E-01
        1   -1    0    0  501    0  0.00000000000E+00  0.00000000000E+00  0.23868751830E+04  0.23868751830E+04  0.50400001928E-02 0. -1.
       -1   -1    0    0    0  501  0.00000000000E+00  0.00000000000E+00 -0.10725887909E+04  0.10725887909E+04  0.50400001928E-02 0.  1.
    10030    2    1    2    0    0  0.00000000000E+00  0.00000000000E+00  0.13142863922E+04  0.34594639739E+04  0.32000847280E+04 0.  0.
        2    1    3    3  502    0  0.60403177059E+01 -0.15997374721E+04  0.62401455934E+03  0.17171460728E+04  0.25500000920E-02 0.  1.
       -2    1    3    3    0  502 -0.60403177059E+01  0.15997374721E+04  0.69027183282E+03  0.17423179011E+04  0.25500000920E-02 0. -1.
</event>
<event>
 5   0  0.3220147E-08  0.3200725E+04  0.7818609E-02  0.8188626E-01
        1   -1    0    0  501    0  0.00000000000E+00  0.00000000000E+00  0.18042735591E+04  0.18042735591E+04  0.50400001928E-02 0.  1.
       -1   -1    0    0    0  501  0.00000000000E+00  0.00000000000E+00 -0.14194963080E+04  0.14194963080E+04  0.50400001928E-02 0. -1.
    10030    2    1    2    0    0  0.00000000000E+00  0.00000000000E+00  0.38477725106E+03  0.32237698671E+04  0.32007247028E+04 0.  0.
        4    1    3    3  502    0 -0.80015948577E+03 -0.47290900766E+03  0.15045579675E+04  0.17685006143E+04  0.12699999809E+01 0.  1.
       -4    1    3    3    0  502  0.80015948577E+03  0.47290900766E+03 -0.11197807165E+04  0.14552692528E+04  0.12699999809E+01 0. -1.
</event>
<event>
 5   0  0.3220147E-08  0.3199576E+04  0.7818609E-02  0.8188929E-01
        1   -1    0    0  501    0  0.00000000000E+00  0.00000000000E+00  0.16894761829E+04  0.16894761829E+04  0.50400001928E-02 0.  1.
       -1   -1    0    0    0  501  0.00000000000E+00  0.00000000000E+00 -0.15148614771E+04  0.15148614772E+04  0.50400001928E-02 0. -1.
    10030    2    1    2    0    0  0.00000000000E+00  0.00000000000E+00  0.17461470574E+03  0.32043376600E+04  0.31995764632E+04 0.  0.
        4    1    3    3  502    0  0.42672734252E+03  0.14539763015E+04  0.60107899385E+03  0.16301659057E+04  0.12699999809E+01 0.  1.
       -4    1    3    3    0  502 -0.42672734252E+03 -0.14539763015E+04 -0.42646428812E+03  0.15741717544E+04  0.12699999809E+01 0. -1.
</event>
<event>
 5   0  0.9353994E-08  0.3199627E+04  0.7818609E-02  0.8188916E-01
       -2   -1    0    0    0  501  0.00000000000E+00  0.00000000000E+00  0.18102392983E+04  0.18102392983E+04  0.25500000920E-02 0. -1.
        2   -1    0    0  501    0  0.00000000000E+00  0.00000000000E+00 -0.14138482733E+04  0.14138482733E+04  0.25500000920E-02 0.  1.
    10030    2    1    2    0    0  0.00000000000E+00  0.00000000000E+00  0.39639102500E+03  0.32240875716E+04  0.31996272946E+04 0.  0.
        2    1    3    3  502    0 -0.15276138847E+04 -0.38442926722E+03  0.47964001771E+03  0.16466464674E+04  0.25500000920E-02 0.  1.
       -2    1    3    3    0  502  0.15276138847E+04  0.38442926722E+03 -0.83248992706E+02  0.15774411041E+04  0.25500000920E-02 0. -1.
</event>
<event>
 5   0  0.3343140E-08  0.3200051E+04  0.7818609E-02  0.8188804E-01
        1   -1    0    0  501    0  0.00000000000E+00  0.00000000000E+00  0.90111986464E+03  0.90111986465E+03  0.50400001928E-02 0.  1.
       -1   -1    0    0    0  501  0.00000000000E+00  0.00000000000E+00 -0.28409999652E+04  0.28409999652E+04  0.50400001928E-02 0. -1.
    10030    2    1    2    0    0  0.00000000000E+00  0.00000000000E+00 -0.19398801005E+04  0.37421198298E+04  0.32000509396E+04 0.  0.
        1    1    3    3  502    0 -0.10340254706E+04  0.11289082795E+04 -0.42590299103E+03  0.15890361655E+04  0.50400001928E-02 0. -1.
       -1    1    3    3    0  502  0.10340254706E+04 -0.11289082795E+04 -0.15139771095E+04  0.21530836643E+04  0.50400001928E-02 0.  1.
</event>
<event>
 5   0  0.9353994E-08  0.3200322E+04  0.7818609E-02  0.8188732E-01
        2   -1    0    0  501    0  0.00000000000E+00  0.00000000000E+00  0.12295241609E+04  0.12295241609E+04  0.25500000920E-02 0.  1.
       -2   -1    0    0    0  501  0.00000000000E+00  0.00000000000E+00 -0.20825251480E+04  0.20825251480E+04  0.25500000920E-02 0. -1.
    10030    2    1    2    0    0  0.00000000000E+00  0.00000000000E+00 -0.85300098713E+03  0.33120493089E+04  0.32003218495E+04 0.  0.
        2    1    3    3  502    0  0.96300316287E+03 -0.30528745289E+03  0.85776543731E+03  0.13252686769E+04  0.25500000920E-02 0. -1.
       -2    1    3    3    0  502 -0.96300316287E+03  0.30528745289E+03 -0.17107664244E+04  0.19867806320E+04  0.25500000920E-02 0.  1.
</event>
<event>
 5   0  0.9353994E-08  0.3199957E+04  0.7818609E-02  0.8188829E-01
       -2   -1    0    0    0  501  0.00000000000E+00  0.00000000000E+00  0.21087937435E+04  0.21087937435E+04  0.25500000920E-02 0. -1.
        2   -1    0    0  501    0  0.00000000000E+00  0.00000000000E+00 -0.12139312563E+04  0.12139312563E+04  0.25500000920E-02 0.  1.
    10030    2    1    2    0    0  0.00000000000E+00  0.00000000000E+00  0.89486248715E+03  0.33227249998E+04  0.31999566487E+04 0.  0.
        2    1    3    3  502    0 -0.12110464109E+04 -0.10177888642E+04  0.19864989674E+03  0.15943617416E+04  0.25500000920E-02 0.  1.
       -2    1    3    3    0  502  0.12110464109E+04  0.10177888642E+04  0.69621259041E+03  0.17283632583E+04  0.25500000920E-02 0. -1.
</event>
<event>
 5   0  0.9353994E-08  0.3198563E+04  0.7818609E-02  0.8189197E-01
        2   -1    0    0  501    0  0.00000000000E+00  0.00000000000E+00  0.18233600533E+04  0.18233600533E+04  0.25500000920E-02 0.  1.
       -2   -1    0    0    0  501  0.00000000000E+00  0.00000000000E+00 -0.14027410341E+04  0.14027410341E+04  0.25500000920E-02 0. -1.
    10030    2    1    2    0    0  0.00000000000E+00  0.00000000000E+00  0.42061901915E+03  0.32261010874E+04  0.31985634067E+04 0.  0.
        2    1    3    3  502    0  0.54291881222E+02 -0.62751543160E+02  0.18211874143E+04  0.18230767846E+04  0.25500000920E-02 0.  1.
       -2    1    3    3    0  502 -0.54291881222E+02  0.62751543160E+02 -0.14005683952E+04  0.14030243027E+04  0.25500000920E-02 0. -1.
</event>
<event>
 5   0  0.9329929E-08  0.3199454E+04  0.7818609E-02  0.8188961E-01
        2   -1    0    0  501    0  0.00000000000E+00  0.00000000000E+00  0.22805473659E+04  0.22805473659E+04  0.25500000920E-02 0.  1.
       -2   -1    0    0    0  501  0.00000000000E+00  0.00000000000E+00 -0.11221547021E+04  0.11221547021E+04  0.25500000920E-02 0. -1.
    10030    2    1    2    0    0  0.00000000000E+00  0.00000000000E+00  0.11583926637E+04  0.34027020680E+04  0.31994542973E+04 0.  0.
        1    1    3    3  502    0  0.51321628389E+03 -0.21496531116E+03  0.21743168967E+04  0.22443829901E+04  0.50400001928E-02 0.  1.
       -1    1    3    3    0  502 -0.51321628389E+03  0.21496531116E+03 -0.10159242330E+04  0.11583190779E+04  0.50400001928E-02 0. -1.
</event>
<event>
 5   0  0.3427667E-08  0.3197815E+04  0.7818609E-02  0.8189394E-01
       -1   -1    0    0    0  501  0.00000000000E+00  0.00000000000E+00  0.12214253521E+04  0.12214253521E+04  0.50400001928E-02 0.  1.
        1   -1    0    0  501    0  0.00000000000E+00  0.00000000000E+00 -0.20930506442E+04  0.20930506442E+04  0.50400001928E-02 0. -1.
    10030    2    1    2    0    0  0.00000000000E+00  0.00000000000E+00 -0.87162529203E+03  0.33144759963E+04  0.31978149541E+04 0.  0.
        2    1    3    3  502    0 -0.12739468600E+04 -0.90907322714E+03 -0.77509277023E+03  0.17464602878E+04  0.25500000920E-02 0.  1.
       -2    1    3    3    0  502  0.12739468600E+04  0.90907322714E+03 -0.96532521804E+02  0.15680157085E+04  0.25500000920E-02 0. -1.
</event>
<event>
 5   0  0.9727083E-08  0.3200264E+04  0.7818609E-02  0.8188748E-01
       -2   -1    0    0    0  501  0.00000000000E+00  0.00000000000E+00  0.22537381492E+04  0.22537381492E+04  0.25500000920E-02 0.  1.
        2   -1    0    0  501    0  0.00000000000E+00  0.00000000000E+00 -0.11360777188E+04  0.11360777188E+04  0.25500000920E-02 0. -1.
    10030    2    1    2    0    0  0.00000000000E+00  0.00000000000E+00  0.11176604304E+04  0.33898158680E+04  0.32002635487E+04 0.  0.
        4    1    3    3  502    0  0.12207720329E+04  0.21864441544E+03 -0.51216119951E+03  0.13417900149E+04  0.12699999809E+01 0. -1.
       -4    1    3    3    0  502 -0.12207720329E+04 -0.21864441544E+03  0.16298216299E+04  0.20480258531E+04  0.12699999809E+01 0.  1.
</event>
<event>
 5   0  0.9157524E-08  0.3200182E+04  0.7818609E-02  0.8188769E-01
        2   -1    0    0  501    0  0.00000000000E+00  0.00000000000E+00  0.17517055557E+04  0.17517055557E+04  0.25500000920E-02 0. -1.
       -2   -1    0    0    0  501  0.00000000000E+00  0.00000000000E+00 -0.14615992602E+04  0.14615992602E+04  0.25500000920E-02 0.  1.
    10030    2    1    2    0    0  0.00000000000E+00  0.00000000000E+00  0.29010629556E+03  0.32133048159E+04  0.32001822100E+04 0.  0.
        5    1    3    3  502    0  0.84623919088E+03 -0.60729151766E+03 -0.10745656676E+04  0.14965417534E+04  0.46999998093E+01 0.  1.
       -5    1    3    3    0  502 -0.84623919088E+03  0.60729151766E+03  0.13646719632E+04  0.17167630625E+04  0.46999998093E+01 0. -1.
</event>
<event>
 5   0  0.3270966E-08  0.3200400E+04  0.7818609E-02  0.8188711E-01
        1   -1    0    0  501    0  0.00000000000E+00  0.00000000000E+00  0.13774560781E+04  0.13774560781E+04  0.50400001928E-02 0. -1.
       -1   -1    0    0    0  501  0.00000000000E+00  0.00000000000E+00 -0.18589634294E+04  0.18589634294E+04  0.50400001928E-02 0.  1.
    10030    2    1    2    0    0  0.00000000000E+00  0.00000000000E+00 -0.48150735126E+03  0.32364195075E+04  0.32004002718E+04 0.  0.
        3    1    3    3  502    0  0.15968781530E+04 -0.79213339942E+01 -0.34466165672E+03  0.16336689539E+04  0.10100000352E+00 0.  1.
       -3    1    3    3    0  502 -0.15968781530E+04  0.79213339942E+01 -0.13684569454E+03  0.16027505537E+04  0.10100000352E+00 0. -1.
</event>
<event>
 5   0  0.9157524E-08  0.3200516E+04  0.7818609E-02  0.8188681E-01
       -2   -1    0    0    0  501  0.00000000000E+00  0.00000000000E+00  0.17226360880E+04  0.17226360880E+04  0.25500000920E-02 0.  1.
        2   -1    0    0  501    0  0.00000000000E+00  0.00000000000E+00 -0.14865739906E+04  0.14865739906E+04  0.25500000920E-02 0. -1.
    10030    2    1    2    0    0  0.00000000000E+00  0.00000000000E+00  0.23606209742E+03  0.32092100786E+04  0.32005162107E+04 0.  0.
        5    1    3    3  502    0 -0.17593957759E+03  0.72251096955E+03  0.15388582718E+04  0.17091178154E+04  0.46999998093E+01 0.  1.
       -5    1    3    3    0  502  0.17593957759E+03 -0.72251096955E+03 -0.13027961744E+04  0.15000922632E+04  0.46999998093E+01 0. -1.
</event>
<event>
 5   0  0.3283581E-08  0.3183450E+04  0.7818609E-02  0.8193202E-01
        1   -1    0    0  501    0  0.00000000000E+00  0.00000000000E+00  0.18181761632E+04  0.18181761632E+04  0.50400001928E-02 0. -1.
       -1   -1    0    0    0  501  0.00000000000E+00  0.00000000000E+00 -0.13934781458E+04  0.13934781459E+04  0.50400001928E-02 0.  1.
    10030    2    1    2    0    0  0.00000000000E+00  0.00000000000E+00  0.42469801733E+03  0.32116543090E+04  0.31834501716E+04 0.  0.
        5    1    3    3  502    0  0.63986028379E+03  0.13003882982E+04 -0.45161226908E+03  0.15180272199E+04  0.46999998093E+01 0.  1.
       -5    1    3    3    0  502 -0.63986028379E+03 -0.13003882982E+04  0.87631028640E+03  0.16936270891E+04  0.46999998093E+01 0. -1.
</event>
<event>
 5   0  0.9157524E-08  0.3211179E+04  0.7818609E-02  0.8185871E-01
        2   -1    0    0  501    0  0.00000000000E+00  0.00000000000E+00  0.22107873814E+04  0.22107873814E+04  0.25500000920E-02 0.  1.
       -2   -1    0    0    0  501  0.00000000000E+00  0.00000000000E+00 -0.11660628586E+04  0.11660628586E+04  0.25500000920E-02 0. -1.
    10030    2    1    2    0    0  0.00000000000E+00  0.00000000000E+00  0.10447245228E+04  0.33768502400E+04  0.32111786333E+04 0.  0.
        5    1    3    3  502    0 -0.13725145055E+04  0.79626123250E+03  0.26463218113E+03  0.16086890002E+04  0.46999998093E+01 0.  1.
       -5    1    3    3    0  502  0.13725145055E+04 -0.79626123250E+03  0.78009234166E+03  0.17681612397E+04  0.46999998093E+01 0. -1.
</event>
<event>
 5   0  0.9353994E-08  0.3198172E+04  0.7818609E-02  0.8189300E-01
       -2   -1    0    0    0  501  0.00000000000E+00  0.00000000000E+00  0.10012530846E+04  0.10012530846E+04  0.25500000920E-02 0.  1.
        2   -1    0    0  501    0  0.00000000000E+00  0.00000000000E+00 -0.25538765087E+04  0.25538765087E+04  0.25500000920E-02 0. -1.
    10030    2    1    2    0    0  0.00000000000E+00  0.00000000000E+00 -0.15526234240E+04  0.35551295933E+04  0.31981724357E+04 0.  0.
        2    1    3    3  502    0  0.13757289598E+02  0.15947393634E+04 -0.64623005561E+03  0.17207545394E+04  0.25500000920E-02 0.  1.
       -2    1    3    3    0  502 -0.13757289598E+02 -0.15947393634E+04 -0.90639336843E+03  0.18343750539E+04  0.25500000920E-02 0. -1.
</event>
<event>
 5   0  0.3343140E-08  0.3200074E+04  0.7818609E-02  0.8188798E-01
       -1   -1    0    0    0  501  0.00000000000E+00  0.00000000000E+00  0.77697594294E+03  0.77697594295E+03  0.50400001928E-02 0. -1.
        1   -1    0    0  501    0  0.00000000000E+00  0.00000000000E+00 -0.32949779333E+04  0.32949779333E+04  0.50400001928E-02 0.  1.
    10030    2    1    2    0    0  0.00000000000E+00  0.00000000000E+00 -0.25180019903E+04  0.40719538762E+04  0.32000741158E+04 0.  0.
        1    1    3    3  502    0  0.41240614673E+02 -0.10100534776E+04  0.31915742165E+03  0.10600803157E+04  0.50400001928E-02 0. -1.
       -1    1    3    3    0  502 -0.41240614673E+02  0.10100534776E+04 -0.28371594120E+04  0.30118735606E+04  0.50400001928E-02 0.  1.
</event>
<event>
 5   0  0.3270966E-08  0.3200035E+04  0.7818609E-02  0.8188808E-01
        1   -1    0    0  501    0  0.00000000000E+00  0.00000000000E+00  0.25167474188E+04  0.25167474188E+04  0.50400001928E-02 0.  1.
       -1   -1    0    0    0  501  0.00000000000E+00  0.00000000000E+00 -0.10172079951E+04  0.10172079951E+04  0.50400001928E-02 0. -1.
    10030    2    1    2    0    0  0.00000000000E+00  0.00000000000E+00  0.14995394237E+04  0.35339554139E+04  0.32000347473E+04 0.  0.
        3    1    3    3  502    0  0.44734644542E+03 -0.12690903472E+04  0.17057472638E+04  0.21726212025E+04  0.10100000352E+00 0.  1.
       -3    1    3    3    0  502 -0.44734644542E+03  0.12690903472E+04 -0.20620784006E+03  0.13613342114E+04  0.10100000352E+00 0. -1.
</event>
<event>
 5   0  0.9727083E-08  0.3199707E+04  0.7818609E-02  0.8188894E-01
       -2   -1    0    0    0  501  0.00000000000E+00  0.00000000000E+00  0.30163325054E+04  0.30163325054E+04  0.25500000920E-02 0. -1.
        2   -1    0    0  501    0  0.00000000000E+00  0.00000000000E+00 -0.84855758735E+03  0.84855758735E+03  0.25500000920E-02 0.  1.
    10030    2    1    2    0    0  0.00000000000E+00  0.00000000000E+00  0.21677749180E+04  0.38648900927E+04  0.31997073825E+04 0.  0.
        4    1    3    3  502    0  0.81563288038E+03  0.68609563548E+03  0.25250489145E+04  0.27407768698E+04  0.12699999809E+01 0. -1.
       -4    1    3    3    0  502 -0.81563288038E+03 -0.68609563548E+03 -0.35727399644E+03  0.11241132229E+04  0.12699999809E+01 0.  1.
</event>
<event>
 5   0  0.9727083E-08  0.3198706E+04  0.7818609E-02  0.8189159E-01
       -2   -1    0    0    0  501  0.00000000000E+00  0.00000000000E+00  0.12747975060E+04  0.12747975060E+04  0.25500000920E-02 0. -1.
        2   -1    0    0  501    0  0.00000000000E+00  0.00000000000E+00 -0.20065387297E+04  0.20065387297E+04  0.25500000920E-02 0.  1.
    10030    2    1    2    0    0  0.00000000000E+00  0.00000000000E+00 -0.73174122374E+03  0.32813362357E+04  0.31987063437E+04 0.  0.
        4    1    3    3  502    0 -0.27458884841E+03  0.15552266875E+04 -0.62498185635E+03  0.16984501815E+04  0.12699999809E+01 0. -1.
       -4    1    3    3    0  502  0.27458884841E+03 -0.15552266875E+04 -0.10675936739E+03  0.15828860543E+04  0.12699999809E+01 0.  1.
</event>
<event>
 5   0  0.9329929E-08  0.3200151E+04  0.7818609E-02  0.8188777E-01
       -2   -1    0    0    0  501  0.00000000000E+00  0.00000000000E+00  0.13686005843E+04  0.13686005843E+04  0.25500000920E-02 0. -1.
        2   -1    0    0  501    0  0.00000000000E+00  0.00000000000E+00 -0.18707000176E+04  0.18707000176E+04  0.25500000920E-02 0.  1.
    10030    2    1    2    0    0  0.00000000000E+00  0.00000000000E+00 -0.50209943324E+03  0.32393006019E+04  0.32001507072E+04 0.  0.
        1    1    3    3  502    0  0.93472962927E+03  0.12356819525E+04  0.15335226644E+03  0.15569670148E+04  0.50400001928E-02 0.  1.
       -1    1    3    3    0  502 -0.93472962927E+03 -0.12356819525E+04 -0.65545169968E+03  0.16823335871E+04  0.50400001928E-02 0. -1.
</event>
<event>
 5   0  0.9157524E-08  0.3199958E+04  0.7818609E-02  0.8188828E-01
       -2   -1    0    0    0  501  0.00000000000E+00  0.00000000000E+00  0.12245524668E+04  0.12245524668E+04  0.25500000920E-02 0.  1.
        2   -1    0    0  501    0  0.00000000000E+00  0.00000000000E+00 -0.20905052853E+04  0.20905052853E+04  0.25500000920E-02 0. -1.
    10030    2    1    2    0    0  0.00000000000E+00  0.00000000000E+00 -0.86595281850E+03  0.33150577521E+04  0.31999583772E+04 0.  0.
        5    1    3    3  502    0 -0.73069694261E+02 -0.10627033870E+04  0.80379604054E+03  0.13344616269E+04  0.46999998093E+01 0.  1.
       -5    1    3    3    0  502  0.73069694261E+02  0.10627033870E+04 -0.16697488590E+04  0.19805961252E+04  0.46999998093E+01 0. -1.
</event>
<event>
 5   0  0.3270966E-08  0.3201169E+04  0.7818609E-02  0.8188508E-01
       -1   -1    0    0    0  501  0.00000000000E+00  0.00000000000E+00  0.20694574650E+04  0.20694574650E+04  0.50400001928E-02 0. -1.
        1   -1    0    0  501    0  0.00000000000E+00  0.00000000000E+00 -0.12379432692E+04  0.12379432692E+04  0.50400001928E-02 0.  1.
    10030    2    1    2    0    0  0.00000000000E+00  0.00000000000E+00  0.83151419580E+03  0.33074007341E+04  0.32011691237E+04 0.  0.
        3    1    3    3  502    0  0.27147848275E+03 -0.51666293532E+03  0.19555947765E+04  0.20408312266E+04  0.10100000352E+00 0. -1.
       -3    1    3    3    0  502 -0.27147848275E+03  0.51666293532E+03 -0.11240805807E+04  0.12665695075E+04  0.10100000352E+00 0.  1.
</event>
<event>
 5   0  0.3343140E-08  0.3199690E+04  0.7818609E-02  0.8188899E-01
        1   -1    0    0  501    0  0.00000000000E+00  0.00000000000E+00  0.15922538354E+04  0.15922538354E+04  0.50400001928E-02 0.  1.
       -1   -1    0    0    0  501  0.00000000000E+00  0.00000000000E+00 -0.16074722553E+04  0.16074722553E+04  0.50400001928E-02 0. -1.
    10030    2    1    2    0    0  0.00000000000E+00  0.00000000000E+00 -0.15218419897E+02  0.31997260906E+04  0.31996898998E+04 0.  0.
        1    1    3    3  502    0 -0.12607597156E+03 -0.14642623611E+04  0.62449322573E+03  0.15968566629E+04  0.50400001928E-02 0.  1.
       -1    1    3    3    0  502  0.12607597156E+03  0.14642623611E+04 -0.63971164563E+03  0.16028694277E+04  0.50400001928E-02 0. -1.
</event>
<event>
 5   0  0.9353994E-08  0.3204541E+04  0.7818609E-02  0.8187619E-01
        2   -1    0    0  501    0  0.00000000000E+00  0.00000000000E+00  0.23083600855E+04  0.23083600855E+04  0.25500000920E-02 0. -1.
       -2   -1    0    0    0  501  0.00000000000E+00  0.00000000000E+00 -0.11121624790E+04  0.11121624790E+04  0.25500000920E-02 0.  1.
    10030    2    1    2    0    0  0.00000000000E+00  0.00000000000E+00  0.11961976065E+04  0.34205225645E+04  0.32045414493E+04 0.  0.
        2    1    3    3  502    0  0.68489972279E+02 -0.10870499860E+03 -0.11066550891E+04  0.11140884791E+04  0.25500000920E-02 0.  1.
       -2    1    3    3    0  502 -0.68489972279E+02  0.10870499860E+03  0.23028526956E+04  0.23064340855E+04  0.25500000920E-02 0. -1.
</event>
<event>
 5   0  0.3283581E-08  0.3199994E+04  0.7818609E-02  0.8188819E-01
       -1   -1    0    0    0  501  0.00000000000E+00  0.00000000000E+00  0.10315949771E+04  0.10315949771E+04  0.50400001928E-02 0.  1.
        1   -1    0    0  501    0  0.00000000000E+00  0.00000000000E+00 -0.24815841094E+04  0.24815841094E+04  0.50400001928E-02 0. -1.
    10030    2    1    2    0    0  0.00000000000E+00  0.00000000000E+00 -0.14499891323E+04  0.35131790864E+04  0.31999935640E+04 0.  0.
        5    1    3    3  502    0  0.22016424610E+03 -0.49329398690E+03  0.92844253716E+03  0.10741689288E+04  0.46999998093E+01 0.  1.
       -5    1    3    3    0  502 -0.22016424610E+03  0.49329398690E+03 -0.23784316695E+04  0.24390101577E+04  0.46999998093E+01 0. -1.
</event>
<event>
 5   0  0.3270966E-08  0.3197732E+04  0.7818609E-02  0.8189416E-01
       -1   -1    0    0    0  501  0.00000000000E+00  0.00000000000E+00  0.90211251663E+03  0.90211251665E+03  0.50400001928E-02 0. -1.
        1   -1    0    0  501    0  0.00000000000E+00  0.00000000000E+00 -0.28337621614E+04  0.28337621614E+04  0.50400001928E-02 0.  1.
    10030    2    1    2    0    0  0.00000000000E+00  0.00000000000E+00 -0.19316496448E+04  0.37358746781E+04  0.31977318931E+04 0.  0.
        3    1    3    3  502    0  0.59107087404E+03  0.80365205844E+02 -0.26988934816E+04  0.27640277458E+04  0.10100000352E+00 0.  1.
       -3    1    3    3    0  502 -0.59107087404E+03 -0.80365205844E+02  0.76724383680E+03  0.97184693227E+03  0.10100000352E+00 0. -1.
</event>
<event>
 5   0  0.3427667E-08  0.3201369E+04  0.7818609E-02  0.8188456E-01
        1   -1    0    0  501    0  0.00000000000E+00  0.00000000000E+00  0.99628910901E+03  0.99628910902E+03  0.50400001928E-02 0. -1.
       -1   -1    0    0    0  501  0.00000000000E+00  0.00000000000E+00 -0.25717338628E+04  0.25717338628E+04  0.50400001928E-02 0.  1.
    10030    2    1    2    0    0  0.00000000000E+00  0.00000000000E+00 -0.15754447537E+04  0.35680229718E+04  0.32013687315E+04 0.  0.
        2    1    3    3  502    0 -0.53725001161E+03 -0.49625043620E+03  0.79917816097E+03  0.10833225759E+04  0.25500000920E-02 0. -1.
       -2    1    3    3    0  502  0.53725001161E+03  0.49625043620E+03 -0.23746229147E+04  0.24847003959E+04  0.25500000920E-02 0.  1.
</event>
<event>
 5   0  0.9353994E-08  0.3199263E+04  0.7818609E-02  0.8189012E-01
        2   -1    0    0  501    0  0.00000000000E+00  0.00000000000E+00  0.21797356571E+04  0.21797356571E+04  0.25500000920E-02 0.  1.
       -2   -1    0    0    0  501  0.00000000000E+00  0.00000000000E+00 -0.11739133038E+04  0.11739133038E+04  0.25500000920E-02 0. -1.
    10030    2    1    2    0    0  0.00000000000E+00  0.00000000000E+00  0.10058223533E+04  0.33536489609E+04  0.31992628443E+04 0.  0.
        2    1    3    3  502    0 -0.85608768553E+03  0.25313948193E+03  0.18943136031E+04  0.20941322188E+04  0.25500000920E-02 0.  1.
       -2    1    3    3    0  502  0.85608768553E+03 -0.25313948193E+03 -0.88849124988E+03  0.12595167421E+04  0.25500000920E-02 0. -1.
</event>
<event>
 5   0  0.9707721E-08  0.3200227E+04  0.7818609E-02  0.8188757E-01
        2   -1    0    0  501    0  0.00000000000E+00  0.00000000000E+00  0.16206073894E+04  0.16206073894E+04  0.25500000920E-02 0. -1.
       -2   -1    0    0    0  501  0.00000000000E+00  0.00000000000E+00 -0.15798784625E+04  0.15798784625E+04  0.25500000920E-02 0.  1.
    10030    2    1    2    0    0  0.00000000000E+00  0.00000000000E+00  0.40728926843E+02  0.32004858519E+04  0.32002266862E+04 0.  0.
        3    1    3    3  502    0  0.19833037110E+03 -0.79413426582E+03 -0.13546572542E+04  0.15827445955E+04  0.10100000352E+00 0.  1.
       -3    1    3    3    0  502 -0.19833037110E+03  0.79413426582E+03  0.13953861810E+04  0.16177412564E+04  0.10100000352E+00 0. -1.
</event>
<event>
 5   0  0.3283581E-08  0.3199933E+04  0.7818609E-02  0.8188835E-01
        1   -1    0    0  501    0  0.00000000000E+00  0.00000000000E+00  0.17272485274E+04  0.17272485275E+04  0.50400001928E-02 0. -1.
       -1   -1    0    0    0  501  0.00000000000E+00  0.00000000000E+00 -0.14820643130E+04  0.14820643130E+04  0.50400001928E-02 0.  1.
    10030    2    1    2    0    0  0.00000000000E+00  0.00000000000E+00  0.24518421443E+03  0.32093128405E+04  0.31999333757E+04 0.  0.
        5    1    3    3  502    0  0.12388021757E+03 -0.12350696371E+04 -0.88988563216E+03  0.15273054197E+04  0.46999998093E+01 0.  1.
       -5    1    3    3    0  502 -0.12388021757E+03  0.12350696371E+04  0.11350698466E+04  0.16820074207E+04  0.46999998093E+01 0. -1.
</event>
<event>
 5   0  0.3343140E-08  0.3200590E+04  0.7818609E-02  0.8188661E-01
        1   -1    0    0  501    0  0.00000000000E+00  0.00000000000E+00  0.19894981956E+04  0.19894981956E+04  0.50400001928E-02 0. -1.
       -1   -1    0    0    0  501  0.00000000000E+00  0.00000000000E+00 -0.12872308679E+04  0.12872308679E+04  0.50400001928E-02 0.  1.
    10030    2    1    2    0    0  0.00000000000E+00  0.00000000000E+00  0.70226732766E+03  0.32767290635E+04  0.32005896263E+04 0.  0.
        1    1    3    3  502    0  0.76332557724E+03  0.13511933606E+04 -0.48739645819E+02  0.15526638360E+04  0.50400001928E-02 0.  1.
       -1    1    3    3    0  502 -0.76332557724E+03 -0.13511933606E+04  0.75100697348E+03  0.17240652275E+04  0.50400001928E-02 0. -1.
</event>
<event>
 5   0  0.3283581E-08  0.3197680E+04  0.7818609E-02  0.8189430E-01
       -1   -1    0    0    0  501  0.00000000000E+00  0.00000000000E+00  0.11682481461E+04  0.11682481461E+04  0.50400001928E-02 0. -1.
        1   -1    0    0  501    0  0.00000000000E+00  0.00000000000E+00 -0.21881389886E+04  0.21881389886E+04  0.50400001928E-02 0.  1.
    10030    2    1    2    0    0  0.00000000000E+00  0.00000000000E+00 -0.10198908425E+04  0.33563871346E+04  0.31976799820E+04 0.  0.
        5    1    3    3  502    0 -0.87327719982E+03  0.53891918045E+01 -0.19156785757E+04  0.21053476213E+04  0.46999998093E+01 0.  1.
       -5    1    3    3    0  502  0.87327719982E+03 -0.53891918045E+01  0.89578773318E+03  0.12510395134E+04  0.46999998093E+01 0. -1.
</event>
<event>
 5   0  0.9157524E-08  0.3200701E+04  0.7818609E-02  0.8188632E-01
       -2   -1    0    0    0  501  0.00000000000E+00  0.00000000000E+00  0.10751015365E+04  0.10751015365E+04  0.25500000920E-02 0. -1.
        2   -1    0    0  501    0  0.00000000000E+00  0.00000000000E+00 -0.23822135494E+04  0.23822135494E+04  0.25500000920E-02 0.  1.
    10030    2    1    2    0    0  0.00000000000E+00  0.00000000000E+00 -0.13071120129E+04  0.34573150859E+04  0.32007008278E+04 0.  0.
        5    1    3    3  502    0  0.10463659150E+04  0.85733671902E+03  0.27009825859E+03  0.13794502663E+04  0.46999998093E+01 0. -1.
       -5    1    3    3    0  502 -0.10463659150E+04 -0.85733671902E+03 -0.15772102715E+04  0.20778648196E+04  0.46999998093E+01 0.  1.
</event>
<event>
 5   0  0.9353994E-08  0.3202342E+04  0.7818609E-02  0.8188199E-01
       -2   -1    0    0    0  501  0.00000000000E+00  0.00000000000E+00  0.17374920608E+04  0.17374920608E+04  0.25500000920E-02 0. -1.
        2   -1    0    0  501    0  0.00000000000E+00  0.00000000000E+00 -0.14755457108E+04  0.14755457108E+04  0.25500000920E-02 0.  1.
    10030    2    1    2    0    0  0.00000000000E+00  0.00000000000E+00  0.26194634991E+03  0.32130377716E+04  0.32023422415E+04 0.  0.
        2    1    3    3  502    0 -0.49501337436E+03  0.10738752475E+04  0.12141633779E+04  0.16948271287E+04  0.25500000920E-02 0. -1.
       -2    1    3    3    0  502  0.49501337436E+03 -0.10738752475E+04 -0.95221702798E+03  0.15182106429E+04  0.25500000920E-02 0.  1.
</event>
<event>
 5   0  0.9353994E-08  0.3200645E+04  0.7818609E-02  0.8188647E-01
        2   -1    0    0  501    0  0.00000000000E+00  0.00000000000E+00  0.25237611955E+04  0.25237611955E+04  0.25500000920E-02 0. -1.
       -2   -1    0    0    0  501  0.00000000000E+00  0.00000000000E+00 -0.10147679840E+04  0.10147679840E+04  0.25500000920E-02 0.  1.
    10030    2    1    2    0    0  0.00000000000E+00  0.00000000000E+00  0.15089932115E+04  0.35385291795E+04  0.32006449728E+04 0.  0.
        2    1    3    3  502    0 -0.14079205963E+04 -0.73224165376E+03  0.52627303900E+03  0.16719394596E+04  0.25500000920E-02 0.  1.
       -2    1    3    3    0  502  0.14079205963E+04  0.73224165376E+03  0.98272017249E+03  0.18665897199E+04  0.25500000920E-02 0. -1.
</event>
<event>
 5   0  0.9157524E-08  0.3199033E+04  0.7818609E-02  0.8189073E-01
       -2   -1    0    0    0  501  0.00000000000E+00  0.00000000000E+00  0.17955391607E+04  0.17955391607E+04  0.25500000920E-02 0. -1.
        2   -1    0    0  501    0  0.00000000000E+00  0.00000000000E+00 -0.14248941141E+04  0.14248941141E+04  0.25500000920E-02 0.  1.
    10030    2    1    2    0    0  0.00000000000E+00  0.00000000000E+00  0.37064504652E+03  0.32204332748E+04  0.31990330925E+04 0.  0.
        5    1    3    3  502    0  0.55664213756E+03  0.13966394935E+04 -0.36420344223E+03  0.15469707759E+04  0.46999998093E+01 0.  1.
       -5    1    3    3    0  502 -0.55664213756E+03 -0.13966394935E+04  0.73484848874E+03  0.16734624990E+04  0.46999998093E+01 0. -1.
</event>
<event>
 5   0  0.9329929E-08  0.3199949E+04  0.7818609E-02  0.8188831E-01
        2   -1    0    0  501    0  0.00000000000E+00  0.00000000000E+00  0.19072138515E+04  0.19072138515E+04  0.25500000920E-02 0.  1.
       -2   -1    0    0    0  501  0.00000000000E+00  0.00000000000E+00 -0.13422293501E+04  0.13422293501E+04  0.25500000920E-02 0. -1.
    10030    2    1    2    0    0  0.00000000000E+00  0.00000000000E+00  0.56498450145E+03  0.32494432016E+04  0.31999490049E+04 0.  0.
        1    1    3    3  502    0 -0.11202057903E+04  0.59437121517E+03 -0.70818967145E+03  0.14524705728E+04  0.50400001928E-02 0. -1.
       -1    1    3    3    0  502  0.11202057903E+04 -0.59437121517E+03  0.12731741729E+04  0.17969726288E+04  0.50400001928E-02 0.  1.
</event>
<event>
 5   0  0.9353994E-08  0.3199591E+04  0.7818609E-02  0.8188925E-01
        2   -1    0    0  501    0  0.00000000000E+00  0.00000000000E+00  0.26201193818E+04  0.26201193818E+04  0.25500000920E-02 0.  1.
       -2   -1    0    0    0  501  0.00000000000E+00  0.00000000000E+00 -0.97680491787E+03  0.97680491788E+03  0.25500000920E-02 0. -1.
    10030    2    1    2    0    0  0.00000000000E+00  0.00000000000E+00  0.16433144639E+04  0.35969242997E+04  0.31995909098E+04 0.  0.
        2    1    3    3  502    0 -0.12739098264E+04  0.95146481824E+03  0.10202718542E+04  0.18892025309E+04  0.25500000920E-02 0. -1.
       -2    1    3    3    0  502  0.12739098264E+04 -0.95146481824E+03  0.62304260976E+03  0.17077217688E+04  0.25500000920E-02 0.  1.
</event>
<event>
 5   0  0.9329929E-08  0.3199710E+04  0.7818609E-02  0.8188894E-01
        2   -1    0    0  501    0  0.00000000000E+00  0.00000000000E+00  0.24116163203E+04  0.24116163203E+04  0.25500000920E-02 0. -1.
       -2   -1    0    0    0  501  0.00000000000E+00  0.00000000000E+00 -0.10613362603E+04  0.10613362603E+04  0.25500000920E-02 0.  1.
    10030    2    1    2    0    0  0.00000000000E+00  0.00000000000E+00  0.13502800601E+04  0.34729525806E+04  0.31997098910E+04 0.  0.
        1    1    3    3  502    0 -0.54645398843E+03  0.40074860128E+02 -0.95632181125E+03  0.11021657600E+04  0.50400001928E-02 0.  1.
       -1    1    3    3    0  502  0.54645398843E+03 -0.40074860128E+02  0.23066018713E+04  0.23707868206E+04  0.50400001928E-02 0. -1.
</event>
<event>
 5   0  0.3220147E-08  0.3201098E+04  0.7818609E-02  0.8188527E-01
        1   -1    0    0  501    0  0.00000000000E+00  0.00000000000E+00  0.91854892933E+03  0.91854892934E+03  0.50400001928E-02 0. -1.
       -1   -1    0    0    0  501  0.00000000000E+00  0.00000000000E+00 -0.27889167768E+04  0.27889167768E+04  0.50400001928E-02 0.  1.
    10030    2    1    2    0    0  0.00000000000E+00  0.00000000000E+00 -0.18703678475E+04  0.37074657062E+04  0.32010976364E+04 0.  0.
        4    1    3    3  502    0 -0.85619304432E+03  0.57927460687E+03 -0.23504136161E+04  0.25676976806E+04  0.12699999809E+01 0.  1.
       -4    1    3    3    0  502  0.85619304432E+03 -0.57927460687E+03  0.48004576858E+03  0.11397680256E+04  0.12699999809E+01 0. -1.
</event>
<event>
 5   0  0.3220147E-08  0.3199920E+04  0.7818609E-02  0.8188838E-01
        1   -1    0    0  501    0  0.00000000000E+00  0.00000000000E+00  0.18441397938E+04  0.18441397939E+04  0.50400001928E-02 0.  1.
       -1   -1    0    0    0  501  0.00000000000E+00  0.00000000000E+00 -0.13881115916E+04  0.13881115917E+04  0.50400001928E-02 0. -1.
    10030    2    1    2    0    0  0.00000000000E+00  0.00000000000E+00  0.45602820220E+03  0.32322513855E+04  0.31999198893E+04 0.  0.
        4    1    3    3  502    0  0.46096551822E+03  0.18611532249E+03  0.17641499575E+04  0.18328542789E+04  0.12699999809E+01 0.  1.
       -4    1    3    3    0  502 -0.46096551822E+03 -0.18611532249E+03 -0.13081217553E+04  0.13993971066E+04  0.12699999809E+01 0. -1.
</event>
<event>
 5   0  0.3220147E-08  0.3209207E+04  0.7818609E-02  0.8186390E-01
        1   -1    0    0  501    0  0.00000000000E+00  0.00000000000E+00  0.22239352894E+04  0.22239352894E+04  0.50400001928E-02 0. -1.
       -1   -1    0    0    0  501  0.00000000000E+00  0.00000000000E+00 -0.11577463069E+04  0.11577463069E+04  0.50400001928E-02 0.  1.
    10030    2    1    2    0    0  0.00000000000E+00  0.00000000000E+00  0.10661889825E+04  0.33816815964E+04  0.32092072966E+04 0.  0.
        4    1    3    3  502    0 -0.41169430831E+03  0.14953255179E+04  0.99570694190E+02  0.15541578247E+04  0.12699999809E+01 0. -1.
       -4    1    3    3    0  502  0.41169430831E+03 -0.14953255179E+04  0.96661828830E+03  0.18275237717E+04  0.12699999809E+01 0.  1.
</event>
<event>
 5   0  0.9727083E-08  0.3200817E+04  0.7818609E-02  0.8188602E-01
       -2   -1    0    0    0  501  0.00000000000E+00  0.00000000000E+00  0.16694319166E+04  0.16694319166E+04  0.25500000920E-02 0. -1.
        2   -1    0    0  501    0  0.00000000000E+00  0.00000000000E+00 -0.15342386029E+04  0.15342386029E+04  0.25500000920E-02 0.  1.
    10030    2    1    2    0    0  0.00000000000E+00  0.00000000000E+00  0.13519331374E+03  0.32036705195E+04  0.32008167028E+04 0.  0.
        4    1    3    3  502    0 -0.11082146878E+03  0.32086486644E+03 -0.14977893484E+04  0.15357767434E+04  0.12699999809E+01 0.  1.
       -4    1    3    3    0  502  0.11082146878E+03 -0.32086486644E+03  0.16329826621E+04  0.16678937761E+04  0.12699999809E+01 0. -1.
</event>
<event>
 5   0  0.3283581E-08  0.3199891E+04  0.7818609E-02  0.8188846E-01
       -1   -1    0    0    0  501  0.00000000000E+00  0.00000000000E+00  0.17354659311E+04  0.17354659311E+04  0.50400001928E-02 0.  1.
        1   -1    0    0  501    0  0.00000000000E+00  0.00000000000E+00 -0.14750079892E+04  0.14750079892E+04  0.50400001928E-02 0. -1.
    10030    2    1    2    0    0  0.00000000000E+00  0.00000000000E+00  0.26045794185E+03  0.32104739203E+04  0.31998913190E+04 0.  0.
        5    1    3    3  502    0 -0.43181853050E+03 -0.13144122105E+04 -0.67595648331E+03  0.15398330947E+04  0.46999998093E+01 0. -1.
       -5    1    3    3    0  502  0.43181853050E+03  0.13144122105E+04  0.93641442516E+03  0.16706408255E+04  0.46999998093E+01 0.  1.
</event>
<event>
 5   0  0.3427667E-08  0.3201366E+04  0.7818609E-02  0.8188457E-01
       -1   -1    0    0    0  501  0.00000000000E+00  0.00000000000E+00  0.18099422195E+04  0.18099422195E+04  0.50400001928E-02 0.  1.
        1   -1    0    0  501    0  0.00000000000E+00  0.00000000000E+00 -0.14156174741E+04  0.14156174741E+04  0.50400001928E-02 0. -1.
    10030    2    1    2    0    0  0.00000000000E+00  0.00000000000E+00  0.39432474543E+03  0.32255596936E+04  0.32013658541E+04 0.  0.
        2    1    3    3  502    0 -0.55168097328E+03 -0.10674833985E+04 -0.86833280181E+03  0.14825230376E+04  0.25500000920E-02 0. -1.
       -2    1    3    3    0  502  0.55168097328E+03  0.10674833985E+04  0.12626575472E+04  0.17430366559E+04  0.25500000920E-02 0.  1.
</event>
<event>
 5   0  0.3220147E-08  0.3201755E+04  0.7818609E-02  0.8188354E-01
       -1   -1    0    0    0  501  0.00000000000E+00  0.00000000000E+00  0.15161677567E+04  0.15161677567E+04  0.50400001928E-02 0. -1.
        1   -1    0    0  501    0  0.00000000000E+00  0.00000000000E+00 -0.16903201614E+04  0.16903201614E+04  0.50400001928E-02 0.  1.
    10030    2    1    2    0    0  0.00000000000E+00  0.00000000000E+00 -0.17415240477E+03  0.32064879181E+04  0.32017550982E+04 0.  0.
        4    1    3    3  502    0 -0.46148585383E+03  0.29384524362E+03  0.14196387044E+04  0.15214104917E+04  0.12699999809E+01 0. -1.
       -4    1    3    3    0  502  0.46148585383E+03 -0.29384524362E+03 -0.15937911091E+04  0.16850774264E+04  0.12699999809E+01 0.  1.
</event>
<event>
 5   0  0.3220147E-08  0.3198328E+04  0.7818609E-02  0.8189259E-01
        1   -1    0    0  501    0  0.00000000000E+00  0.00000000000E+00  0.13436198031E+04  0.13436198031E+04  0.50400001928E-02 0. -1.
       -1   -1    0    0    0  501  0.00000000000E+00  0.00000000000E+00 -0.19033104436E+04  0.19033104436E+04  0.50400001928E-02 0.  1.
    10030    2    1    2    0    0  0.00000000000E+00  0.00000000000E+00 -0.55969064054E+03  0.32469302467E+04  0.31983280654E+04 0.  0.
        4    1    3    3  502    0 -0.13958774831E+04 -0.79909910341E+02 -0.10678261683E+04  0.17592935742E+04  0.12699999809E+01 0.  1.
       -4    1    3    3    0  502  0.13958774831E+04  0.79909910341E+02  0.50813552781E+03  0.14876366724E+04  0.12699999809E+01 0. -1.
</event>
<event>
 5   0  0.9707721E-08  0.3198199E+04  0.7818609E-02  0.8189293E-01
       -2   -1    0    0    0  501  0.00000000000E+00  0.00000000000E+00  0.12143649738E+04  0.12143649738E+04  0.25500000920E-02 0.  1.
        2   -1    0    0  501    0  0.00000000000E+00  0.00000000000E+00 -0.21057251478E+04  0.21057251478E+04  0.25500000920E-02 0. -1.
    10030    2    1    2    0    0  0.00000000000E+00  0.00000000000E+00 -0.89136017407E+03  0.33200901216E+04  0.31981987830E+04 0.  0.
        3    1    3    3  502    0  0.44080875090E+03  0.98456489862E+03 -0.16711095428E+04  0.19890418570E+04  0.10100000352E+00 0. -1.
       -3    1    3    3    0  502 -0.44080875090E+03 -0.98456489862E+03  0.77974936876E+03  0.13310482646E+04  0.10100000352E+00 0.  1.
</event>
<event>
 5   0  0.3427667E-08  0.3203981E+04  0.7818609E-02  0.8187767E-01
        1   -1    0    0  501    0  0.00000000000E+00  0.00000000000E+00  0.16586376655E+04  0.16586376655E+04  0.50400001928E-02 0.  1.
       -1   -1    0    0    0  501  0.00000000000E+00  0.00000000000E+00 -0.15472783203E+04  0.15472783203E+04  0.50400001928E-02 0. -1.
    10030    2    1    2    0    0  0.00000000000E+00  0.00000000000E+00  0.11135934521E+03  0.32059159858E+04  0.32039813365E+04 0.  0.
        2    1    3    3  502    0 -0.11612662502E+04 -0.73747140456E+03 -0.76577324361E+03  0.15744243510E+04  0.25500000920E-02 0. -1.
       -2    1    3    3    0  502  0.11612662502E+04  0.73747140456E+03  0.87713258882E+03  0.16314916349E+04  0.25500000920E-02 0.  1.
</event>
<event>
 5   0  0.9707721E-08  0.3199257E+04  0.7818609E-02  0.8189013E-01
       -2   -1    0    0    0  501  0.00000000000E+00  0.00000000000E+00  0.99690021558E+03  0.99690021558E+03  0.25500000920E-02 0.  1.
        2   -1    0    0  501    0  0.00000000000E+00  0.00000000000E+00 -0.25667681511E+04  0.25667681511E+04  0.25500000920E-02 0. -1.
    10030    2    1    2    0    0  0.00000000000E+00  0.00000000000E+00 -0.15698679355E+04  0.35636683667E+04  0.31992572408E+04 0.  0.
        3    1    3    3  502    0  0.16405630427E+03  0.11595829617E+04 -0.19986633884E+04  0.23165065220E+04  0.10100000352E+00 0. -1.
       -3    1    3    3    0  502 -0.16405630427E+03 -0.11595829617E+04  0.42879545293E+03  0.12471618446E+04  0.10100000352E+00 0.  1.
</event>
<event>
 5   0  0.3283581E-08  0.3207297E+04  0.7818609E-02  0.8186893E-01
       -1   -1    0    0    0  501  0.00000000000E+00  0.00000000000E+00  0.96956429827E+03  0.96956429828E+03  0.50400001928E-02 0.  1.
        1   -1    0    0  501    0  0.00000000000E+00  0.00000000000E+00 -0.26524159281E+04  0.26524159281E+04  0.50400001928E-02 0. -1.
    10030    2    1    2    0    0  0.00000000000E+00  0.00000000000E+00 -0.16828516298E+04  0.36219802264E+04  0.32072965488E+04 0.  0.
        5    1    3    3  502    0 -0.27936818754E+03  0.98180980707E+03 -0.22381338653E+04  0.24599313752E+04  0.46999998093E+01 0. -1.
       -5    1    3    3    0  502  0.27936818754E+03 -0.98180980707E+03  0.55528223551E+03  0.11620488512E+04  0.46999998093E+01 0.  1.
</event>
<event>
 5   0  0.9707721E-08  0.3201098E+04  0.7818609E-02  0.8188527E-01
       -2   -1    0    0    0  501  0.00000000000E+00  0.00000000000E+00  0.31392250118E+04  0.31392250118E+04  0.25500000920E-02 0.  1.
        2   -1    0    0  501    0  0.00000000000E+00  0.00000000000E+00 -0.81604763157E+03  0.81604763157E+03  0.25500000920E-02 0. -1.
    10030    2    1    2    0    0  0.00000000000E+00  0.00000000000E+00  0.23231773802E+04  0.39552726434E+04  0.32010980215E+04 0.  0.
        3    1    3    3  502    0  0.14671307121E+04 -0.35620334295E+03  0.18182065684E+04  0.23633087999E+04  0.10100000352E+00 0.  1.
       -3    1    3    3    0  502 -0.14671307121E+04  0.35620334295E+03  0.50497081185E+03  0.15919638435E+04  0.10100000352E+00 0. -1.
</event>
<event>
 5   0  0.3270966E-08  0.3193792E+04  0.7818609E-02  0.8190459E-01
        1   -1    0    0  501    0  0.00000000000E+00  0.00000000000E+00  0.19549930996E+04  0.19549930996E+04  0.50400001928E-02 0.  1.
       -1   -1    0    0    0  501  0.00000000000E+00  0.00000000000E+00 -0.13043918428E+04  0.13043918428E+04  0.50400001928E-02 0. -1.
    10030    2    1    2    0    0  0.00000000000E+00  0.00000000000E+00  0.65060125680E+03  0.32593849424E+04  0.31937921359E+04 0.  0.
        3    1    3    3  502    0  0.14552733215E+04 -0.23162895377E+03 -0.30264489327E+03  0.15043491464E+04  0.10100000352E+00 0. -1.
       -3    1    3    3    0  502 -0.14552733215E+04  0.23162895377E+03  0.95324615006E+03  0.17550357960E+04  0.10100000352E+00 0.  1.
</event>
<event>
 5   0  0.3283581E-08  0.3201838E+04  0.7818609E-02  0.8188332E-01
        1   -1    0    0  501    0  0.00000000000E+00  0.00000000000E+00  0.25497274171E+04  0.25497274171E+04  0.50400001928E-02 0.  1.
       -1   -1    0    0    0  501  0.00000000000E+00  0.00000000000E+00 -0.10051825676E+04  0.10051825677E+04  0.50400001928E-02 0. -1.
    10030    2    1    2    0    0  0.00000000000E+00  0.00000000000E+00  0.15445448494E+04  0.35549099847E+04  0.32018379421E+04 0.  0.
        5    1    3    3  502    0 -0.54627025955E+03  0.14043358154E+03 -0.89120457089E+03  0.10547039701E+04  0.46999998093E+01 0. -1.
       -5    1    3    3    0  502  0.54627025955E+03 -0.14043358154E+03  0.24357494203E+04  0.25002060147E+04  0.46999998093E+01 0.  1.
</event>
<event>
 5   0  0.9157524E-08  0.3200374E+04  0.7818609E-02  0.8188718E-01
       -2   -1    0    0    0  501  0.00000000000E+00  0.00000000000E+00  0.10300747479E+04  0.10300747479E+04  0.25500000920E-02 0. -1.
        2   -1    0    0  501    0  0.00000000000E+00  0.00000000000E+00 -0.24858374168E+04  0.24858374168E+04  0.25500000920E-02 0.  1.
    10030    2    1    2    0    0  0.00000000000E+00  0.00000000000E+00 -0.14557626690E+04  0.35159121647E+04  0.32003739471E+04 0.  0.
        5    1    3    3  502    0  0.84514380473E+03 -0.13587884169E+04 -0.72952842053E+03  0.17586380580E+04  0.46999998093E+01 0.  1.
       -5    1    3    3    0  502 -0.84514380473E+03  0.13587884169E+04 -0.72623424844E+03  0.17572741067E+04  0.46999998093E+01 0. -1.
</event>
<event>
 5   0  0.3270966E-08  0.3199843E+04  0.7818609E-02  0.8188859E-01
        1   -1    0    0  501    0  0.00000000000E+00  0.00000000000E+00  0.14830974444E+04  0.14830974444E+04  0.50400001928E-02 0.  1.
       -1   -1    0    0    0  501  0.00000000000E+00  0.00000000000E+00 -0.17259473915E+04  0.17259473915E+04  0.50400001928E-02 0. -1.
    10030    2    1    2    0    0  0.00000000000E+00  0.00000000000E+00 -0.24284994709E+03  0.32090448359E+04  0.31998425996E+04 0.  0.
        3    1    3    3  502    0  0.11762183704E+04 -0.60881212120E+03 -0.10215619378E+04  0.16726418196E+04  0.10100000352E+00 0. -1.
       -3    1    3    3    0  502 -0.11762183704E+04  0.60881212120E+03  0.77871199067E+03  0.15364030163E+04  0.10100000352E+00 0.  1.
</event>
<event>
 5   0  0.3427667E-08  0.3200673E+04  0.7818609E-02  0.8188639E-01
       -1   -1    0    0    0  501  0.00000000000E+00  0.00000000000E+00  0.16472794617E+04  0.16472794618E+04  0.50400001928E-02 0.  1.
        1   -1    0    0  501    0  0.00000000000E+00  0.00000000000E+00 -0.15547313797E+04  0.15547313797E+04  0.50400001928E-02 0. -1.
    10030    2    1    2    0    0  0.00000000000E+00  0.00000000000E+00  0.92548082006E+02  0.32020108415E+04  0.32006730982E+04 0.  0.
        2    1    3    3  502    0 -0.87914416467E+03 -0.27742865069E+03 -0.12624072341E+04  0.15631804576E+04  0.25500000920E-02 0. -1.
       -2    1    3    3    0  502  0.87914416467E+03  0.27742865069E+03  0.13549553161E+04  0.16388303839E+04  0.25500000920E-02 0.  1.
</event>
<event>
 5   0  0.9353994E-08  0.3194275E+04  0.7818609E-02  0.8190331E-01
       -2   -1    0    0    0  501  0.00000000000E+00  0.00000000000E+00  0.11299964287E+04  0.11299964287E+04  0.25500000920E-02 0. -1.
        2   -1    0    0  501    0  0.00000000000E+00  0.00000000000E+00 -0.22573943062E+04  0.22573943062E+04  0.25500000920E-02 0.  1.
    10030    2    1    2    0    0  0.00000000000E+00  0.00000000000E+00 -0.11273978775E+04  0.33873907348E+04  0.31942745681E+04 0.  0.
        2    1    3    3  502    0 -0.88733675417E+03 -0.13274770039E+04 -0.60172475752E+03  0.17063511933E+04  0.25500000920E-02 0. -1.
       -2    1    3    3    0  502  0.88733675417E+03  0.13274770039E+04 -0.52567311997E+03  0.16810395415E+04  0.25500000920E-02 0.  1.
</event>
<event>
 5   0  0.9353994E-08  0.3199871E+04  0.7818609E-02  0.8188851E-01
        2   -1    0    0  501    0  0.00000000000E+00  0.00000000000E+00  0.22119346935E+04  0.22119346935E+04  0.25500000920E-02 0. -1.
       -2   -1    0    0    0  501  0.00000000000E+00  0.00000000000E+00 -0.11572644619E+04  0.11572644619E+04  0.25500000920E-02 0.  1.
    10030    2    1    2    0    0  0.00000000000E+00  0.00000000000E+00  0.10546702316E+04  0.33691991554E+04  0.31998708805E+04 0.  0.
        2    1    3    3  502    0 -0.81059528000E+03  0.69087562834E+03 -0.72975261478E+03  0.12910897415E+04  0.25500000920E-02 0.  1.
       -2    1    3    3    0  502  0.81059528000E+03 -0.69087562834E+03  0.17844228463E+04  0.20781094139E+04  0.25500000920E-02 0. -1.
</event>
<event>
 5   0  0.9727083E-08  0.3199741E+04  0.7818609E-02  0.8188886E-01
        2   -1    0    0  501    0  0.00000000000E+00  0.00000000000E+00  0.15300602160E+04  0.15300602160E+04  0.25500000920E-02 0.  1.
       -2   -1    0    0    0  501  0.00000000000E+00  0.00000000000E+00 -0.16728655150E+04  0.16728655150E+04  0.25500000920E-02 0. -1.
    10030    2    1    2    0    0  0.00000000000E+00  0.00000000000E+00 -0.14280529905E+03  0.32029257310E+04  0.31997405965E+04 0.  0.
        4    1    3    3  502    0 -0.83928737394E+03 -0.67748950211E+03 -0.12541828699E+04  0.16541981761E+04  0.12699999809E+01 0. -1.
       -4    1    3    3    0  502  0.83928737394E+03  0.67748950211E+03  0.11113775709E+04  0.15487275550E+04  0.12699999809E+01 0.  1.
</event>
<event>
 5   0  0.9329929E-08  0.3199078E+04  0.7818609E-02  0.8189061E-01
        2   -1    0    0  501    0  0.00000000000E+00  0.00000000000E+00  0.13300200545E+04  0.13300200545E+04  0.25500000920E-02 0. -1.
       -2   -1    0    0    0  501  0.00000000000E+00  0.00000000000E+00 -0.19236743343E+04  0.19236743343E+04  0.25500000920E-02 0.  1.
    10030    2    1    2    0    0  0.00000000000E+00  0.00000000000E+00 -0.59365427976E+03  0.32536943888E+04  0.31990782691E+04 0.  0.
        1    1    3    3  502    0  0.37030003188E+02  0.22070911338E+03  0.13140184013E+04  0.13329396434E+04  0.50400001928E-02 0. -1.
       -1    1    3    3    0  502 -0.37030003188E+02 -0.22070911338E+03 -0.19076726811E+04  0.19207547454E+04  0.50400001928E-02 0.  1.
</event>
<event>
 5   0  0.3080500E-08  0.3201220E+04  0.7818609E-02  0.8188495E-01
        4   -1    0    0  501    0  0.00000000000E+00  0.00000000000E+00  0.12788154794E+04  0.12788161100E+04  0.12699999809E+01 0. -1.
       -4   -1    0    0    0  501  0.00000000000E+00  0.00000000000E+00 -0.20033781170E+04  0.20033785196E+04  0.12699999809E+01 0.  1.
    10030    2    1    2    0    0  0.00000000000E+00  0.00000000000E+00 -0.72456263767E+03  0.32821946296E+04  0.32012201690E+04 0.  0.
        4    1    3    3  502    0  0.29393143699E+03 -0.13250734141E+04 -0.12321132270E+04  0.18331175247E+04  0.12699999809E+01 0.  1.
       -4    1    3    3    0  502 -0.29393143699E+03  0.13250734141E+04  0.50755058933E+03  0.14490771049E+04  0.12699999809E+01 0. -1.
</event>
<event>
 5   0  0.9353994E-08  0.3200017E+04  0.7818609E-02  0.8188813E-01
        2   -1    0    0  501    0  0.00000000000E+00  0.00000000000E+00  0.20957616173E+04  0.20957616173E+04  0.25500000920E-02 0. -1.
       -2   -1    0    0    0  501  0.00000000000E+00  0.00000000000E+00 -0.12215256694E+04  0.12215256694E+04  0.25500000920E-02 0.  1.
    10030    2    1    2    0    0  0.00000000000E+00  0.00000000000E+00  0.87423594795E+03  0.33172872867E+04  0.32000166328E+04 0.  0.
        2    1    3    3  502    0  0.33995477073E+03 -0.11802209224E+04 -0.62590563311E+03  0.13784950248E+04  0.25500000920E-02 0.  1.
       -2    1    3    3    0  502 -0.33995477073E+03  0.11802209224E+04  0.15001415811E+04  0.19387922620E+04  0.25500000920E-02 0. -1.
</event>
<event>
 5   0  0.9707721E-08  0.3198097E+04  0.7818609E-02  0.8189320E-01
       -2   -1    0    0    0  501  0.00000000000E+00  0.00000000000E+00  0.16349913251E+04  0.16349913251E+04  0.25500000920E-02 0. -1.
        2   -1    0    0  501    0  0.00000000000E+00  0.00000000000E+00 -0.15638956400E+04  0.15638956400E+04  0.25500000920E-02 0.  1.
    10030    2    1    2    0    0  0.00000000000E+00  0.00000000000E+00  0.71095685088E+02  0.31988869651E+04  0.31980968121E+04 0.  0.
        3    1    3    3  502    0  0.38073124458E+03 -0.57783896500E+03 -0.14063705475E+04  0.15673966560E+04  0.10100000352E+00 0.  1.
       -3    1    3    3    0  502 -0.38073124458E+03  0.57783896500E+03  0.14774662326E+04  0.16314903091E+04  0.10100000352E+00 0. -1.
</event>
<event>
 5   0  0.3270966E-08  0.3198544E+04  0.7818609E-02  0.8189202E-01
       -1   -1    0    0    0  501  0.00000000000E+00  0.00000000000E+00  0.14249129612E+04  0.14249129612E+04  0.50400001928E-02 0.  1.
        1   -1    0    0  501    0  0.00000000000E+00  0.00000000000E+00 -0.17949666371E+04  0.17949666371E+04  0.50400001928E-02 0. -1.
    10030    2    1    2    0    0  0.00000000000E+00  0.00000000000E+00 -0.37005367591E+03  0.32198795983E+04  0.31985441851E+04 0.  0.
        3    1    3    3  502    0 -0.63858770990E+03  0.27215395821E+03  0.12653504538E+04  0.14432511290E+04  0.10100000352E+00 0.  1.
       -3    1    3    3    0  502  0.63858770990E+03 -0.27215395821E+03 -0.16354041297E+04  0.17766284693E+04  0.10100000352E+00 0. -1.
</event>
<event>
 5   0  0.9157524E-08  0.3199867E+04  0.7818609E-02  0.8188852E-01
       -2   -1    0    0    0  501  0.00000000000E+00  0.00000000000E+00  0.15310969565E+04  0.15310969565E+04  0.25500000920E-02 0. -1.
        2   -1    0    0  501    0  0.00000000000E+00  0.00000000000E+00 -0.16718652632E+04  0.16718652632E+04  0.25500000920E-02 0.  1.
    10030    2    1    2    0    0  0.00000000000E+00  0.00000000000E+00 -0.14076830669E+03  0.32029622197E+04  0.31998673823E+04 0.  0.
        5    1    3    3  502    0 -0.93953169805E+03  0.36666050421E+03 -0.13136023069E+04  0.16561198169E+04  0.46999998093E+01 0.  1.
       -5    1    3    3    0  502  0.93953169805E+03 -0.36666050421E+03  0.11728340003E+04  0.15468424028E+04  0.46999998093E+01 0. -1.
</event>
<event>
 5   0  0.3220147E-08  0.3200113E+04  0.7818609E-02  0.8188787E-01
       -1   -1    0    0    0  501  0.00000000000E+00  0.00000000000E+00  0.11970593110E+04  0.11970593110E+04  0.50400001928E-02 0. -1.
        1   -1    0    0  501    0  0.00000000000E+00  0.00000000000E+00 -0.21387249712E+04  0.21387249712E+04  0.50400001928E-02 0.  1.
    10030    2    1    2    0    0  0.00000000000E+00  0.00000000000E+00 -0.94166566020E+03  0.33357842821E+04  0.32001128982E+04 0.  0.
        4    1    3    3  502    0  0.72178867963E+03  0.12888422359E+04  0.17012263182E+03  0.14869554566E+04  0.12699999809E+01 0. -1.
       -4    1    3    3    0  502 -0.72178867963E+03 -0.12888422359E+04 -0.11117882920E+04  0.18488288256E+04  0.12699999809E+01 0.  1.
</event>
<event>
 5   0  0.9329929E-08  0.3200156E+04  0.7818609E-02  0.8188776E-01
        2   -1    0    0  501    0  0.00000000000E+00  0.00000000000E+00  0.20759159988E+04  0.20759159988E+04  0.25500000920E-02 0.  1.
       -2   -1    0    0    0  501  0.00000000000E+00  0.00000000000E+00 -0.12333107196E+04  0.12333107196E+04  0.25500000920E-02 0. -1.
    10030    2    1    2    0    0  0.00000000000E+00  0.00000000000E+00  0.84260527923E+03  0.33092267184E+04  0.32001559052E+04 0.  0.
        1    1    3    3  502    0  0.10849842575E+04  0.98708891672E+03 -0.23979436283E+03  0.14862828483E+04  0.50400001928E-02 0.  1.
       -1    1    3    3    0  502 -0.10849842575E+04 -0.98708891672E+03  0.10823996421E+04  0.18229438702E+04  0.50400001928E-02 0. -1.
</event>
<event>
 5   0  0.9353994E-08  0.3194625E+04  0.7818609E-02  0.8190238E-01
       -2   -1    0    0    0  501  0.00000000000E+00  0.00000000000E+00  0.16851605616E+04  0.16851605616E+04  0.25500000920E-02 0. -1.
        2   -1    0    0  501    0  0.00000000000E+00  0.00000000000E+00 -0.15140435444E+04  0.15140435444E+04  0.25500000920E-02 0.  1.
    10030    2    1    2    0    0  0.00000000000E+00  0.00000000000E+00  0.17111701719E+03  0.31992041061E+04  0.31946245286E+04 0.  0.
        2    1    3    3  502    0 -0.21003775701E+03 -0.45983900713E+03 -0.14318161007E+04  0.15184416742E+04  0.25500000920E-02 0.  1.
       -2    1    3    3    0  502  0.21003775701E+03  0.45983900713E+03  0.16029331179E+04  0.16807624318E+04  0.25500000920E-02 0. -1.
</event>
<event>
 5   0  0.3283581E-08  0.3200998E+04  0.7818609E-02  0.8188554E-01
        1   -1    0    0  501    0  0.00000000000E+00  0.00000000000E+00  0.24482290001E+04  0.24482290001E+04  0.50400001928E-02 0. -1.
       -1   -1    0    0    0  501  0.00000000000E+00  0.00000000000E+00 -0.10463060713E+04  0.10463060713E+04  0.50400001928E-02 0.  1.
    10030    2    1    2    0    0  0.00000000000E+00  0.00000000000E+00  0.14019229288E+04  0.34945350715E+04  0.32009978862E+04 0.  0.
        5    1    3    3  502    0 -0.10809484897E+04 -0.91410027654E+03 -0.11420123661E+03  0.14202439810E+04  0.46999998093E+01 0.  1.
       -5    1    3    3    0  502  0.10809484897E+04  0.91410027654E+03  0.15161241655E+04  0.20742910905E+04  0.46999998093E+01 0. -1.
</event>
<event>
 5   0  0.9727083E-08  0.3199607E+04  0.7818609E-02  0.8188921E-01
       -2   -1    0    0    0  501  0.00000000000E+00  0.00000000000E+00  0.11645426056E+04  0.11645426056E+04  0.25500000920E-02 0.  1.
        2   -1    0    0  501    0  0.00000000000E+00  0.00000000000E+00 -0.21977478363E+04  0.21977478363E+04  0.25500000920E-02 0. -1.
    10030    2    1    2    0    0  0.00000000000E+00  0.00000000000E+00 -0.10332052307E+04  0.33622904419E+04  0.31996068457E+04 0.  0.
        4    1    3    3  502    0  0.56589314262E+03  0.59303793050E+02 -0.20878238806E+04  0.21639690751E+04  0.12699999809E+01 0. -1.
       -4    1    3    3    0  502 -0.56589314262E+03 -0.59303793050E+02  0.10546186498E+04  0.11983213668E+04  0.12699999809E+01 0.  1.
</event>
<event>
 5   0  0.9157524E-08  0.3199104E+04  0.7818609E-02  0.8189054E-01
       -2   -1    0    0    0  501  0.00000000000E+00  0.00000000000E+00  0.13552849791E+04  0.13552849791E+04  0.25500000920E-02 0.  1.
        2   -1    0    0  501    0  0.00000000000E+00  0.00000000000E+00 -0.18878436384E+04  0.18878436384E+04  0.25500000920E-02 0. -1.
    10030    2    1    2    0    0  0.00000000000E+00  0.00000000000E+00 -0.53255865926E+03  0.32431286174E+04  0.31991037032E+04 0.  0.
        5    1    3    3  502    0 -0.11124511173E+04 -0.86029960914E+03 -0.10389234218E+04  0.17484412693E+04  0.46999998093E+01 0. -1.
       -5    1    3    3    0  502  0.11124511173E+04  0.86029960914E+03  0.50636476257E+03  0.14946873481E+04  0.46999998093E+01 0.  1.
</event>
<event>
 5   0  0.3220147E-08  0.3200496E+04  0.7818609E-02  0.8188686E-01
        1   -1    0    0  501    0  0.00000000000E+00  0.00000000000E+00  0.20257839240E+04  0.20257839240E+04  0.50400001928E-02 0.  1.
       -1   -1    0    0    0  501  0.00000000000E+00  0.00000000000E+00 -0.12640998348E+04  0.12640998349E+04  0.50400001928E-02 0. -1.
    10030    2    1    2    0    0  0.00000000000E+00  0.00000000000E+00  0.76168408912E+03  0.32898837588E+04  0.32004956639E+04 0.  0.
        4    1    3    3  502    0 -0.10447162380E+04  0.11858807400E+03  0.16208915743E+04  0.19320419917E+04  0.12699999809E+01 0.  1.
       -4    1    3    3    0  502  0.10447162380E+04 -0.11858807400E+03 -0.85920748514E+03  0.13578417671E+04  0.12699999809E+01 0. -1.
</event>
<event>
 5   0  0.9707721E-08  0.3190235E+04  0.7818609E-02  0.8191401E-01
       -2   -1    0    0    0  501  0.00000000000E+00  0.00000000000E+00  0.12044841238E+04  0.12044841238E+04  0.25500000920E-02 0. -1.
        2   -1    0    0  501    0  0.00000000000E+00  0.00000000000E+00 -0.21124400928E+04  0.21124400928E+04  0.25500000920E-02 0.  1.
    10030    2    1    2    0    0  0.00000000000E+00  0.00000000000E+00 -0.90795596902E+03  0.33169242165E+04  0.31902354485E+04 0.  0.
        3    1    3    3  502    0 -0.50922995498E+03 -0.16455270547E+02  0.11176085435E+04  0.12282649510E+04  0.10100000352E+00 0. -1.
       -3    1    3    3    0  502  0.50922995498E+03  0.16455270547E+02 -0.20255645126E+04  0.20886592656E+04  0.10100000352E+00 0.  1.
</event>
<event>
 5   0  0.3080500E-08  0.3197379E+04  0.7818609E-02  0.8189510E-01
       -3   -1    0    0    0  501  0.00000000000E+00  0.00000000000E+00  0.18029383070E+04  0.18029383098E+04  0.10100000352E+00 0. -1.
        3   -1    0    0  501    0  0.00000000000E+00  0.00000000000E+00 -0.14175797008E+04  0.14175797044E+04  0.10100000352E+00 0.  1.
    10030    2    1    2    0    0  0.00000000000E+00  0.00000000000E+00  0.38535860621E+03  0.32205180142E+04  0.31973793995E+04 0.  0.
        2    1    3    3  502    0  0.12526340650E+04  0.61006182643E+03 -0.59692057113E+03  0.15157775896E+04  0.25500000920E-02 0.  1.
       -2    1    3    3    0  502 -0.12526340650E+04 -0.61006182643E+03  0.98227917734E+03  0.17047404246E+04  0.25500000920E-02 0. -1.
</event>
<event>
 5   0  0.3270966E-08  0.3199515E+04  0.7818609E-02  0.8188945E-01
       -1   -1    0    0    0  501  0.00000000000E+00  0.00000000000E+00  0.25405462835E+04  0.25405462835E+04  0.50400001928E-02 0. -1.
        1   -1    0    0  501    0  0.00000000000E+00  0.00000000000E+00 -0.10073517492E+04  0.10073517492E+04  0.50400001928E-02 0.  1.
    10030    2    1    2    0    0  0.00000000000E+00  0.00000000000E+00  0.15331945343E+04  0.35478980327E+04  0.31995148024E+04 0.  0.
        3    1    3    3  502    0  0.11545500098E+04  0.77872430893E+03  0.16396129817E+04  0.21512154737E+04  0.10100000352E+00 0.  1.
       -3    1    3    3    0  502 -0.11545500098E+04 -0.77872430893E+03 -0.10641844744E+03  0.13966825590E+04  0.10100000352E+00 0. -1.
</event>
<event>
 5   0  0.3270966E-08  0.3195298E+04  0.7818609E-02  0.8190060E-01
        1   -1    0    0  501    0  0.00000000000E+00  0.00000000000E+00  0.14656940061E+04  0.14656940061E+04  0.50400001928E-02 0.  1.
       -1   -1    0    0    0  501  0.00000000000E+00  0.00000000000E+00 -0.17414842594E+04  0.17414842594E+04  0.50400001928E-02 0. -1.
    10030    2    1    2    0    0  0.00000000000E+00  0.00000000000E+00 -0.27579025326E+03  0.32071782655E+04  0.31952984467E+04 0.  0.
        3    1    3    3  502    0 -0.95710029062E+03  0.26759048023E+03 -0.13934805941E+04  0.17115588823E+04  0.10100000352E+00 0. -1.
       -3    1    3    3    0  502  0.95710029062E+03 -0.26759048023E+03  0.11176903408E+04  0.14956193832E+04  0.10100000352E+00 0.  1.
</event>
<event>
 5   0  0.3343140E-08  0.3186797E+04  0.7818609E-02  0.8192313E-01
       -1   -1    0    0    0  501  0.00000000000E+00  0.00000000000E+00  0.30276269211E+04  0.30276269211E+04  0.50400001928E-02 0.  1.
        1   -1    0    0  501    0  0.00000000000E+00  0.00000000000E+00 -0.83858363010E+03  0.83858363012E+03  0.50400001928E-02 0. -1.
    10030    2    1    2    0    0  0.00000000000E+00  0.00000000000E+00  0.21890432910E+04  0.38662105512E+04  0.31867967454E+04 0.  0.
        1    1    3    3  502    0  0.14312790982E+04  0.50185019723E+03  0.16870099564E+04  0.22685713721E+04  0.50400001928E-02 0.  1.
       -1    1    3    3    0  502 -0.14312790982E+04 -0.50185019723E+03  0.50203333453E+03  0.15976391790E+04  0.50400001928E-02 0. -1.
</event>
<event>
 5   0  0.9707721E-08  0.3200560E+04  0.7818609E-02  0.8188669E-01
       -2   -1    0    0    0  501  0.00000000000E+00  0.00000000000E+00  0.22902970165E+04  0.22902970165E+04  0.25500000920E-02 0. -1.
        2   -1    0    0  501    0  0.00000000000E+00  0.00000000000E+00 -0.11181501107E+04  0.11181501107E+04  0.25500000920E-02 0.  1.
    10030    2    1    2    0    0  0.00000000000E+00  0.00000000000E+00  0.11721469058E+04  0.34084471271E+04  0.32005598651E+04 0.  0.
        3    1    3    3  502    0  0.15120829163E+04  0.13410844050E+03  0.11254447901E+04  0.18897105083E+04  0.10100000352E+00 0. -1.
       -3    1    3    3    0  502 -0.15120829163E+04 -0.13410844050E+03  0.46702115635E+02  0.15187366188E+04  0.10100000352E+00 0.  1.
</event>
<event>
 5   0  0.3080500E-08  0.3196603E+04  0.7818609E-02  0.8189715E-01
        3   -1    0    0  501    0  0.00000000000E+00  0.00000000000E+00  0.21765146514E+04  0.21765146537E+04  0.10100000352E+00 0.  1.
       -3   -1    0    0    0  501  0.00000000000E+00  0.00000000000E+00 -0.11736965413E+04  0.11736965457E+04  0.10100000352E+00 0. -1.
    10030    2    1    2    0    0  0.00000000000E+00  0.00000000000E+00  0.10028181100E+04  0.33502111994E+04  0.31966030280E+04 0.  0.
        5    1    3    3  502    0 -0.81124457487E+03 -0.60349818855E+03  0.17987189586E+04  0.20634291376E+04  0.46999998093E+01 0.  1.
       -5    1    3    3    0  502  0.81124457487E+03  0.60349818855E+03 -0.79590084857E+03  0.12867820618E+04  0.46999998093E+01 0. -1.
</event>
<event>
 5   0  0.9707721E-08  0.3201163E+04  0.7818609E-02  0.8188510E-01
        2   -1    0    0  501    0  0.00000000000E+00  0.00000000000E+00  0.17724893428E+04  0.17724893428E+04  0.25500000920E-02 0. -1.
       -2   -1    0    0    0  501  0.00000000000E+00  0.00000000000E+00 -0.14453465439E+04  0.14453465439E+04  0.25500000920E-02 0.  1.
    10030    2    1    2    0    0  0.00000000000E+00  0.00000000000E+00  0.32714279888E+03  0.32178358867E+04  0.32011631297E+04 0.  0.
        3    1    3    3  502    0 -0.14505202466E+03  0.10658459949E+04  0.13549844106E+04  0.17300435075E+04  0.10100000352E+00 0. -1.
       -3    1    3    3    0  502  0.14505202466E+03 -0.10658459949E+04 -0.10278416117E+04  0.14877923792E+04  0.10100000352E+00 0.  1.
</event>
<event>
 5   0  0.9157524E-08  0.3191375E+04  0.7818609E-02  0.8191099E-01
        2   -1    0    0  501    0  0.00000000000E+00  0.00000000000E+00  0.21590252501E+04  0.21590252501E+04  0.25500000920E-02 0.  1.
       -2   -1    0    0    0  501  0.00000000000E+00  0.00000000000E+00 -0.11793369540E+04  0.11793369540E+04  0.25500000920E-02 0. -1.
    10030    2    1    2    0    0  0.00000000000E+00  0.00000000000E+00  0.97968829607E+03  0.33383622041E+04  0.31913747897E+04 0.  0.
        5    1    3    3  502    0  0.11675440791E+04 -0.10207835483E+04  0.88269131673E+03  0.17844675059E+04  0.46999998093E+01 0.  1.
       -5    1    3    3    0  502 -0.11675440791E+04  0.10207835483E+04  0.96996979343E+02  0.15538946982E+04  0.46999998093E+01 0. -1.
</event>
<event>
 5   0  0.3220147E-08  0.3200933E+04  0.7818609E-02  0.8188571E-01
       -1   -1    0    0    0  501  0.00000000000E+00  0.00000000000E+00  0.11835378886E+04  0.11835378886E+04  0.50400001928E-02 0.  1.
        1   -1    0    0  501    0  0.00000000000E+00  0.00000000000E+00 -0.21642682132E+04  0.21642682132E+04  0.50400001928E-02 0. -1.
    10030    2    1    2    0    0  0.00000000000E+00  0.00000000000E+00 -0.98073032462E+03  0.33478061018E+04  0.32009332586E+04 0.  0.
        4    1    3    3  502    0 -0.20888594607E+03  0.14344092176E+04 -0.11999718386E+04  0.18817803188E+04  0.12699999809E+01 0. -1.
       -4    1    3    3    0  502  0.20888594607E+03 -0.14344092176E+04  0.21924151398E+03  0.14660257830E+04  0.12699999809E+01 0.  1.
</event>
<event>
 5   0  0.3220147E-08  0.3199035E+04  0.7818609E-02  0.8189072E-01
       -1   -1    0    0    0  501  0.00000000000E+00  0.00000000000E+00  0.19310888359E+04  0.19310888359E+04  0.50400001928E-02 0.  1.
        1   -1    0    0  501    0  0.00000000000E+00  0.00000000000E+00 -0.13248774691E+04  0.13248774691E+04  0.50400001928E-02 0. -1.
    10030    2    1    2    0    0  0.00000000000E+00  0.00000000000E+00  0.60621136681E+03  0.32559663050E+04  0.31990349104E+04 0.  0.
        4    1    3    3  502    0 -0.46034718261E+03  0.13347203106E+04 -0.46197443070E+03  0.14855368806E+04  0.12699999809E+01 0. -1.
       -4    1    3    3    0  502  0.46034718261E+03 -0.13347203106E+04  0.10681857975E+04  0.17704294244E+04  0.12699999809E+01 0.  1.
</event>
<event>
 5   0  0.9353994E-08  0.3197698E+04  0.7818609E-02  0.8189425E-01
        2   -1    0    0  501    0  0.00000000000E+00  0.00000000000E+00  0.17154030286E+04  0.17154030286E+04  0.25500000920E-02 0.  1.
       -2   -1    0    0    0  501  0.00000000000E+00  0.00000000000E+00 -0.14902144092E+04  0.14902144092E+04  0.25500000920E-02 0. -1.
    10030    2    1    2    0    0  0.00000000000E+00  0.00000000000E+00  0.22518861934E+03  0.32056174378E+04  0.31976981163E+04 0.  0.
        2    1    3    3  502    0  0.62448857901E+03 -0.13662738201E+04 -0.43614434551E+03  0.15642608564E+04  0.25500000920E-02 0. -1.
       -2    1    3    3    0  502 -0.62448857901E+03  0.13662738201E+04  0.66133296486E+03  0.16413565814E+04  0.25500000920E-02 0.  1.
</event>
<event>
 5   0  0.9707721E-08  0.3199979E+04  0.7818609E-02  0.8188823E-01
       -2   -1    0    0    0  501  0.00000000000E+00  0.00000000000E+00  0.10823531116E+04  0.10823531116E+04  0.25500000920E-02 0.  1.
        2   -1    0    0  501    0  0.00000000000E+00  0.00000000000E+00 -0.23651860625E+04  0.23651860625E+04  0.25500000920E-02 0. -1.
    10030    2    1    2    0    0  0.00000000000E+00  0.00000000000E+00 -0.12828329509E+04  0.34475391741E+04  0.31999790588E+04 0.  0.
        3    1    3    3  502    0  0.14178068404E+04  0.66255071405E+03 -0.10000615519E+04  0.18572217970E+04  0.10100000352E+00 0.  1.
       -3    1    3    3    0  502 -0.14178068404E+04 -0.66255071405E+03 -0.28277139894E+03  0.15903173771E+04  0.10100000352E+00 0. -1.
</event>
<event>
 5   0  0.3343140E-08  0.3202726E+04  0.7818609E-02  0.8188098E-01
       -1   -1    0    0    0  501  0.00000000000E+00  0.00000000000E+00  0.14327589755E+04  0.14327589755E+04  0.50400001928E-02 0. -1.
        1   -1    0    0  501    0  0.00000000000E+00  0.00000000000E+00 -0.17898082995E+04  0.17898082996E+04  0.50400001928E-02 0.  1.
    10030    2    1    2    0    0  0.00000000000E+00  0.00000000000E+00 -0.35704932408E+03  0.32225672750E+04  0.32027262796E+04 0.  0.
        1    1    3    3  502    0 -0.68101813426E+03  0.10480700705E+04 -0.11857893829E+04  0.17228850897E+04  0.50400001928E-02 0.  1.
       -1    1    3    3    0  502  0.68101813426E+03 -0.10480700705E+04  0.82874005877E+03  0.14996821853E+04  0.50400001928E-02 0. -1.
</event>
<event>
 5   0  0.9157524E-08  0.3201649E+04  0.7818609E-02  0.8188382E-01
       -2   -1    0    0    0  501  0.00000000000E+00  0.00000000000E+00  0.10647064838E+04  0.10647064838E+04  0.25500000920E-02 0.  1.
        2   -1    0    0  501    0  0.00000000000E+00  0.00000000000E+00 -0.24068966977E+04  0.24068966977E+04  0.25500000920E-02 0. -1.
    10030    2    1    2    0    0  0.00000000000E+00  0.00000000000E+00 -0.13421902139E+04  0.34716031815E+04  0.32016486502E+04 0.  0.
        5    1    3    3  502    0  0.88852357645E+03  0.13281321893E+04 -0.56705051140E+03  0.16955758994E+04  0.46999998093E+01 0.  1.
       -5    1    3    3    0  502 -0.88852357645E+03 -0.13281321893E+04 -0.77513970246E+03  0.17760272820E+04  0.46999998093E+01 0. -1.
</event>
<event>
 5   0  0.3220147E-08  0.3201005E+04  0.7818609E-02  0.8188552E-01
        1   -1    0    0  501    0  0.00000000000E+00  0.00000000000E+00  0.16114771514E+04  0.16114771514E+04  0.50400001928E-02 0.  1.
       -1   -1    0    0    0  501  0.00000000000E+00  0.00000000000E+00 -0.15896024911E+04  0.15896024911E+04  0.50400001928E-02 0. -1.
    10030    2    1    2    0    0  0.00000000000E+00  0.00000000000E+00  0.21874660301E+02  0.32010796425E+04  0.32010049011E+04 0.  0.
        4    1    3    3  502    0  0.97911504193E+03 -0.67231063571E+03 -0.10619057959E+04  0.15932085201E+04  0.12699999809E+01 0. -1.
       -4    1    3    3    0  502 -0.97911504193E+03  0.67231063571E+03  0.10837804562E+04  0.16078711224E+04  0.12699999809E+01 0.  1.
</event>
<event>
 5   0  0.3283581E-08  0.3201616E+04  0.7818609E-02  0.8188391E-01
       -1   -1    0    0    0  501  0.00000000000E+00  0.00000000000E+00  0.14300827923E+04  0.14300827923E+04  0.50400001928E-02 0. -1.
        1   -1    0    0  501    0  0.00000000000E+00  0.00000000000E+00 -0.17919146360E+04  0.17919146360E+04  0.50400001928E-02 0.  1.
    10030    2    1    2    0    0  0.00000000000E+00  0.00000000000E+00 -0.36183184377E+03  0.32219974283E+04  0.32016160208E+04 0.  0.
        5    1    3    3  502    0  0.70283592057E+03  0.14049000367E+04  0.12900844913E+03  0.15761940599E+04  0.46999998093E+01 0.  1.
       -5    1    3    3    0  502 -0.70283592057E+03 -0.14049000367E+04 -0.49084029289E+03  0.16458033684E+04  0.46999998093E+01 0. -1.
</event>
<event>
 5   0  0.9353994E-08  0.3200290E+04  0.7818609E-02  0.8188741E-01
       -2   -1    0    0    0  501  0.00000000000E+00  0.00000000000E+00  0.17783364132E+04  0.17783364132E+04  0.25500000920E-02 0.  1.
        2   -1    0    0  501    0  0.00000000000E+00  0.00000000000E+00 -0.14398084138E+04  0.14398084138E+04  0.25500000920E-02 0. -1.
    10030    2    1    2    0    0  0.00000000000E+00  0.00000000000E+00  0.33852799938E+03  0.32181448270E+04  0.32002898183E+04 0.  0.
        2    1    3    3  502    0 -0.82663259107E+03  0.11238590426E+04 -0.61874261425E+03  0.15261792198E+04  0.25500000920E-02 0. -1.
       -2    1    3    3    0  502  0.82663259107E+03 -0.11238590426E+04  0.95727061363E+03  0.16919656072E+04  0.25500000920E-02 0.  1.
</event>
<event>
 5   0  0.3343140E-08  0.3199460E+04  0.7818609E-02  0.8188960E-01
       -1   -1    0    0    0  501  0.00000000000E+00  0.00000000000E+00  0.17709126594E+04  0.17709126594E+04  0.50400001928E-02 0. -1.
        1   -1    0    0  501    0  0.00000000000E+00  0.00000000000E+00 -0.14450941840E+04  0.14450941840E+04  0.50400001928E-02 0.  1.
    10030    2    1    2    0    0  0.00000000000E+00  0.00000000000E+00  0.32581847535E+03  0.32160068434E+04  0.31994596947E+04 0.  0.
        1    1    3    3  502    0 -0.11109955580E+04  0.11408133458E+04  0.31657027926E+03  0.16235710522E+04  0.50400001928E-02 0.  1.
       -1    1    3    3    0  502  0.11109955580E+04 -0.11408133458E+04  0.92481960868E+01  0.15924357912E+04  0.50400001928E-02 0. -1.
</event>
<event>
 5   0  0.3427667E-08  0.3202827E+04  0.7818609E-02  0.8188071E-01
       -1   -1    0    0    0  501  0.00000000000E+00  0.00000000000E+00  0.11623004181E+04  0.11623004181E+04  0.50400001928E-02 0. -1.
        1   -1    0    0  501    0  0.00000000000E+00  0.00000000000E+00 -0.22064225987E+04  0.22064225987E+04  0.50400001928E-02 0.  1.
    10030    2    1    2    0    0  0.00000000000E+00  0.00000000000E+00 -0.10441221806E+04  0.33687230167E+04  0.32028274439E+04 0.  0.
        2    1    3    3  502    0  0.33254123037E+03 -0.15024879932E+04 -0.55850459595E+02  0.15398613943E+04  0.25500000920E-02 0. -1.
       -2    1    3    3    0  502 -0.33254123037E+03  0.15024879932E+04 -0.98827172099E+03  0.18288616225E+04  0.25500000920E-02 0.  1.
</event>
<event>
 5   0  0.9157524E-08  0.3199437E+04  0.7818609E-02  0.8188966E-01
       -2   -1    0    0    0  501  0.00000000000E+00  0.00000000000E+00  0.13957473344E+04  0.13957473344E+04  0.25500000920E-02 0.  1.
        2   -1    0    0  501    0  0.00000000000E+00  0.00000000000E+00 -0.18334969607E+04  0.18334969607E+04  0.25500000920E-02 0. -1.
    10030    2    1    2    0    0  0.00000000000E+00  0.00000000000E+00 -0.43774962630E+03  0.32292442951E+04  0.31994365101E+04 0.  0.
        5    1    3    3  502    0  0.11291022333E+04 -0.89940194475E+03 -0.91470375953E+03  0.17089472693E+04  0.46999998093E+01 0. -1.
       -5    1    3    3    0  502 -0.11291022333E+04  0.89940194475E+03  0.47695413324E+03  0.15202970258E+04  0.46999998093E+01 0.  1.
</event>
<event>
 5   0  0.9727083E-08  0.3194968E+04  0.7818609E-02  0.8190147E-01
        2   -1    0    0  501    0  0.00000000000E+00  0.00000000000E+00  0.15697395821E+04  0.15697395821E+04  0.25500000920E-02 0. -1.
       -2   -1    0    0    0  501  0.00000000000E+00  0.00000000000E+00 -0.16257183583E+04  0.16257183583E+04  0.25500000920E-02 0.  1.
    10030    2    1    2    0    0  0.00000000000E+00  0.00000000000E+00 -0.55978776284E+02  0.31954579404E+04  0.31949675781E+04 0.  0.
        4    1    3    3  502    0  0.11620258852E+04  0.60537685062E+03  0.88602589413E+03  0.15817170376E+04  0.12699999809E+01 0. -1.
       -4    1    3    3    0  502 -0.11620258852E+04 -0.60537685062E+03 -0.94200467042E+03  0.16137409027E+04  0.12699999809E+01 0.  1.
</event>
<event>
 5   0  0.3427667E-08  0.3200904E+04  0.7818609E-02  0.8188579E-01
        1   -1    0    0  501    0  0.00000000000E+00  0.00000000000E+00  0.20260624760E+04  0.20260624760E+04  0.50400001928E-02 0.  1.
       -1   -1    0    0    0  501  0.00000000000E+00  0.00000000000E+00 -0.12642483625E+04  0.12642483625E+04  0.50400001928E-02 0. -1.
    10030    2    1    2    0    0  0.00000000000E+00  0.00000000000E+00  0.76181411355E+03  0.32903108385E+04  0.32009037272E+04 0.  0.
        2    1    3    3  502    0 -0.60759422645E+03  0.12998206933E+04  0.11097546477E+04  0.18139073727E+04  0.25500000920E-02 0.  1.
       -2    1    3    3    0  502  0.60759422645E+03 -0.12998206933E+04 -0.34794053412E+03  0.14764034658E+04  0.25500000920E-02 0. -1.
</event>
<event>
 5   0  0.3270966E-08  0.3198633E+04  0.7818609E-02  0.8189178E-01
       -1   -1    0    0    0  501  0.00000000000E+00  0.00000000000E+00  0.15435981124E+04  0.15435981124E+04  0.50400001928E-02 0. -1.
        1   -1    0    0  501    0  0.00000000000E+00  0.00000000000E+00 -0.16570464775E+04  0.16570464775E+04  0.50400001928E-02 0.  1.
    10030    2    1    2    0    0  0.00000000000E+00  0.00000000000E+00 -0.11344836508E+03  0.32006445900E+04  0.31986333425E+04 0.  0.
        3    1    3    3  502    0 -0.25505609873E+03 -0.14704212681E+03  0.15162498806E+04  0.15445674835E+04  0.10100000352E+00 0. -1.
       -3    1    3    3    0  502  0.25505609873E+03  0.14704212681E+03 -0.16296982456E+04  0.16560771065E+04  0.10100000352E+00 0.  1.
</event>
<event>
 5   0  0.3427667E-08  0.3198371E+04  0.7818609E-02  0.8189248E-01
        1   -1    0    0  501    0  0.00000000000E+00  0.00000000000E+00  0.20221857107E+04  0.20221857107E+04  0.50400001928E-02 0.  1.
       -1   -1    0    0    0  501  0.00000000000E+00  0.00000000000E+00 -0.12646679803E+04  0.12646679803E+04  0.50400001928E-02 0. -1.
    10030    2    1    2    0    0  0.00000000000E+00  0.00000000000E+00  0.75751773041E+03  0.32868536910E+04  0.31983705342E+04 0.  0.
        2    1    3    3  502    0 -0.15948159042E+04  0.11780123308E+03  0.36964679799E+03  0.16413267969E+04  0.25500000920E-02 0. -1.
       -2    1    3    3    0  502  0.15948159042E+04 -0.11780123308E+03  0.38787093242E+03  0.16455268941E+04  0.25500000920E-02 0.  1.
</event>
<event>
 5   0  0.9707721E-08  0.3200099E+04  0.7818609E-02  0.8188791E-01
       -2   -1    0    0    0  501  0.00000000000E+00  0.00000000000E+00  0.10174473885E+04  0.10174473885E+04  0.25500000920E-02 0.  1.
        2   -1    0    0  501    0  0.00000000000E+00  0.00000000000E+00 -0.25162558641E+04  0.25162558641E+04  0.25500000920E-02 0. -1.
    10030    2    1    2    0    0  0.00000000000E+00  0.00000000000E+00 -0.14988084756E+04  0.35337032526E+04  0.32000987221E+04 0.  0.
        3    1    3    3  502    0 -0.55176097800E+03 -0.13745033725E+04 -0.14178696661E+04  0.20503790133E+04  0.10100000352E+00 0. -1.
       -3    1    3    3    0  502  0.55176097800E+03  0.13745033725E+04 -0.80938809490E+02  0.14833242393E+04  0.10100000352E+00 0.  1.
</event>
<event>
 5   0  0.3080500E-08  0.3219570E+04  0.7818609E-02  0.8183668E-01
        3   -1    0    0  501    0  0.00000000000E+00  0.00000000000E+00  0.20383630430E+04  0.20383630455E+04  0.10100000352E+00 0.  1.
       -3   -1    0    0    0  501  0.00000000000E+00  0.00000000000E+00 -0.12713182891E+04  0.12713182931E+04  0.10100000352E+00 0. -1.
    10030    2    1    2    0    0  0.00000000000E+00  0.00000000000E+00  0.76704475389E+03  0.33096813386E+04  0.32195702988E+04 0.  0.
        4    1    3    3  502    0  0.10603480366E+04  0.10074218307E+04  0.10747786706E+04  0.18150447673E+04  0.12699999809E+01 0.  1.
       -4    1    3    3    0  502 -0.10603480366E+04 -0.10074218307E+04 -0.30773391673E+03  0.14946365713E+04  0.12699999809E+01 0. -1.
</event>
<event>
 5   0  0.3220147E-08  0.3206535E+04  0.7818609E-02  0.8187093E-01
        1   -1    0    0  501    0  0.00000000000E+00  0.00000000000E+00  0.10934285815E+04  0.10934285815E+04  0.50400001928E-02 0.  1.
       -1   -1    0    0    0  501  0.00000000000E+00  0.00000000000E+00 -0.23508322479E+04  0.23508322480E+04  0.50400001928E-02 0. -1.
    10030    2    1    2    0    0  0.00000000000E+00  0.00000000000E+00 -0.12574036664E+04  0.34442608295E+04  0.32065353080E+04 0.  0.
        4    1    3    3  502    0 -0.57529642417E+03 -0.13171734482E+04 -0.13916827910E+04  0.20006735046E+04  0.12699999809E+01 0. -1.
       -4    1    3    3    0  502  0.57529642417E+03  0.13171734482E+04  0.13427912455E+03  0.14435873249E+04  0.12699999809E+01 0.  1.
</event>
<event>
 5   0  0.3270966E-08  0.3181296E+04  0.7818609E-02  0.8193774E-01
        1   -1    0    0  501    0  0.00000000000E+00  0.00000000000E+00  0.31551541692E+04  0.31551541692E+04  0.50400001928E-02 0.  1.
       -1   -1    0    0    0  501  0.00000000000E+00  0.00000000000E+00 -0.80191355795E+03  0.80191355796E+03  0.50400001928E-02 0. -1.
    10030    2    1    2    0    0  0.00000000000E+00  0.00000000000E+00  0.23532406112E+04  0.39570677271E+04  0.31812959031E+04 0.  0.
        3    1    3    3  502    0  0.88663380638E+03  0.51811367436E+03  0.26875827959E+04  0.28770927307E+04  0.10100000352E+00 0.  1.
       -3    1    3    3    0  502 -0.88663380638E+03 -0.51811367436E+03 -0.33434218469E+03  0.10799749964E+04  0.10100000352E+00 0. -1.
</event>
<event>
 5   0  0.9329929E-08  0.3200008E+04  0.7818609E-02  0.8188815E-01
       -2   -1    0    0    0  501  0.00000000000E+00  0.00000000000E+00  0.18582207582E+04  0.18582207582E+04  0.25500000920E-02 0.  1.
        2   -1    0    0  501    0  0.00000000000E+00  0.00000000000E+00 -0.13776688332E+04  0.13776688332E+04  0.25500000920E-02 0. -1.
    10030    2    1    2    0    0  0.00000000000E+00  0.00000000000E+00  0.48055192499E+03  0.32358895915E+04  0.32000080149E+04 0.  0.
        1    1    3    3  502    0  0.11899649307E+04  0.79172693356E+03  0.96748134875E+03  0.17259398117E+04  0.50400001928E-02 0.  1.
       -1    1    3    3    0  502 -0.11899649307E+04 -0.79172693356E+03 -0.48692942376E+03  0.15099497797E+04  0.50400001928E-02 0. -1.
</event>
<event>
 5   0  0.3343140E-08  0.3199400E+04  0.7818609E-02  0.8188976E-01
       -1   -1    0    0    0  501  0.00000000000E+00  0.00000000000E+00  0.13124874073E+04  0.13124874073E+04  0.50400001928E-02 0. -1.
        1   -1    0    0  501    0  0.00000000000E+00  0.00000000000E+00 -0.19497640210E+04  0.19497640210E+04  0.50400001928E-02 0.  1.
    10030    2    1    2    0    0  0.00000000000E+00  0.00000000000E+00 -0.63727661363E+03  0.32622514283E+04  0.31994003968E+04 0.  0.
        1    1    3    3  502    0  0.76640537689E+03 -0.12099502394E+04 -0.10451549184E+04  0.17730497982E+04  0.50400001928E-02 0.  1.
       -1    1    3    3    0  502 -0.76640537689E+03  0.12099502394E+04  0.40787830474E+03  0.14892016301E+04  0.50400001928E-02 0. -1.
</event>
<event>
 5   0  0.9707721E-08  0.3199640E+04  0.7818609E-02  0.8188912E-01
       -2   -1    0    0    0  501  0.00000000000E+00  0.00000000000E+00  0.15589870437E+04  0.15589870437E+04  0.25500000920E-02 0.  1.
        2   -1    0    0  501    0  0.00000000000E+00  0.00000000000E+00 -0.16417221719E+04  0.16417221719E+04  0.25500000920E-02 0. -1.
    10030    2    1    2    0    0  0.00000000000E+00  0.00000000000E+00 -0.82735128168E+02  0.32007092156E+04  0.31996397268E+04 0.  0.
        3    1    3    3  502    0 -0.15738168362E+04  0.19250383855E+03  0.17193227914E+03  0.15948410204E+04  0.10100000352E+00 0.  1.
       -3    1    3    3    0  502  0.15738168362E+04 -0.19250383855E+03 -0.25466740730E+03  0.16058681952E+04  0.10100000352E+00 0. -1.
</event>
<event>
 5   0  0.9707721E-08  0.3203696E+04  0.7818609E-02  0.8187842E-01
        2   -1    0    0  501    0  0.00000000000E+00  0.00000000000E+00  0.23290797918E+04  0.23290797918E+04  0.25500000920E-02 0.  1.
       -2   -1    0    0    0  501  0.00000000000E+00  0.00000000000E+00 -0.11016869100E+04  0.11016869100E+04  0.25500000920E-02 0. -1.
    10030    2    1    2    0    0  0.00000000000E+00  0.00000000000E+00  0.12273928818E+04  0.34307667018E+04  0.32036958152E+04 0.  0.
        3    1    3    3  502    0  0.11485537434E+04  0.32368522851E+03  0.17580679765E+04  0.21247943074E+04  0.10100000352E+00 0.  1.
       -3    1    3    3    0  502 -0.11485537434E+04 -0.32368522851E+03 -0.53067509469E+03  0.13059723944E+04  0.10100000352E+00 0. -1.
</event>
<event>
 5   0  0.9727083E-08  0.3201505E+04  0.7818609E-02  0.8188420E-01
        2   -1    0    0  501    0  0.00000000000E+00  0.00000000000E+00  0.18668757686E+04  0.18668757686E+04  0.25500000920E-02 0. -1.
       -2   -1    0    0    0  501  0.00000000000E+00  0.00000000000E+00 -0.13725649648E+04  0.13725649648E+04  0.25500000920E-02 0.  1.
    10030    2    1    2    0    0  0.00000000000E+00  0.00000000000E+00  0.49431080385E+03  0.32394407334E+04  0.32015048172E+04 0.  0.
        4    1    3    3  502    0 -0.11108707139E+04 -0.11211092385E+04 -0.23383295392E+02  0.15784384875E+04  0.12699999809E+01 0.  1.
       -4    1    3    3    0  502  0.11108707139E+04  0.11211092385E+04  0.51769409924E+03  0.16610022459E+04  0.12699999809E+01 0. -1.
</event>
<event>
 5   0  0.3270966E-08  0.3200202E+04  0.7818609E-02  0.8188764E-01
       -1   -1    0    0    0  501  0.00000000000E+00  0.00000000000E+00  0.24233694464E+04  0.24233694464E+04  0.50400001928E-02 0.  1.
        1   -1    0    0  501    0  0.00000000000E+00  0.00000000000E+00 -0.10565140492E+04  0.10565140492E+04  0.50400001928E-02 0. -1.
    10030    2    1    2    0    0  0.00000000000E+00  0.00000000000E+00  0.13668553972E+04  0.34798834956E+04  0.32002024102E+04 0.  0.
        3    1    3    3  502    0 -0.15724659535E+04  0.26106588542E+01  0.36146358046E+03  0.16134782058E+04  0.10100000352E+00 0.  1.
       -3    1    3    3    0  502  0.15724659535E+04 -0.26106588542E+01  0.10053918167E+04  0.18664052898E+04  0.10100000352E+00 0. -1.
</event>
<event>
 5   0  0.9727083E-08  0.3198955E+04  0.7818609E-02  0.8189093E-01
        2   -1    0    0  501    0  0.00000000000E+00  0.00000000000E+00  0.17085782908E+04  0.17085782908E+04  0.25500000920E-02 0.  1.
       -2   -1    0    0    0  501  0.00000000000E+00  0.00000000000E+00 -0.14973436722E+04  0.14973436722E+04  0.25500000920E-02 0. -1.
    10030    2    1    2    0    0  0.00000000000E+00  0.00000000000E+00  0.21123461865E+03  0.32059219630E+04  0.31989553871E+04 0.  0.
        4    1    3    3  502    0 -0.15385450678E+04 -0.33553712770E+03  0.38662264662E+03  0.16214761094E+04  0.12699999809E+01 0.  1.
       -4    1    3    3    0  502  0.15385450678E+04  0.33553712770E+03 -0.17538802797E+03  0.15844458536E+04  0.12699999809E+01 0. -1.
</event>
<event>
 5   0  0.3283581E-08  0.3199320E+04  0.7818609E-02  0.8188997E-01
        1   -1    0    0  501    0  0.00000000000E+00  0.00000000000E+00  0.21268058400E+04  0.21268058401E+04  0.50400001928E-02 0. -1.
       -1   -1    0    0    0  501  0.00000000000E+00  0.00000000000E+00 -0.12031714163E+04  0.12031714164E+04  0.50400001928E-02 0.  1.
    10030    2    1    2    0    0  0.00000000000E+00  0.00000000000E+00  0.92363442370E+03  0.33299772564E+04  0.31993199245E+04 0.  0.
        5    1    3    3  502    0  0.28196931713E+03  0.11405610677E+04  0.15917407725E+04  0.19783950621E+04  0.46999998093E+01 0. -1.
       -5    1    3    3    0  502 -0.28196931713E+03 -0.11405610677E+04 -0.66810634876E+03  0.13515821944E+04  0.46999998093E+01 0.  1.
</event>
<event>
 5   0  0.9329929E-08  0.3198725E+04  0.7818609E-02  0.8189154E-01
        2   -1    0    0  501    0  0.00000000000E+00  0.00000000000E+00  0.17710652280E+04  0.17710652280E+04  0.25500000920E-02 0. -1.
       -2   -1    0    0    0  501  0.00000000000E+00  0.00000000000E+00 -0.14443060017E+04  0.14443060017E+04  0.25500000920E-02 0.  1.
    10030    2    1    2    0    0  0.00000000000E+00  0.00000000000E+00  0.32675922634E+03  0.32153712297E+04  0.31987248323E+04 0.  0.
        1    1    3    3  502    0 -0.13393086753E+04  0.36441984548E+03  0.96212832223E+03  0.16888577382E+04  0.50400001928E-02 0. -1.
       -1    1    3    3    0  502  0.13393086753E+04 -0.36441984548E+03 -0.63536909589E+03  0.15265134914E+04  0.50400001928E-02 0.  1.
</event>
<event>
 5   0  0.3427667E-08  0.3199232E+04  0.7818609E-02  0.8189020E-01
        1   -1    0    0  501    0  0.00000000000E+00  0.00000000000E+00  0.14350155819E+04  0.14350155819E+04  0.50400001928E-02 0.  1.
       -1   -1    0    0    0  501  0.00000000000E+00  0.00000000000E+00 -0.17830964787E+04  0.17830964787E+04  0.50400001928E-02 0. -1.
    10030    2    1    2    0    0  0.00000000000E+00  0.00000000000E+00 -0.34808089685E+03  0.32181120606E+04  0.31992319272E+04 0.  0.
        2    1    3    3  502    0 -0.83395745555E+03 -0.10940326328E+04  0.64709730673E+03  0.15202392455E+04  0.25500000920E-02 0.  1.
       -2    1    3    3    0  502  0.83395745555E+03  0.10940326328E+04 -0.99517820358E+03  0.16978728151E+04  0.25500000920E-02 0. -1.
</event>
<event>
 5   0  0.9157524E-08  0.3199989E+04  0.7818609E-02  0.8188820E-01
       -2   -1    0    0    0  501  0.00000000000E+00  0.00000000000E+00  0.11294483621E+04  0.11294483621E+04  0.25500000920E-02 0. -1.
        2   -1    0    0  501    0  0.00000000000E+00  0.00000000000E+00 -0.22665771295E+04  0.22665771295E+04  0.25500000920E-02 0.  1.
    10030    2    1    2    0    0  0.00000000000E+00  0.00000000000E+00 -0.11371287675E+04  0.33960254916E+04  0.31999886415E+04 0.  0.
        5    1    3    3  502    0 -0.35297161774E+03 -0.88294970444E+03  0.79703272089E+03  0.12407547669E+04  0.46999998093E+01 0. -1.
       -5    1    3    3    0  502  0.35297161774E+03  0.88294970444E+03 -0.19341614883E+04  0.21552707246E+04  0.46999998093E+01 0.  1.
</event>
<event>
 5   0  0.3270966E-08  0.3201873E+04  0.7818609E-02  0.8188323E-01
       -1   -1    0    0    0  501  0.00000000000E+00  0.00000000000E+00  0.83945007663E+03  0.83945007665E+03  0.50400001928E-02 0.  1.
        1   -1    0    0  501    0  0.00000000000E+00  0.00000000000E+00 -0.30531869493E+04  0.30531869493E+04  0.50400001928E-02 0. -1.
    10030    2    1    2    0    0  0.00000000000E+00  0.00000000000E+00 -0.22137368727E+04  0.38926370259E+04  0.32018732134E+04 0.  0.
        3    1    3    3  502    0  0.14166328882E+04 -0.29927459920E+03 -0.19373016128E+04  0.24185846222E+04  0.10100000352E+00 0. -1.
       -3    1    3    3    0  502 -0.14166328882E+04  0.29927459920E+03 -0.27643525987E+03  0.14740524037E+04  0.10100000352E+00 0.  1.
</event>
<event>
 5   0  0.3270966E-08  0.3199608E+04  0.7818609E-02  0.8188921E-01
        1   -1    0    0  501    0  0.00000000000E+00  0.00000000000E+00  0.22430739752E+04  0.22430739752E+04  0.50400001928E-02 0. -1.
       -1   -1    0    0    0  501  0.00000000000E+00  0.00000000000E+00 -0.11410110498E+04  0.11410110498E+04  0.50400001928E-02 0.  1.
    10030    2    1    2    0    0  0.00000000000E+00  0.00000000000E+00  0.11020629254E+04  0.33840850251E+04  0.31996075955E+04 0.  0.
        3    1    3    3  502    0  0.15152634655E+04 -0.48270957714E+03  0.73525889803E+03  0.17520381169E+04  0.10100000352E+00 0. -1.
       -3    1    3    3    0  502 -0.15152634655E+04  0.48270957714E+03  0.36680402739E+03  0.16320469082E+04  0.10100000352E+00 0.  1.
</event>
<event>
 5   0  0.3270966E-08  0.3200391E+04  0.7818609E-02  0.8188714E-01
        1   -1    0    0  501    0  0.00000000000E+00  0.00000000000E+00  0.17600487760E+04  0.17600487761E+04  0.50400001928E-02 0.  1.
       -1   -1    0    0    0  501  0.00000000000E+00  0.00000000000E+00 -0.14548606941E+04  0.14548606941E+04  0.50400001928E-02 0. -1.
    10030    2    1    2    0    0  0.00000000000E+00  0.00000000000E+00  0.30518808198E+03  0.32149094701E+04  0.32003910911E+04 0.  0.
        3    1    3    3  502    0 -0.10126935663E+04 -0.49296404914E+03 -0.98925239755E+03  0.14990604155E+04  0.10100000352E+00 0. -1.
       -3    1    3    3    0  502  0.10126935663E+04  0.49296404914E+03  0.12944404795E+04  0.17158490546E+04  0.10100000352E+00 0.  1.
</event>
<event>
 5   0  0.3427667E-08  0.3206899E+04  0.7818609E-02  0.8186998E-01
        1   -1    0    0  501    0  0.00000000000E+00  0.00000000000E+00  0.15312332264E+04  0.15312332264E+04  0.50400001928E-02 0.  1.
       -1   -1    0    0    0  501  0.00000000000E+00  0.00000000000E+00 -0.16790712825E+04  0.16790712825E+04  0.50400001928E-02 0. -1.
    10030    2    1    2    0    0  0.00000000000E+00  0.00000000000E+00 -0.14783805608E+03  0.32103045088E+04  0.32068986496E+04 0.  0.
        2    1    3    3  502    0  0.36201217357E+03  0.10158098854E+04  0.11139865941E+04  0.15504478930E+04  0.25500000920E-02 0.  1.
       -2    1    3    3    0  502 -0.36201217357E+03 -0.10158098854E+04 -0.12618246502E+04  0.16598566158E+04  0.25500000920E-02 0. -1.
</event>
<event>
 5   0  0.3283581E-08  0.3198975E+04  0.7818609E-02  0.8189088E-01
        1   -1    0    0  501    0  0.00000000000E+00  0.00000000000E+00  0.15806415844E+04  0.15806415844E+04  0.50400001928E-02 0. -1.
       -1   -1    0    0    0  501  0.00000000000E+00  0.00000000000E+00 -0.16185584578E+04  0.16185584578E+04  0.50400001928E-02 0.  1.
    10030    2    1    2    0    0  0.00000000000E+00  0.00000000000E+00 -0.37916873344E+02  0.31992000422E+04  0.31989753392E+04 0.  0.
        5    1    3    3  502    0 -0.31258574744E+03  0.75546706383E+03  0.13558738774E+04  0.15833055281E+04  0.46999998093E+01 0. -1.
       -5    1    3    3    0  502  0.31258574744E+03 -0.75546706383E+03 -0.13937907507E+04  0.16158945141E+04  0.46999998093E+01 0.  1.
</event>
<event>
 5   0  0.9157524E-08  0.3200948E+04  0.7818609E-02  0.8188567E-01
       -2   -1    0    0    0  501  0.00000000000E+00  0.00000000000E+00  0.10077950374E+04  0.10077950374E+04  0.25500000920E-02 0. -1.
        2   -1    0    0  501    0  0.00000000000E+00  0.00000000000E+00 -0.25417037019E+04  0.25417037019E+04  0.25500000920E-02 0.  1.
    10030    2    1    2    0    0  0.00000000000E+00  0.00000000000E+00 -0.15339086645E+04  0.35494987393E+04  0.32009475955E+04 0.  0.
        5    1    3    3  502    0  0.15874042798E+02  0.15921186091E+04 -0.58677886303E+03  0.16968869069E+04  0.46999998093E+01 0. -1.
       -5    1    3    3    0  502 -0.15874042798E+02 -0.15921186091E+04 -0.94712980145E+03  0.18526118324E+04  0.46999998093E+01 0.  1.
</event>
<event>
 5   0  0.3080500E-08  0.3196294E+04  0.7818609E-02  0.8189797E-01
       -3   -1    0    0    0  501  0.00000000000E+00  0.00000000000E+00  0.12765364084E+04  0.12765364124E+04  0.10100000352E+00 0. -1.
        3   -1    0    0  501    0  0.00000000000E+00  0.00000000000E+00 -0.20007844728E+04  0.20007844754E+04  0.10100000352E+00 0.  1.
    10030    2    1    2    0    0  0.00000000000E+00  0.00000000000E+00 -0.72424806443E+03  0.32773208878E+04  0.31962942516E+04 0.  0.
        4    1    3    3  502    0  0.11462347320E+04 -0.74634557727E+03 -0.12096284264E+04  0.18259486095E+04  0.12699999809E+01 0.  1.
       -4    1    3    3    0  502 -0.11462347320E+04  0.74634557727E+03  0.48538036200E+03  0.14513722783E+04  0.12699999809E+01 0. -1.
</event>
<event>
 5   0  0.9329929E-08  0.3200748E+04  0.7818609E-02  0.8188620E-01
        2   -1    0    0  501    0  0.00000000000E+00  0.00000000000E+00  0.15183780204E+04  0.15183780204E+04  0.25500000920E-02 0.  1.
       -2   -1    0    0    0  501  0.00000000000E+00  0.00000000000E+00 -0.16867978745E+04  0.16867978745E+04  0.25500000920E-02 0. -1.
    10030    2    1    2    0    0  0.00000000000E+00  0.00000000000E+00 -0.16841985404E+03  0.32051758949E+04  0.32007479235E+04 0.  0.
        1    1    3    3  502    0 -0.12732373974E+04  0.84822877949E+03 -0.55450982243E+03  0.16273004257E+04  0.50400001928E-02 0.  1.
       -1    1    3    3    0  502  0.12732373974E+04 -0.84822877949E+03  0.38608996839E+03  0.15778754691E+04  0.50400001928E-02 0. -1.
</event>
<event>
 5   0  0.3343140E-08  0.3199838E+04  0.7818609E-02  0.8188860E-01
        1   -1    0    0  501    0  0.00000000000E+00  0.00000000000E+00  0.83817214704E+03  0.83817214705E+03  0.50400001928E-02 0.  1.
       -1   -1    0    0    0  501  0.00000000000E+00  0.00000000000E+00 -0.30539558334E+04  0.30539558334E+04  0.50400001928E-02 0. -1.
    10030    2    1    2    0    0  0.00000000000E+00  0.00000000000E+00 -0.22157836864E+04  0.38921279805E+04  0.31998379446E+04 0.  0.
        1    1    3    3  502    0  0.36743026866E+03 -0.14976018255E+04 -0.58908617945E+03  0.16507085621E+04  0.50400001928E-02 0.  1.
       -1    1    3    3    0  502 -0.36743026866E+03  0.14976018255E+04 -0.16266975069E+04  0.22414194184E+04  0.50400001928E-02 0. -1.
</event>
<event>
 5   0  0.9727083E-08  0.3199874E+04  0.7818609E-02  0.8188850E-01
       -2   -1    0    0    0  501  0.00000000000E+00  0.00000000000E+00  0.17759517402E+04  0.17759517402E+04  0.25500000920E-02 0.  1.
        2   -1    0    0  501    0  0.00000000000E+00  0.00000000000E+00 -0.14413671855E+04  0.14413671855E+04  0.25500000920E-02 0. -1.
    10030    2    1    2    0    0  0.00000000000E+00  0.00000000000E+00  0.33458455470E+03  0.32173189258E+04  0.31998740985E+04 0.  0.
        4    1    3    3  502    0  0.11926840001E+04  0.88511139647E+03 -0.43082866839E+03  0.15464579731E+04  0.12699999809E+01 0. -1.
       -4    1    3    3    0  502 -0.11926840001E+04 -0.88511139647E+03  0.76541322309E+03  0.16708609527E+04  0.12699999809E+01 0.  1.
</event>
<event>
 5   0  0.9707721E-08  0.3201546E+04  0.7818609E-02  0.8188409E-01
        2   -1    0    0  501    0  0.00000000000E+00  0.00000000000E+00  0.26325539660E+04  0.26325539660E+04  0.25500000920E-02 0. -1.
       -2   -1    0    0    0  501  0.00000000000E+00  0.00000000000E+00 -0.97337953987E+03  0.97337953988E+03  0.25500000920E-02 0.  1.
    10030    2    1    2    0    0  0.00000000000E+00  0.00000000000E+00  0.16591744261E+04  0.36059335059E+04  0.32015459816E+04 0.  0.
        3    1    3    3  502    0 -0.11454267268E+04  0.62354067613E+03  0.18750971225E+04  0.22840303391E+04  0.10100000352E+00 0. -1.
       -3    1    3    3    0  502  0.11454267268E+04 -0.62354067613E+03 -0.21592269633E+03  0.13219031667E+04  0.10100000352E+00 0.  1.
</event>
<event>
 5   0  0.3270966E-08  0.3200043E+04  0.7818609E-02  0.8188806E-01
       -1   -1    0    0    0  501  0.00000000000E+00  0.00000000000E+00  0.20727015467E+04  0.20727015467E+04  0.50400001928E-02 0. -1.
        1   -1    0    0  501    0  0.00000000000E+00  0.00000000000E+00 -0.12351364289E+04  0.12351364289E+04  0.50400001928E-02 0.  1.
    10030    2    1    2    0    0  0.00000000000E+00  0.00000000000E+00  0.83756511776E+03  0.33078379756E+04  0.32000432413E+04 0.  0.
        3    1    3    3  502    0  0.71505905613E+03  0.13306743949E+04 -0.12629944080E+03  0.15159008404E+04  0.10100000352E+00 0.  1.
       -3    1    3    3    0  502 -0.71505905613E+03 -0.13306743949E+04  0.96386455857E+03  0.17919371352E+04  0.10100000352E+00 0. -1.
</event>
<event>
 5   0  0.3283581E-08  0.3196093E+04  0.7818609E-02  0.8189850E-01
       -1   -1    0    0    0  501  0.00000000000E+00  0.00000000000E+00  0.11630770458E+04  0.11630770458E+04  0.50400001928E-02 0.  1.
        1   -1    0    0  501    0  0.00000000000E+00  0.00000000000E+00 -0.21956859565E+04  0.21956859565E+04  0.50400001928E-02 0. -1.
    10030    2    1    2    0    0  0.00000000000E+00  0.00000000000E+00 -0.10326089107E+04  0.33587630023E+04  0.31960925743E+04 0.  0.
        5    1    3    3  502    0 -0.53611438195E+03 -0.26777114405E+02 -0.20981026401E+04  0.21656852086E+04  0.46999998093E+01 0. -1.
       -5    1    3    3    0  502  0.53611438195E+03  0.26777114405E+02  0.10654937294E+04  0.11930777937E+04  0.46999998093E+01 0.  1.
</event>
<event>
 5   0  0.3220147E-08  0.3199657E+04  0.7818609E-02  0.8188908E-01
       -1   -1    0    0    0  501  0.00000000000E+00  0.00000000000E+00  0.18446400520E+04  0.18446400521E+04  0.50400001928E-02 0.  1.
        1   -1    0    0  501    0  0.00000000000E+00  0.00000000000E+00 -0.13875072375E+04  0.13875072376E+04  0.50400001928E-02 0. -1.
    10030    2    1    2    0    0  0.00000000000E+00  0.00000000000E+00  0.45713281450E+03  0.32321472896E+04  0.31996571210E+04 0.  0.
        4    1    3    3  502    0 -0.85844853075E+03  0.11808927971E+04  0.88943286886E+03  0.17095420788E+04  0.12699999809E+01 0.  1.
       -4    1    3    3    0  502  0.85844853075E+03 -0.11808927971E+04 -0.43230005436E+03  0.15226052108E+04  0.12699999809E+01 0. -1.
</event>
<event>
 5   0  0.9157524E-08  0.3200142E+04  0.7818609E-02  0.8188780E-01
        2   -1    0    0  501    0  0.00000000000E+00  0.00000000000E+00  0.19804048019E+04  0.19804048019E+04  0.25500000920E-02 0.  1.
       -2   -1    0    0    0  501  0.00000000000E+00  0.00000000000E+00 -0.12927799224E+04  0.12927799224E+04  0.25500000920E-02 0. -1.
    10030    2    1    2    0    0  0.00000000000E+00  0.00000000000E+00  0.68762487949E+03  0.32731847243E+04  0.32001422257E+04 0.  0.
        5    1    3    3  502    0 -0.35034402781E+03 -0.12548097722E+03  0.19355194006E+04  0.19709753559E+04  0.46999998093E+01 0.  1.
       -5    1    3    3    0  502  0.35034402781E+03  0.12548097722E+03 -0.12478945211E+04  0.13022093684E+04  0.46999998093E+01 0. -1.
</event>
<event>
 5   0  0.9353994E-08  0.3200149E+04  0.7818609E-02  0.8188778E-01
       -2   -1    0    0    0  501  0.00000000000E+00  0.00000000000E+00  0.16013298003E+04  0.16013298003E+04  0.25500000920E-02 0. -1.
        2   -1    0    0  501    0  0.00000000000E+00  0.00000000000E+00 -0.15988202948E+04  0.15988202948E+04  0.25500000920E-02 0.  1.
    10030    2    1    2    0    0  0.00000000000E+00  0.00000000000E+00  0.25095054783E+01  0.32001500951E+04  0.32001491111E+04 0.  0.
        2    1    3    3  502    0 -0.32137535957E+02 -0.58745147351E+03 -0.14867331134E+04  0.15989081917E+04  0.25500000920E-02 0.  1.
       -2    1    3    3    0  502  0.32137535957E+02  0.58745147351E+03  0.14892426189E+04  0.16012419033E+04  0.25500000920E-02 0. -1.
</event>
<event>
 5   0  0.9707721E-08  0.3197957E+04  0.7818609E-02  0.8189357E-01
        2   -1    0    0  501    0  0.00000000000E+00  0.00000000000E+00  0.19887681476E+04  0.19887681476E+04  0.25500000920E-02 0. -1.
       -2   -1    0    0    0  501  0.00000000000E+00  0.00000000000E+00 -0.12855862655E+04  0.12855862655E+04  0.25500000920E-02 0.  1.
    10030    2    1    2    0    0  0.00000000000E+00  0.00000000000E+00  0.70318188207E+03  0.32743544131E+04  0.31979574830E+04 0.  0.
        3    1    3    3  502    0  0.89962215831E+03 -0.87530042012E+03 -0.66266024427E+03  0.14193623437E+04  0.10100000352E+00 0.  1.
       -3    1    3    3    0  502 -0.89962215831E+03  0.87530042012E+03  0.13658421263E+04  0.18549920694E+04  0.10100000352E+00 0. -1.
</event>
<event>
 5   0  0.9353994E-08  0.3200231E+04  0.7818609E-02  0.8188756E-01
       -2   -1    0    0    0  501  0.00000000000E+00  0.00000000000E+00  0.12408741156E+04  0.12408741156E+04  0.25500000920E-02 0.  1.
        2   -1    0    0  501    0  0.00000000000E+00  0.00000000000E+00 -0.20633597734E+04  0.20633597734E+04  0.25500000920E-02 0. -1.
    10030    2    1    2    0    0  0.00000000000E+00  0.00000000000E+00 -0.82248565785E+03  0.33042338890E+04  0.32002310753E+04 0.  0.
        2    1    3    3  502    0  0.11649089377E+03 -0.13695893004E+04  0.43453970772E+03  0.14415858412E+04  0.25500000920E-02 0.  1.
       -2    1    3    3    0  502 -0.11649089377E+03  0.13695893004E+04 -0.12570253656E+04  0.18626480477E+04  0.25500000920E-02 0. -1.
</event>
<event>
 5   0  0.9707721E-08  0.3199470E+04  0.7818609E-02  0.8188957E-01
       -2   -1    0    0    0  501  0.00000000000E+00  0.00000000000E+00  0.11343201335E+04  0.11343201335E+04  0.25500000920E-02 0.  1.
        2   -1    0    0  501    0  0.00000000000E+00  0.00000000000E+00 -0.22561108742E+04  0.22561108742E+04  0.25500000920E-02 0. -1.
    10030    2    1    2    0    0  0.00000000000E+00  0.00000000000E+00 -0.11217907408E+04  0.33904310077E+04  0.31994699486E+04 0.  0.
        3    1    3    3  502    0 -0.12316007481E+04  0.74139335667E+03  0.18288549665E+03  0.14491209843E+04  0.10100000352E+00 0.  1.
       -3    1    3    3    0  502  0.12316007481E+04 -0.74139335667E+03 -0.13046762374E+04  0.19413100234E+04  0.10100000352E+00 0. -1.
</event>
<event>
 5   0  0.9157524E-08  0.3199473E+04  0.7818609E-02  0.8188956E-01
       -2   -1    0    0    0  501  0.00000000000E+00  0.00000000000E+00  0.29224605338E+04  0.29224605338E+04  0.25500000920E-02 0. -1.
        2   -1    0    0  501    0  0.00000000000E+00  0.00000000000E+00 -0.87568577254E+03  0.87568577254E+03  0.25500000920E-02 0.  1.
    10030    2    1    2    0    0  0.00000000000E+00  0.00000000000E+00  0.20467747613E+04  0.37981463064E+04  0.31994731506E+04 0.  0.
        5    1    3    3  502    0  0.29430128594E+03 -0.14611669459E+04  0.33372199824E+03  0.15274208827E+04  0.46999998093E+01 0.  1.
       -5    1    3    3    0  502 -0.29430128594E+03  0.14611669459E+04  0.17130527631E+04  0.22707254237E+04  0.46999998093E+01 0. -1.
</event>
<event>
 5   0  0.9727083E-08  0.3200002E+04  0.7818609E-02  0.8188817E-01
        2   -1    0    0  501    0  0.00000000000E+00  0.00000000000E+00  0.21325500481E+04  0.21325500481E+04  0.25500000920E-02 0.  1.
       -2   -1    0    0    0  501  0.00000000000E+00  0.00000000000E+00 -0.12004420337E+04  0.12004420337E+04  0.25500000920E-02 0. -1.
    10030    2    1    2    0    0  0.00000000000E+00  0.00000000000E+00  0.93210801442E+03  0.33329920819E+04  0.32000016980E+04 0.  0.
        4    1    3    3  502    0  0.93765988111E+03  0.11450381599E+04  0.10993381529E+04  0.18436009404E+04  0.12699999809E+01 0.  1.
       -4    1    3    3    0  502 -0.93765988111E+03 -0.11450381599E+04 -0.16723013845E+03  0.14893911415E+04  0.12699999809E+01 0. -1.
</event>
<event>
 5   0  0.9727083E-08  0.3179797E+04  0.7818609E-02  0.8194173E-01
       -2   -1    0    0    0  501  0.00000000000E+00  0.00000000000E+00  0.12477797954E+04  0.12477797954E+04  0.25500000920E-02 0. -1.
        2   -1    0    0  501    0  0.00000000000E+00  0.00000000000E+00 -0.20258205002E+04  0.20258205002E+04  0.25500000920E-02 0.  1.
    10030    2    1    2    0    0  0.00000000000E+00  0.00000000000E+00 -0.77804070486E+03  0.32736002956E+04  0.31797974082E+04 0.  0.
        4    1    3    3  502    0 -0.10725263684E+04  0.11717831250E+04 -0.32082601715E+03  0.16205923143E+04  0.12699999809E+01 0.  1.
       -4    1    3    3    0  502  0.10725263684E+04 -0.11717831250E+04 -0.45721468771E+03  0.16530079814E+04  0.12699999809E+01 0. -1.
</event>
<event>
 5   0  0.3343140E-08  0.3199743E+04  0.7818609E-02  0.8188885E-01
       -1   -1    0    0    0  501  0.00000000000E+00  0.00000000000E+00  0.19682489343E+04  0.19682489343E+04  0.50400001928E-02 0.  1.
        1   -1    0    0  501    0  0.00000000000E+00  0.00000000000E+00 -0.13004395425E+04  0.13004395425E+04  0.50400001928E-02 0. -1.
    10030    2    1    2    0    0  0.00000000000E+00  0.00000000000E+00  0.66780939180E+03  0.32686884767E+04  0.31997429544E+04 0.  0.
        1    1    3    3  502    0 -0.23973735375E+03 -0.13116249021E+04  0.12371250912E+04  0.18188766792E+04  0.50400001928E-02 0.  1.
       -1    1    3    3    0  502  0.23973735375E+03  0.13116249021E+04 -0.56931569943E+03  0.14498117976E+04  0.50400001928E-02 0. -1.
</event>
<event>
 5   0  0.9353994E-08  0.3197873E+04  0.7818609E-02  0.8189379E-01
        2   -1    0    0  501    0  0.00000000000E+00  0.00000000000E+00  0.22485706790E+04  0.22485706790E+04  0.25500000920E-02 0.  1.
       -2   -1    0    0    0  501  0.00000000000E+00  0.00000000000E+00 -0.11369881921E+04  0.11369881921E+04  0.25500000920E-02 0. -1.
    10030    2    1    2    0    0  0.00000000000E+00  0.00000000000E+00  0.11115824869E+04  0.33855588712E+04  0.31978732378E+04 0.  0.
        2    1    3    3  502    0 -0.11558047158E+04  0.30922350784E+02 -0.61345474379E+03  0.13088802296E+04  0.25500000920E-02 0. -1.
       -2    1    3    3    0  502  0.11558047158E+04 -0.30922350784E+02  0.17250372307E+04  0.20766786415E+04  0.25500000920E-02 0.  1.
</event>
<event>
 5   0  0.3283581E-08  0.3201810E+04  0.7818609E-02  0.8188339E-01
       -1   -1    0    0    0  501  0.00000000000E+00  0.00000000000E+00  0.15923899112E+04  0.15923899112E+04  0.50400001928E-02 0. -1.
        1   -1    0    0  501    0  0.00000000000E+00  0.00000000000E+00 -0.16094657802E+04  0.16094657802E+04  0.50400001928E-02 0.  1.
    10030    2    1    2    0    0  0.00000000000E+00  0.00000000000E+00 -0.17075868975E+02  0.32018556914E+04  0.32018101573E+04 0.  0.
        5    1    3    3  502    0 -0.11147580895E+04 -0.56768842027E+03 -0.10075112194E+04  0.16062554865E+04  0.46999998093E+01 0.  1.
       -5    1    3    3    0  502  0.11147580895E+04  0.56768842027E+03  0.99043535041E+03  0.15956002049E+04  0.46999998093E+01 0. -1.
</event>
<event>
 5   0  0.3343140E-08  0.3200745E+04  0.7818609E-02  0.8188620E-01
       -1   -1    0    0    0  501  0.00000000000E+00  0.00000000000E+00  0.18686518989E+04  0.18686518989E+04  0.50400001928E-02 0.  1.
        1   -1    0    0  501    0  0.00000000000E+00  0.00000000000E+00 -0.13706095511E+04  0.13706095511E+04  0.50400001928E-02 0. -1.
    10030    2    1    2    0    0  0.00000000000E+00  0.00000000000E+00  0.49804234783E+03  0.32392614500E+04  0.32007450010E+04 0.  0.
        1    1    3    3  502    0 -0.10176477463E+04 -0.62791964816E+03  0.13254472930E+04  0.17851332014E+04  0.50400001928E-02 0.  1.
       -1    1    3    3    0  502  0.10176477463E+04  0.62791964816E+03 -0.82740494518E+03  0.14541282486E+04  0.50400001928E-02 0. -1.
</event>
<event>
 5   0  0.3283581E-08  0.3199633E+04  0.7818609E-02  0.8188914E-01
        1   -1    0    0  501    0  0.00000000000E+00  0.00000000000E+00  0.34367037630E+04  0.34367037630E+04  0.50400001928E-02 0.  1.
       -1   -1    0    0    0  501  0.00000000000E+00  0.00000000000E+00 -0.74472875675E+03  0.74472875677E+03  0.50400001928E-02 0. -1.
    10030    2    1    2    0    0  0.00000000000E+00  0.00000000000E+00  0.26919750063E+04  0.41814325198E+04  0.31996325544E+04 0.  0.
        5    1    3    3  502    0 -0.15819158581E+04 -0.23800063795E+03  0.13238116809E+04  0.20764396312E+04  0.46999998093E+01 0.  1.
       -5    1    3    3    0  502  0.15819158581E+04  0.23800063795E+03  0.13681633254E+04  0.21049928886E+04  0.46999998093E+01 0. -1.
</event>
<event>
 5   0  0.9329929E-08  0.3201532E+04  0.7818609E-02  0.8188413E-01
       -2   -1    0    0    0  501  0.00000000000E+00  0.00000000000E+00  0.11129107314E+04  0.11129107314E+04  0.25500000920E-02 0. -1.
        2   -1    0    0  501    0  0.00000000000E+00  0.00000000000E+00 -0.23024766908E+04  0.23024766908E+04  0.25500000920E-02 0.  1.
    10030    2    1    2    0    0  0.00000000000E+00  0.00000000000E+00 -0.11895659595E+04  0.34153874222E+04  0.32015315198E+04 0.  0.
        1    1    3    3  502    0 -0.34746545898E+03  0.93803566001E+03  0.73841914383E+03  0.12433446733E+04  0.50400001928E-02 0. -1.
       -1    1    3    3    0  502  0.34746545898E+03 -0.93803566001E+03 -0.19279851033E+04  0.21720427489E+04  0.50400001928E-02 0.  1.
</event>
<event>
 5   0  0.9707721E-08  0.3207863E+04  0.7818609E-02  0.8186744E-01
        2   -1    0    0  501    0  0.00000000000E+00  0.00000000000E+00  0.18718773182E+04  0.18718773182E+04  0.25500000920E-02 0.  1.
       -2   -1    0    0    0  501  0.00000000000E+00  0.00000000000E+00 -0.13743400656E+04  0.13743400656E+04  0.25500000920E-02 0. -1.
    10030    2    1    2    0    0  0.00000000000E+00  0.00000000000E+00  0.49753725261E+03  0.32462173838E+04  0.32078628377E+04 0.  0.
        3    1    3    3  502    0 -0.12731726691E+04  0.92888597336E+01 -0.73836415602E+03  0.14718140390E+04  0.10100000352E+00 0. -1.
       -3    1    3    3    0  502  0.12731726691E+04 -0.92888597336E+01  0.12359014086E+04  0.17744033449E+04  0.10100000352E+00 0.  1.
</event>
<event>
 5   0  0.9157524E-08  0.3202008E+04  0.7818609E-02  0.8188287E-01
       -2   -1    0    0    0  501  0.00000000000E+00  0.00000000000E+00  0.82924505820E+03  0.82924505820E+03  0.25500000920E-02 0. -1.
        2   -1    0    0  501    0  0.00000000000E+00  0.00000000000E+00 -0.30910202028E+04  0.30910202028E+04  0.25500000920E-02 0.  1.
    10030    2    1    2    0    0  0.00000000000E+00  0.00000000000E+00 -0.22617751446E+04  0.39202652610E+04  0.32020076377E+04 0.  0.
        5    1    3    3  502    0 -0.50487249282E+03  0.10384030712E+04 -0.24887260518E+04  0.27435299566E+04  0.46999998093E+01 0. -1.
       -5    1    3    3    0  502  0.50487249282E+03 -0.10384030712E+04  0.22695090719E+03  0.11767353043E+04  0.46999998093E+01 0.  1.
</event>
<event>
 5   0  0.3283581E-08  0.3200350E+04  0.7818609E-02  0.8188725E-01
       -1   -1    0    0    0  501  0.00000000000E+00  0.00000000000E+00  0.10500165396E+04  0.10500165396E+04  0.50400001928E-02 0.  1.
        1   -1    0    0  501    0  0.00000000000E+00  0.00000000000E+00 -0.24385909031E+04  0.24385909031E+04  0.50400001928E-02 0. -1.
    10030    2    1    2    0    0  0.00000000000E+00  0.00000000000E+00 -0.13885743635E+04  0.34886074427E+04  0.32003504692E+04 0.  0.
        5    1    3    3  502    0  0.15921338405E+04  0.10764073302E+03 -0.82355132649E+03  0.17957548750E+04  0.46999998093E+01 0.  1.
       -5    1    3    3    0  502 -0.15921338405E+04 -0.10764073302E+03 -0.56502303705E+03  0.16928525677E+04  0.46999998093E+01 0. -1.
</event>
<event>
 5   0  0.9707721E-08  0.3195349E+04  0.7818609E-02  0.8190047E-01
       -2   -1    0    0    0  501  0.00000000000E+00  0.00000000000E+00  0.11476588976E+04  0.11476588976E+04  0.25500000920E-02 0.  1.
        2   -1    0    0  501    0  0.00000000000E+00  0.00000000000E+00 -0.22241481668E+04  0.22241481668E+04  0.25500000920E-02 0. -1.
    10030    2    1    2    0    0  0.00000000000E+00  0.00000000000E+00 -0.10764892692E+04  0.33718070644E+04  0.31953487654E+04 0.  0.
        3    1    3    3  502    0 -0.47113019447E+01 -0.15550669588E+04 -0.15152577000E+03  0.15624389626E+04  0.10100000352E+00 0.  1.
       -3    1    3    3    0  502  0.47113019447E+01  0.15550669588E+04 -0.92496349916E+03  0.18093681018E+04  0.10100000352E+00 0. -1.
</event>
<event>
 5   0  0.9727083E-08  0.3200021E+04  0.7818609E-02  0.8188812E-01
        2   -1    0    0  501    0  0.00000000000E+00  0.00000000000E+00  0.11126871919E+04  0.11126871919E+04  0.25500000920E-02 0. -1.
       -2   -1    0    0    0  501  0.00000000000E+00  0.00000000000E+00 -0.23007661085E+04  0.23007661085E+04  0.25500000920E-02 0.  1.
    10030    2    1    2    0    0  0.00000000000E+00  0.00000000000E+00 -0.11880789166E+04  0.34134533005E+04  0.32000206128E+04 0.  0.
        4    1    3    3  502    0 -0.98940982033E+03 -0.60160157176E+03 -0.17718467433E+04  0.21166716180E+04  0.12699999809E+01 0.  1.
       -4    1    3    3    0  502  0.98940982033E+03  0.60160157176E+03  0.58376782668E+03  0.12967816825E+04  0.12699999809E+01 0. -1.
</event>
<event>
 5   0  0.9157524E-08  0.3209629E+04  0.7818609E-02  0.8186279E-01
       -2   -1    0    0    0  501  0.00000000000E+00  0.00000000000E+00  0.11726492117E+04  0.11726492117E+04  0.25500000920E-02 0. -1.
        2   -1    0    0  501    0  0.00000000000E+00  0.00000000000E+00 -0.21962486307E+04  0.21962486307E+04  0.25500000920E-02 0.  1.
    10030    2    1    2    0    0  0.00000000000E+00  0.00000000000E+00 -0.10235994191E+04  0.33688978424E+04  0.32096287794E+04 0.  0.
        5    1    3    3  502    0  0.13541270742E+04  0.15819186055E+03  0.37680478638E+03  0.14144570460E+04  0.46999998093E+01 0. -1.
       -5    1    3    3    0  502 -0.13541270742E+04 -0.15819186055E+03 -0.14004042055E+04  0.19544407964E+04  0.46999998093E+01 0.  1.
</event>
<event>
 5   0  0.3283581E-08  0.3199772E+04  0.7818609E-02  0.8188877E-01
        1   -1    0    0  501    0  0.00000000000E+00  0.00000000000E+00  0.21220931980E+04  0.21220931980E+04  0.50400001928E-02 0.  1.
       -1   -1    0    0    0  501  0.00000000000E+00  0.00000000000E+00 -0.12061842474E+04  0.12061842474E+04  0.50400001928E-02 0. -1.
    10030    2    1    2    0    0  0.00000000000E+00  0.00000000000E+00  0.91590895063E+03  0.33282774454E+04  0.31997721087E+04 0.  0.
        5    1    3    3  502    0 -0.96235507637E+03 -0.12637670391E+04  0.25956204225E+03  0.16095430923E+04  0.46999998093E+01 0. -1.
       -5    1    3    3    0  502  0.96235507637E+03  0.12637670391E+04  0.65634690838E+03  0.17187343531E+04  0.46999998093E+01 0.  1.
</event>
<event>
 5   0  0.9707721E-08  0.3197921E+04  0.7818609E-02  0.8189366E-01
        2   -1    0    0  501    0  0.00000000000E+00  0.00000000000E+00  0.13617512682E+04  0.13617512682E+04  0.25500000920E-02 0. -1.
       -2   -1    0    0    0  501  0.00000000000E+00  0.00000000000E+00 -0.18774900601E+04  0.18774900601E+04  0.25500000920E-02 0.  1.
    10030    2    1    2    0    0  0.00000000000E+00  0.00000000000E+00 -0.51573879187E+03  0.32392413283E+04  0.31979208685E+04 0.  0.
        3    1    3    3  502    0 -0.69391493786E+03 -0.51478868014E+03 -0.16206714207E+04  0.18366004438E+04  0.10100000352E+00 0.  1.
       -3    1    3    3    0  502  0.69391493786E+03  0.51478868014E+03  0.11049326289E+04  0.14026408844E+04  0.10100000352E+00 0. -1.
</event>
<event>
 5   0  0.9329929E-08  0.3199576E+04  0.7818609E-02  0.8188929E-01
       -2   -1    0    0    0  501  0.00000000000E+00  0.00000000000E+00  0.16822275377E+04  0.16822275377E+04  0.25500000920E-02 0.  1.
        2   -1    0    0  501    0  0.00000000000E+00  0.00000000000E+00 -0.15213887869E+04  0.15213887869E+04  0.25500000920E-02 0. -1.
    10030    2    1    2    0    0  0.00000000000E+00  0.00000000000E+00  0.16083875080E+03  0.32036163247E+04  0.31995762926E+04 0.  0.
        1    1    3    3  502    0 -0.62689508368E+03  0.30103219036E+03 -0.13621302722E+04  0.15293844200E+04  0.50400001928E-02 0. -1.
       -1    1    3    3    0  502  0.62689508368E+03 -0.30103219036E+03  0.15229690230E+04  0.16742319047E+04  0.50400001928E-02 0.  1.
</event>
<event>
 5   0  0.9727083E-08  0.3200275E+04  0.7818609E-02  0.8188745E-01
        2   -1    0    0  501    0  0.00000000000E+00  0.00000000000E+00  0.25655986907E+04  0.25655986907E+04  0.25500000920E-02 0.  1.
       -2   -1    0    0    0  501  0.00000000000E+00  0.00000000000E+00 -0.99798905882E+03  0.99798905883E+03  0.25500000920E-02 0. -1.
    10030    2    1    2    0    0  0.00000000000E+00  0.00000000000E+00  0.15676096319E+04  0.35635877495E+04  0.32002746274E+04 0.  0.
        4    1    3    3  502    0  0.14016247416E+03  0.93917997237E+03  0.22179347038E+04  0.24126625340E+04  0.12699999809E+01 0.  1.
       -4    1    3    3    0  502 -0.14016247416E+03 -0.93917997237E+03 -0.65032507194E+03  0.11509252155E+04  0.12699999809E+01 0. -1.
</event>
<event>
 5   0  0.9329929E-08  0.3199945E+04  0.7818609E-02  0.8188832E-01
       -2   -1    0    0    0  501  0.00000000000E+00  0.00000000000E+00  0.15212473505E+04  0.15212473505E+04  0.25500000920E-02 0.  1.
        2   -1    0    0  501    0  0.00000000000E+00  0.00000000000E+00 -0.16827717331E+04  0.16827717331E+04  0.25500000920E-02 0. -1.
    10030    2    1    2    0    0  0.00000000000E+00  0.00000000000E+00 -0.16152438256E+03  0.32040190836E+04  0.31999450248E+04 0.  0.
        1    1    3    3  502    0 -0.59634458327E+03  0.10538558300E+04 -0.11278819045E+04  0.16547980430E+04  0.50400001928E-02 0. -1.
       -1    1    3    3    0  502  0.59634458327E+03 -0.10538558300E+04  0.96635752196E+03  0.15492210406E+04  0.50400001928E-02 0.  1.
</event>
<event>
 5   0  0.9707721E-08  0.3199381E+04  0.7818609E-02  0.8188981E-01
       -2   -1    0    0    0  501  0.00000000000E+00  0.00000000000E+00  0.13740933080E+04  0.13740933080E+04  0.25500000920E-02 0.  1.
        2   -1    0    0  501    0  0.00000000000E+00  0.00000000000E+00 -0.18623256740E+04  0.18623256740E+04  0.25500000920E-02 0. -1.
    10030    2    1    2    0    0  0.00000000000E+00  0.00000000000E+00 -0.48823236599E+03  0.32364189821E+04  0.31993807189E+04 0.  0.
        3    1    3    3  502    0 -0.32220222618E+02  0.11610372602E+04  0.86860143511E+03  0.14503496563E+04  0.10100000352E+00 0.  1.
       -3    1    3    3    0  502  0.32220222618E+02 -0.11610372602E+04 -0.13568338011E+04  0.17860693257E+04  0.10100000352E+00 0. -1.
</event>
<event>
 5   0  0.9353994E-08  0.3200115E+04  0.7818609E-02  0.8188787E-01
       -2   -1    0    0    0  501  0.00000000000E+00  0.00000000000E+00  0.18260531232E+04  0.18260531232E+04  0.25500000920E-02 0.  1.
        2   -1    0    0  501    0  0.00000000000E+00  0.00000000000E+00 -0.14020311751E+04  0.14020311751E+04  0.25500000920E-02 0. -1.
    10030    2    1    2    0    0  0.00000000000E+00  0.00000000000E+00  0.42402194803E+03  0.32280842983E+04  0.32001146268E+04 0.  0.
        2    1    3    3  502    0 -0.60126818652E+03  0.89441601138E+03  0.14050056642E+04  0.17707468340E+04  0.25500000920E-02 0.  1.
       -2    1    3    3    0  502  0.60126818652E+03 -0.89441601138E+03 -0.98098371619E+03  0.14573374643E+04  0.25500000920E-02 0. -1.
</event>
<event>
 5   0  0.9329929E-08  0.3199396E+04  0.7818609E-02  0.8188977E-01
       -2   -1    0    0    0  501  0.00000000000E+00  0.00000000000E+00  0.14606250891E+04  0.14606250891E+04  0.25500000920E-02 0.  1.
        2   -1    0    0  501    0  0.00000000000E+00  0.00000000000E+00 -0.17520131024E+04  0.17520131024E+04  0.25500000920E-02 0. -1.
    10030    2    1    2    0    0  0.00000000000E+00  0.00000000000E+00 -0.29138801322E+03  0.32126381915E+04  0.31993963767E+04 0.  0.
        1    1    3    3  502    0  0.83495260535E+03 -0.66924039311E+03 -0.13397353242E+04  0.17146192860E+04  0.50400001928E-02 0. -1.
       -1    1    3    3    0  502 -0.83495260535E+03  0.66924039311E+03  0.10483473109E+04  0.14980189055E+04  0.50400001928E-02 0.  1.
</event>
<event>
 5   0  0.9353994E-08  0.3198812E+04  0.7818609E-02  0.8189131E-01
        2   -1    0    0  501    0  0.00000000000E+00  0.00000000000E+00  0.24635679267E+04  0.24635679267E+04  0.25500000920E-02 0.  1.
       -2   -1    0    0    0  501  0.00000000000E+00  0.00000000000E+00 -0.10383717344E+04  0.10383717344E+04  0.25500000920E-02 0. -1.
    10030    2    1    2    0    0  0.00000000000E+00  0.00000000000E+00  0.14251961923E+04  0.35019396611E+04  0.31988118424E+04 0.  0.
        2    1    3    3  502    0 -0.71375141148E+03  0.63101907001E+03  0.21190477690E+04  0.23233573964E+04  0.25500000920E-02 0.  1.
       -2    1    3    3    0  502  0.71375141148E+03 -0.63101907001E+03 -0.69385157667E+03  0.11785822647E+04  0.25500000920E-02 0. -1.
</event>
<event>
 5   0  0.3343140E-08  0.3200271E+04  0.7818609E-02  0.8188745E-01
        1   -1    0    0  501    0  0.00000000000E+00  0.00000000000E+00  0.24405369258E+04  0.24405369258E+04  0.50400001928E-02 0.  1.
       -1   -1    0    0    0  501  0.00000000000E+00  0.00000000000E+00 -0.10491274546E+04  0.10491274546E+04  0.50400001928E-02 0. -1.
    10030    2    1    2    0    0  0.00000000000E+00  0.00000000000E+00  0.13914094712E+04  0.34896643804E+04  0.32002714215E+04 0.  0.
        1    1    3    3  502    0 -0.15701839657E+04 -0.30290215738E+03  0.75745500473E+03  0.17694534431E+04  0.50400001928E-02 0.  1.
       -1    1    3    3    0  502  0.15701839657E+04  0.30290215738E+03  0.63395446643E+03  0.17202109373E+04  0.50400001928E-02 0. -1.
</event>
<event>
 5   0  0.3427667E-08  0.3199014E+04  0.7818609E-02  0.8189078E-01
        1   -1    0    0  501    0  0.00000000000E+00  0.00000000000E+00  0.12779644244E+04  0.12779644244E+04  0.50400001928E-02 0.  1.
       -1   -1    0    0    0  501  0.00000000000E+00  0.00000000000E+00 -0.20019512483E+04  0.20019512483E+04  0.50400001928E-02 0. -1.
    10030    2    1    2    0    0  0.00000000000E+00  0.00000000000E+00 -0.72398682398E+03  0.32799156727E+04  0.31990138948E+04 0.  0.
        2    1    3    3  502    0  0.83504225996E+03  0.84399920233E+02  0.10340593513E+04  0.13318024119E+04  0.25500000920E-02 0.  1.
       -2    1    3    3    0  502 -0.83504225996E+03 -0.84399920233E+02 -0.17580461753E+04  0.19481132608E+04  0.25500000920E-02 0. -1.
</event>
<event>
 5   0  0.3220147E-08  0.3200408E+04  0.7818609E-02  0.8188710E-01
        1   -1    0    0  501    0  0.00000000000E+00  0.00000000000E+00  0.16989170953E+04  0.16989170953E+04  0.50400001928E-02 0.  1.
       -1   -1    0    0    0  501  0.00000000000E+00  0.00000000000E+00 -0.15072261463E+04  0.15072261463E+04  0.50400001928E-02 0. -1.
    10030    2    1    2    0    0  0.00000000000E+00  0.00000000000E+00  0.19169094907E+03  0.32061432416E+04  0.32004076406E+04 0.  0.
        4    1    3    3  502    0 -0.24418616182E+03 -0.15734958835E+04  0.25466816332E+03  0.16125674136E+04  0.12699999809E+01 0.  1.
       -4    1    3    3    0  502  0.24418616182E+03  0.15734958835E+04 -0.62977214250E+02  0.15935758280E+04  0.12699999809E+01 0. -1.
</event>
<event>
 5   0  0.3283581E-08  0.3200269E+04  0.7818609E-02  0.8188746E-01
       -1   -1    0    0    0  501  0.00000000000E+00  0.00000000000E+00  0.24982381886E+04  0.24982381886E+04  0.50400001928E-02 0. -1.
        1   -1    0    0  501    0  0.00000000000E+00  0.00000000000E+00 -0.10248944507E+04  0.10248944508E+04  0.50400001928E-02 0.  1.
    10030    2    1    2    0    0  0.00000000000E+00  0.00000000000E+00  0.14733437378E+04  0.35231326393E+04  0.32002690238E+04 0.  0.
        5    1    3    3  502    0  0.13897774583E+04  0.63778811275E+03  0.12555542161E+04  0.19785584500E+04  0.46999998093E+01 0. -1.
       -5    1    3    3    0  502 -0.13897774583E+04 -0.63778811275E+03  0.21778952169E+03  0.15445741893E+04  0.46999998093E+01 0.  1.
</event>
<event>
 5   0  0.9707721E-08  0.3206588E+04  0.7818609E-02  0.8187080E-01
       -2   -1    0    0    0  501  0.00000000000E+00  0.00000000000E+00  0.20365976893E+04  0.20365976893E+04  0.25500000920E-02 0. -1.
        2   -1    0    0  501    0  0.00000000000E+00  0.00000000000E+00 -0.12621791552E+04  0.12621791552E+04  0.25500000920E-02 0.  1.
    10030    2    1    2    0    0  0.00000000000E+00  0.00000000000E+00  0.77441853407E+03  0.32987768445E+04  0.32065876885E+04 0.  0.
        3    1    3    3  502    0  0.22989016902E+03  0.27691398665E+02  0.20193056511E+04  0.20325382226E+04  0.10100000352E+00 0. -1.
       -3    1    3    3    0  502 -0.22989016902E+03 -0.27691398665E+02 -0.12448871170E+04  0.12662386220E+04  0.10100000352E+00 0.  1.
</event>
<event>
 5   0  0.9707721E-08  0.3201287E+04  0.7818609E-02  0.8188477E-01
        2   -1    0    0  501    0  0.00000000000E+00  0.00000000000E+00  0.11854771195E+04  0.11854771195E+04  0.25500000920E-02 0. -1.
       -2   -1    0    0    0  501  0.00000000000E+00  0.00000000000E+00 -0.21612059866E+04  0.21612059866E+04  0.25500000920E-02 0.  1.
    10030    2    1    2    0    0  0.00000000000E+00  0.00000000000E+00 -0.97572886708E+03  0.33466831060E+04  0.32012873958E+04 0.  0.
        3    1    3    3  502    0  0.39808943456E+03 -0.36411183648E+03 -0.20632948334E+04  0.21326598902E+04  0.10100000352E+00 0.  1.
       -3    1    3    3    0  502 -0.39808943456E+03  0.36411183648E+03  0.10875659663E+04  0.12140232159E+04  0.10100000352E+00 0. -1.
</event>
<event>
 5   0  0.3270966E-08  0.3199022E+04  0.7818609E-02  0.8189075E-01
       -1   -1    0    0    0  501  0.00000000000E+00  0.00000000000E+00  0.15427635918E+04  0.15427635918E+04  0.50400001928E-02 0. -1.
        1   -1    0    0  501    0  0.00000000000E+00  0.00000000000E+00 -0.16583459638E+04  0.16583459638E+04  0.50400001928E-02 0.  1.
    10030    2    1    2    0    0  0.00000000000E+00  0.00000000000E+00 -0.11558237197E+03  0.32011095556E+04  0.31990222103E+04 0.  0.
        3    1    3    3  502    0 -0.31785656801E+03 -0.13499726991E+03 -0.16205972667E+04  0.16569829726E+04  0.10100000352E+00 0.  1.
       -3    1    3    3    0  502  0.31785656801E+03  0.13499726991E+03  0.15050148947E+04  0.15441265829E+04  0.10100000352E+00 0. -1.
</event>
<event>
 5   0  0.3220147E-08  0.3200206E+04  0.7818609E-02  0.8188763E-01
        1   -1    0    0  501    0  0.00000000000E+00  0.00000000000E+00  0.17599776256E+04  0.17599776256E+04  0.50400001928E-02 0.  1.
       -1   -1    0    0    0  501  0.00000000000E+00  0.00000000000E+00 -0.14547510957E+04  0.14547510957E+04  0.50400001928E-02 0. -1.
    10030    2    1    2    0    0  0.00000000000E+00  0.00000000000E+00  0.30522652989E+03  0.32147287213E+04  0.32002058554E+04 0.  0.
        4    1    3    3  502    0  0.20523585996E+03 -0.13485764180E+04  0.99279854163E+03  0.16871368263E+04  0.12699999809E+01 0.  1.
       -4    1    3    3    0  502 -0.20523585996E+03  0.13485764180E+04 -0.68757201174E+03  0.15275918950E+04  0.12699999809E+01 0. -1.
</event>
<event>
 5   0  0.3283581E-08  0.3199412E+04  0.7818609E-02  0.8188973E-01
       -1   -1    0    0    0  501  0.00000000000E+00  0.00000000000E+00  0.26198247001E+04  0.26198247001E+04  0.50400001928E-02 0. -1.
        1   -1    0    0  501    0  0.00000000000E+00  0.00000000000E+00 -0.97680525655E+03  0.97680525657E+03  0.50400001928E-02 0.  1.
    10030    2    1    2    0    0  0.00000000000E+00  0.00000000000E+00  0.16430194435E+04  0.35966299566E+04  0.31994115323E+04 0.  0.
        5    1    3    3  502    0  0.12728981916E+04 -0.65890570901E+03  0.16200623409E+04  0.21631113282E+04  0.46999998093E+01 0. -1.
       -5    1    3    3    0  502 -0.12728981916E+04  0.65890570901E+03  0.22957102619E+02  0.14335186285E+04  0.46999998093E+01 0.  1.
</event>
<event>
 5   0  0.9727083E-08  0.3199971E+04  0.7818609E-02  0.8188825E-01
       -2   -1    0    0    0  501  0.00000000000E+00  0.00000000000E+00  0.10206454540E+04  0.10206454540E+04  0.25500000920E-02 0. -1.
        2   -1    0    0  501    0  0.00000000000E+00  0.00000000000E+00 -0.25081717198E+04  0.25081717198E+04  0.25500000920E-02 0.  1.
    10030    2    1    2    0    0  0.00000000000E+00  0.00000000000E+00 -0.14875262658E+04  0.35288171737E+04  0.31999712896E+04 0.  0.
        4    1    3    3  502    0 -0.14408235994E+04 -0.59484070981E+03 -0.34593479755E+03  0.15967093072E+04  0.12699999809E+01 0. -1.
       -4    1    3    3    0  502  0.14408235994E+04  0.59484070981E+03 -0.11415914683E+04  0.19321078665E+04  0.12699999809E+01 0.  1.
</event>
<event>
 5   0  0.9727083E-08  0.3200845E+04  0.7818609E-02  0.8188594E-01
       -2   -1    0    0    0  501  0.00000000000E+00  0.00000000000E+00  0.17803394888E+04  0.17803394888E+04  0.25500000920E-02 0. -1.
        2   -1    0    0  501    0  0.00000000000E+00  0.00000000000E+00 -0.14386876620E+04  0.14386876620E+04  0.25500000920E-02 0.  1.
    10030    2    1    2    0    0  0.00000000000E+00  0.00000000000E+00  0.34165182680E+03  0.32190271507E+04  0.32008451737E+04 0.  0.
        4    1    3    3  502    0 -0.12843195056E+04  0.39819105570E+02  0.11303360022E+04  0.17113512919E+04  0.12699999809E+01 0. -1.
       -4    1    3    3    0  502  0.12843195056E+04 -0.39819105570E+02 -0.78868417539E+03  0.15076758588E+04  0.12699999809E+01 0.  1.
</event>
<event>
 5   0  0.9707721E-08  0.3200449E+04  0.7818609E-02  0.8188699E-01
        2   -1    0    0  501    0  0.00000000000E+00  0.00000000000E+00  0.19492418054E+04  0.19492418054E+04  0.25500000920E-02 0. -1.
       -2   -1    0    0    0  501  0.00000000000E+00  0.00000000000E+00 -0.13136996435E+04  0.13136996435E+04  0.25500000920E-02 0.  1.
    10030    2    1    2    0    0  0.00000000000E+00  0.00000000000E+00  0.63554216187E+03  0.32629414489E+04  0.32004488840E+04 0.  0.
        3    1    3    3  502    0  0.14145057687E+04  0.34919342501E+03 -0.35693316899E+03  0.15000546373E+04  0.10100000352E+00 0.  1.
       -3    1    3    3    0  502 -0.14145057687E+04 -0.34919342501E+03  0.99247533085E+03  0.17628868115E+04  0.10100000352E+00 0. -1.
</event>
<event>
 5   0  0.3343140E-08  0.3200065E+04  0.7818609E-02  0.8188800E-01
       -1   -1    0    0    0  501  0.00000000000E+00  0.00000000000E+00  0.11404416648E+04  0.11404416648E+04  0.50400001928E-02 0.  1.
        1   -1    0    0  501    0  0.00000000000E+00  0.00000000000E+00 -0.22448359241E+04  0.22448359241E+04  0.50400001928E-02 0. -1.
    10030    2    1    2    0    0  0.00000000000E+00  0.00000000000E+00 -0.11043942593E+04  0.33852775889E+04  0.32000652609E+04 0.  0.
        1    1    3    3  502    0 -0.10454847778E+04  0.87828902482E+03  0.33014792888E+03  0.14047874169E+04  0.50400001928E-02 0.  1.
       -1    1    3    3    0  502  0.10454847778E+04 -0.87828902482E+03 -0.14345421881E+04  0.19804901720E+04  0.50400001928E-02 0. -1.
</event>
<event>
 5   0  0.9727083E-08  0.3198453E+04  0.7818609E-02  0.8189226E-01
       -2   -1    0    0    0  501  0.00000000000E+00  0.00000000000E+00  0.11743448281E+04  0.11743448281E+04  0.25500000920E-02 0. -1.
        2   -1    0    0  501    0  0.00000000000E+00  0.00000000000E+00 -0.21778312268E+04  0.21778312268E+04  0.25500000920E-02 0.  1.
    10030    2    1    2    0    0  0.00000000000E+00  0.00000000000E+00 -0.10034863988E+04  0.33521760549E+04  0.31984526494E+04 0.  0.
        4    1    3    3  502    0  0.59312249517E+02 -0.14747840717E+04  0.14348949735E+03  0.14829352143E+04  0.12699999809E+01 0. -1.
       -4    1    3    3    0  502 -0.59312249517E+02  0.14747840717E+04 -0.11469758961E+04  0.18692408406E+04  0.12699999809E+01 0.  1.
</event>
<event>
 5   0  0.3220147E-08  0.3194454E+04  0.7818609E-02  0.8190283E-01
       -1   -1    0    0    0  501  0.00000000000E+00  0.00000000000E+00  0.15015187336E+04  0.15015187336E+04  0.50400001928E-02 0.  1.
        1   -1    0    0  501    0  0.00000000000E+00  0.00000000000E+00 -0.16990359033E+04  0.16990359033E+04  0.50400001928E-02 0. -1.
    10030    2    1    2    0    0  0.00000000000E+00  0.00000000000E+00 -0.19751716978E+03  0.32005546369E+04  0.31944540929E+04 0.  0.
        4    1    3    3  502    0 -0.70910896578E+03 -0.66880686266E+03  0.11689619098E+04  0.15220419522E+04  0.12699999809E+01 0.  1.
       -4    1    3    3    0  502  0.70910896578E+03  0.66880686266E+03 -0.13664790796E+04  0.16785126847E+04  0.12699999809E+01 0. -1.
</event>
<event>
 5   0  0.9329929E-08  0.3200615E+04  0.7818609E-02  0.8188655E-01
       -2   -1    0    0    0  501  0.00000000000E+00  0.00000000000E+00  0.15936577949E+04  0.15936577949E+04  0.25500000920E-02 0.  1.
        2   -1    0    0  501    0  0.00000000000E+00  0.00000000000E+00 -0.16069851958E+04  0.16069851958E+04  0.25500000920E-02 0. -1.
    10030    2    1    2    0    0  0.00000000000E+00  0.00000000000E+00 -0.13327400858E+02  0.32006429907E+04  0.32006152431E+04 0.  0.
        1    1    3    3  502    0 -0.55549665682E+03  0.12467230980E+04 -0.84218842707E+03  0.16038006003E+04  0.50400001928E-02 0. -1.
       -1    1    3    3    0  502  0.55549665682E+03 -0.12467230980E+04  0.82886102621E+03  0.15968423904E+04  0.50400001928E-02 0.  1.
</event>
<event>
 5   0  0.9157524E-08  0.3201052E+04  0.7818609E-02  0.8188539E-01
        2   -1    0    0  501    0  0.00000000000E+00  0.00000000000E+00  0.25588803118E+04  0.25588803118E+04  0.25500000920E-02 0. -1.
       -2   -1    0    0    0  501  0.00000000000E+00  0.00000000000E+00 -0.10010955603E+04  0.10010955603E+04  0.25500000920E-02 0.  1.
    10030    2    1    2    0    0  0.00000000000E+00  0.00000000000E+00  0.15577847515E+04  0.35599758721E+04  0.32010521517E+04 0.  0.
        5    1    3    3  502    0  0.12267473021E+04  0.84226804961E+03  0.12345686682E+03  0.14931805312E+04  0.46999998093E+01 0. -1.
       -5    1    3    3    0  502 -0.12267473021E+04 -0.84226804961E+03  0.14343278847E+04  0.20667953410E+04  0.46999998093E+01 0.  1.
</event>
<event>
 5   0  0.3343140E-08  0.3201165E+04  0.7818609E-02  0.8188510E-01
        1   -1    0    0  501    0  0.00000000000E+00  0.00000000000E+00  0.25240946523E+04  0.25240946523E+04  0.50400001928E-02 0.  1.
       -1   -1    0    0    0  501  0.00000000000E+00  0.00000000000E+00 -0.10149637469E+04  0.10149637469E+04  0.50400001928E-02 0. -1.
    10030    2    1    2    0    0  0.00000000000E+00  0.00000000000E+00  0.15091309054E+04  0.35390583991E+04  0.32011651415E+04 0.  0.
        1    1    3    3  502    0  0.17720539970E+03  0.51619487292E+03 -0.90891769184E+03  0.10601840742E+04  0.50400001928E-02 0. -1.
       -1    1    3    3    0  502 -0.17720539970E+03 -0.51619487292E+03  0.24180485972E+04  0.24788743250E+04  0.50400001928E-02 0.  1.
</event>
<event>
 5   0  0.3343140E-08  0.3213413E+04  0.7818609E-02  0.8185284E-01
        1   -1    0    0  501    0  0.00000000000E+00  0.00000000000E+00  0.31553172977E+04  0.31553172977E+04  0.50400001928E-02 0.  1.
       -1   -1    0    0    0  501  0.00000000000E+00  0.00000000000E+00 -0.81814461602E+03  0.81814461604E+03  0.50400001928E-02 0. -1.
    10030    2    1    2    0    0  0.00000000000E+00  0.00000000000E+00  0.23371726817E+04  0.39734619138E+04  0.32134130510E+04 0.  0.
        1    1    3    3  502    0 -0.57661893242E+03 -0.43098180060E+03 -0.60756780775E+03  0.94200496109E+03  0.50400001928E-02 0. -1.
       -1    1    3    3    0  502  0.57661893242E+03  0.43098180060E+03  0.29447404895E+04  0.30314569527E+04  0.50400001928E-02 0.  1.
</event>
<event>
 5   0  0.3220147E-08  0.3199574E+04  0.7818609E-02  0.8188930E-01
       -1   -1    0    0    0  501  0.00000000000E+00  0.00000000000E+00  0.11427265747E+04  0.11427265748E+04  0.50400001928E-02 0.  1.
        1   -1    0    0  501    0  0.00000000000E+00  0.00000000000E+00 -0.22396591602E+04  0.22396591602E+04  0.50400001928E-02 0. -1.
    10030    2    1    2    0    0  0.00000000000E+00  0.00000000000E+00 -0.10969325855E+04  0.33823857350E+04  0.31995737471E+04 0.  0.
        4    1    3    3  502    0 -0.38770114634E+03  0.13922853941E+04 -0.12736230225E+04  0.19263665315E+04  0.12699999809E+01 0. -1.
       -4    1    3    3    0  502  0.38770114634E+03 -0.13922853941E+04  0.17669043703E+03  0.14560192035E+04  0.12699999809E+01 0.  1.
</event>
<event>
 5   0  0.9727083E-08  0.3199126E+04  0.7818609E-02  0.8189048E-01
       -2   -1    0    0    0  501  0.00000000000E+00  0.00000000000E+00  0.10437627819E+04  0.10437627819E+04  0.25500000920E-02 0. -1.
        2   -1    0    0  501    0  0.00000000000E+00  0.00000000000E+00 -0.24513249771E+04  0.24513249771E+04  0.25500000920E-02 0.  1.
    10030    2    1    2    0    0  0.00000000000E+00  0.00000000000E+00 -0.14075621952E+04  0.34950877590E+04  0.31991259916E+04 0.  0.
        4    1    3    3  502    0 -0.10219571198E+04 -0.22723869057E+03  0.61746748642E+03  0.12154429180E+04  0.12699999809E+01 0. -1.
       -4    1    3    3    0  502  0.10219571198E+04  0.22723869057E+03 -0.20250296816E+04  0.22796448411E+04  0.12699999809E+01 0.  1.
</event>
<event>
 5   0  0.3343140E-08  0.3203345E+04  0.7818609E-02  0.8187934E-01
       -1   -1    0    0    0  501  0.00000000000E+00  0.00000000000E+00  0.15525070203E+04  0.15525070203E+04  0.50400001928E-02 0. -1.
        1   -1    0    0  501    0  0.00000000000E+00  0.00000000000E+00 -0.16523948457E+04  0.16523948457E+04  0.50400001928E-02 0.  1.
    10030    2    1    2    0    0  0.00000000000E+00  0.00000000000E+00 -0.99887825407E+02  0.32049018660E+04  0.32033448758E+04 0.  0.
        1    1    3    3  502    0 -0.10659458281E+04  0.11433660836E+04  0.29926454486E+03  0.15915670823E+04  0.50400001928E-02 0. -1.
       -1    1    3    3    0  502  0.10659458281E+04 -0.11433660836E+04 -0.39915237027E+03  0.16133347837E+04  0.50400001928E-02 0.  1.
</event>
<event>
 5   0  0.9329929E-08  0.3200492E+04  0.7818609E-02  0.8188687E-01
        2   -1    0    0  501    0  0.00000000000E+00  0.00000000000E+00  0.21259330073E+04  0.21259330073E+04  0.25500000920E-02 0.  1.
       -2   -1    0    0    0  501  0.00000000000E+00  0.00000000000E+00 -0.12045474903E+04  0.12045474903E+04  0.25500000920E-02 0. -1.
    10030    2    1    2    0    0  0.00000000000E+00  0.00000000000E+00  0.92138551704E+03  0.33304804976E+04  0.32004920050E+04 0.  0.
        1    1    3    3  502    0 -0.83465690629E+03 -0.29340406724E+03  0.18482855394E+04  0.20491211611E+04  0.50400001928E-02 0.  1.
       -1    1    3    3    0  502  0.83465690629E+03  0.29340406724E+03 -0.92690002231E+03  0.12813593365E+04  0.50400001928E-02 0. -1.
</event>
<event>
 5   0  0.3283581E-08  0.3193324E+04  0.7818609E-02  0.8190583E-01
       -1   -1    0    0    0  501  0.00000000000E+00  0.00000000000E+00  0.11589995005E+04  0.11589995005E+04  0.50400001928E-02 0. -1.
        1   -1    0    0  501    0  0.00000000000E+00  0.00000000000E+00 -0.21995949311E+04  0.21995949311E+04  0.50400001928E-02 0.  1.
    10030    2    1    2    0    0  0.00000000000E+00  0.00000000000E+00 -0.10405954307E+04  0.33585944316E+04  0.31933239275E+04 0.  0.
        5    1    3    3  502    0 -0.14214972464E+03  0.40544533817E+03 -0.21376475915E+04  0.21804017478E+04  0.46999998093E+01 0.  1.
       -5    1    3    3    0  502  0.14214972464E+03 -0.40544533817E+03  0.10970521608E+04  0.11781926838E+04  0.46999998093E+01 0. -1.
</event>
<event>
 5   0  0.9707721E-08  0.3202426E+04  0.7818609E-02  0.8188177E-01
       -2   -1    0    0    0  501  0.00000000000E+00  0.00000000000E+00  0.13196524471E+04  0.13196524471E+04  0.25500000920E-02 0.  1.
        2   -1    0    0  501    0  0.00000000000E+00  0.00000000000E+00 -0.19428472458E+04  0.19428472458E+04  0.25500000920E-02 0. -1.
    10030    2    1    2    0    0  0.00000000000E+00  0.00000000000E+00 -0.62319479868E+03  0.32624996930E+04  0.32024260318E+04 0.  0.
        3    1    3    3  502    0 -0.12743327318E+03  0.50394667403E+03  0.12313031709E+04  0.13365287121E+04  0.10100000352E+00 0.  1.
       -3    1    3    3    0  502  0.12743327318E+03 -0.50394667403E+03 -0.18544979696E+04  0.19259709808E+04  0.10100000352E+00 0. -1.
</event>
<event>
 5   0  0.3343140E-08  0.3200106E+04  0.7818609E-02  0.8188789E-01
       -1   -1    0    0    0  501  0.00000000000E+00  0.00000000000E+00  0.21896076517E+04  0.21896076517E+04  0.50400001928E-02 0. -1.
        1   -1    0    0  501    0  0.00000000000E+00  0.00000000000E+00 -0.11692365722E+04  0.11692365722E+04  0.50400001928E-02 0.  1.
    10030    2    1    2    0    0  0.00000000000E+00  0.00000000000E+00  0.10203710794E+04  0.33588442239E+04  0.32001058390E+04 0.  0.
        1    1    3    3  502    0 -0.96377751865E+03  0.27728461895E+03  0.18187920504E+04  0.20769589279E+04  0.50400001928E-02 0. -1.
       -1    1    3    3    0  502  0.96377751865E+03 -0.27728461895E+03 -0.79842097097E+03  0.12818852961E+04  0.50400001928E-02 0.  1.
</event>
<event>
 5   0  0.3080500E-08  0.3200087E+04  0.7818609E-02  0.8188794E-01
       -3   -1    0    0    0  501  0.00000000000E+00  0.00000000000E+00  0.12960375102E+04  0.12960375142E+04  0.10100000352E+00 0.  1.
        3   -1    0    0  501    0  0.00000000000E+00  0.00000000000E+00 -0.19753582576E+04  0.19753582602E+04  0.10100000352E+00 0. -1.
    10030    2    1    2    0    0  0.00000000000E+00  0.00000000000E+00 -0.67932074734E+03  0.32713957743E+04  0.32000865042E+04 0.  0.
        2    1    3    3  502    0  0.51870479976E+02 -0.13571901991E+04  0.52505049171E+03  0.14561366015E+04  0.25500000920E-02 0.  1.
       -2    1    3    3    0  502 -0.51870479976E+02  0.13571901991E+04 -0.12043712391E+04  0.18152591729E+04  0.25500000920E-02 0. -1.
</event>
<event>
 5   0  0.9157524E-08  0.3199177E+04  0.7818609E-02  0.8189034E-01
        2   -1    0    0  501    0  0.00000000000E+00  0.00000000000E+00  0.88845955113E+03  0.88845955113E+03  0.25500000920E-02 0. -1.
       -2   -1    0    0    0  501  0.00000000000E+00  0.00000000000E+00 -0.28799104234E+04  0.28799104234E+04  0.25500000920E-02 0.  1.
    10030    2    1    2    0    0  0.00000000000E+00  0.00000000000E+00 -0.19914508722E+04  0.37683699745E+04  0.31991773455E+04 0.  0.
        5    1    3    3  502    0 -0.30858080822E+03 -0.14353119929E+04 -0.17437910077E+04  0.22795113074E+04  0.46999998093E+01 0.  1.
       -5    1    3    3    0  502  0.30858080822E+03  0.14353119929E+04 -0.24765986455E+03  0.14888586671E+04  0.46999998093E+01 0. -1.
</event>
<event>
 5   0  0.3343140E-08  0.3199662E+04  0.7818609E-02  0.8188907E-01
        1   -1    0    0  501    0  0.00000000000E+00  0.00000000000E+00  0.25990969203E+04  0.25990969203E+04  0.50400001928E-02 0. -1.
       -1   -1    0    0    0  501  0.00000000000E+00  0.00000000000E+00 -0.98474919482E+03  0.98474919483E+03  0.50400001928E-02 0.  1.
    10030    2    1    2    0    0  0.00000000000E+00  0.00000000000E+00  0.16143477254E+04  0.35838461151E+04  0.31996616068E+04 0.  0.
        1    1    3    3  502    0 -0.60684572766E+02  0.15983735146E+04  0.77214430175E+03  0.17761439503E+04  0.50400001928E-02 0.  1.
       -1    1    3    3    0  502  0.60684572766E+02 -0.15983735146E+04  0.84220342369E+03  0.18077021648E+04  0.50400001928E-02 0. -1.
</event>
<event>
 5   0  0.3283581E-08  0.3197632E+04  0.7818609E-02  0.8189443E-01
        1   -1    0    0  501    0  0.00000000000E+00  0.00000000000E+00  0.16337960290E+04  0.16337960290E+04  0.50400001928E-02 0. -1.
       -1   -1    0    0    0  501  0.00000000000E+00  0.00000000000E+00 -0.15645853073E+04  0.15645853073E+04  0.50400001928E-02 0.  1.
    10030    2    1    2    0    0  0.00000000000E+00  0.00000000000E+00  0.69210721743E+02  0.31983813364E+04  0.31976324130E+04 0.  0.
        5    1    3    3  502    0  0.58335225482E+02  0.41502341927E+03 -0.15086570824E+04  0.15657955547E+04  0.46999998093E+01 0.  1.
       -5    1    3    3    0  502 -0.58335225482E+02 -0.41502341927E+03  0.15778678041E+04  0.16325857816E+04  0.46999998093E+01 0. -1.
</event>
<event>
 5   0  0.3270966E-08  0.3203372E+04  0.7818609E-02  0.8187927E-01
        1   -1    0    0  501    0  0.00000000000E+00  0.00000000000E+00  0.23572994924E+04  0.23572994924E+04  0.50400001928E-02 0. -1.
       -1   -1    0    0    0  501  0.00000000000E+00  0.00000000000E+00 -0.10882781233E+04  0.10882781233E+04  0.50400001928E-02 0.  1.
    10030    2    1    2    0    0  0.00000000000E+00  0.00000000000E+00  0.12690213692E+04  0.34455776157E+04  0.32033716410E+04 0.  0.
        3    1    3    3  502    0  0.12897821679E+04  0.40150030233E+03 -0.29117437517E+03  0.13818549346E+04  0.10100000352E+00 0.  1.
       -3    1    3    3    0  502 -0.12897821679E+04 -0.40150030233E+03  0.15601957443E+04  0.20637226811E+04  0.10100000352E+00 0. -1.
</event>
<event>
 5   0  0.9727083E-08  0.3202346E+04  0.7818609E-02  0.8188198E-01
       -2   -1    0    0    0  501  0.00000000000E+00  0.00000000000E+00  0.10631505759E+04  0.10631505759E+04  0.25500000920E-02 0. -1.
        2   -1    0    0  501    0  0.00000000000E+00  0.00000000000E+00 -0.24114696163E+04  0.24114696163E+04  0.25500000920E-02 0.  1.
    10030    2    1    2    0    0  0.00000000000E+00  0.00000000000E+00 -0.13483190405E+04  0.34746201922E+04  0.32023462094E+04 0.  0.
        4    1    3    3  502    0  0.12087424220E+04  0.25788491834E+03 -0.17786422466E+04  0.21659022896E+04  0.12699999809E+01 0.  1.
       -4    1    3    3    0  502 -0.12087424220E+04 -0.25788491834E+03  0.43032320613E+03  0.13087179026E+04  0.12699999809E+01 0. -1.
</event>
<event>
 5   0  0.3427667E-08  0.3202068E+04  0.7818609E-02  0.8188271E-01
       -1   -1    0    0    0  501  0.00000000000E+00  0.00000000000E+00  0.15799879408E+04  0.15799879408E+04  0.50400001928E-02 0. -1.
        1   -1    0    0  501    0  0.00000000000E+00  0.00000000000E+00 -0.16223599321E+04  0.16223599321E+04  0.50400001928E-02 0.  1.
    10030    2    1    2    0    0  0.00000000000E+00  0.00000000000E+00 -0.42371991305E+02  0.32023478728E+04  0.32020675372E+04 0.  0.
        2    1    3    3  502    0  0.68612232690E+03  0.60887973224E+03 -0.13334787408E+04  0.16185375893E+04  0.25500000920E-02 0.  1.
       -2    1    3    3    0  502 -0.68612232690E+03 -0.60887973224E+03  0.12911067495E+04  0.15838102836E+04  0.25500000920E-02 0. -1.
</event>
<event>
 5   0  0.3080500E-08  0.3199949E+04  0.7818609E-02  0.8188831E-01
       -3   -1    0    0    0  501  0.00000000000E+00  0.00000000000E+00  0.20603435451E+04  0.20603435476E+04  0.10100000352E+00 0. -1.
        3   -1    0    0  501    0  0.00000000000E+00  0.00000000000E+00 -0.12424713097E+04  0.12424713139E+04  0.10100000352E+00 0.  1.
    10030    2    1    2    0    0  0.00000000000E+00  0.00000000000E+00  0.81787223540E+03  0.33028148615E+04  0.31999485958E+04 0.  0.
        5    1    3    3  502    0  0.11990239424E+04  0.67569555334E+03  0.12510515455E+04  0.18599395030E+04  0.46999998093E+01 0. -1.
       -5    1    3    3    0  502 -0.11990239424E+04 -0.67569555334E+03 -0.43317931013E+03  0.14428753585E+04  0.46999998093E+01 0.  1.
</event>
<event>
 5   0  0.9329929E-08  0.3199977E+04  0.7818609E-02  0.8188823E-01
       -2   -1    0    0    0  501  0.00000000000E+00  0.00000000000E+00  0.13421935203E+04  0.13421935203E+04  0.25500000920E-02 0. -1.
        2   -1    0    0  501    0  0.00000000000E+00  0.00000000000E+00 -0.19072978591E+04  0.19072978591E+04  0.25500000920E-02 0.  1.
    10030    2    1    2    0    0  0.00000000000E+00  0.00000000000E+00 -0.56510433873E+03  0.32494913794E+04  0.31999767673E+04 0.  0.
        1    1    3    3  502    0  0.30638420531E+03  0.58434418366E+03 -0.17627186611E+04  0.18821547451E+04  0.50400001928E-02 0.  1.
       -1    1    3    3    0  502 -0.30638420531E+03 -0.58434418366E+03  0.11976143224E+04  0.13673366343E+04  0.50400001928E-02 0. -1.
</event>
<event>
 5   0  0.9727083E-08  0.3197105E+04  0.7818609E-02  0.8189582E-01
       -2   -1    0    0    0  501  0.00000000000E+00  0.00000000000E+00  0.15702421661E+04  0.15702421661E+04  0.25500000920E-02 0.  1.
        2   -1    0    0  501    0  0.00000000000E+00  0.00000000000E+00 -0.16273732767E+04  0.16273732767E+04  0.25500000920E-02 0. -1.
    10030    2    1    2    0    0  0.00000000000E+00  0.00000000000E+00 -0.57131110648E+02  0.31976154428E+04  0.31971050274E+04 0.  0.
        4    1    3    3  502    0  0.53423243795E+03  0.11233677682E+04  0.97559128869E+03  0.15808666660E+04  0.12699999809E+01 0.  1.
       -4    1    3    3    0  502 -0.53423243795E+03 -0.11233677682E+04 -0.10327223993E+04  0.16167487768E+04  0.12699999809E+01 0. -1.
</event>
<event>
 5   0  0.9727083E-08  0.3201887E+04  0.7818609E-02  0.8188319E-01
       -2   -1    0    0    0  501  0.00000000000E+00  0.00000000000E+00  0.12059911335E+04  0.12059911335E+04  0.25500000920E-02 0.  1.
        2   -1    0    0  501    0  0.00000000000E+00  0.00000000000E+00 -0.21252400948E+04  0.21252400948E+04  0.25500000920E-02 0. -1.
    10030    2    1    2    0    0  0.00000000000E+00  0.00000000000E+00 -0.91924896133E+03  0.33312312283E+04  0.32018873877E+04 0.  0.
        4    1    3    3  502    0 -0.13844765937E+04 -0.67994852199E+03 -0.13448972079E+02  0.15424940580E+04  0.12699999809E+01 0.  1.
       -4    1    3    3    0  502  0.13844765937E+04  0.67994852199E+03 -0.90579998925E+03  0.17887371703E+04  0.12699999809E+01 0. -1.
</event>
<event>
 5   0  0.9353994E-08  0.3200506E+04  0.7818609E-02  0.8188683E-01
       -2   -1    0    0    0  501  0.00000000000E+00  0.00000000000E+00  0.97149713245E+03  0.97149713246E+03  0.25500000920E-02 0.  1.
        2   -1    0    0  501    0  0.00000000000E+00  0.00000000000E+00 -0.26359422772E+04  0.26359422772E+04  0.25500000920E-02 0. -1.
    10030    2    1    2    0    0  0.00000000000E+00  0.00000000000E+00 -0.16644451448E+04  0.36074394097E+04  0.32005064372E+04 0.  0.
        2    1    3    3  502    0 -0.66186928925E+03 -0.13331195784E+04 -0.16966408104E+03  0.14980202491E+04  0.25500000920E-02 0.  1.
       -2    1    3    3    0  502  0.66186928925E+03  0.13331195784E+04 -0.14947810637E+04  0.21094191605E+04  0.25500000920E-02 0. -1.
</event>
<event>
 5   0  0.9707721E-08  0.3200149E+04  0.7818609E-02  0.8188778E-01
        2   -1    0    0  501    0  0.00000000000E+00  0.00000000000E+00  0.21711005066E+04  0.21711005066E+04  0.25500000920E-02 0. -1.
       -2   -1    0    0    0  501  0.00000000000E+00  0.00000000000E+00 -0.11792350079E+04  0.11792350079E+04  0.25500000920E-02 0.  1.
    10030    2    1    2    0    0  0.00000000000E+00  0.00000000000E+00  0.99186549865E+03  0.33503355145E+04  0.32001485735E+04 0.  0.
        3    1    3    3  502    0  0.73825798259E+03 -0.51600399571E+03 -0.88861263562E+03  0.12652736458E+04  0.10100000352E+00 0.  1.
       -3    1    3    3    0  502 -0.73825798259E+03  0.51600399571E+03  0.18804781343E+04  0.20850618687E+04  0.10100000352E+00 0. -1.
</event>
<event>
 5   0  0.3270966E-08  0.3199994E+04  0.7818609E-02  0.8188819E-01
       -1   -1    0    0    0  501  0.00000000000E+00  0.00000000000E+00  0.16158611465E+04  0.16158611465E+04  0.50400001928E-02 0.  1.
        1   -1    0    0  501    0  0.00000000000E+00  0.00000000000E+00 -0.15842887730E+04  0.15842887730E+04  0.50400001928E-02 0. -1.
    10030    2    1    2    0    0  0.00000000000E+00  0.00000000000E+00  0.31572373547E+02  0.32001499195E+04  0.31999941707E+04 0.  0.
        3    1    3    3  502    0 -0.84424812190E+02  0.15679835698E+04  0.32286894036E+03  0.16031046089E+04  0.10100000352E+00 0. -1.
       -3    1    3    3    0  502  0.84424812190E+02 -0.15679835698E+04 -0.29129656681E+03  0.15970453106E+04  0.10100000352E+00 0.  1.
</event>
<event>
 5   0  0.3220147E-08  0.3199731E+04  0.7818609E-02  0.8188888E-01
       -1   -1    0    0    0  501  0.00000000000E+00  0.00000000000E+00  0.11334118483E+04  0.11334118483E+04  0.50400001928E-02 0. -1.
        1   -1    0    0  501    0  0.00000000000E+00  0.00000000000E+00 -0.22582878005E+04  0.22582878005E+04  0.50400001928E-02 0.  1.
    10030    2    1    2    0    0  0.00000000000E+00  0.00000000000E+00 -0.11248759522E+04  0.33916996488E+04  0.31997313324E+04 0.  0.
        4    1    3    3  502    0 -0.22068798110E+02  0.12729381940E+04 -0.15894358915E+04  0.20364593646E+04  0.12699999809E+01 0.  1.
       -4    1    3    3    0  502  0.22068798110E+02 -0.12729381940E+04  0.46455993936E+03  0.13552402841E+04  0.12699999809E+01 0. -1.
</event>
<event>
 5   0  0.9707721E-08  0.3200303E+04  0.7818609E-02  0.8188737E-01
        2   -1    0    0  501    0  0.00000000000E+00  0.00000000000E+00  0.23829962662E+04  0.23829962662E+04  0.25500000920E-02 0.  1.
       -2   -1    0    0    0  501  0.00000000000E+00  0.00000000000E+00 -0.10744815461E+04  0.10744815461E+04  0.25500000920E-02 0. -1.
    10030    2    1    2    0    0  0.00000000000E+00  0.00000000000E+00  0.13085147201E+04  0.34574778123E+04  0.32003034309E+04 0.  0.
        3    1    3    3  502    0 -0.13751429169E+04 -0.27078533342E+03  0.14884058789E+04  0.20444301918E+04  0.10100000352E+00 0.  1.
       -3    1    3    3    0  502  0.13751429169E+04  0.27078533342E+03 -0.17989115873E+03  0.14130476205E+04  0.10100000352E+00 0. -1.
</event>
<event>
 5   0  0.9353994E-08  0.3198850E+04  0.7818609E-02  0.8189121E-01
       -2   -1    0    0    0  501  0.00000000000E+00  0.00000000000E+00  0.13675342281E+04  0.13675342281E+04  0.25500000920E-02 0.  1.
        2   -1    0    0  501    0  0.00000000000E+00  0.00000000000E+00 -0.18706370965E+04  0.18706370965E+04  0.25500000920E-02 0. -1.
    10030    2    1    2    0    0  0.00000000000E+00  0.00000000000E+00 -0.50310286844E+03  0.32381713246E+04  0.31988499545E+04 0.  0.
        2    1    3    3  502    0  0.59708412474E+03 -0.95002536078E+03  0.90224098817E+03  0.14398251418E+04  0.25500000920E-02 0.  1.
       -2    1    3    3    0  502 -0.59708412474E+03  0.95002536078E+03 -0.14053438566E+04  0.17983461829E+04  0.25500000920E-02 0. -1.
</event>
<event>
 5   0  0.3343140E-08  0.3197758E+04  0.7818609E-02  0.8189410E-01
        1   -1    0    0  501    0  0.00000000000E+00  0.00000000000E+00  0.17232469785E+04  0.17232469785E+04  0.50400001928E-02 0. -1.
       -1   -1    0    0    0  501  0.00000000000E+00  0.00000000000E+00 -0.14834867692E+04  0.14834867692E+04  0.50400001928E-02 0.  1.
    10030    2    1    2    0    0  0.00000000000E+00  0.00000000000E+00  0.23976020928E+03  0.32067337477E+04  0.31977580226E+04 0.  0.
        1    1    3    3  502    0  0.15073326303E+04  0.21916983994E+02 -0.41442127386E+03  0.15634183716E+04  0.50400001928E-02 0.  1.
       -1    1    3    3    0  502 -0.15073326303E+04 -0.21916983994E+02  0.65418148314E+03  0.16433153761E+04  0.50400001928E-02 0. -1.
</event>
<event>
 5   0  0.9329929E-08  0.3200775E+04  0.7818609E-02  0.8188613E-01
       -2   -1    0    0    0  501  0.00000000000E+00  0.00000000000E+00  0.19291240402E+04  0.19291240402E+04  0.25500000920E-02 0. -1.
        2   -1    0    0  501    0  0.00000000000E+00  0.00000000000E+00 -0.13276696421E+04  0.13276696421E+04  0.25500000920E-02 0.  1.
    10030    2    1    2    0    0  0.00000000000E+00  0.00000000000E+00  0.60145439808E+03  0.32567936822E+04  0.32007745462E+04 0.  0.
        1    1    3    3  502    0  0.87598822392E+03  0.27001617231E+03 -0.10340921199E+04  0.13818866141E+04  0.50400001928E-02 0.  1.
       -1    1    3    3    0  502 -0.87598822392E+03 -0.27001617231E+03  0.16355465180E+04  0.18749070682E+04  0.50400001928E-02 0. -1.
</event>
<event>
 5   0  0.3427667E-08  0.3200329E+04  0.7818609E-02  0.8188730E-01
       -1   -1    0    0    0  501  0.00000000000E+00  0.00000000000E+00  0.13662701346E+04  0.13662701346E+04  0.50400001928E-02 0. -1.
        1   -1    0    0  501    0  0.00000000000E+00  0.00000000000E+00 -0.18740995757E+04  0.18740995758E+04  0.50400001928E-02 0.  1.
    10030    2    1    2    0    0  0.00000000000E+00  0.00000000000E+00 -0.50782944119E+03  0.32403697103E+04  0.32003289078E+04 0.  0.
        2    1    3    3  502    0  0.10638092640E+04  0.90109916829E+03 -0.10491433253E+04  0.17448127631E+04  0.25500000920E-02 0.  1.
       -2    1    3    3    0  502 -0.10638092640E+04 -0.90109916829E+03  0.54131388409E+03  0.14955569472E+04  0.25500000920E-02 0. -1.
</event>
<event>
 5   0  0.9157524E-08  0.3200730E+04  0.7818609E-02  0.8188624E-01
       -2   -1    0    0    0  501  0.00000000000E+00  0.00000000000E+00  0.26520125511E+04  0.26520125511E+04  0.25500000920E-02 0.  1.
        2   -1    0    0  501    0  0.00000000000E+00  0.00000000000E+00 -0.96574510491E+03  0.96574510491E+03  0.25500000920E-02 0. -1.
    10030    2    1    2    0    0  0.00000000000E+00  0.00000000000E+00  0.16862674462E+04  0.36177576560E+04  0.32007300039E+04 0.  0.
        5    1    3    3  502    0  0.91710132688E+03 -0.18381042560E+03  0.23108966369E+04  0.24930155380E+04  0.46999998093E+01 0.  1.
       -5    1    3    3    0  502 -0.91710132688E+03  0.18381042560E+03 -0.62462919065E+03  0.11247421181E+04  0.46999998093E+01 0. -1.
</event>
<event>
 5   0  0.3427667E-08  0.3200453E+04  0.7818609E-02  0.8188698E-01
       -1   -1    0    0    0  501  0.00000000000E+00  0.00000000000E+00  0.10222234748E+04  0.10222234748E+04  0.50400001928E-02 0. -1.
        1   -1    0    0  501    0  0.00000000000E+00  0.00000000000E+00 -0.25050540389E+04  0.25050540389E+04  0.50400001928E-02 0.  1.
    10030    2    1    2    0    0  0.00000000000E+00  0.00000000000E+00 -0.14828305641E+04  0.35272775136E+04  0.32004531205E+04 0.  0.
        2    1    3    3  502    0 -0.14272629986E+04  0.71246669113E+03 -0.88098274602E+03  0.18223114585E+04  0.25500000920E-02 0. -1.
       -2    1    3    3    0  502  0.14272629986E+04 -0.71246669113E+03 -0.60184781806E+03  0.17049660551E+04  0.25500000920E-02 0.  1.
</event>
<event>
 5   0  0.3270966E-08  0.3199700E+04  0.7818609E-02  0.8188896E-01
       -1   -1    0    0    0  501  0.00000000000E+00  0.00000000000E+00  0.18514225678E+04  0.18514225678E+04  0.50400001928E-02 0. -1.
        1   -1    0    0  501    0  0.00000000000E+00  0.00000000000E+00 -0.13824614044E+04  0.13824614044E+04  0.50400001928E-02 0.  1.
    10030    2    1    2    0    0  0.00000000000E+00  0.00000000000E+00  0.46896116342E+03  0.32338839722E+04  0.31997001380E+04 0.  0.
        3    1    3    3  502    0  0.67161537201E+03 -0.69821394034E+03  0.15212478523E+04  0.18035423346E+04  0.10100000352E+00 0. -1.
       -3    1    3    3    0  502 -0.67161537201E+03  0.69821394034E+03 -0.10522866889E+04  0.14303416376E+04  0.10100000352E+00 0.  1.
</event>
<event>
 5   0  0.3283581E-08  0.3202001E+04  0.7818609E-02  0.8188289E-01
       -1   -1    0    0    0  501  0.00000000000E+00  0.00000000000E+00  0.28333597806E+04  0.28333597806E+04  0.50400001928E-02 0.  1.
        1   -1    0    0  501    0  0.00000000000E+00  0.00000000000E+00 -0.90465106704E+03  0.90465106705E+03  0.50400001928E-02 0. -1.
    10030    2    1    2    0    0  0.00000000000E+00  0.00000000000E+00  0.19287087135E+04  0.37380108476E+04  0.32020005927E+04 0.  0.
        5    1    3    3  502    0 -0.15360588281E+04 -0.31588672326E+03  0.58802679213E+03  0.16748309597E+04  0.46999998093E+01 0. -1.
       -5    1    3    3    0  502  0.15360588281E+04  0.31588672326E+03  0.13406819214E+04  0.20631798879E+04  0.46999998093E+01 0.  1.
</event>
<event>
 5   0  0.9329929E-08  0.3200556E+04  0.7818609E-02  0.8188670E-01
        2   -1    0    0  501    0  0.00000000000E+00  0.00000000000E+00  0.16239060326E+04  0.16239060326E+04  0.25500000920E-02 0. -1.
       -2   -1    0    0    0  501  0.00000000000E+00  0.00000000000E+00 -0.15769935836E+04  0.15769935836E+04  0.25500000920E-02 0.  1.
    10030    2    1    2    0    0  0.00000000000E+00  0.00000000000E+00  0.46912449001E+02  0.32008996162E+04  0.32005558229E+04 0.  0.
        1    1    3    3  502    0  0.65149811765E+03 -0.16539470448E+03  0.14758808575E+04  0.16217365727E+04  0.50400001928E-02 0. -1.
       -1    1    3    3    0  502 -0.65149811765E+03  0.16539470448E+03 -0.14289684085E+04  0.15791630436E+04  0.50400001928E-02 0.  1.
</event>
<event>
 5   0  0.3270966E-08  0.3195307E+04  0.7818609E-02  0.8190058E-01
        1   -1    0    0  501    0  0.00000000000E+00  0.00000000000E+00  0.29294627650E+04  0.29294627650E+04  0.50400001928E-02 0. -1.
       -1   -1    0    0    0  501  0.00000000000E+00  0.00000000000E+00 -0.87131917262E+03  0.87131917263E+03  0.50400001928E-02 0.  1.
    10030    2    1    2    0    0  0.00000000000E+00  0.00000000000E+00  0.20581435924E+04  0.38007819376E+04  0.31953072294E+04 0.  0.
        3    1    3    3  502    0  0.93850792543E+03  0.32522017294E+03  0.25175646361E+04  0.27064177420E+04  0.10100000352E+00 0. -1.
       -3    1    3    3    0  502 -0.93850792543E+03 -0.32522017294E+03 -0.45942104377E+03  0.10943641956E+04  0.10100000352E+00 0.  1.
</event>
<event>
 5   0  0.9353994E-08  0.3199802E+04  0.7818609E-02  0.8188869E-01
        2   -1    0    0  501    0  0.00000000000E+00  0.00000000000E+00  0.18215453592E+04  0.18215453592E+04  0.25500000920E-02 0.  1.
       -2   -1    0    0    0  501  0.00000000000E+00  0.00000000000E+00 -0.14052265517E+04  0.14052265517E+04  0.25500000920E-02 0. -1.
    10030    2    1    2    0    0  0.00000000000E+00  0.00000000000E+00  0.41631880754E+03  0.32267719108E+04  0.31998024338E+04 0.  0.
        2    1    3    3  502    0 -0.31837335000E+03  0.10675164230E+04  0.13661984718E+04  0.17627964056E+04  0.25500000920E-02 0.  1.
       -2    1    3    3    0  502  0.31837335000E+03 -0.10675164230E+04 -0.94987966425E+03  0.14639755052E+04  0.25500000920E-02 0. -1.
</event>
<event>
 5   0  0.3220147E-08  0.3199763E+04  0.7818609E-02  0.8188880E-01
        1   -1    0    0  501    0  0.00000000000E+00  0.00000000000E+00  0.16674147679E+04  0.16674147679E+04  0.50400001928E-02 0. -1.
       -1   -1    0    0    0  501  0.00000000000E+00  0.00000000000E+00 -0.15350831965E+04  0.15350831965E+04  0.50400001928E-02 0.  1.
    10030    2    1    2    0    0  0.00000000000E+00  0.00000000000E+00  0.13233157135E+03  0.32024979644E+04  0.31997627361E+04 0.  0.
        4    1    3    3  502    0  0.97684105761E+03 -0.35103947309E+03  0.12846511918E+04  0.16515984564E+04  0.12699999809E+01 0. -1.
       -4    1    3    3    0  502 -0.97684105761E+03  0.35103947309E+03 -0.11523196205E+04  0.15508995081E+04  0.12699999809E+01 0.  1.
</event>
<event>
 5   0  0.3283581E-08  0.3198226E+04  0.7818609E-02  0.8189286E-01
       -1   -1    0    0    0  501  0.00000000000E+00  0.00000000000E+00  0.15984484148E+04  0.15984484148E+04  0.50400001928E-02 0.  1.
        1   -1    0    0  501    0  0.00000000000E+00  0.00000000000E+00 -0.15997781014E+04  0.15997781015E+04  0.50400001928E-02 0. -1.
    10030    2    1    2    0    0  0.00000000000E+00  0.00000000000E+00 -0.13296866618E+01  0.31982265162E+04  0.31982262398E+04 0.  0.
        5    1    3    3  502    0 -0.13833198627E+04 -0.53074399518E+02  0.79980380485E+03  0.15987804573E+04  0.46999998093E+01 0. -1.
       -5    1    3    3    0  502  0.13833198627E+04  0.53074399518E+02 -0.80113349152E+03  0.15994460590E+04  0.46999998093E+01 0.  1.
</event>
<event>
 5   0  0.9157524E-08  0.3199602E+04  0.7818609E-02  0.8188922E-01
       -2   -1    0    0    0  501  0.00000000000E+00  0.00000000000E+00  0.16914547537E+04  0.16914547537E+04  0.25500000920E-02 0.  1.
        2   -1    0    0  501    0  0.00000000000E+00  0.00000000000E+00 -0.15131136955E+04  0.15131136955E+04  0.25500000920E-02 0. -1.
    10030    2    1    2    0    0  0.00000000000E+00  0.00000000000E+00  0.17834105819E+03  0.32045684492E+04  0.31996020710E+04 0.  0.
        5    1    3    3  502    0 -0.83998329238E+03 -0.10067848508E+04  0.10071921900E+04  0.16533740849E+04  0.46999998093E+01 0.  1.
       -5    1    3    3    0  502  0.83998329238E+03  0.10067848508E+04 -0.82885113177E+03  0.15511943643E+04  0.46999998093E+01 0. -1.
</event>
<event>
 5   0  0.3283581E-08  0.3212982E+04  0.7818609E-02  0.8185397E-01
       -1   -1    0    0    0  501  0.00000000000E+00  0.00000000000E+00  0.14645953410E+04  0.14645953410E+04  0.50400001928E-02 0.  1.
        1   -1    0    0  501    0  0.00000000000E+00  0.00000000000E+00 -0.17621335752E+04  0.17621335752E+04  0.50400001928E-02 0. -1.
    10030    2    1    2    0    0  0.00000000000E+00  0.00000000000E+00 -0.29753823424E+03  0.32267289162E+04  0.32129815589E+04 0.  0.
        5    1    3    3  502    0 -0.68683641325E+03  0.69789571465E+03  0.11302529754E+04  0.14954252123E+04  0.46999998093E+01 0.  1.
       -5    1    3    3    0  502  0.68683641325E+03 -0.69789571465E+03 -0.14277912096E+04  0.17313037040E+04  0.46999998093E+01 0. -1.
</event>
<event>
 5   0  0.3427667E-08  0.3203423E+04  0.7818609E-02  0.8187914E-01
        1   -1    0    0  501    0  0.00000000000E+00  0.00000000000E+00  0.13182350690E+04  0.13182350690E+04  0.50400001928E-02 0.  1.
       -1   -1    0    0    0  501  0.00000000000E+00  0.00000000000E+00 -0.19461468040E+04  0.19461468040E+04  0.50400001928E-02 0. -1.
    10030    2    1    2    0    0  0.00000000000E+00  0.00000000000E+00 -0.62791173504E+03  0.32643818730E+04  0.32034225238E+04 0.  0.
        2    1    3    3  502    0  0.10099536267E+04  0.70132929842E+03 -0.13599437286E+04  0.18333892271E+04  0.25500000920E-02 0. -1.
       -2    1    3    3    0  502 -0.10099536267E+04 -0.70132929842E+03  0.73203199360E+03  0.14309926459E+04  0.25500000920E-02 0.  1.
</event>
<event>
 5   0  0.9329929E-08  0.3200518E+04  0.7818609E-02  0.8188680E-01
       -2   -1    0    0    0  501  0.00000000000E+00  0.00000000000E+00  0.79173877734E+03  0.79173877735E+03  0.25500000920E-02 0. -1.
        2   -1    0    0  501    0  0.00000000000E+00  0.00000000000E+00 -0.32344363675E+04  0.32344363675E+04  0.25500000920E-02 0.  1.
    10030    2    1    2    0    0  0.00000000000E+00  0.00000000000E+00 -0.24426975901E+04  0.40261751448E+04  0.32005178925E+04 0.  0.
        1    1    3    3  502    0  0.15256640253E+03  0.15508667681E+04 -0.76367284440E+03  0.17354136259E+04  0.50400001928E-02 0. -1.
       -1    1    3    3    0  502 -0.15256640253E+03 -0.15508667681E+04 -0.16790247457E+04  0.22907615189E+04  0.50400001928E-02 0.  1.
</event>
<event>
 5   0  0.3220147E-08  0.3199334E+04  0.7818609E-02  0.8188993E-01
        1   -1    0    0  501    0  0.00000000000E+00  0.00000000000E+00  0.23272500684E+04  0.23272500684E+04  0.50400001928E-02 0.  1.
       -1   -1    0    0    0  501  0.00000000000E+00  0.00000000000E+00 -0.10995531570E+04  0.10995531570E+04  0.50400001928E-02 0. -1.
    10030    2    1    2    0    0  0.00000000000E+00  0.00000000000E+00  0.12276969114E+04  0.34268032254E+04  0.31993344057E+04 0.  0.
        4    1    3    3  502    0 -0.10234369327E+04 -0.59568181492E+03 -0.53810501088E+03  0.13006992718E+04  0.12699999809E+01 0. -1.
       -4    1    3    3    0  502  0.10234369327E+04  0.59568181492E+03  0.17658019223E+04  0.21261039536E+04  0.12699999809E+01 0.  1.
</event>
<event>
 5   0  0.9329929E-08  0.3201768E+04  0.7818609E-02  0.8188350E-01
        2   -1    0    0  501    0  0.00000000000E+00  0.00000000000E+00  0.17815669893E+04  0.17815669893E+04  0.25500000920E-02 0.  1.
       -2   -1    0    0    0  501  0.00000000000E+00  0.00000000000E+00 -0.14385255624E+04  0.14385255624E+04  0.25500000920E-02 0. -1.
    10030    2    1    2    0    0  0.00000000000E+00  0.00000000000E+00  0.34304142687E+03  0.32200925517E+04  0.32017680461E+04 0.  0.
        1    1    3    3  502    0  0.19006418897E+03  0.14269538111E+04 -0.53285045565E+03  0.15350085286E+04  0.50400001928E-02 0. -1.
       -1    1    3    3    0  502 -0.19006418897E+03 -0.14269538111E+04  0.87589188252E+03  0.16850840230E+04  0.50400001928E-02 0.  1.
</event>
<event>
 5   0  0.9329929E-08  0.3199393E+04  0.7818609E-02  0.8188977E-01
        2   -1    0    0  501    0  0.00000000000E+00  0.00000000000E+00  0.20553057239E+04  0.20553057239E+04  0.25500000920E-02 0.  1.
       -2   -1    0    0    0  501  0.00000000000E+00  0.00000000000E+00 -0.12450843345E+04  0.12450843345E+04  0.25500000920E-02 0. -1.
    10030    2    1    2    0    0  0.00000000000E+00  0.00000000000E+00  0.81022138942E+03  0.33003900584E+04  0.31993930420E+04 0.  0.
        1    1    3    3  502    0 -0.49863440141E+03  0.12671603135E+04  0.12710730620E+04  0.18627823961E+04  0.50400001928E-02 0.  1.
       -1    1    3    3    0  502  0.49863440141E+03 -0.12671603135E+04 -0.46085167256E+03  0.14376076622E+04  0.50400001928E-02 0. -1.
</event>
<event>
 5   0  0.3220147E-08  0.3195526E+04  0.7818609E-02  0.8190000E-01
        1   -1    0    0  501    0  0.00000000000E+00  0.00000000000E+00  0.25387292040E+04  0.25387292040E+04  0.50400001928E-02 0. -1.
       -1   -1    0    0    0  501  0.00000000000E+00  0.00000000000E+00 -0.10055605660E+04  0.10055605660E+04  0.50400001928E-02 0.  1.
    10030    2    1    2    0    0  0.00000000000E+00  0.00000000000E+00  0.15331686380E+04  0.35442897700E+04  0.31955256064E+04 0.  0.
        4    1    3    3  502    0 -0.28056830809E+03 -0.58707758873E+03  0.23851198695E+04  0.24722817549E+04  0.12699999809E+01 0. -1.
       -4    1    3    3    0  502  0.28056830809E+03  0.58707758873E+03 -0.85195123151E+03  0.10720080151E+04  0.12699999809E+01 0.  1.
</event>
<event>
 5   0  0.3270966E-08  0.3199436E+04  0.7818609E-02  0.8188966E-01
        1   -1    0    0  501    0  0.00000000000E+00  0.00000000000E+00  0.77600713027E+03  0.77600713029E+03  0.50400001928E-02 0.  1.
       -1   -1    0    0    0  501  0.00000000000E+00  0.00000000000E+00 -0.32977767622E+04  0.32977767623E+04  0.50400001928E-02 0. -1.
    10030    2    1    2    0    0  0.00000000000E+00  0.00000000000E+00 -0.25217696320E+04  0.40737838925E+04  0.31994363764E+04 0.  0.
        3    1    3    3  502    0  0.68297054445E+03  0.11117498289E+03 -0.30973656932E+04  0.31737175187E+04  0.10100000352E+00 0. -1.
       -3    1    3    3    0  502 -0.68297054445E+03 -0.11117498289E+03  0.57559606118E+03  0.90006637381E+03  0.10100000352E+00 0.  1.
</event>
<event>
 5   0  0.9727083E-08  0.3199360E+04  0.7818609E-02  0.8188986E-01
       -2   -1    0    0    0  501  0.00000000000E+00  0.00000000000E+00  0.98364252005E+03  0.98364252005E+03  0.25500000920E-02 0. -1.
        2   -1    0    0  501    0  0.00000000000E+00  0.00000000000E+00 -0.26015301845E+04  0.26015301845E+04  0.25500000920E-02 0.  1.
    10030    2    1    2    0    0  0.00000000000E+00  0.00000000000E+00 -0.16178876644E+04  0.35851727045E+04  0.31993597526E+04 0.  0.
        4    1    3    3  502    0 -0.24247456638E+03 -0.10097446462E+03 -0.25772005295E+04  0.25905508951E+04  0.12699999809E+01 0.  1.
       -4    1    3    3    0  502  0.24247456638E+03  0.10097446462E+03  0.95931286507E+03  0.99462180945E+03  0.12699999809E+01 0. -1.
</event>
<event>
 5   0  0.3220147E-08  0.3200696E+04  0.7818609E-02  0.8188633E-01
        1   -1    0    0  501    0  0.00000000000E+00  0.00000000000E+00  0.14605133988E+04  0.14605133989E+04  0.50400001928E-02 0.  1.
       -1   -1    0    0    0  501  0.00000000000E+00  0.00000000000E+00 -0.17535703911E+04  0.17535703911E+04  0.50400001928E-02 0. -1.
    10030    2    1    2    0    0  0.00000000000E+00  0.00000000000E+00 -0.29305699227E+03  0.32140837900E+04  0.32006955819E+04 0.  0.
        4    1    3    3  502    0  0.30007515798E+03 -0.74994446829E+03  0.12407892149E+04  0.14805476334E+04  0.12699999809E+01 0.  1.
       -4    1    3    3    0  502 -0.30007515798E+03  0.74994446829E+03 -0.15338462072E+04  0.17335361566E+04  0.12699999809E+01 0. -1.
</event>
<event>
 5   0  0.3343140E-08  0.3199721E+04  0.7818609E-02  0.8188891E-01
        1   -1    0    0  501    0  0.00000000000E+00  0.00000000000E+00  0.13076642119E+04  0.13076642119E+04  0.50400001928E-02 0. -1.
       -1   -1    0    0    0  501  0.00000000000E+00  0.00000000000E+00 -0.19573476481E+04  0.19573476481E+04  0.50400001928E-02 0.  1.
    10030    2    1    2    0    0  0.00000000000E+00  0.00000000000E+00 -0.64968343620E+03  0.32650118601E+04  0.31997209064E+04 0.  0.
        1    1    3    3  502    0 -0.14865559695E+04  0.36631503891E+02  0.27742469659E+03  0.15126648604E+04  0.50400001928E-02 0. -1.
       -1    1    3    3    0  502  0.14865559695E+04 -0.36631503891E+02 -0.92710813279E+03  0.17523469997E+04  0.50400001928E-02 0.  1.
</event>
<event>
 5   0  0.3283581E-08  0.3201226E+04  0.7818609E-02  0.8188493E-01
       -1   -1    0    0    0  501  0.00000000000E+00  0.00000000000E+00  0.34071464804E+04  0.34071464804E+04  0.50400001928E-02 0.  1.
        1   -1    0    0  501    0  0.00000000000E+00  0.00000000000E+00 -0.75193795520E+03  0.75193795522E+03  0.50400001928E-02 0. -1.
    10030    2    1    2    0    0  0.00000000000E+00  0.00000000000E+00  0.26552085252E+04  0.41590844356E+04  0.32012264884E+04 0.  0.
        5    1    3    3  502    0  0.87903288907E+02  0.12548760596E+04  0.41774419422E+02  0.12586532904E+04  0.46999998093E+01 0. -1.
       -5    1    3    3    0  502 -0.87903288907E+02 -0.12548760596E+04  0.26134341057E+04  0.29004311452E+04  0.46999998093E+01 0.  1.
</event>
<event>
 5   0  0.9727083E-08  0.3201434E+04  0.7818609E-02  0.8188439E-01
        2   -1    0    0  501    0  0.00000000000E+00  0.00000000000E+00  0.27384344625E+04  0.27384344625E+04  0.25500000920E-02 0.  1.
       -2   -1    0    0    0  501  0.00000000000E+00  0.00000000000E+00 -0.93567863292E+03  0.93567863293E+03  0.25500000920E-02 0. -1.
    10030    2    1    2    0    0  0.00000000000E+00  0.00000000000E+00  0.18027558296E+04  0.36741130954E+04  0.32014338127E+04 0.  0.
        4    1    3    3  502    0  0.82961477263E+03  0.33440388205E+03 -0.62210075083E+03  0.10895400793E+04  0.12699999809E+01 0. -1.
       -4    1    3    3    0  502 -0.82961477263E+03 -0.33440388205E+03  0.24248565804E+04  0.25845730162E+04  0.12699999809E+01 0.  1.
</event>
<event>
 5   0  0.9353994E-08  0.3195891E+04  0.7818609E-02  0.8189903E-01
       -2   -1    0    0    0  501  0.00000000000E+00  0.00000000000E+00  0.26796503125E+04  0.26796503125E+04  0.25500000920E-02 0. -1.
        2   -1    0    0  501    0  0.00000000000E+00  0.00000000000E+00 -0.95289660640E+03  0.95289660640E+03  0.25500000920E-02 0.  1.
    10030    2    1    2    0    0  0.00000000000E+00  0.00000000000E+00  0.17267537061E+04  0.36325469189E+04  0.31958909175E+04 0.  0.
        2    1    3    3  502    0  0.91031153417E+02 -0.15828067665E+04  0.63643254302E+03  0.17083940742E+04  0.25500000920E-02 0. -1.
       -2    1    3    3    0  502 -0.91031153417E+02  0.15828067665E+04  0.10903211630E+04  0.19241528447E+04  0.25500000920E-02 0.  1.
</event>
<event>
 5   0  0.3283581E-08  0.3201756E+04  0.7818609E-02  0.8188354E-01
       -1   -1    0    0    0  501  0.00000000000E+00  0.00000000000E+00  0.13531154918E+04  0.13531154918E+04  0.50400001928E-02 0. -1.
        1   -1    0    0  501    0  0.00000000000E+00  0.00000000000E+00 -0.18940073888E+04  0.18940073888E+04  0.50400001928E-02 0.  1.
    10030    2    1    2    0    0  0.00000000000E+00  0.00000000000E+00 -0.54089189700E+03  0.32471228807E+04  0.32017562302E+04 0.  0.
        5    1    3    3  502    0  0.34014628658E+03 -0.13042003427E+04 -0.11464854967E+04  0.17694883764E+04  0.46999998093E+01 0.  1.
       -5    1    3    3    0  502 -0.34014628658E+03  0.13042003427E+04  0.60559359972E+03  0.14776345042E+04  0.46999998093E+01 0. -1.
</event>
<event>
 5   0  0.3343140E-08  0.3200706E+04  0.7818609E-02  0.8188631E-01
       -1   -1    0    0    0  501  0.00000000000E+00  0.00000000000E+00  0.16062284326E+04  0.16062284326E+04  0.50400001928E-02 0.  1.
        1   -1    0    0  501    0  0.00000000000E+00  0.00000000000E+00 -0.15944995440E+04  0.15944995440E+04  0.50400001928E-02 0. -1.
    10030    2    1    2    0    0  0.00000000000E+00  0.00000000000E+00  0.11728888556E+02  0.32007279767E+04  0.32007064867E+04 0.  0.
        1    1    3    3  502    0 -0.14214551598E+04 -0.46041738122E+03  0.57911480838E+03  0.16024646322E+04  0.50400001928E-02 0. -1.
       -1    1    3    3    0  502  0.14214551598E+04  0.46041738122E+03 -0.56738591982E+03  0.15982633444E+04  0.50400001928E-02 0.  1.
</event>
<event>
 5   0  0.9707721E-08  0.3200120E+04  0.7818609E-02  0.8188785E-01
        2   -1    0    0  501    0  0.00000000000E+00  0.00000000000E+00  0.19295701412E+04  0.19295701412E+04  0.25500000920E-02 0. -1.
       -2   -1    0    0    0  501  0.00000000000E+00  0.00000000000E+00 -0.13268198853E+04  0.13268198853E+04  0.25500000920E-02 0.  1.
    10030    2    1    2    0    0  0.00000000000E+00  0.00000000000E+00  0.60275025584E+03  0.32563900265E+04  0.32001200186E+04 0.  0.
        3    1    3    3  502    0  0.12816975803E+04 -0.92761415698E+03  0.54426729201E+03  0.16731537905E+04  0.10100000352E+00 0. -1.
       -3    1    3    3    0  502 -0.12816975803E+04  0.92761415698E+03  0.58482963825E+02  0.15832362359E+04  0.10100000352E+00 0.  1.
</event>
<event>
 5   0  0.9727083E-08  0.3199929E+04  0.7818609E-02  0.8188836E-01
       -2   -1    0    0    0  501  0.00000000000E+00  0.00000000000E+00  0.15207830269E+04  0.15207830269E+04  0.25500000920E-02 0. -1.
        2   -1    0    0  501    0  0.00000000000E+00  0.00000000000E+00 -0.16832687209E+04  0.16832687209E+04  0.25500000920E-02 0.  1.
    10030    2    1    2    0    0  0.00000000000E+00  0.00000000000E+00 -0.16248569403E+03  0.32040517477E+04  0.31999290619E+04 0.  0.
        4    1    3    3  502    0  0.96053656763E+03 -0.12636961101E+04 -0.28231623879E+03  0.16122228220E+04  0.12699999809E+01 0.  1.
       -4    1    3    3    0  502 -0.96053656763E+03  0.12636961101E+04  0.11983054476E+03  0.15918289257E+04  0.12699999809E+01 0. -1.
</event>
<event>
 5   0  0.9727083E-08  0.3215496E+04  0.7818609E-02  0.8184737E-01
       -2   -1    0    0    0  501  0.00000000000E+00  0.00000000000E+00  0.27704892899E+04  0.27704892899E+04  0.25500000920E-02 0. -1.
        2   -1    0    0  501    0  0.00000000000E+00  0.00000000000E+00 -0.93299510971E+03  0.93299510971E+03  0.25500000920E-02 0.  1.
    10030    2    1    2    0    0  0.00000000000E+00  0.00000000000E+00  0.18374941802E+04  0.37034843996E+04  0.32154955817E+04 0.  0.
        4    1    3    3  502    0 -0.76638009712E+03 -0.32265360674E+03 -0.66609009995E+03  0.10654207795E+04  0.12699999809E+01 0.  1.
       -4    1    3    3    0  502  0.76638009712E+03  0.32265360674E+03  0.25035842801E+04  0.26380636201E+04  0.12699999809E+01 0. -1.
</event>
<event>
 5   0  0.3270966E-08  0.3199179E+04  0.7818609E-02  0.8189034E-01
       -1   -1    0    0    0  501  0.00000000000E+00  0.00000000000E+00  0.13226890342E+04  0.13226890343E+04  0.50400001928E-02 0.  1.
        1   -1    0    0  501    0  0.00000000000E+00  0.00000000000E+00 -0.19344581319E+04  0.19344581319E+04  0.50400001928E-02 0. -1.
    10030    2    1    2    0    0  0.00000000000E+00  0.00000000000E+00 -0.61176909763E+03  0.32571471661E+04  0.31991789936E+04 0.  0.
        3    1    3    3  502    0  0.13185661515E+04  0.38683962648E+03  0.52774658898E+03  0.14719979840E+04  0.10100000352E+00 0.  1.
       -3    1    3    3    0  502 -0.13185661515E+04 -0.38683962648E+03 -0.11395156866E+04  0.17851491822E+04  0.10100000352E+00 0. -1.
</event>
<event>
 5   0  0.3270966E-08  0.3201733E+04  0.7818609E-02  0.8188360E-01
        1   -1    0    0  501    0  0.00000000000E+00  0.00000000000E+00  0.22310705565E+04  0.22310705565E+04  0.50400001928E-02 0.  1.
       -1   -1    0    0    0  501  0.00000000000E+00  0.00000000000E+00 -0.11486742844E+04  0.11486742844E+04  0.50400001928E-02 0. -1.
    10030    2    1    2    0    0  0.00000000000E+00  0.00000000000E+00  0.10823962721E+04  0.33797448409E+04  0.32017328901E+04 0.  0.
        3    1    3    3  502    0 -0.11111437741E+04  0.35360800678E+03  0.16990383864E+04  0.20606820613E+04  0.10100000352E+00 0.  1.
       -3    1    3    3    0  502  0.11111437741E+04 -0.35360800678E+03 -0.61664211427E+03  0.13190627796E+04  0.10100000352E+00 0. -1.
</event>
<event>
 5   0  0.3270966E-08  0.3197291E+04  0.7818609E-02  0.8189533E-01
       -1   -1    0    0    0  501  0.00000000000E+00  0.00000000000E+00  0.10732623642E+04  0.10732623642E+04  0.50400001928E-02 0.  1.
        1   -1    0    0  501    0  0.00000000000E+00  0.00000000000E+00 -0.23812146916E+04  0.23812146916E+04  0.50400001928E-02 0. -1.
    10030    2    1    2    0    0  0.00000000000E+00  0.00000000000E+00 -0.13079523274E+04  0.34544770557E+04  0.31972914221E+04 0.  0.
        3    1    3    3  502    0 -0.73778703078E+03 -0.13760414551E+04 -0.10248803798E+04  0.18676722389E+04  0.10100000352E+00 0. -1.
       -3    1    3    3    0  502  0.73778703078E+03  0.13760414551E+04 -0.28307194755E+03  0.15868048168E+04  0.10100000352E+00 0.  1.
</event>
<event>
 5   0  0.3427667E-08  0.3199857E+04  0.7818609E-02  0.8188855E-01
       -1   -1    0    0    0  501  0.00000000000E+00  0.00000000000E+00  0.30500839582E+04  0.30500839582E+04  0.50400001928E-02 0.  1.
        1   -1    0    0  501    0  0.00000000000E+00  0.00000000000E+00 -0.83924624690E+03  0.83924624691E+03  0.50400001928E-02 0. -1.
    10030    2    1    2    0    0  0.00000000000E+00  0.00000000000E+00  0.22108377113E+04  0.38893302052E+04  0.31998571935E+04 0.  0.
        2    1    3    3  502    0  0.11769479292E+03 -0.16411597755E+02 -0.83387479448E+03  0.84229957716E+03  0.25500000920E-02 0. -1.
       -2    1    3    3    0  502 -0.11769479292E+03  0.16411597755E+02  0.30447125058E+04  0.30470306280E+04  0.25500000920E-02 0.  1.
</event>
<event>
 5   0  0.9707721E-08  0.3200948E+04  0.7818609E-02  0.8188567E-01
       -2   -1    0    0    0  501  0.00000000000E+00  0.00000000000E+00  0.12005265584E+04  0.12005265584E+04  0.25500000920E-02 0.  1.
        2   -1    0    0  501    0  0.00000000000E+00  0.00000000000E+00 -0.21336606631E+04  0.21336606631E+04  0.25500000920E-02 0. -1.
    10030    2    1    2    0    0  0.00000000000E+00  0.00000000000E+00 -0.93313410466E+03  0.33341872215E+04  0.32009475427E+04 0.  0.
        3    1    3    3  502    0  0.37222901079E+03 -0.39160975869E+03  0.11026623459E+04  0.12279156726E+04  0.10100000352E+00 0.  1.
       -3    1    3    3    0  502 -0.37222901079E+03  0.39160975869E+03 -0.20357964506E+04  0.21062715490E+04  0.10100000352E+00 0. -1.
</event>
<event>
 5   0  0.9707721E-08  0.3197547E+04  0.7818609E-02  0.8189465E-01
        2   -1    0    0  501    0  0.00000000000E+00  0.00000000000E+00  0.27047317989E+04  0.27047317989E+04  0.25500000920E-02 0.  1.
       -2   -1    0    0    0  501  0.00000000000E+00  0.00000000000E+00 -0.94503902274E+03  0.94503902274E+03  0.25500000920E-02 0. -1.
    10030    2    1    2    0    0  0.00000000000E+00  0.00000000000E+00  0.17596927762E+04  0.36497708216E+04  0.31975472450E+04 0.  0.
        3    1    3    3  502    0 -0.55250234693E+03  0.13936136199E+04  0.15139910235E+04  0.21306305626E+04  0.10100000352E+00 0.  1.
       -3    1    3    3    0  502  0.55250234693E+03 -0.13936136199E+04  0.24570175266E+03  0.15191402590E+04  0.10100000352E+00 0. -1.
</event>
<event>
 5   0  0.3270966E-08  0.3199179E+04  0.7818609E-02  0.8189034E-01
        1   -1    0    0  501    0  0.00000000000E+00  0.00000000000E+00  0.23165876514E+04  0.23165876514E+04  0.50400001928E-02 0. -1.
       -1   -1    0    0    0  501  0.00000000000E+00  0.00000000000E+00 -0.11045067148E+04  0.11045067148E+04  0.50400001928E-02 0.  1.
    10030    2    1    2    0    0  0.00000000000E+00  0.00000000000E+00  0.12120809367E+04  0.34210943662E+04  0.31991790299E+04 0.  0.
        3    1    3    3  502    0 -0.11041585397E+04  0.30351643753E+03  0.18003835078E+04  0.21336984543E+04  0.10100000352E+00 0. -1.
       -3    1    3    3    0  502  0.11041585397E+04 -0.30351643753E+03 -0.58830257110E+03  0.12873959119E+04  0.10100000352E+00 0.  1.
</event>
<event>
 5   0  0.9353994E-08  0.3197149E+04  0.7818609E-02  0.8189571E-01
        2   -1    0    0  501    0  0.00000000000E+00  0.00000000000E+00  0.16558956148E+04  0.16558956148E+04  0.25500000920E-02 0.  1.
       -2   -1    0    0    0  501  0.00000000000E+00  0.00000000000E+00 -0.15432374840E+04  0.15432374840E+04  0.25500000920E-02 0. -1.
    10030    2    1    2    0    0  0.00000000000E+00  0.00000000000E+00  0.11265813074E+03  0.31991330988E+04  0.31971488438E+04 0.  0.
        2    1    3    3  502    0 -0.80411927308E+03  0.55106835158E+03  0.13240629064E+04  0.16442100576E+04  0.25500000920E-02 0.  1.
       -2    1    3    3    0  502  0.80411927308E+03 -0.55106835158E+03 -0.12114047757E+04  0.15549230412E+04  0.25500000920E-02 0. -1.
</event>
<event>
 5   0  0.9329929E-08  0.3200306E+04  0.7818609E-02  0.8188736E-01
       -2   -1    0    0    0  501  0.00000000000E+00  0.00000000000E+00  0.13930682134E+04  0.13930682134E+04  0.25500000920E-02 0.  1.
        2   -1    0    0  501    0  0.00000000000E+00  0.00000000000E+00 -0.18380214449E+04  0.18380214449E+04  0.25500000920E-02 0. -1.
    10030    2    1    2    0    0  0.00000000000E+00  0.00000000000E+00 -0.44495323146E+03  0.32310896583E+04  0.32003057669E+04 0.  0.
        1    1    3    3  502    0  0.58660575009E+01 -0.96972297494E+03  0.10625952025E+04  0.14385776389E+04  0.50400001928E-02 0.  1.
       -1    1    3    3    0  502 -0.58660575009E+01  0.96972297494E+03 -0.15075484340E+04  0.17925120194E+04  0.50400001928E-02 0. -1.
</event>
<event>
 5   0  0.9727083E-08  0.3200015E+04  0.7818609E-02  0.8188813E-01
        2   -1    0    0  501    0  0.00000000000E+00  0.00000000000E+00  0.19095280541E+04  0.19095280541E+04  0.25500000920E-02 0.  1.
       -2   -1    0    0    0  501  0.00000000000E+00  0.00000000000E+00 -0.13406583130E+04  0.13406583130E+04  0.25500000920E-02 0. -1.
    10030    2    1    2    0    0  0.00000000000E+00  0.00000000000E+00  0.56886974110E+03  0.32501863671E+04  0.32000154122E+04 0.  0.
        4    1    3    3  502    0  0.12353877025E+04  0.92597162310E+03  0.71104011926E+03  0.16997605380E+04  0.12699999809E+01 0.  1.
       -4    1    3    3    0  502 -0.12353877025E+04 -0.92597162310E+03 -0.14217037816E+03  0.15504258291E+04  0.12699999809E+01 0. -1.
</event>
<event>
 5   0  0.3283581E-08  0.3190415E+04  0.7818609E-02  0.8191353E-01
        1   -1    0    0  501    0  0.00000000000E+00  0.00000000000E+00  0.20058953334E+04  0.20058953334E+04  0.50400001928E-02 0.  1.
       -1   -1    0    0    0  501  0.00000000000E+00  0.00000000000E+00 -0.12686040872E+04  0.12686040872E+04  0.50400001928E-02 0. -1.
    10030    2    1    2    0    0  0.00000000000E+00  0.00000000000E+00  0.73729124617E+03  0.32744994205E+04  0.31904150315E+04 0.  0.
        5    1    3    3  502    0 -0.42593663446E+03  0.10788132580E+04  0.14926827038E+04  0.18903396008E+04  0.46999998093E+01 0.  1.
       -5    1    3    3    0  502  0.42593663446E+03 -0.10788132580E+04 -0.75539145765E+03  0.13841598197E+04  0.46999998093E+01 0. -1.
</event>
<event>
 5   0  0.9329929E-08  0.3199877E+04  0.7818609E-02  0.8188850E-01
       -2   -1    0    0    0  501  0.00000000000E+00  0.00000000000E+00  0.80270724638E+03  0.80270724638E+03  0.25500000920E-02 0.  1.
        2   -1    0    0  501    0  0.00000000000E+00  0.00000000000E+00 -0.31889626597E+04  0.31889626597E+04  0.25500000920E-02 0. -1.
    10030    2    1    2    0    0  0.00000000000E+00  0.00000000000E+00 -0.23862554133E+04  0.39916699061E+04  0.31998771448E+04 0.  0.
        1    1    3    3  502    0  0.41371159202E+03 -0.11941434554E+04  0.30810478588E+02  0.12641539301E+04  0.50400001928E-02 0.  1.
       -1    1    3    3    0  502 -0.41371159202E+03  0.11941434554E+04 -0.24170658919E+04  0.27275159760E+04  0.50400001928E-02 0. -1.
</event>
<event>
 5   0  0.9707721E-08  0.3200175E+04  0.7818609E-02  0.8188771E-01
        2   -1    0    0  501    0  0.00000000000E+00  0.00000000000E+00  0.14611822093E+04  0.14611822093E+04  0.25500000920E-02 0. -1.
       -2   -1    0    0    0  501  0.00000000000E+00  0.00000000000E+00 -0.17521976875E+04  0.17521976875E+04  0.25500000920E-02 0.  1.
    10030    2    1    2    0    0  0.00000000000E+00  0.00000000000E+00 -0.29101547815E+03  0.32133798968E+04  0.32001750503E+04 0.  0.
        3    1    3    3  502    0  0.13302001229E+04 -0.15507650113E+03 -0.10247916032E+04  0.16863211226E+04  0.10100000352E+00 0.  1.
       -3    1    3    3    0  502 -0.13302001229E+04  0.15507650113E+03  0.73377612501E+03  0.15270587743E+04  0.10100000352E+00 0. -1.
</event>
<event>
 5   0  0.3220147E-08  0.3195672E+04  0.7818609E-02  0.8189961E-01
       -1   -1    0    0    0  501  0.00000000000E+00  0.00000000000E+00  0.17181687530E+04  0.17181687530E+04  0.50400001928E-02 0.  1.
        1   -1    0    0  501    0  0.00000000000E+00  0.00000000000E+00 -0.14859307113E+04  0.14859307113E+04  0.50400001928E-02 0. -1.
    10030    2    1    2    0    0  0.00000000000E+00  0.00000000000E+00  0.23223804174E+03  0.32040994643E+04  0.31956718964E+04 0.  0.
        4    1    3    3  502    0  0.10096923888E+04 -0.11179498923E+04 -0.41800287008E+03  0.15633357586E+04  0.12699999809E+01 0. -1.
       -4    1    3    3    0  502 -0.10096923888E+04  0.11179498923E+04  0.65024091182E+03  0.16407637057E+04  0.12699999809E+01 0.  1.
</event>
<event>
 5   0  0.9157524E-08  0.3200915E+04  0.7818609E-02  0.8188575E-01
        2   -1    0    0  501    0  0.00000000000E+00  0.00000000000E+00  0.18495344968E+04  0.18495344968E+04  0.25500000920E-02 0.  1.
       -2   -1    0    0    0  501  0.00000000000E+00  0.00000000000E+00 -0.13849239893E+04  0.13849239893E+04  0.25500000920E-02 0. -1.
    10030    2    1    2    0    0  0.00000000000E+00  0.00000000000E+00  0.46461050749E+03  0.32344584860E+04  0.32009153026E+04 0.  0.
        5    1    3    3  502    0  0.56192321170E+03 -0.13725835897E+04 -0.37541144639E+03  0.15299343942E+04  0.46999998093E+01 0. -1.
       -5    1    3    3    0  502 -0.56192321170E+03  0.13725835897E+04  0.84002195387E+03  0.17045240918E+04  0.46999998093E+01 0.  1.
</event>
<event>
 5   0  0.9353994E-08  0.3200436E+04  0.7818609E-02  0.8188702E-01
       -2   -1    0    0    0  501  0.00000000000E+00  0.00000000000E+00  0.16126935606E+04  0.16126935606E+04  0.25500000920E-02 0. -1.
        2   -1    0    0  501    0  0.00000000000E+00  0.00000000000E+00 -0.15878385857E+04  0.15878385857E+04  0.25500000920E-02 0.  1.
    10030    2    1    2    0    0  0.00000000000E+00  0.00000000000E+00  0.24854974943E+02  0.32005321463E+04  0.32004356344E+04 0.  0.
        2    1    3    3  502    0 -0.52131778632E+03 -0.71287168087E+03  0.13469109815E+04  0.16106295228E+04  0.25500000920E-02 0. -1.
       -2    1    3    3    0  502  0.52131778632E+03  0.71287168087E+03 -0.13220560065E+04  0.15899026235E+04  0.25500000920E-02 0.  1.
</event>
<event>
 5   0  0.9353994E-08  0.3199652E+04  0.7818609E-02  0.8188909E-01
        2   -1    0    0  501    0  0.00000000000E+00  0.00000000000E+00  0.15744238562E+04  0.15744238562E+04  0.25500000920E-02 0. -1.
       -2   -1    0    0    0  501  0.00000000000E+00  0.00000000000E+00 -0.16256380982E+04  0.16256380982E+04  0.25500000920E-02 0.  1.
    10030    2    1    2    0    0  0.00000000000E+00  0.00000000000E+00 -0.51214242015E+02  0.32000619545E+04  0.31996521083E+04 0.  0.
        2    1    3    3  502    0 -0.15848721539E+04 -0.68960330918E+02  0.18146560705E+03  0.15967169561E+04  0.25500000920E-02 0. -1.
       -2    1    3    3    0  502  0.15848721539E+04  0.68960330918E+02 -0.23267984906E+03  0.16033449983E+04  0.25500000920E-02 0.  1.
</event>
<event>
 5   0  0.3270966E-08  0.3200846E+04  0.7818609E-02  0.8188594E-01
        1   -1    0    0  501    0  0.00000000000E+00  0.00000000000E+00  0.13159002332E+04  0.13159002332E+04  0.50400001928E-02 0.  1.
       -1   -1    0    0    0  501  0.00000000000E+00  0.00000000000E+00 -0.19464644495E+04  0.19464644496E+04  0.50400001928E-02 0. -1.
    10030    2    1    2    0    0  0.00000000000E+00  0.00000000000E+00 -0.63056421635E+03  0.32623646828E+04  0.32008455277E+04 0.  0.
        3    1    3    3  502    0 -0.64759273943E+03 -0.13891868807E+04 -0.78471709835E+03  0.17219168041E+04  0.10100000352E+00 0. -1.
       -3    1    3    3    0  502  0.64759273943E+03  0.13891868807E+04  0.15415288200E+03  0.15404478786E+04  0.10100000352E+00 0.  1.
</event>
<event>
 5   0  0.3427667E-08  0.3202713E+04  0.7818609E-02  0.8188101E-01
       -1   -1    0    0    0  501  0.00000000000E+00  0.00000000000E+00  0.10622763257E+04  0.10622763257E+04  0.50400001928E-02 0.  1.
        1   -1    0    0  501    0  0.00000000000E+00  0.00000000000E+00 -0.24140066743E+04  0.24140066743E+04  0.50400001928E-02 0. -1.
    10030    2    1    2    0    0  0.00000000000E+00  0.00000000000E+00 -0.13517303486E+04  0.34762830001E+04  0.32027126879E+04 0.  0.
        2    1    3    3  502    0 -0.68662154012E+03 -0.13125076649E+03 -0.22396460762E+04  0.23462076741E+04  0.25500000920E-02 0. -1.
       -2    1    3    3    0  502  0.68662154012E+03  0.13125076649E+03  0.88791572763E+03  0.11300753260E+04  0.25500000920E-02 0.  1.
</event>
<event>
 5   0  0.9329929E-08  0.3199716E+04  0.7818609E-02  0.8188892E-01
       -2   -1    0    0    0  501  0.00000000000E+00  0.00000000000E+00  0.13396611681E+04  0.13396611681E+04  0.25500000920E-02 0.  1.
        2   -1    0    0  501    0  0.00000000000E+00  0.00000000000E+00 -0.19105922527E+04  0.19105922527E+04  0.25500000920E-02 0. -1.
    10030    2    1    2    0    0  0.00000000000E+00  0.00000000000E+00 -0.57093108461E+03  0.32502534208E+04  0.31997163931E+04 0.  0.
        1    1    3    3  502    0 -0.39151715701E+03  0.45891579396E+03  0.12197128394E+04  0.13607309804E+04  0.50400001928E-02 0.  1.
       -1    1    3    3    0  502  0.39151715701E+03 -0.45891579396E+03 -0.17906439240E+04  0.18895224404E+04  0.50400001928E-02 0. -1.
</event>
<event>
 5   0  0.3427667E-08  0.3200602E+04  0.7818609E-02  0.8188658E-01
       -1   -1    0    0    0  501  0.00000000000E+00  0.00000000000E+00  0.18901999129E+04  0.18901999129E+04  0.50400001928E-02 0.  1.
        1   -1    0    0  501    0  0.00000000000E+00  0.00000000000E+00 -0.13548639472E+04  0.13548639472E+04  0.50400001928E-02 0. -1.
    10030    2    1    2    0    0  0.00000000000E+00  0.00000000000E+00  0.53533596567E+03  0.32450638601E+04  0.32006022652E+04 0.  0.
        2    1    3    3  502    0 -0.36044803506E+03  0.12293139258E+04  0.12400678698E+04  0.17829480744E+04  0.25500000920E-02 0.  1.
       -2    1    3    3    0  502  0.36044803506E+03 -0.12293139258E+04 -0.70473190408E+03  0.14621157857E+04  0.25500000920E-02 0. -1.
</event>
<event>
 5   0  0.3283581E-08  0.3199242E+04  0.7818609E-02  0.8189017E-01
        1   -1    0    0  501    0  0.00000000000E+00  0.00000000000E+00  0.17795211678E+04  0.17795211678E+04  0.50400001928E-02 0.  1.
       -1   -1    0    0    0  501  0.00000000000E+00  0.00000000000E+00 -0.14379077087E+04  0.14379077088E+04  0.50400001928E-02 0. -1.
    10030    2    1    2    0    0  0.00000000000E+00  0.00000000000E+00  0.34161345901E+03  0.32174288765E+04  0.31992419133E+04 0.  0.
        5    1    3    3  502    0 -0.32985228514E+03 -0.15157172461E+04  0.56362135032E+03  0.16504218905E+04  0.46999998093E+01 0.  1.
       -5    1    3    3    0  502  0.32985228514E+03  0.15157172461E+04 -0.22200789130E+03  0.15670069860E+04  0.46999998093E+01 0. -1.
</event>
<event>
 5   0  0.9157524E-08  0.3211945E+04  0.7818609E-02  0.8185670E-01
       -2   -1    0    0    0  501  0.00000000000E+00  0.00000000000E+00  0.16060872511E+04  0.16060872511E+04  0.25500000920E-02 0. -1.
        2   -1    0    0  501    0  0.00000000000E+00  0.00000000000E+00 -0.16058582312E+04  0.16058582312E+04  0.25500000920E-02 0.  1.
    10030    2    1    2    0    0  0.00000000000E+00  0.00000000000E+00  0.22901990016E+00  0.32119454823E+04  0.32119454742E+04 0.  0.
        5    1    3    3  502    0 -0.12450126599E+04  0.18288830141E+03  0.99792295512E+03  0.16060438875E+04  0.46999998093E+01 0. -1.
       -5    1    3    3    0  502  0.12450126599E+04 -0.18288830141E+03 -0.99769393522E+03  0.16059015949E+04  0.46999998093E+01 0.  1.
</event>
<event>
 5   0  0.3427667E-08  0.3201332E+04  0.7818609E-02  0.8188465E-01
        1   -1    0    0  501    0  0.00000000000E+00  0.00000000000E+00  0.12409130292E+04  0.12409130292E+04  0.50400001928E-02 0.  1.
       -1   -1    0    0    0  501  0.00000000000E+00  0.00000000000E+00 -0.20647148707E+04  0.20647148707E+04  0.50400001928E-02 0. -1.
    10030    2    1    2    0    0  0.00000000000E+00  0.00000000000E+00 -0.82380184152E+03  0.33056278999E+04  0.32013319632E+04 0.  0.
        2    1    3    3  502    0 -0.21434606078E+03  0.20255192249E+02  0.12258932931E+04  0.12446561263E+04  0.25500000920E-02 0.  1.
       -2    1    3    3    0  502  0.21434606078E+03 -0.20255192249E+02 -0.20496951347E+04  0.20609717736E+04  0.25500000920E-02 0. -1.
</event>
<event>
 5   0  0.3270966E-08  0.3196432E+04  0.7818609E-02  0.8189760E-01
       -1   -1    0    0    0  501  0.00000000000E+00  0.00000000000E+00  0.93261432481E+03  0.93261432482E+03  0.50400001928E-02 0. -1.
        1   -1    0    0  501    0  0.00000000000E+00  0.00000000000E+00 -0.27388546134E+04  0.27388546134E+04  0.50400001928E-02 0.  1.
    10030    2    1    2    0    0  0.00000000000E+00  0.00000000000E+00 -0.18062402886E+04  0.36714689382E+04  0.31964324151E+04 0.  0.
        3    1    3    3  502    0  0.14471108356E+04 -0.54227474214E+03 -0.43499329228E+03  0.16054316681E+04  0.10100000352E+00 0. -1.
       -3    1    3    3    0  502 -0.14471108356E+04  0.54227474214E+03 -0.13712469963E+04  0.20660372701E+04  0.10100000352E+00 0.  1.
</event>
<event>
 5   0  0.3283581E-08  0.3200176E+04  0.7818609E-02  0.8188771E-01
       -1   -1    0    0    0  501  0.00000000000E+00  0.00000000000E+00  0.16039513700E+04  0.16039513700E+04  0.50400001928E-02 0.  1.
        1   -1    0    0  501    0  0.00000000000E+00  0.00000000000E+00 -0.15962344285E+04  0.15962344285E+04  0.50400001928E-02 0. -1.
    10030    2    1    2    0    0  0.00000000000E+00  0.00000000000E+00  0.77169415250E+01  0.32001857985E+04  0.32001764941E+04 0.  0.
        5    1    3    3  502    0  0.10540882058E+04 -0.94412650534E+03 -0.74299275140E+03  0.15982919390E+04  0.46999998093E+01 0. -1.
       -5    1    3    3    0  502 -0.10540882058E+04  0.94412650534E+03  0.75070969293E+03  0.16018938594E+04  0.46999998093E+01 0.  1.
</event>
<event>
 5   0  0.9353994E-08  0.3199920E+04  0.7818609E-02  0.8188838E-01
       -2   -1    0    0    0  501  0.00000000000E+00  0.00000000000E+00  0.12677285942E+04  0.12677285942E+04  0.25500000920E-02 0.  1.
        2   -1    0    0  501    0  0.00000000000E+00  0.00000000000E+00 -0.20192582548E+04  0.20192582548E+04  0.25500000920E-02 0. -1.
    10030    2    1    2    0    0  0.00000000000E+00  0.00000000000E+00 -0.75152966062E+03  0.32869868490E+04  0.31999196419E+04 0.  0.
        2    1    3    3  502    0 -0.12966512454E+04  0.93482327454E+03 -0.44597983385E+03  0.16595472331E+04  0.25500000920E-02 0. -1.
       -2    1    3    3    0  502  0.12966512454E+04 -0.93482327454E+03 -0.30554982677E+03  0.16274396159E+04  0.25500000920E-02 0.  1.
</event>
<event>
 5   0  0.9329929E-08  0.3199902E+04  0.7818609E-02  0.8188843E-01
        2   -1    0    0  501    0  0.00000000000E+00  0.00000000000E+00  0.27883999059E+04  0.27883999059E+04  0.25500000920E-02 0. -1.
       -2   -1    0    0    0  501  0.00000000000E+00  0.00000000000E+00 -0.91803295867E+03  0.91803295867E+03  0.25500000920E-02 0.  1.
    10030    2    1    2    0    0  0.00000000000E+00  0.00000000000E+00  0.18703669472E+04  0.37064328646E+04  0.31999018832E+04 0.  0.
        1    1    3    3  502    0 -0.38172672977E+03 -0.60853050739E+03  0.25911083182E+04  0.26888411986E+04  0.50400001928E-02 0. -1.
       -1    1    3    3    0  502  0.38172672977E+03  0.60853050739E+03 -0.72074137101E+03  0.10175916659E+04  0.50400001928E-02 0.  1.
</event>
<event>
 5   0  0.3270966E-08  0.3198699E+04  0.7818609E-02  0.8189161E-01
        1   -1    0    0  501    0  0.00000000000E+00  0.00000000000E+00  0.21191685084E+04  0.21191685084E+04  0.50400001928E-02 0. -1.
       -1   -1    0    0    0  501  0.00000000000E+00  0.00000000000E+00 -0.12070389258E+04  0.12070389259E+04  0.50400001928E-02 0.  1.
    10030    2    1    2    0    0  0.00000000000E+00  0.00000000000E+00  0.91212958253E+03  0.33262074342E+04  0.31986990356E+04 0.  0.
        3    1    3    3  502    0 -0.31902622900E+03  0.12555687891E+04 -0.51923991884E+03  0.13956506807E+04  0.10100000352E+00 0.  1.
       -3    1    3    3    0  502  0.31902622900E+03 -0.12555687891E+04  0.14313695014E+04  0.19305567535E+04  0.10100000352E+00 0. -1.
</event>
<event>
 5   0  0.9329929E-08  0.3198974E+04  0.7818609E-02  0.8189088E-01
        2   -1    0    0  501    0  0.00000000000E+00  0.00000000000E+00  0.21358396528E+04  0.21358396528E+04  0.25500000920E-02 0.  1.
       -2   -1    0    0    0  501  0.00000000000E+00  0.00000000000E+00 -0.11978232117E+04  0.11978232117E+04  0.25500000920E-02 0. -1.
    10030    2    1    2    0    0  0.00000000000E+00  0.00000000000E+00  0.93801644107E+03  0.33336628644E+04  0.31989737808E+04 0.  0.
        1    1    3    3  502    0 -0.74290870266E+03  0.77369743495E+03 -0.76747214044E+03  0.13189141548E+04  0.50400001928E-02 0. -1.
       -1    1    3    3    0  502  0.74290870266E+03 -0.77369743495E+03  0.17054885815E+04  0.20147487096E+04  0.50400001928E-02 0.  1.
</event>
<event>
 5   0  0.9329929E-08  0.3199762E+04  0.7818609E-02  0.8188880E-01
       -2   -1    0    0    0  501  0.00000000000E+00  0.00000000000E+00  0.15149187007E+04  0.15149187008E+04  0.25500000920E-02 0.  1.
        2   -1    0    0  501    0  0.00000000000E+00  0.00000000000E+00 -0.16896088169E+04  0.16896088169E+04  0.25500000920E-02 0. -1.
    10030    2    1    2    0    0  0.00000000000E+00  0.00000000000E+00 -0.17469011616E+03  0.32045275177E+04  0.31997624872E+04 0.  0.
        1    1    3    3  502    0  0.14484410751E+04  0.37674319236E+03 -0.65360993776E+03  0.16331328580E+04  0.50400001928E-02 0. -1.
       -1    1    3    3    0  502 -0.14484410751E+04 -0.37674319236E+03  0.47891982160E+03  0.15713946597E+04  0.50400001928E-02 0.  1.
</event>
<event>
 5   0  0.9157524E-08  0.3199942E+04  0.7818609E-02  0.8188833E-01
        2   -1    0    0  501    0  0.00000000000E+00  0.00000000000E+00  0.19722982712E+04  0.19722982712E+04  0.25500000920E-02 0. -1.
       -2   -1    0    0    0  501  0.00000000000E+00  0.00000000000E+00 -0.12979306751E+04  0.12979306752E+04  0.25500000920E-02 0.  1.
    10030    2    1    2    0    0  0.00000000000E+00  0.00000000000E+00  0.67436759601E+03  0.32702289463E+04  0.31999415161E+04 0.  0.
        5    1    3    3  502    0  0.77132416557E+03  0.12741278311E+03 -0.10894406162E+04  0.13409242827E+04  0.46999998093E+01 0.  1.
       -5    1    3    3    0  502 -0.77132416557E+03 -0.12741278311E+03  0.17638082122E+04  0.19293046636E+04  0.46999998093E+01 0. -1.
</event>
<event>
 5   0  0.9707721E-08  0.3199184E+04  0.7818609E-02  0.8189033E-01
       -2   -1    0    0    0  501  0.00000000000E+00  0.00000000000E+00  0.16896462001E+04  0.16896462001E+04  0.25500000920E-02 0. -1.
        2   -1    0    0  501    0  0.00000000000E+00  0.00000000000E+00 -0.15143379442E+04  0.15143379442E+04  0.25500000920E-02 0.  1.
    10030    2    1    2    0    0  0.00000000000E+00  0.00000000000E+00  0.17530825598E+03  0.32039841443E+04  0.31991844918E+04 0.  0.
        3    1    3    3  502    0  0.67159561101E+03  0.28683064504E+03  0.15129487205E+04  0.16799780727E+04  0.10100000352E+00 0. -1.
       -3    1    3    3    0  502 -0.67159561101E+03 -0.28683064504E+03 -0.13376404645E+04  0.15240060716E+04  0.10100000352E+00 0.  1.
</event>
<event>
 5   0  0.3343140E-08  0.3199417E+04  0.7818609E-02  0.8188971E-01
        1   -1    0    0  501    0  0.00000000000E+00  0.00000000000E+00  0.11130900679E+04  0.11130900679E+04  0.50400001928E-02 0. -1.
       -1   -1    0    0    0  501  0.00000000000E+00  0.00000000000E+00 -0.22990659033E+04  0.22990659033E+04  0.50400001928E-02 0.  1.
    10030    2    1    2    0    0  0.00000000000E+00  0.00000000000E+00 -0.11859758354E+04  0.34121559712E+04  0.31994170859E+04 0.  0.
        1    1    3    3  502    0  0.84153588372E+03 -0.13176772000E+04 -0.23193383861E+03  0.15805850665E+04  0.50400001928E-02 0.  1.
       -1    1    3    3    0  502 -0.84153588372E+03  0.13176772000E+04 -0.95404199676E+03  0.18315709046E+04  0.50400001928E-02 0. -1.
</event>
<event>
 5   0  0.3343140E-08  0.3201168E+04  0.7818609E-02  0.8188509E-01
        1   -1    0    0  501    0  0.00000000000E+00  0.00000000000E+00  0.19087966016E+04  0.19087966016E+04  0.50400001928E-02 0. -1.
       -1   -1    0    0    0  501  0.00000000000E+00  0.00000000000E+00 -0.13421383065E+04  0.13421383065E+04  0.50400001928E-02 0.  1.
    10030    2    1    2    0    0  0.00000000000E+00  0.00000000000E+00  0.56665829510E+03  0.32509349081E+04  0.32011679358E+04 0.  0.
        1    1    3    3  502    0 -0.90039489525E+03  0.13038755368E+04  0.51282166124E+03  0.16654694351E+04  0.50400001928E-02 0. -1.
       -1    1    3    3    0  502  0.90039489525E+03 -0.13038755368E+04  0.53836633863E+02  0.15854654730E+04  0.50400001928E-02 0.  1.
</event>
<event>
 5   0  0.3270966E-08  0.3196758E+04  0.7818609E-02  0.8189674E-01
        1   -1    0    0  501    0  0.00000000000E+00  0.00000000000E+00  0.13756070861E+04  0.13756070862E+04  0.50400001928E-02 0. -1.
       -1   -1    0    0    0  501  0.00000000000E+00  0.00000000000E+00 -0.18572277022E+04  0.18572277023E+04  0.50400001928E-02 0.  1.
    10030    2    1    2    0    0  0.00000000000E+00  0.00000000000E+00 -0.48162061610E+03  0.32328347884E+04  0.31967581002E+04 0.  0.
        3    1    3    3  502    0 -0.24861073214E+03  0.94749969299E+03 -0.15180972402E+04  0.18067047919E+04  0.10100000352E+00 0.  1.
       -3    1    3    3    0  502  0.24861073214E+03 -0.94749969299E+03  0.10364766241E+04  0.14261299965E+04  0.10100000352E+00 0. -1.
</event>
<event>
 5   0  0.9157524E-08  0.3199808E+04  0.7818609E-02  0.8188868E-01
        2   -1    0    0  501    0  0.00000000000E+00  0.00000000000E+00  0.15655287919E+04  0.15655287919E+04  0.25500000920E-02 0.  1.
       -2   -1    0    0    0  501  0.00000000000E+00  0.00000000000E+00 -0.16350341043E+04  0.16350341043E+04  0.25500000920E-02 0. -1.
    10030    2    1    2    0    0  0.00000000000E+00  0.00000000000E+00 -0.69505312430E+02  0.32005628962E+04  0.31998080980E+04 0.  0.
        5    1    3    3  502    0  0.88811925334E+03  0.11850408162E+04  0.57085968059E+03  0.15871296132E+04  0.46999998093E+01 0.  1.
       -5    1    3    3    0  502 -0.88811925334E+03 -0.11850408162E+04 -0.64036499302E+03  0.16134332830E+04  0.46999998093E+01 0. -1.
</event>
<event>
 5   0  0.9329929E-08  0.3198616E+04  0.7818609E-02  0.8189183E-01
        2   -1    0    0  501    0  0.00000000000E+00  0.00000000000E+00  0.22034460952E+04  0.22034460952E+04  0.25500000920E-02 0. -1.
       -2   -1    0    0    0  501  0.00000000000E+00  0.00000000000E+00 -0.11608120871E+04  0.11608120871E+04  0.25500000920E-02 0.  1.
    10030    2    1    2    0    0  0.00000000000E+00  0.00000000000E+00  0.10426340081E+04  0.33642581823E+04  0.31986164888E+04 0.  0.
        1    1    3    3  502    0  0.54546031191E+03 -0.48599351805E+03 -0.97505623275E+03  0.12183806090E+04  0.50400001928E-02 0.  1.
       -1    1    3    3    0  502 -0.54546031191E+03  0.48599351805E+03  0.20176902408E+04  0.21458775732E+04  0.50400001928E-02 0. -1.
</event>
<event>
 5   0  0.3283581E-08  0.3202676E+04  0.7818609E-02  0.8188111E-01
       -1   -1    0    0    0  501  0.00000000000E+00  0.00000000000E+00  0.12376853742E+04  0.12376853742E+04  0.50400001928E-02 0.  1.
        1   -1    0    0  501    0  0.00000000000E+00  0.00000000000E+00 -0.20718374999E+04  0.20718374999E+04  0.50400001928E-02 0. -1.
    10030    2    1    2    0    0  0.00000000000E+00  0.00000000000E+00 -0.83415212573E+03  0.33095228741E+04  0.32026757384E+04 0.  0.
        5    1    3    3  502    0  0.26160730109E+03  0.88562875371E+03 -0.17689583129E+04  0.19954980010E+04  0.46999998093E+01 0. -1.
       -5    1    3    3    0  502 -0.26160730109E+03 -0.88562875371E+03  0.93480618718E+03  0.13140248730E+04  0.46999998093E+01 0.  1.
</event>
<event>
 5   0  0.3283581E-08  0.3200385E+04  0.7818609E-02  0.8188716E-01
       -1   -1    0    0    0  501  0.00000000000E+00  0.00000000000E+00  0.12001348555E+04  0.12001348556E+04  0.50400001928E-02 0. -1.
        1   -1    0    0  501    0  0.00000000000E+00  0.00000000000E+00 -0.21336064068E+04  0.21336064068E+04  0.50400001928E-02 0.  1.
    10030    2    1    2    0    0  0.00000000000E+00  0.00000000000E+00 -0.93347155125E+03  0.33337412624E+04  0.32003846124E+04 0.  0.
        5    1    3    3  502    0  0.22111195411E+03  0.81215008243E+03  0.95089685140E+03  0.12699232908E+04  0.46999998093E+01 0. -1.
       -5    1    3    3    0  502 -0.22111195411E+03 -0.81215008243E+03 -0.18843684027E+04  0.20638179715E+04  0.46999998093E+01 0.  1.
</event>
<event>
 5   0  0.9329929E-08  0.3200056E+04  0.7818609E-02  0.8188802E-01
       -2   -1    0    0    0  501  0.00000000000E+00  0.00000000000E+00  0.32156892119E+04  0.32156892119E+04  0.25500000920E-02 0.  1.
        2   -1    0    0  501    0  0.00000000000E+00  0.00000000000E+00 -0.79612484256E+03  0.79612484256E+03  0.25500000920E-02 0. -1.
    10030    2    1    2    0    0  0.00000000000E+00  0.00000000000E+00  0.24195643694E+04  0.40118140545E+04  0.32000562917E+04 0.  0.
        1    1    3    3  502    0 -0.13846187046E+04 -0.27629993511E+02  0.22144072801E+04  0.26118062670E+04  0.50400001928E-02 0.  1.
       -1    1    3    3    0  502  0.13846187046E+04  0.27629993511E+02  0.20515708922E+03  0.14000077875E+04  0.50400001928E-02 0. -1.
</event>
<event>
 5   0  0.3270966E-08  0.3199475E+04  0.7818609E-02  0.8188956E-01
        1   -1    0    0  501    0  0.00000000000E+00  0.00000000000E+00  0.23170250882E+04  0.23170250882E+04  0.50400001928E-02 0.  1.
       -1   -1    0    0    0  501  0.00000000000E+00  0.00000000000E+00 -0.11045027088E+04  0.11045027088E+04  0.50400001928E-02 0. -1.
    10030    2    1    2    0    0  0.00000000000E+00  0.00000000000E+00  0.12125223794E+04  0.34215277971E+04  0.31994752610E+04 0.  0.
        3    1    3    3  502    0 -0.13557220744E+04 -0.78325572844E+03  0.25532660065E+03  0.15863995595E+04  0.10100000352E+00 0. -1.
       -3    1    3    3    0  502  0.13557220744E+04  0.78325572844E+03  0.95719577873E+03  0.18351282376E+04  0.10100000352E+00 0.  1.
</event>
<event>
 5   0  0.3427667E-08  0.3199340E+04  0.7818609E-02  0.8188991E-01
        1   -1    0    0  501    0  0.00000000000E+00  0.00000000000E+00  0.31972760729E+04  0.31972760730E+04  0.50400001928E-02 0.  1.
       -1   -1    0    0    0  501  0.00000000000E+00  0.00000000000E+00 -0.80035146908E+03  0.80035146910E+03  0.50400001928E-02 0. -1.
    10030    2    1    2    0    0  0.00000000000E+00  0.00000000000E+00  0.23969246039E+04  0.39976275421E+04  0.31993403083E+04 0.  0.
        2    1    3    3  502    0 -0.66272904415E+03  0.27449617175E+03 -0.58812157724E+03  0.92760170542E+03  0.25500000920E-02 0. -1.
       -2    1    3    3    0  502  0.66272904415E+03 -0.27449617175E+03  0.29850461811E+04  0.30700258366E+04  0.25500000920E-02 0.  1.
</event>
<event>
 5   0  0.3220147E-08  0.3199407E+04  0.7818609E-02  0.8188974E-01
       -1   -1    0    0    0  501  0.00000000000E+00  0.00000000000E+00  0.14106145579E+04  0.14106145579E+04  0.50400001928E-02 0. -1.
        1   -1    0    0  501    0  0.00000000000E+00  0.00000000000E+00 -0.18141396437E+04  0.18141396437E+04  0.50400001928E-02 0.  1.
    10030    2    1    2    0    0  0.00000000000E+00  0.00000000000E+00 -0.40352508581E+03  0.32247542017E+04  0.31994073148E+04 0.  0.
        4    1    3    3  502    0 -0.29422439452E+02 -0.12873495058E+04  0.75492291658E+03  0.14926636101E+04  0.12699999809E+01 0. -1.
       -4    1    3    3    0  502  0.29422439452E+02  0.12873495058E+04 -0.11584480024E+04  0.17320905915E+04  0.12699999809E+01 0.  1.
</event>
<event>
 5   0  0.3220147E-08  0.3200631E+04  0.7818609E-02  0.8188651E-01
       -1   -1    0    0    0  501  0.00000000000E+00  0.00000000000E+00  0.10299657846E+04  0.10299657846E+04  0.50400001928E-02 0.  1.
        1   -1    0    0  501    0  0.00000000000E+00  0.00000000000E+00 -0.24864999977E+04  0.24864999977E+04  0.50400001928E-02 0. -1.
    10030    2    1    2    0    0  0.00000000000E+00  0.00000000000E+00 -0.14565342131E+04  0.35164657824E+04  0.32006311385E+04 0.  0.
        4    1    3    3  502    0 -0.14972065665E+04 -0.20815638830E+03 -0.15101436904E+03  0.15191324950E+04  0.12699999809E+01 0.  1.
       -4    1    3    3    0  502  0.14972065665E+04  0.20815638830E+03 -0.13055198441E+04  0.19973332874E+04  0.12699999809E+01 0. -1.
</event>
<event>
 5   0  0.3343140E-08  0.3200612E+04  0.7818609E-02  0.8188656E-01
       -1   -1    0    0    0  501  0.00000000000E+00  0.00000000000E+00  0.16403653309E+04  0.16403653310E+04  0.50400001928E-02 0. -1.
        1   -1    0    0  501    0  0.00000000000E+00  0.00000000000E+00 -0.15612246087E+04  0.15612246087E+04  0.50400001928E-02 0.  1.
    10030    2    1    2    0    0  0.00000000000E+00  0.00000000000E+00  0.79140722208E+02  0.32015899397E+04  0.32006116428E+04 0.  0.
        1    1    3    3  502    0 -0.14058446258E+04 -0.31588305809E+03  0.73605719855E+03  0.16180115630E+04  0.50400001928E-02 0. -1.
       -1    1    3    3    0  502  0.14058446258E+04  0.31588305809E+03 -0.65691647635E+03  0.15835783767E+04  0.50400001928E-02 0.  1.
</event>
<event>
 5   0  0.3270966E-08  0.3199794E+04  0.7818609E-02  0.8188872E-01
        1   -1    0    0  501    0  0.00000000000E+00  0.00000000000E+00  0.17992583912E+04  0.17992583913E+04  0.50400001928E-02 0.  1.
       -1   -1    0    0    0  501  0.00000000000E+00  0.00000000000E+00 -0.14226249345E+04  0.14226249345E+04  0.50400001928E-02 0. -1.
    10030    2    1    2    0    0  0.00000000000E+00  0.00000000000E+00  0.37663345678E+03  0.32218833257E+04  0.31997936502E+04 0.  0.
        3    1    3    3  502    0 -0.13693572302E+04  0.72778083347E+03 -0.20792975621E+03  0.15646210273E+04  0.10100000352E+00 0. -1.
       -3    1    3    3    0  502  0.13693572302E+04 -0.72778083347E+03  0.58456321299E+03  0.16572622984E+04  0.10100000352E+00 0.  1.
</event>
<event>
 5   0  0.3220147E-08  0.3199139E+04  0.7818609E-02  0.8189045E-01
        1   -1    0    0  501    0  0.00000000000E+00  0.00000000000E+00  0.24172429849E+04  0.24172429849E+04  0.50400001928E-02 0. -1.
       -1   -1    0    0    0  501  0.00000000000E+00  0.00000000000E+00 -0.10584880185E+04  0.10584880185E+04  0.50400001928E-02 0.  1.
    10030    2    1    2    0    0  0.00000000000E+00  0.00000000000E+00  0.13587549664E+04  0.34757310035E+04  0.31991390951E+04 0.  0.
        4    1    3    3  502    0 -0.53318094945E+03 -0.67568583104E+03 -0.78544377389E+03  0.11652282188E+04  0.12699999809E+01 0.  1.
       -4    1    3    3    0  502  0.53318094945E+03  0.67568583104E+03  0.21441987403E+04  0.23105027846E+04  0.12699999809E+01 0. -1.
</event>
<event>
 5   0  0.9707721E-08  0.3194912E+04  0.7818609E-02  0.8190162E-01
       -2   -1    0    0    0  501  0.00000000000E+00  0.00000000000E+00  0.11670007253E+04  0.11670007253E+04  0.25500000920E-02 0. -1.
        2   -1    0    0  501    0  0.00000000000E+00  0.00000000000E+00 -0.21866871041E+04  0.21866871041E+04  0.25500000920E-02 0.  1.
    10030    2    1    2    0    0  0.00000000000E+00  0.00000000000E+00 -0.10196863788E+04  0.33536878294E+04  0.31949118526E+04 0.  0.
        3    1    3    3  502    0  0.56520869486E+03 -0.14887899407E+04 -0.37744374887E+03  0.16365879598E+04  0.10100000352E+00 0. -1.
       -3    1    3    3    0  502 -0.56520869486E+03  0.14887899407E+04 -0.64224262990E+03  0.17170998696E+04  0.10100000352E+00 0.  1.
</event>
<event>
 5   0  0.3427667E-08  0.3199575E+04  0.7818609E-02  0.8188929E-01
       -1   -1    0    0    0  501  0.00000000000E+00  0.00000000000E+00  0.15011580649E+04  0.15011580649E+04  0.50400001928E-02 0. -1.
        1   -1    0    0  501    0  0.00000000000E+00  0.00000000000E+00 -0.17048970418E+04  0.17048970418E+04  0.50400001928E-02 0.  1.
    10030    2    1    2    0    0  0.00000000000E+00  0.00000000000E+00 -0.20373897692E+03  0.32060551068E+04  0.31995749369E+04 0.  0.
        2    1    3    3  502    0 -0.12084884449E+03 -0.84136540026E+03  0.12561686561E+04  0.15167266967E+04  0.25500000920E-02 0. -1.
       -2    1    3    3    0  502  0.12084884449E+03  0.84136540026E+03 -0.14599076330E+04  0.16893284100E+04  0.25500000920E-02 0.  1.
</event>
<event>
 5   0  0.3270966E-08  0.3199469E+04  0.7818609E-02  0.8188957E-01
        1   -1    0    0  501    0  0.00000000000E+00  0.00000000000E+00  0.18835946795E+04  0.18835946795E+04  0.50400001928E-02 0. -1.
       -1   -1    0    0    0  501  0.00000000000E+00  0.00000000000E+00 -0.13586524978E+04  0.13586524978E+04  0.50400001928E-02 0.  1.
    10030    2    1    2    0    0  0.00000000000E+00  0.00000000000E+00  0.52494218170E+03  0.32422471773E+04  0.31994690910E+04 0.  0.
        3    1    3    3  502    0  0.87150207228E+03  0.13011316626E+04 -0.68532252683E+02  0.15675318642E+04  0.10100000352E+00 0.  1.
       -3    1    3    3    0  502 -0.87150207228E+03 -0.13011316626E+04  0.59347443438E+03  0.16747153131E+04  0.10100000352E+00 0. -1.
</event>
<event>
 5   0  0.3427667E-08  0.3204299E+04  0.7818609E-02  0.8187683E-01
        1   -1    0    0  501    0  0.00000000000E+00  0.00000000000E+00  0.89416555161E+03  0.89416555163E+03  0.50400001928E-02 0. -1.
       -1   -1    0    0    0  501  0.00000000000E+00  0.00000000000E+00 -0.28707029675E+04  0.28707029675E+04  0.50400001928E-02 0.  1.
    10030    2    1    2    0    0  0.00000000000E+00  0.00000000000E+00 -0.19765374159E+04  0.37648685191E+04  0.32042994258E+04 0.  0.
        2    1    3    3  502    0 -0.13217908682E+04 -0.26739518313E+03 -0.20046128464E+04  0.24160099228E+04  0.25500000920E-02 0.  1.
       -2    1    3    3    0  502  0.13217908682E+04  0.26739518313E+03  0.28075430513E+02  0.13488585963E+04  0.25500000920E-02 0. -1.
</event>
<event>
 5   0  0.9329929E-08  0.3200996E+04  0.7818609E-02  0.8188554E-01
       -2   -1    0    0    0  501  0.00000000000E+00  0.00000000000E+00  0.19021375600E+04  0.19021375600E+04  0.25500000920E-02 0.  1.
        2   -1    0    0  501    0  0.00000000000E+00  0.00000000000E+00 -0.13466918365E+04  0.13466918365E+04  0.25500000920E-02 0. -1.
    10030    2    1    2    0    0  0.00000000000E+00  0.00000000000E+00  0.55544572352E+03  0.32488293965E+04  0.32009955476E+04 0.  0.
        1    1    3    3  502    0 -0.12846314268E+04  0.94536540946E+03  0.41236827224E+03  0.16474347490E+04  0.50400001928E-02 0.  1.
       -1    1    3    3    0  502  0.12846314268E+04 -0.94536540946E+03  0.14307745128E+03  0.16013946476E+04  0.50400001928E-02 0. -1.
</event>
<event>
 5   0  0.3343140E-08  0.3199849E+04  0.7818609E-02  0.8188857E-01
       -1   -1    0    0    0  501  0.00000000000E+00  0.00000000000E+00  0.81797218217E+03  0.81797218219E+03  0.50400001928E-02 0.  1.
        1   -1    0    0  501    0  0.00000000000E+00  0.00000000000E+00 -0.31293951707E+04  0.31293951707E+04  0.50400001928E-02 0. -1.
    10030    2    1    2    0    0  0.00000000000E+00  0.00000000000E+00 -0.23114229886E+04  0.39473673529E+04  0.31998488694E+04 0.  0.
        1    1    3    3  502    0 -0.90537801680E+03  0.64469668298E+03  0.26396740832E+03  0.11423755770E+04  0.50400001928E-02 0.  1.
       -1    1    3    3    0  502  0.90537801680E+03 -0.64469668298E+03 -0.25753903969E+04  0.28049917759E+04  0.50400001928E-02 0. -1.
</event>
<event>
 5   0  0.9353994E-08  0.3200641E+04  0.7818609E-02  0.8188648E-01
       -2   -1    0    0    0  501  0.00000000000E+00  0.00000000000E+00  0.15069703479E+04  0.15069703479E+04  0.25500000920E-02 0.  1.
        2   -1    0    0  501    0  0.00000000000E+00  0.00000000000E+00 -0.16994528000E+04  0.16994528000E+04  0.25500000920E-02 0. -1.
    10030    2    1    2    0    0  0.00000000000E+00  0.00000000000E+00 -0.19248245216E+03  0.32064231479E+04  0.32006405467E+04 0.  0.
        2    1    3    3  502    0 -0.11564366090E+04  0.97046441570E+03  0.43563998594E+03  0.15712826004E+04  0.25500000920E-02 0. -1.
       -2    1    3    3    0  502  0.11564366090E+04 -0.97046441570E+03 -0.62812243810E+03  0.16351405475E+04  0.25500000920E-02 0.  1.
</event>
<event>
 5   0  0.3080500E-08  0.3200230E+04  0.7818609E-02  0.8188756E-01
       -3   -1    0    0    0  501  0.00000000000E+00  0.00000000000E+00  0.25526806229E+04  0.25526806249E+04  0.10100000352E+00 0. -1.
        3   -1    0    0  501    0  0.00000000000E+00  0.00000000000E+00 -0.10030114577E+04  0.10030114628E+04  0.10100000352E+00 0.  1.
    10030    2    1    2    0    0  0.00000000000E+00  0.00000000000E+00  0.15496691652E+04  0.35556920877E+04  0.32002299450E+04 0.  0.
        4    1    3    3  502    0  0.72413348239E+03  0.12943889279E+04  0.14419919857E+04  0.20686117318E+04  0.12699999809E+01 0. -1.
       -4    1    3    3    0  502 -0.72413348239E+03 -0.12943889279E+04  0.10767717951E+03  0.14870803559E+04  0.12699999809E+01 0.  1.
</event>
<event>
 5   0  0.3343140E-08  0.3206442E+04  0.7818609E-02  0.8187118E-01
        1   -1    0    0  501    0  0.00000000000E+00  0.00000000000E+00  0.20363058345E+04  0.20363058345E+04  0.50400001928E-02 0.  1.
       -1   -1    0    0    0  501  0.00000000000E+00  0.00000000000E+00 -0.12622456797E+04  0.12622456797E+04  0.50400001928E-02 0. -1.
    10030    2    1    2    0    0  0.00000000000E+00  0.00000000000E+00  0.77406015476E+03  0.32985515142E+04  0.32064424162E+04 0.  0.
        1    1    3    3  502    0  0.71879069780E+03 -0.60565453436E+03 -0.94906347825E+03  0.13357391093E+04  0.50400001928E-02 0. -1.
       -1    1    3    3    0  502 -0.71879069780E+03  0.60565453436E+03  0.17231236330E+04  0.19628124049E+04  0.50400001928E-02 0.  1.
</event>
<event>
 5   0  0.3270966E-08  0.3201430E+04  0.7818609E-02  0.8188440E-01
       -1   -1    0    0    0  501  0.00000000000E+00  0.00000000000E+00  0.20985230830E+04  0.20985230831E+04  0.50400001928E-02 0.  1.
        1   -1    0    0  501    0  0.00000000000E+00  0.00000000000E+00 -0.12209957298E+04  0.12209957298E+04  0.50400001928E-02 0. -1.
    10030    2    1    2    0    0  0.00000000000E+00  0.00000000000E+00  0.87752735323E+03  0.33195188129E+04  0.32014295078E+04 0.  0.
        3    1    3    3  502    0  0.10427093270E+04  0.11907164229E+04  0.19069117601E+03  0.15941805026E+04  0.10100000352E+00 0. -1.
       -3    1    3    3    0  502 -0.10427093270E+04 -0.11907164229E+04  0.68683617722E+03  0.17253383102E+04  0.10100000352E+00 0.  1.
</event>
<event>
 5   0  0.9707721E-08  0.3201409E+04  0.7818609E-02  0.8188445E-01
       -2   -1    0    0    0  501  0.00000000000E+00  0.00000000000E+00  0.18942750382E+04  0.18942750382E+04  0.25500000920E-02 0.  1.
        2   -1    0    0  501    0  0.00000000000E+00  0.00000000000E+00 -0.13526307232E+04  0.13526307232E+04  0.25500000920E-02 0. -1.
    10030    2    1    2    0    0  0.00000000000E+00  0.00000000000E+00  0.54164431503E+03  0.32469057614E+04  0.32014088242E+04 0.  0.
        3    1    3    3  502    0 -0.10343104893E+04  0.24004621443E+03 -0.94404673205E+03  0.14207901378E+04  0.10100000352E+00 0.  1.
       -3    1    3    3    0  502  0.10343104893E+04 -0.24004621443E+03  0.14856910471E+04  0.18261156236E+04  0.10100000352E+00 0. -1.
</event>
<event>
 5   0  0.9727083E-08  0.3200055E+04  0.7818609E-02  0.8188803E-01
       -2   -1    0    0    0  501  0.00000000000E+00  0.00000000000E+00  0.15289212544E+04  0.15289212544E+04  0.25500000920E-02 0. -1.
        2   -1    0    0  501    0  0.00000000000E+00  0.00000000000E+00 -0.16744402949E+04  0.16744402949E+04  0.25500000920E-02 0.  1.
    10030    2    1    2    0    0  0.00000000000E+00  0.00000000000E+00 -0.14551904048E+03  0.32033615494E+04  0.32000545972E+04 0.  0.
        4    1    3    3  502    0  0.19315390984E+02  0.24023052198E+03  0.15106468678E+04  0.15297514046E+04  0.12699999809E+01 0. -1.
       -4    1    3    3    0  502 -0.19315390984E+02 -0.24023052198E+03 -0.16561659082E+04  0.16736101447E+04  0.12699999809E+01 0.  1.
</event>
<event>
 5   0  0.3343140E-08  0.3206610E+04  0.7818609E-02  0.8187074E-01
       -1   -1    0    0    0  501  0.00000000000E+00  0.00000000000E+00  0.13273350837E+04  0.13273350837E+04  0.50400001928E-02 0. -1.
        1   -1    0    0  501    0  0.00000000000E+00  0.00000000000E+00 -0.19366524356E+04  0.19366524356E+04  0.50400001928E-02 0.  1.
    10030    2    1    2    0    0  0.00000000000E+00  0.00000000000E+00 -0.60931735189E+03  0.32639875194E+04  0.32066098751E+04 0.  0.
        1    1    3    3  502    0 -0.87479899422E+03 -0.55113921961E+03 -0.15519662654E+04  0.18648396737E+04  0.50400001928E-02 0.  1.
       -1    1    3    3    0  502  0.87479899422E+03  0.55113921961E+03  0.94264891355E+03  0.13991478456E+04  0.50400001928E-02 0. -1.
</event>
<event>
 5   0  0.3283581E-08  0.3199991E+04  0.7818609E-02  0.8188820E-01
        1   -1    0    0  501    0  0.00000000000E+00  0.00000000000E+00  0.80104774806E+03  0.80104774808E+03  0.50400001928E-02 0.  1.
       -1   -1    0    0    0  501  0.00000000000E+00  0.00000000000E+00 -0.31957965828E+04  0.31957965828E+04  0.50400001928E-02 0. -1.
    10030    2    1    2    0    0  0.00000000000E+00  0.00000000000E+00 -0.23947488348E+04  0.39968443309E+04  0.31999910350E+04 0.  0.
        5    1    3    3  502    0  0.40975613460E+03  0.14682711052E+04 -0.59029102987E+03  0.16346821460E+04  0.46999998093E+01 0. -1.
       -5    1    3    3    0  502 -0.40975613460E+03 -0.14682711052E+04 -0.18044578049E+04  0.23621621849E+04  0.46999998093E+01 0.  1.
</event>
<event>
 5   0  0.9707721E-08  0.3212360E+04  0.7818609E-02  0.8185561E-01
        2   -1    0    0  501    0  0.00000000000E+00  0.00000000000E+00  0.19164617052E+04  0.19164617052E+04  0.25500000920E-02 0.  1.
       -2   -1    0    0    0  501  0.00000000000E+00  0.00000000000E+00 -0.13461338234E+04  0.13461338234E+04  0.25500000920E-02 0. -1.
    10030    2    1    2    0    0  0.00000000000E+00  0.00000000000E+00  0.57032788173E+03  0.32625955286E+04  0.32123598320E+04 0.  0.
        3    1    3    3  502    0 -0.87716884305E+03 -0.12888074745E+04  0.67768418194E+03  0.16999134525E+04  0.10100000352E+00 0.  1.
       -3    1    3    3    0  502  0.87716884305E+03  0.12888074745E+04 -0.10735630022E+03  0.15626820761E+04  0.10100000352E+00 0. -1.
</event>
<event>
 5   0  0.3220147E-08  0.3197383E+04  0.7818609E-02  0.8189509E-01
       -1   -1    0    0    0  501  0.00000000000E+00  0.00000000000E+00  0.15282856029E+04  0.15282856029E+04  0.50400001928E-02 0.  1.
        1   -1    0    0  501    0  0.00000000000E+00  0.00000000000E+00 -0.16723412614E+04  0.16723412615E+04  0.50400001928E-02 0. -1.
    10030    2    1    2    0    0  0.00000000000E+00  0.00000000000E+00 -0.14405565858E+03  0.32006268643E+04  0.31973833508E+04 0.  0.
        4    1    3    3  502    0 -0.83870389023E+03  0.72713039555E+03 -0.12237037951E+04  0.16521487278E+04  0.12699999809E+01 0. -1.
       -4    1    3    3    0  502  0.83870389023E+03 -0.72713039555E+03  0.10796481366E+04  0.15484781365E+04  0.12699999809E+01 0.  1.
</event>
<event>
 5   0  0.9707721E-08  0.3198771E+04  0.7818609E-02  0.8189142E-01
       -2   -1    0    0    0  501  0.00000000000E+00  0.00000000000E+00  0.12150604323E+04  0.12150604323E+04  0.25500000920E-02 0.  1.
        2   -1    0    0  501    0  0.00000000000E+00  0.00000000000E+00 -0.21052724495E+04  0.21052724495E+04  0.25500000920E-02 0. -1.
    10030    2    1    2    0    0  0.00000000000E+00  0.00000000000E+00 -0.89021201715E+03  0.33203328818E+04  0.31987705467E+04 0.  0.
        3    1    3    3  502    0 -0.15469186502E+03 -0.15883999875E+04 -0.55441292542E+03  0.16894726383E+04  0.10100000352E+00 0. -1.
       -3    1    3    3    0  502  0.15469186502E+03  0.15883999875E+04 -0.33579909173E+03  0.16308602435E+04  0.10100000352E+00 0.  1.
</event>
<event>
 5   0  0.3080500E-08  0.3199843E+04  0.7818609E-02  0.8188859E-01
        3   -1    0    0  501    0  0.00000000000E+00  0.00000000000E+00  0.21443402363E+04  0.21443402387E+04  0.10100000352E+00 0. -1.
       -3   -1    0    0    0  501  0.00000000000E+00  0.00000000000E+00 -0.11937235280E+04  0.11937235323E+04  0.10100000352E+00 0.  1.
    10030    2    1    2    0    0  0.00000000000E+00  0.00000000000E+00  0.95061670826E+03  0.33380637710E+04  0.31998433732E+04 0.  0.
        2    1    3    3  502    0 -0.68728880264E+03 -0.14355112625E+04  0.30487771121E+03  0.16204964986E+04  0.25500000920E-02 0.  1.
       -2    1    3    3    0  502  0.68728880264E+03  0.14355112625E+04  0.64573899705E+03  0.17175672724E+04  0.25500000920E-02 0. -1.
</event>
<event>
 5   0  0.3427667E-08  0.3190696E+04  0.7818609E-02  0.8191279E-01
        1   -1    0    0  501    0  0.00000000000E+00  0.00000000000E+00  0.11537785982E+04  0.11537785982E+04  0.50400001928E-02 0.  1.
       -1   -1    0    0    0  501  0.00000000000E+00  0.00000000000E+00 -0.22059125306E+04  0.22059125306E+04  0.50400001928E-02 0. -1.
    10030    2    1    2    0    0  0.00000000000E+00  0.00000000000E+00 -0.10521339324E+04  0.33596911288E+04  0.31906956403E+04 0.  0.
        2    1    3    3  502    0 -0.61759044979E+02  0.11039965432E+03 -0.22006232785E+04  0.22042561278E+04  0.25500000920E-02 0. -1.
       -2    1    3    3    0  502  0.61759044979E+02 -0.11039965432E+03  0.11484893461E+04  0.11554350009E+04  0.25500000920E-02 0.  1.
</event>
<event>
 5   0  0.9157524E-08  0.3199382E+04  0.7818609E-02  0.8188980E-01
       -2   -1    0    0    0  501  0.00000000000E+00  0.00000000000E+00  0.13960802037E+04  0.13960802037E+04  0.25500000920E-02 0. -1.
        2   -1    0    0  501    0  0.00000000000E+00  0.00000000000E+00 -0.18329975631E+04  0.18329975631E+04  0.25500000920E-02 0.  1.
    10030    2    1    2    0    0  0.00000000000E+00  0.00000000000E+00 -0.43691735936E+03  0.32290777668E+04  0.31993821975E+04 0.  0.
        5    1    3    3  502    0  0.45196730873E+03  0.14199756170E+04 -0.80556600081E+03  0.16939787108E+04  0.46999998093E+01 0.  1.
       -5    1    3    3    0  502 -0.45196730873E+03 -0.14199756170E+04  0.36864864145E+03  0.15350990560E+04  0.46999998093E+01 0. -1.
</event>
<event>
 5   0  0.3343140E-08  0.3200776E+04  0.7818609E-02  0.8188612E-01
        1   -1    0    0  501    0  0.00000000000E+00  0.00000000000E+00  0.16374384961E+04  0.16374384962E+04  0.50400001928E-02 0. -1.
       -1   -1    0    0    0  501  0.00000000000E+00  0.00000000000E+00 -0.15641760470E+04  0.15641760470E+04  0.50400001928E-02 0.  1.
    10030    2    1    2    0    0  0.00000000000E+00  0.00000000000E+00  0.73262449180E+02  0.32016145431E+04  0.32007762022E+04 0.  0.
        1    1    3    3  502    0  0.37743700530E+03  0.82262654431E+03 -0.12835890705E+04  0.15705967103E+04  0.50400001928E-02 0.  1.
       -1    1    3    3    0  502 -0.37743700530E+03 -0.82262654431E+03  0.13568515197E+04  0.16310178328E+04  0.50400001928E-02 0. -1.
</event>
<event>
 5   0  0.3343140E-08  0.3201194E+04  0.7818609E-02  0.8188502E-01
       -1   -1    0    0    0  501  0.00000000000E+00  0.00000000000E+00  0.13399999805E+04  0.13399999805E+04  0.50400001928E-02 0.  1.
        1   -1    0    0  501    0  0.00000000000E+00  0.00000000000E+00 -0.19118738512E+04  0.19118738512E+04  0.50400001928E-02 0. -1.
    10030    2    1    2    0    0  0.00000000000E+00  0.00000000000E+00 -0.57187387062E+03  0.32518738317E+04  0.32011941043E+04 0.  0.
        1    1    3    3  502    0  0.49846730394E+03 -0.34745655712E+03 -0.17901619049E+04  0.18904696130E+04  0.50400001928E-02 0. -1.
       -1    1    3    3    0  502 -0.49846730394E+03  0.34745655712E+03  0.12182880342E+04  0.13614042187E+04  0.50400001928E-02 0.  1.
</event>
<event>
 5   0  0.9707721E-08  0.3197651E+04  0.7818609E-02  0.8189438E-01
        2   -1    0    0  501    0  0.00000000000E+00  0.00000000000E+00  0.32898443085E+04  0.32898443085E+04  0.25500000920E-02 0. -1.
       -2   -1    0    0    0  501  0.00000000000E+00  0.00000000000E+00 -0.77701010884E+03  0.77701010884E+03  0.25500000920E-02 0.  1.
    10030    2    1    2    0    0  0.00000000000E+00  0.00000000000E+00  0.25128341996E+04  0.40668544173E+04  0.31976505651E+04 0.  0.
        3    1    3    3  502    0  0.33821728508E+03 -0.96354651366E+01  0.32437882327E+04  0.32613871102E+04  0.10100000352E+00 0. -1.
       -3    1    3    3    0  502 -0.33821728508E+03  0.96354651366E+01 -0.73095403306E+03  0.80546730707E+03  0.10100000352E+00 0.  1.
</event>
<event>
 5   0  0.3220147E-08  0.3206219E+04  0.7818609E-02  0.8187177E-01
       -1   -1    0    0    0  501  0.00000000000E+00  0.00000000000E+00  0.11876555116E+04  0.11876555116E+04  0.50400001928E-02 0. -1.
        1   -1    0    0  501    0  0.00000000000E+00  0.00000000000E+00 -0.21638931942E+04  0.21638931942E+04  0.50400001928E-02 0.  1.
    10030    2    1    2    0    0  0.00000000000E+00  0.00000000000E+00 -0.97623768257E+03  0.33515487058E+04  0.32062187565E+04 0.  0.
        4    1    3    3  502    0 -0.76182777266E+03  0.58551892736E+03 -0.18295408953E+04  0.20665031987E+04  0.12699999809E+01 0.  1.
       -4    1    3    3    0  502  0.76182777266E+03 -0.58551892736E+03  0.85330321278E+03  0.12850455071E+04  0.12699999809E+01 0. -1.
</event>
<event>
 5   0  0.3343140E-08  0.3200802E+04  0.7818609E-02  0.8188605E-01
        1   -1    0    0  501    0  0.00000000000E+00  0.00000000000E+00  0.11711453081E+04  0.11711453081E+04  0.50400001928E-02 0.  1.
       -1   -1    0    0    0  501  0.00000000000E+00  0.00000000000E+00 -0.21869901840E+04  0.21869901840E+04  0.50400001928E-02 0. -1.
    10030    2    1    2    0    0  0.00000000000E+00  0.00000000000E+00 -0.10158448758E+04  0.33581354921E+04  0.32008019576E+04 0.  0.
        1    1    3    3  502    0 -0.30209141228E+03 -0.10842706150E+04 -0.17015546398E+04  0.20401446468E+04  0.50400001928E-02 0. -1.
       -1    1    3    3    0  502  0.30209141228E+03  0.10842706150E+04  0.68570976394E+03  0.13179908453E+04  0.50400001928E-02 0.  1.
</event>
<event>
 5   0  0.9157524E-08  0.3200197E+04  0.7818609E-02  0.8188765E-01
        2   -1    0    0  501    0  0.00000000000E+00  0.00000000000E+00  0.12047398646E+04  0.12047398646E+04  0.25500000920E-02 0.  1.
       -2   -1    0    0    0  501  0.00000000000E+00  0.00000000000E+00 -0.21252018941E+04  0.21252018941E+04  0.25500000920E-02 0. -1.
    10030    2    1    2    0    0  0.00000000000E+00  0.00000000000E+00 -0.92046202953E+03  0.33299417588E+04  0.32001971453E+04 0.  0.
        5    1    3    3  502    0 -0.24035650279E+03 -0.15179254572E+04 -0.92373924848E+03  0.17930937597E+04  0.46999998093E+01 0. -1.
       -5    1    3    3    0  502  0.24035650279E+03  0.15179254572E+04  0.32772189529E+01  0.15368479990E+04  0.46999998093E+01 0.  1.
</event>
<event>
 5   0  0.3283581E-08  0.3200284E+04  0.7818609E-02  0.8188742E-01
       -1   -1    0    0    0  501  0.00000000000E+00  0.00000000000E+00  0.17689345157E+04  0.17689345157E+04  0.50400001928E-02 0.  1.
        1   -1    0    0  501    0  0.00000000000E+00  0.00000000000E+00 -0.14474558784E+04  0.14474558784E+04  0.50400001928E-02 0. -1.
    10030    2    1    2    0    0  0.00000000000E+00  0.00000000000E+00  0.32147863728E+03  0.32163903942E+04  0.32002841520E+04 0.  0.
        5    1    3    3  502    0 -0.84049407683E+02  0.66035173208E+03 -0.13016796455E+04  0.14620262318E+04  0.46999998093E+01 0. -1.
       -5    1    3    3    0  502  0.84049407683E+02 -0.66035173208E+03  0.16231582828E+04  0.17543641623E+04  0.46999998093E+01 0.  1.
</event>
<event>
 5   0  0.9707721E-08  0.3200580E+04  0.7818609E-02  0.8188664E-01
       -2   -1    0    0    0  501  0.00000000000E+00  0.00000000000E+00  0.16062274835E+04  0.16062274835E+04  0.25500000920E-02 0. -1.
        2   -1    0    0  501    0  0.00000000000E+00  0.00000000000E+00 -0.15943741601E+04  0.15943741601E+04  0.25500000920E-02 0.  1.
    10030    2    1    2    0    0  0.00000000000E+00  0.00000000000E+00  0.11853323374E+02  0.32006016436E+04  0.32005796943E+04 0.  0.
        3    1    3    3  502    0 -0.12602568318E+04 -0.91921024782E+03  0.36332640293E+03  0.16016244400E+04  0.10100000352E+00 0. -1.
       -3    1    3    3    0  502  0.12602568318E+04  0.91921024782E+03 -0.35147307956E+03  0.15989772036E+04  0.10100000352E+00 0.  1.
</event>
<event>
 5   0  0.3427667E-08  0.3176658E+04  0.7818609E-02  0.8195009E-01
        1   -1    0    0  501    0  0.00000000000E+00  0.00000000000E+00  0.11797996910E+04  0.11797996910E+04  0.50400001928E-02 0. -1.
       -1   -1    0    0    0  501  0.00000000000E+00  0.00000000000E+00 -0.21383194023E+04  0.21383194023E+04  0.50400001928E-02 0.  1.
    10030    2    1    2    0    0  0.00000000000E+00  0.00000000000E+00 -0.95851971133E+03  0.33181190933E+04  0.31766577216E+04 0.  0.
        2    1    3    3  502    0  0.11275573357E+04 -0.61400057886E+03 -0.14559980913E+04  0.19412142329E+04  0.25500000920E-02 0.  1.
       -2    1    3    3    0  502 -0.11275573357E+04  0.61400057886E+03  0.49747838001E+03  0.13769048604E+04  0.25500000920E-02 0. -1.
</event>
<event>
 5   0  0.3220147E-08  0.3199318E+04  0.7818609E-02  0.8188997E-01
       -1   -1    0    0    0  501  0.00000000000E+00  0.00000000000E+00  0.14244424519E+04  0.14244424519E+04  0.50400001928E-02 0. -1.
        1   -1    0    0  501    0  0.00000000000E+00  0.00000000000E+00 -0.17964284990E+04  0.17964284990E+04  0.50400001928E-02 0.  1.
    10030    2    1    2    0    0  0.00000000000E+00  0.00000000000E+00 -0.37198604714E+03  0.32208709509E+04  0.31993180622E+04 0.  0.
        4    1    3    3  502    0  0.20073556504E+02  0.13279180461E+04 -0.10837053601E+04  0.17141144085E+04  0.12699999809E+01 0.  1.
       -4    1    3    3    0  502 -0.20073556504E+02 -0.13279180461E+04  0.71171931298E+03  0.15067565425E+04  0.12699999809E+01 0. -1.
</event>
<event>
 5   0  0.3343140E-08  0.3198038E+04  0.7818609E-02  0.8189336E-01
        1   -1    0    0  501    0  0.00000000000E+00  0.00000000000E+00  0.16275422986E+04  0.16275422986E+04  0.50400001928E-02 0. -1.
       -1   -1    0    0    0  501  0.00000000000E+00  0.00000000000E+00 -0.15709952455E+04  0.15709952456E+04  0.50400001928E-02 0.  1.
    10030    2    1    2    0    0  0.00000000000E+00  0.00000000000E+00  0.56547053041E+02  0.31985375441E+04  0.31980376565E+04 0.  0.
        1    1    3    3  502    0 -0.39379465764E+03 -0.11487376979E+04  0.10687191156E+04  0.16176628447E+04  0.50400001928E-02 0. -1.
       -1    1    3    3    0  502  0.39379465764E+03  0.11487376979E+04 -0.10121720626E+04  0.15808746994E+04  0.50400001928E-02 0.  1.
</event>
<event>
 5   0  0.3220147E-08  0.3207812E+04  0.7818609E-02  0.8186757E-01
        1   -1    0    0  501    0  0.00000000000E+00  0.00000000000E+00  0.19690551195E+04  0.19690551195E+04  0.50400001928E-02 0.  1.
       -1   -1    0    0    0  501  0.00000000000E+00  0.00000000000E+00 -0.13064715250E+04  0.13064715250E+04  0.50400001928E-02 0. -1.
    10030    2    1    2    0    0  0.00000000000E+00  0.00000000000E+00  0.66258359453E+03  0.32755266446E+04  0.32078119925E+04 0.  0.
        4    1    3    3  502    0 -0.68535925737E+03 -0.34450856848E+03  0.17696101880E+04  0.19287107860E+04  0.12699999809E+01 0.  1.
       -4    1    3    3    0  502  0.68535925737E+03  0.34450856848E+03 -0.11070265935E+04  0.13468158586E+04  0.12699999809E+01 0. -1.
</event>
<event>
 5   0  0.9353994E-08  0.3199859E+04  0.7818609E-02  0.8188854E-01
        2   -1    0    0  501    0  0.00000000000E+00  0.00000000000E+00  0.19106205893E+04  0.19106205893E+04  0.25500000920E-02 0.  1.
       -2   -1    0    0    0  501  0.00000000000E+00  0.00000000000E+00 -0.13397605774E+04  0.13397605774E+04  0.25500000920E-02 0. -1.
    10030    2    1    2    0    0  0.00000000000E+00  0.00000000000E+00  0.57086001189E+03  0.32503811666E+04  0.31998588368E+04 0.  0.
        2    1    3    3  502    0 -0.99256686490E+03 -0.14492635161E+03  0.15515372567E+04  0.18475552732E+04  0.25500000920E-02 0.  1.
       -2    1    3    3    0  502  0.99256686490E+03  0.14492635161E+03 -0.98067724482E+03  0.14028258934E+04  0.25500000920E-02 0. -1.
</event>
<event>
 5   0  0.9329929E-08  0.3200455E+04  0.7818609E-02  0.8188697E-01
       -2   -1    0    0    0  501  0.00000000000E+00  0.00000000000E+00  0.11391961215E+04  0.11391961215E+04  0.25500000920E-02 0.  1.
        2   -1    0    0  501    0  0.00000000000E+00  0.00000000000E+00 -0.22478381399E+04  0.22478381399E+04  0.25500000920E-02 0. -1.
    10030    2    1    2    0    0  0.00000000000E+00  0.00000000000E+00 -0.11086420184E+04  0.33870342614E+04  0.32004552743E+04 0.  0.
        1    1    3    3  502    0  0.12970459862E+04  0.87719034022E+03 -0.20502297143E+03  0.15791851070E+04  0.50400001928E-02 0. -1.
       -1    1    3    3    0  502 -0.12970459862E+04 -0.87719034022E+03 -0.90361904693E+03  0.18078491544E+04  0.50400001928E-02 0.  1.
</event>
<event>
 5   0  0.9707721E-08  0.3198791E+04  0.7818609E-02  0.8189136E-01
       -2   -1    0    0    0  501  0.00000000000E+00  0.00000000000E+00  0.99337398979E+03  0.99337398980E+03  0.25500000920E-02 0. -1.
        2   -1    0    0  501    0  0.00000000000E+00  0.00000000000E+00 -0.25751295089E+04  0.25751295089E+04  0.25500000920E-02 0.  1.
    10030    2    1    2    0    0  0.00000000000E+00  0.00000000000E+00 -0.15817555191E+04  0.35685034987E+04  0.31987914433E+04 0.  0.
        3    1    3    3  502    0  0.29387079977E+03  0.10408313619E+04  0.52360186493E+03  0.12016026356E+04  0.10100000352E+00 0. -1.
       -3    1    3    3    0  502 -0.29387079977E+03 -0.10408313619E+04 -0.21053573840E+04  0.23669008631E+04  0.10100000352E+00 0.  1.
</event>
<event>
 5   0  0.9329929E-08  0.3199757E+04  0.7818609E-02  0.8188881E-01
        2   -1    0    0  501    0  0.00000000000E+00  0.00000000000E+00  0.14295009901E+04  0.14295009901E+04  0.25500000920E-02 0.  1.
       -2   -1    0    0    0  501  0.00000000000E+00  0.00000000000E+00 -0.17905627089E+04  0.17905627089E+04  0.25500000920E-02 0. -1.
    10030    2    1    2    0    0  0.00000000000E+00  0.00000000000E+00 -0.36106171880E+03  0.32200636989E+04  0.31997569690E+04 0.  0.
        1    1    3    3  502    0  0.19981659925E+03  0.64379364446E+03  0.12796129057E+04  0.14463077537E+04  0.50400001928E-02 0.  1.
       -1    1    3    3    0  502 -0.19981659925E+03 -0.64379364446E+03 -0.16406746245E+04  0.17737559453E+04  0.50400001928E-02 0. -1.
</event>
<event>
 5   0  0.9727083E-08  0.3200360E+04  0.7818609E-02  0.8188722E-01
        2   -1    0    0  501    0  0.00000000000E+00  0.00000000000E+00  0.24652246292E+04  0.24652246292E+04  0.25500000920E-02 0. -1.
       -2   -1    0    0    0  501  0.00000000000E+00  0.00000000000E+00 -0.10386783269E+04  0.10386783269E+04  0.25500000920E-02 0.  1.
    10030    2    1    2    0    0  0.00000000000E+00  0.00000000000E+00  0.14265463023E+04  0.35039029560E+04  0.32003596005E+04 0.  0.
        4    1    3    3  502    0 -0.13061912501E+03  0.39524651020E+02 -0.10322950073E+04  0.10412771719E+04  0.12699999809E+01 0.  1.
       -4    1    3    3    0  502  0.13061912501E+03 -0.39524651020E+02  0.24588413096E+04  0.24626257841E+04  0.12699999809E+01 0. -1.
</event>
<event>
 5   0  0.3270966E-08  0.3202702E+04  0.7818609E-02  0.8188104E-01
        1   -1    0    0  501    0  0.00000000000E+00  0.00000000000E+00  0.19740999540E+04  0.19740999540E+04  0.50400001928E-02 0.  1.
       -1   -1    0    0    0  501  0.00000000000E+00  0.00000000000E+00 -0.12989846510E+04  0.12989846510E+04  0.50400001928E-02 0. -1.
    10030    2    1    2    0    0  0.00000000000E+00  0.00000000000E+00  0.67511530298E+03  0.32730846050E+04  0.32027023214E+04 0.  0.
        3    1    3    3  502    0 -0.79237659403E+03  0.26719472187E+03  0.17332459574E+04  0.19244207558E+04  0.10100000352E+00 0.  1.
       -3    1    3    3    0  502  0.79237659403E+03 -0.26719472187E+03 -0.10581306544E+04  0.13486638492E+04  0.10100000352E+00 0. -1.
</event>
<event>
 5   0  0.3343140E-08  0.3201362E+04  0.7818609E-02  0.8188458E-01
        1   -1    0    0  501    0  0.00000000000E+00  0.00000000000E+00  0.22332707613E+04  0.22332707613E+04  0.50400001928E-02 0.  1.
       -1   -1    0    0    0  501  0.00000000000E+00  0.00000000000E+00 -0.11472768361E+04  0.11472768361E+04  0.50400001928E-02 0. -1.
    10030    2    1    2    0    0  0.00000000000E+00  0.00000000000E+00  0.10859939252E+04  0.33805475974E+04  0.32013620933E+04 0.  0.
        1    1    3    3  502    0  0.12505975930E+04  0.16081795208E+03  0.15842530411E+04  0.20247751608E+04  0.50400001928E-02 0.  1.
       -1    1    3    3    0  502 -0.12505975930E+04 -0.16081795208E+03 -0.49825911584E+03  0.13557724366E+04  0.50400001928E-02 0. -1.
</event>
<event>
 5   0  0.3080500E-08  0.3196077E+04  0.7818609E-02  0.8189854E-01
        3   -1    0    0  501    0  0.00000000000E+00  0.00000000000E+00  0.14834399175E+04  0.14834399209E+04  0.10100000352E+00 0. -1.
       -3   -1    0    0    0  501  0.00000000000E+00  0.00000000000E+00 -0.17214903233E+04  0.17214903262E+04  0.10100000352E+00 0.  1.
    10030    2    1    2    0    0  0.00000000000E+00  0.00000000000E+00 -0.23805040581E+03  0.32049302472E+04  0.31960772665E+04 0.  0.
        1    1    3    3  502    0  0.67869836457E+03 -0.45029478094E+03 -0.14977265366E+04  0.17048699769E+04  0.50400001928E-02 0.  1.
       -1    1    3    3    0  502 -0.67869836457E+03  0.45029478094E+03  0.12596761308E+04  0.15000602702E+04  0.50400001928E-02 0. -1.
</event>
<event>
 5   0  0.3343140E-08  0.3223807E+04  0.7818609E-02  0.8182558E-01
       -1   -1    0    0    0  501  0.00000000000E+00  0.00000000000E+00  0.21256337045E+04  0.21256337045E+04  0.50400001928E-02 0. -1.
        1   -1    0    0  501    0  0.00000000000E+00  0.00000000000E+00 -0.12223334079E+04  0.12223334079E+04  0.50400001928E-02 0.  1.
    10030    2    1    2    0    0  0.00000000000E+00  0.00000000000E+00  0.90330029662E+03  0.33479671125E+04  0.32238071221E+04 0.  0.
        1    1    3    3  502    0  0.11955140727E+04 -0.30343233739E+03 -0.62605866925E+03  0.13832116753E+04  0.50400001928E-02 0.  1.
       -1    1    3    3    0  502 -0.11955140727E+04  0.30343233739E+03  0.15293589659E+04  0.19647554372E+04  0.50400001928E-02 0. -1.
</event>
<event>
 5   0  0.3220147E-08  0.3196507E+04  0.7818609E-02  0.8189740E-01
       -1   -1    0    0    0  501  0.00000000000E+00  0.00000000000E+00  0.94254622423E+03  0.94254622424E+03  0.50400001928E-02 0. -1.
        1   -1    0    0  501    0  0.00000000000E+00  0.00000000000E+00 -0.27101206185E+04  0.27101206185E+04  0.50400001928E-02 0.  1.
    10030    2    1    2    0    0  0.00000000000E+00  0.00000000000E+00 -0.17675743942E+04  0.36526668427E+04  0.31965068160E+04 0.  0.
        4    1    3    3  502    0  0.78221117751E+03 -0.98004248928E+03 -0.20162050225E+04  0.23743255701E+04  0.12699999809E+01 0.  1.
       -4    1    3    3    0  502 -0.78221117751E+03  0.98004248928E+03  0.24863062831E+03  0.12783412726E+04  0.12699999809E+01 0. -1.
</event>
<event>
 5   0  0.3270966E-08  0.3199984E+04  0.7818609E-02  0.8188821E-01
        1   -1    0    0  501    0  0.00000000000E+00  0.00000000000E+00  0.15692159806E+04  0.15692159806E+04  0.50400001928E-02 0.  1.
       -1   -1    0    0    0  501  0.00000000000E+00  0.00000000000E+00 -0.16313715279E+04  0.16313715279E+04  0.50400001928E-02 0. -1.
    10030    2    1    2    0    0  0.00000000000E+00  0.00000000000E+00 -0.62155547338E+02  0.32005875086E+04  0.31999839199E+04 0.  0.
        3    1    3    3  502    0 -0.12717692582E+02 -0.85438204851E+03  0.13218945843E+04  0.15740189728E+04  0.10100000352E+00 0.  1.
       -3    1    3    3    0  502  0.12717692582E+02  0.85438204851E+03 -0.13840501316E+04  0.16265685358E+04  0.10100000352E+00 0. -1.
</event>
<event>
 5   0  0.9727083E-08  0.3211967E+04  0.7818609E-02  0.8185664E-01
        2   -1    0    0  501    0  0.00000000000E+00  0.00000000000E+00  0.16882102203E+04  0.16882102203E+04  0.25500000920E-02 0. -1.
       -2   -1    0    0    0  501  0.00000000000E+00  0.00000000000E+00 -0.15277615203E+04  0.15277615203E+04  0.25500000920E-02 0.  1.
    10030    2    1    2    0    0  0.00000000000E+00  0.00000000000E+00  0.16044870006E+03  0.32159717406E+04  0.32119667575E+04 0.  0.
        4    1    3    3  502    0 -0.78654848017E+02 -0.96604964392E+03  0.13623453353E+04  0.16719524291E+04  0.12699999809E+01 0. -1.
       -4    1    3    3    0  502  0.78654848017E+02  0.96604964392E+03 -0.12018966353E+04  0.15440193115E+04  0.12699999809E+01 0.  1.
</event>
<event>
 5   0  0.3427667E-08  0.3200836E+04  0.7818609E-02  0.8188596E-01
       -1   -1    0    0    0  501  0.00000000000E+00  0.00000000000E+00  0.10905761013E+04  0.10905761013E+04  0.50400001928E-02 0.  1.
        1   -1    0    0  501    0  0.00000000000E+00  0.00000000000E+00 -0.23486103475E+04  0.23486103475E+04  0.50400001928E-02 0. -1.
    10030    2    1    2    0    0  0.00000000000E+00  0.00000000000E+00 -0.12580342462E+04  0.34391864489E+04  0.32008363385E+04 0.  0.
        2    1    3    3  502    0  0.10537774386E+04  0.69707128806E+03 -0.16845021907E+04  0.21056834761E+04  0.25500000920E-02 0. -1.
       -2    1    3    3    0  502 -0.10537774386E+04 -0.69707128806E+03  0.42646794453E+03  0.13335029728E+04  0.25500000920E-02 0.  1.
</event>
<event>
 5   0  0.3270966E-08  0.3199905E+04  0.7818609E-02  0.8188842E-01
        1   -1    0    0  501    0  0.00000000000E+00  0.00000000000E+00  0.12852483331E+04  0.12852483331E+04  0.50400001928E-02 0. -1.
       -1   -1    0    0    0  501  0.00000000000E+00  0.00000000000E+00 -0.19917152594E+04  0.19917152594E+04  0.50400001928E-02 0.  1.
    10030    2    1    2    0    0  0.00000000000E+00  0.00000000000E+00 -0.70646692625E+03  0.32769635925E+04  0.31999054468E+04 0.  0.
        3    1    3    3  502    0  0.13834434681E+04  0.21855973043E+03 -0.11452692338E+04  0.18092334877E+04  0.10100000352E+00 0.  1.
       -3    1    3    3    0  502 -0.13834434681E+04 -0.21855973043E+03  0.43880230752E+03  0.14677301048E+04  0.10100000352E+00 0. -1.
</event>
<event>
 5   0  0.9157524E-08  0.3200057E+04  0.7818609E-02  0.8188802E-01
       -2   -1    0    0    0  501  0.00000000000E+00  0.00000000000E+00  0.18182809046E+04  0.18182809046E+04  0.25500000920E-02 0.  1.
        2   -1    0    0  501    0  0.00000000000E+00  0.00000000000E+00 -0.14079732706E+04  0.14079732706E+04  0.25500000920E-02 0. -1.
    10030    2    1    2    0    0  0.00000000000E+00  0.00000000000E+00  0.41030763400E+03  0.32262541751E+04  0.32000568195E+04 0.  0.
        5    1    3    3  502    0  0.11990948378E+04  0.84966836923E+03 -0.43272162789E+03  0.15320035460E+04  0.46999998093E+01 0.  1.
       -5    1    3    3    0  502 -0.11990948378E+04 -0.84966836923E+03  0.84302926189E+03  0.16942506291E+04  0.46999998093E+01 0. -1.
</event>
<event>
 5   0  0.3427667E-08  0.3196125E+04  0.7818609E-02  0.8189841E-01
       -1   -1    0    0    0  501  0.00000000000E+00  0.00000000000E+00  0.11599484200E+04  0.11599484201E+04  0.50400001928E-02 0. -1.
        1   -1    0    0  501    0  0.00000000000E+00  0.00000000000E+00 -0.22016528840E+04  0.22016528840E+04  0.50400001928E-02 0.  1.
    10030    2    1    2    0    0  0.00000000000E+00  0.00000000000E+00 -0.10417044639E+04  0.33616013040E+04  0.31961250190E+04 0.  0.
        2    1    3    3  502    0  0.12820742135E+04 -0.90383965692E+03 -0.19982266033E+03  0.15813189147E+04  0.25500000920E-02 0. -1.
       -2    1    3    3    0  502 -0.12820742135E+04  0.90383965692E+03 -0.84188180358E+03  0.17802823893E+04  0.25500000920E-02 0.  1.
</event>
<event>
 5   0  0.3283581E-08  0.3200966E+04  0.7818609E-02  0.8188562E-01
        1   -1    0    0  501    0  0.00000000000E+00  0.00000000000E+00  0.20462167369E+04  0.20462167369E+04  0.50400001928E-02 0. -1.
       -1   -1    0    0    0  501  0.00000000000E+00  0.00000000000E+00 -0.12518449073E+04  0.12518449073E+04  0.50400001928E-02 0.  1.
    10030    2    1    2    0    0  0.00000000000E+00  0.00000000000E+00  0.79437182960E+03  0.32980616442E+04  0.32009661050E+04 0.  0.
        5    1    3    3  502    0  0.62841607247E+03 -0.87408695741E+03  0.16174193750E+04  0.19429365130E+04  0.46999998093E+01 0. -1.
       -5    1    3    3    0  502 -0.62841607247E+03  0.87408695741E+03 -0.82304754535E+03  0.13551251312E+04  0.46999998093E+01 0.  1.
</event>
<event>
 5   0  0.3283581E-08  0.3199973E+04  0.7818609E-02  0.8188824E-01
        1   -1    0    0  501    0  0.00000000000E+00  0.00000000000E+00  0.24400682094E+04  0.24400682094E+04  0.50400001928E-02 0.  1.
       -1   -1    0    0    0  501  0.00000000000E+00  0.00000000000E+00 -0.10491330595E+04  0.10491330595E+04  0.50400001928E-02 0. -1.
    10030    2    1    2    0    0  0.00000000000E+00  0.00000000000E+00  0.13909351499E+04  0.34892012689E+04  0.31999726410E+04 0.  0.
        5    1    3    3  502    0 -0.44347885468E+03  0.65744859090E+03 -0.81974430388E+03  0.11405765901E+04  0.46999998093E+01 0. -1.
       -5    1    3    3    0  502  0.44347885468E+03 -0.65744859090E+03  0.22106794538E+04  0.23486246787E+04  0.46999998093E+01 0.  1.
</event>
<event>
 5   0  0.9353994E-08  0.3202678E+04  0.7818609E-02  0.8188110E-01
       -2   -1    0    0    0  501  0.00000000000E+00  0.00000000000E+00  0.18101475276E+04  0.18101475276E+04  0.25500000920E-02 0. -1.
        2   -1    0    0  501    0  0.00000000000E+00  0.00000000000E+00 -0.14166175171E+04  0.14166175171E+04  0.25500000920E-02 0.  1.
    10030    2    1    2    0    0  0.00000000000E+00  0.00000000000E+00  0.39353001047E+03  0.32267650446E+04  0.32026780644E+04 0.  0.
        2    1    3    3  502    0  0.56610886642E+03  0.11574224435E+04 -0.76127067314E+03  0.14965423479E+04  0.25500000920E-02 0.  1.
       -2    1    3    3    0  502 -0.56610886642E+03 -0.11574224435E+04  0.11548006836E+04  0.17302226967E+04  0.25500000920E-02 0. -1.
</event>
<event>
 5   0  0.9353994E-08  0.3197314E+04  0.7818609E-02  0.8189527E-01
       -2   -1    0    0    0  501  0.00000000000E+00  0.00000000000E+00  0.98203461152E+03  0.98203461152E+03  0.25500000920E-02 0.  1.
        2   -1    0    0  501    0  0.00000000000E+00  0.00000000000E+00 -0.26024586383E+04  0.26024586383E+04  0.25500000920E-02 0. -1.
    10030    2    1    2    0    0  0.00000000000E+00  0.00000000000E+00 -0.16204240267E+04  0.35844932498E+04  0.31973141590E+04 0.  0.
        2    1    3    3  502    0  0.13599349250E+04  0.79853882477E+03 -0.11038815927E+04  0.19250043703E+04  0.25500000920E-02 0. -1.
       -2    1    3    3    0  502 -0.13599349250E+04 -0.79853882477E+03 -0.51654243409E+03  0.16594888795E+04  0.25500000920E-02 0.  1.
</event>
<event>
 5   0  0.9157524E-08  0.3201569E+04  0.7818609E-02  0.8188403E-01
       -2   -1    0    0    0  501  0.00000000000E+00  0.00000000000E+00  0.15180829530E+04  0.15180829530E+04  0.25500000920E-02 0.  1.
        2   -1    0    0  501    0  0.00000000000E+00  0.00000000000E+00 -0.16879919225E+04  0.16879919225E+04  0.25500000920E-02 0. -1.
    10030    2    1    2    0    0  0.00000000000E+00  0.00000000000E+00 -0.16990896951E+03  0.32060748755E+04  0.32015694666E+04 0.  0.
        5    1    3    3  502    0 -0.16276720239E+02  0.52779687456E+03  0.14283488788E+04  0.15228384951E+04  0.46999998093E+01 0.  1.
       -5    1    3    3    0  502  0.16276720239E+02 -0.52779687456E+03 -0.15982578484E+04  0.16832363804E+04  0.46999998093E+01 0. -1.
</event>
<event>
 5   0  0.9727083E-08  0.3200051E+04  0.7818609E-02  0.8188804E-01
       -2   -1    0    0    0  501  0.00000000000E+00  0.00000000000E+00  0.11435068808E+04  0.11435068808E+04  0.25500000920E-02 0.  1.
        2   -1    0    0  501    0  0.00000000000E+00  0.00000000000E+00 -0.22387991658E+04  0.22387991658E+04  0.25500000920E-02 0. -1.
    10030    2    1    2    0    0  0.00000000000E+00  0.00000000000E+00 -0.10952922850E+04  0.33823060465E+04  0.32000514063E+04 0.  0.
        4    1    3    3  502    0  0.94896160280E+03 -0.76505009524E+03 -0.16431371155E+04  0.20459059033E+04  0.12699999809E+01 0. -1.
       -4    1    3    3    0  502 -0.94896160280E+03  0.76505009524E+03  0.54784483045E+03  0.13364001433E+04  0.12699999809E+01 0.  1.
</event>
<event>
 5   0  0.3343140E-08  0.3199326E+04  0.7818609E-02  0.8188995E-01
        1   -1    0    0  501    0  0.00000000000E+00  0.00000000000E+00  0.16151328663E+04  0.16151328663E+04  0.50400001928E-02 0.  1.
       -1   -1    0    0    0  501  0.00000000000E+00  0.00000000000E+00 -0.15843409525E+04  0.15843409525E+04  0.50400001928E-02 0. -1.
    10030    2    1    2    0    0  0.00000000000E+00  0.00000000000E+00  0.30791913804E+02  0.31994738188E+04  0.31993256439E+04 0.  0.
        1    1    3    3  502    0 -0.32838547490E+03  0.39487044406E+03  0.15304451506E+04  0.16143178270E+04  0.50400001928E-02 0.  1.
       -1    1    3    3    0  502  0.32838547490E+03 -0.39487044406E+03 -0.14996532368E+04  0.15851559918E+04  0.50400001928E-02 0. -1.
</event>
<event>
 5   0  0.9727083E-08  0.3199335E+04  0.7818609E-02  0.8188993E-01
        2   -1    0    0  501    0  0.00000000000E+00  0.00000000000E+00  0.14986591851E+04  0.14986591851E+04  0.25500000920E-02 0. -1.
       -2   -1    0    0    0  501  0.00000000000E+00  0.00000000000E+00 -0.17074834837E+04  0.17074834837E+04  0.25500000920E-02 0.  1.
    10030    2    1    2    0    0  0.00000000000E+00  0.00000000000E+00 -0.20882429857E+03  0.32061426688E+04  0.31993348098E+04 0.  0.
        4    1    3    3  502    0 -0.92742164809E+03 -0.12892274133E+04  0.87609668673E+02  0.15905644607E+04  0.12699999809E+01 0. -1.
       -4    1    3    3    0  502  0.92742164809E+03  0.12892274133E+04 -0.29643396724E+03  0.16155782081E+04  0.12699999809E+01 0.  1.
</event>
<event>
 5   0  0.3220147E-08  0.3199468E+04  0.7818609E-02  0.8188958E-01
       -1   -1    0    0    0  501  0.00000000000E+00  0.00000000000E+00  0.12718688170E+04  0.12718688170E+04  0.50400001928E-02 0.  1.
        1   -1    0    0  501    0  0.00000000000E+00  0.00000000000E+00 -0.20121172437E+04  0.20121172437E+04  0.50400001928E-02 0. -1.
    10030    2    1    2    0    0  0.00000000000E+00  0.00000000000E+00 -0.74024842665E+03  0.32839860607E+04  0.31994681923E+04 0.  0.
        4    1    3    3  502    0 -0.56207343616E+03  0.24255349044E+03  0.11468859166E+04  0.13000414078E+04  0.12699999809E+01 0.  1.
       -4    1    3    3    0  502  0.56207343616E+03 -0.24255349044E+03 -0.18871343432E+04  0.19839446529E+04  0.12699999809E+01 0. -1.
</event>
<event>
 5   0  0.9329929E-08  0.3201675E+04  0.7818609E-02  0.8188375E-01
       -2   -1    0    0    0  501  0.00000000000E+00  0.00000000000E+00  0.14951277695E+04  0.14951277696E+04  0.25500000920E-02 0.  1.
        2   -1    0    0  501    0  0.00000000000E+00  0.00000000000E+00 -0.17140206709E+04  0.17140206709E+04  0.25500000920E-02 0. -1.
    10030    2    1    2    0    0  0.00000000000E+00  0.00000000000E+00 -0.21889290132E+03  0.32091484404E+04  0.32016745010E+04 0.  0.
        1    1    3    3  502    0 -0.52045929576E+03 -0.20628688401E+03 -0.16126966696E+04  0.17071094591E+04  0.50400001928E-02 0. -1.
       -1    1    3    3    0  502  0.52045929576E+03  0.20628688401E+03  0.13938037683E+04  0.15020389814E+04  0.50400001928E-02 0.  1.
</event>
<event>
 5   0  0.3270966E-08  0.3199583E+04  0.7818609E-02  0.8188927E-01
       -1   -1    0    0    0  501  0.00000000000E+00  0.00000000000E+00  0.18013941772E+04  0.18013941772E+04  0.50400001928E-02 0.  1.
        1   -1    0    0  501    0  0.00000000000E+00  0.00000000000E+00 -0.14207514209E+04  0.14207514209E+04  0.50400001928E-02 0. -1.
    10030    2    1    2    0    0  0.00000000000E+00  0.00000000000E+00  0.38064275631E+03  0.32221455982E+04  0.31995833085E+04 0.  0.
        3    1    3    3  502    0 -0.47531623968E+03 -0.16307956008E+03  0.17198510976E+04  0.17917612225E+04  0.10100000352E+00 0.  1.
       -3    1    3    3    0  502  0.47531623968E+03  0.16307956008E+03 -0.13392083412E+04  0.14303843756E+04  0.10100000352E+00 0. -1.
</event>
<event>
 5   0  0.9707721E-08  0.3201910E+04  0.7818609E-02  0.8188313E-01
        2   -1    0    0  501    0  0.00000000000E+00  0.00000000000E+00  0.27765193492E+04  0.27765193492E+04  0.25500000920E-02 0. -1.
       -2   -1    0    0    0  501  0.00000000000E+00  0.00000000000E+00 -0.92311844495E+03  0.92311844495E+03  0.25500000920E-02 0.  1.
    10030    2    1    2    0    0  0.00000000000E+00  0.00000000000E+00  0.18534009043E+04  0.36996377942E+04  0.32019095703E+04 0.  0.
        3    1    3    3  502    0 -0.63336893197E+03  0.60594398341E+03  0.24746255293E+04  0.26252801442E+04  0.10100000352E+00 0. -1.
       -3    1    3    3    0  502  0.63336893197E+03 -0.60594398341E+03 -0.62122462507E+03  0.10743576499E+04  0.10100000352E+00 0.  1.
</event>
<event>
 5   0  0.3283581E-08  0.3200833E+04  0.7818609E-02  0.8188597E-01
        1   -1    0    0  501    0  0.00000000000E+00  0.00000000000E+00  0.20932354697E+04  0.20932354697E+04  0.50400001928E-02 0.  1.
       -1   -1    0    0    0  501  0.00000000000E+00  0.00000000000E+00 -0.12236238039E+04  0.12236238039E+04  0.50400001928E-02 0. -1.
    10030    2    1    2    0    0  0.00000000000E+00  0.00000000000E+00  0.86961166584E+03  0.33168592736E+04  0.32008328591E+04 0.  0.
        5    1    3    3  502    0 -0.15759816094E+04 -0.24552613510E+03  0.29847099896E+03  0.16226854728E+04  0.46999998093E+01 0.  1.
       -5    1    3    3    0  502  0.15759816094E+04  0.24552613510E+03  0.57114066688E+03  0.16941738009E+04  0.46999998093E+01 0. -1.
</event>
<event>
 5   0  0.9329929E-08  0.3199593E+04  0.7818609E-02  0.8188925E-01
        2   -1    0    0  501    0  0.00000000000E+00  0.00000000000E+00  0.25438823744E+04  0.25438823744E+04  0.25500000920E-02 0. -1.
       -2   -1    0    0    0  501  0.00000000000E+00  0.00000000000E+00 -0.10060795914E+04  0.10060795914E+04  0.25500000920E-02 0.  1.
    10030    2    1    2    0    0  0.00000000000E+00  0.00000000000E+00  0.15378027830E+04  0.35499619658E+04  0.31995925615E+04 0.  0.
        1    1    3    3  502    0 -0.92695380895E+01 -0.14303583679E+04 -0.26031324877E+02  0.14306252531E+04  0.50400001928E-02 0.  1.
       -1    1    3    3    0  502  0.92695380895E+01  0.14303583679E+04  0.15638341078E+04  0.21193367127E+04  0.50400001928E-02 0. -1.
</event>
<event>
 5   0  0.9707721E-08  0.3199323E+04  0.7818609E-02  0.8188996E-01
       -2   -1    0    0    0  501  0.00000000000E+00  0.00000000000E+00  0.10369804642E+04  0.10369804642E+04  0.25500000920E-02 0. -1.
        2   -1    0    0  501    0  0.00000000000E+00  0.00000000000E+00 -0.24676620603E+04  0.24676620603E+04  0.25500000920E-02 0.  1.
    10030    2    1    2    0    0  0.00000000000E+00  0.00000000000E+00 -0.14306815960E+04  0.35046425245E+04  0.31993232715E+04 0.  0.
        3    1    3    3  502    0 -0.74997442271E+03 -0.12152761238E+04  0.74252235040E+02  0.14299898938E+04  0.10100000352E+00 0.  1.
       -3    1    3    3    0  502  0.74997442271E+03  0.12152761238E+04 -0.15049338311E+04  0.20746526307E+04  0.10100000352E+00 0. -1.
</event>
<event>
 5   0  0.3080500E-08  0.3201452E+04  0.7818609E-02  0.8188434E-01
        3   -1    0    0  501    0  0.00000000000E+00  0.00000000000E+00  0.16336151701E+04  0.16336151733E+04  0.10100000352E+00 0.  1.
       -3   -1    0    0    0  501  0.00000000000E+00  0.00000000000E+00 -0.15684990386E+04  0.15684990418E+04  0.10100000352E+00 0. -1.
    10030    2    1    2    0    0  0.00000000000E+00  0.00000000000E+00  0.65116131548E+02  0.32021142151E+04  0.32014520668E+04 0.  0.
        1    1    3    3  502    0 -0.78278540433E+02  0.46441444762E+03 -0.14976327037E+04  0.15699401340E+04  0.50400001928E-02 0. -1.
       -1    1    3    3    0  502  0.78278540433E+02 -0.46441444762E+03  0.15627488352E+04  0.16321740811E+04  0.50400001928E-02 0.  1.
</event>
<event>
 5   0  0.3220147E-08  0.3200460E+04  0.7818609E-02  0.8188696E-01
       -1   -1    0    0    0  501  0.00000000000E+00  0.00000000000E+00  0.10555604618E+04  0.10555604618E+04  0.50400001928E-02 0. -1.
        1   -1    0    0  501    0  0.00000000000E+00  0.00000000000E+00 -0.24259492754E+04  0.24259492754E+04  0.50400001928E-02 0.  1.
    10030    2    1    2    0    0  0.00000000000E+00  0.00000000000E+00 -0.13703888136E+04  0.34815097372E+04  0.32004600528E+04 0.  0.
        4    1    3    3  502    0  0.60115280760E+03  0.95788312709E+03 -0.19167867697E+04  0.22255331758E+04  0.12699999809E+01 0.  1.
       -4    1    3    3    0  502 -0.60115280760E+03 -0.95788312709E+03  0.54639795611E+03  0.12559765613E+04  0.12699999809E+01 0. -1.
</event>
<event>
 5   0  0.3427667E-08  0.3199771E+04  0.7818609E-02  0.8188878E-01
       -1   -1    0    0    0  501  0.00000000000E+00  0.00000000000E+00  0.15136314026E+04  0.15136314026E+04  0.50400001928E-02 0.  1.
        1   -1    0    0  501    0  0.00000000000E+00  0.00000000000E+00 -0.16910544755E+04  0.16910544755E+04  0.50400001928E-02 0. -1.
    10030    2    1    2    0    0  0.00000000000E+00  0.00000000000E+00 -0.17742307293E+03  0.32046858782E+04  0.31997707154E+04 0.  0.
        2    1    3    3  502    0  0.29823053600E+03 -0.90974377351E+03  0.11950756913E+04  0.15312678061E+04  0.25500000920E-02 0. -1.
       -2    1    3    3    0  502 -0.29823053600E+03  0.90974377351E+03 -0.13724987642E+04  0.16734180721E+04  0.25500000920E-02 0.  1.
</event>
<event>
 5   0  0.9727083E-08  0.3200809E+04  0.7818609E-02  0.8188603E-01
       -2   -1    0    0    0  501  0.00000000000E+00  0.00000000000E+00  0.21119191826E+04  0.21119191826E+04  0.25500000920E-02 0. -1.
        2   -1    0    0  501    0  0.00000000000E+00  0.00000000000E+00 -0.12127807585E+04  0.12127807585E+04  0.25500000920E-02 0.  1.
    10030    2    1    2    0    0  0.00000000000E+00  0.00000000000E+00  0.89913842410E+03  0.33246999410E+04  0.32008092402E+04 0.  0.
        4    1    3    3  502    0 -0.10812350917E+03  0.94390424302E+02  0.21052201016E+04  0.21101074699E+04  0.12699999809E+01 0. -1.
       -4    1    3    3    0  502  0.10812350917E+03 -0.94390424302E+02 -0.12060816775E+04  0.12145924712E+04  0.12699999809E+01 0.  1.
</event>
<event>
 5   0  0.9329929E-08  0.3199734E+04  0.7818609E-02  0.8188888E-01
        2   -1    0    0  501    0  0.00000000000E+00  0.00000000000E+00  0.12731001316E+04  0.12731001316E+04  0.25500000920E-02 0. -1.
       -2   -1    0    0    0  501  0.00000000000E+00  0.00000000000E+00 -0.20105047412E+04  0.20105047412E+04  0.25500000920E-02 0.  1.
    10030    2    1    2    0    0  0.00000000000E+00  0.00000000000E+00 -0.73740460954E+03  0.32836048728E+04  0.31997336455E+04 0.  0.
        1    1    3    3  502    0  0.36965172234E+02  0.69316525401E+03 -0.18479181544E+04  0.19739924009E+04  0.50400001928E-02 0.  1.
       -1    1    3    3    0  502 -0.36965172234E+02 -0.69316525401E+03  0.11105135448E+04  0.13096124719E+04  0.50400001928E-02 0. -1.
</event>
<event>
 5   0  0.3343140E-08  0.3200117E+04  0.7818609E-02  0.8188786E-01
       -1   -1    0    0    0  501  0.00000000000E+00  0.00000000000E+00  0.92487067664E+03  0.92487067665E+03  0.50400001928E-02 0. -1.
        1   -1    0    0  501    0  0.00000000000E+00  0.00000000000E+00 -0.27681568549E+04  0.27681568549E+04  0.50400001928E-02 0.  1.
    10030    2    1    2    0    0  0.00000000000E+00  0.00000000000E+00 -0.18432861783E+04  0.36930275316E+04  0.32001169375E+04 0.  0.
        1    1    3    3  502    0  0.53332998768E+03  0.44402131503E+02 -0.26618080103E+04  0.27150753781E+04  0.50400001928E-02 0.  1.
       -1    1    3    3    0  502 -0.53332998768E+03 -0.44402131503E+02  0.81852183200E+03  0.97795215349E+03  0.50400001928E-02 0. -1.
</event>
<event>
 5   0  0.9157524E-08  0.3199560E+04  0.7818609E-02  0.8188933E-01
       -2   -1    0    0    0  501  0.00000000000E+00  0.00000000000E+00  0.92339490920E+03  0.92339490920E+03  0.25500000920E-02 0. -1.
        2   -1    0    0  501    0  0.00000000000E+00  0.00000000000E+00 -0.27716165214E+04  0.27716165214E+04  0.25500000920E-02 0.  1.
    10030    2    1    2    0    0  0.00000000000E+00  0.00000000000E+00 -0.18482216122E+04  0.36950114306E+04  0.31995603361E+04 0.  0.
        5    1    3    3  502    0  0.66916904384E+03  0.11071238469E+04 -0.20109981028E+04  0.23911599446E+04  0.46999998093E+01 0.  1.
       -5    1    3    3    0  502 -0.66916904384E+03 -0.11071238469E+04  0.16277649056E+03  0.13038514860E+04  0.46999998093E+01 0. -1.
</event>
<event>
 5   0  0.3220147E-08  0.3179765E+04  0.7818609E-02  0.8194182E-01
        1   -1    0    0  501    0  0.00000000000E+00  0.00000000000E+00  0.14288488220E+04  0.14288488220E+04  0.50400001928E-02 0. -1.
       -1   -1    0    0    0  501  0.00000000000E+00  0.00000000000E+00 -0.17690652615E+04  0.17690652615E+04  0.50400001928E-02 0.  1.
    10030    2    1    2    0    0  0.00000000000E+00  0.00000000000E+00 -0.34021643948E+03  0.31979140835E+04  0.31797652837E+04 0.  0.
        4    1    3    3  502    0 -0.13462601626E+04 -0.27897255588E+03 -0.97309068663E+03  0.16843839259E+04  0.12699999809E+01 0.  1.
       -4    1    3    3    0  502  0.13462601626E+04  0.27897255588E+03  0.63287424715E+03  0.15135301576E+04  0.12699999809E+01 0. -1.
</event>
<event>
 5   0  0.3270966E-08  0.3193149E+04  0.7818609E-02  0.8190629E-01
        1   -1    0    0  501    0  0.00000000000E+00  0.00000000000E+00  0.16835887104E+04  0.16835887104E+04  0.50400001928E-02 0. -1.
       -1   -1    0    0    0  501  0.00000000000E+00  0.00000000000E+00 -0.15140573516E+04  0.15140573517E+04  0.50400001928E-02 0.  1.
    10030    2    1    2    0    0  0.00000000000E+00  0.00000000000E+00  0.16953135873E+03  0.31976460620E+04  0.31931488309E+04 0.  0.
        3    1    3    3  502    0  0.59009401325E+03  0.14591818514E+03  0.15631737637E+04  0.16772046050E+04  0.10100000352E+00 0. -1.
       -3    1    3    3    0  502 -0.59009401325E+03 -0.14591818514E+03 -0.13936424050E+04  0.15204414571E+04  0.10100000352E+00 0.  1.
</event>
<event>
 5   0  0.3427667E-08  0.3203322E+04  0.7818609E-02  0.8187940E-01
       -1   -1    0    0    0  501  0.00000000000E+00  0.00000000000E+00  0.16113662607E+04  0.16113662607E+04  0.50400001928E-02 0.  1.
        1   -1    0    0  501    0  0.00000000000E+00  0.00000000000E+00 -0.15920146331E+04  0.15920146331E+04  0.50400001928E-02 0. -1.
    10030    2    1    2    0    0  0.00000000000E+00  0.00000000000E+00  0.19351627572E+02  0.32033808938E+04  0.32033224417E+04 0.  0.
        2    1    3    3  502    0  0.13181533162E+04 -0.74357732787E+03  0.53397848456E+03  0.16048577599E+04  0.25500000920E-02 0. -1.
       -2    1    3    3    0  502 -0.13181533162E+04  0.74357732787E+03 -0.51462685699E+03  0.15985231339E+04  0.25500000920E-02 0.  1.
</event>
<event>
 5   0  0.9727083E-08  0.3200761E+04  0.7818609E-02  0.8188616E-01
       -2   -1    0    0    0  501  0.00000000000E+00  0.00000000000E+00  0.98359898223E+03  0.98359898223E+03  0.25500000920E-02 0. -1.
        2   -1    0    0  501    0  0.00000000000E+00  0.00000000000E+00 -0.26039242148E+04  0.26039242148E+04  0.25500000920E-02 0.  1.
    10030    2    1    2    0    0  0.00000000000E+00  0.00000000000E+00 -0.16203252326E+04  0.35875231970E+04  0.32007606643E+04 0.  0.
        4    1    3    3  502    0  0.58922737187E+03  0.14186382774E+04 -0.13132814417E+04  0.20209980742E+04  0.12699999809E+01 0. -1.
       -4    1    3    3    0  502 -0.58922737187E+03 -0.14186382774E+04 -0.30704379087E+03  0.15665251228E+04  0.12699999809E+01 0.  1.
</event>
<event>
 5   0  0.3343140E-08  0.3200166E+04  0.7818609E-02  0.8188773E-01
        1   -1    0    0  501    0  0.00000000000E+00  0.00000000000E+00  0.20643625222E+04  0.20643625222E+04  0.50400001928E-02 0.  1.
       -1   -1    0    0    0  501  0.00000000000E+00  0.00000000000E+00 -0.12402206635E+04  0.12402206635E+04  0.50400001928E-02 0. -1.
    10030    2    1    2    0    0  0.00000000000E+00  0.00000000000E+00  0.82414185865E+03  0.33045831857E+04  0.32001656564E+04 0.  0.
        1    1    3    3  502    0 -0.13853564092E+04 -0.72479561410E+03  0.76335296109E+03  0.17398990793E+04  0.50400001928E-02 0.  1.
       -1    1    3    3    0  502  0.13853564092E+04  0.72479561410E+03  0.60788897560E+02  0.15646841064E+04  0.50400001928E-02 0. -1.
</event>
<event>
 5   0  0.3270966E-08  0.3199608E+04  0.7818609E-02  0.8188921E-01
       -1   -1    0    0    0  501  0.00000000000E+00  0.00000000000E+00  0.16129118211E+04  0.16129118211E+04  0.50400001928E-02 0.  1.
        1   -1    0    0  501    0  0.00000000000E+00  0.00000000000E+00 -0.15868023453E+04  0.15868023453E+04  0.50400001928E-02 0. -1.
    10030    2    1    2    0    0  0.00000000000E+00  0.00000000000E+00  0.26109475779E+02  0.31997141664E+04  0.31996076387E+04 0.  0.
        3    1    3    3  502    0  0.78022329286E+03  0.56725974253E+03  0.12893574884E+04  0.16102716371E+04  0.10100000352E+00 0.  1.
       -3    1    3    3    0  502 -0.78022329286E+03 -0.56725974253E+03 -0.12632480126E+04  0.15894425293E+04  0.10100000352E+00 0. -1.
</event>
<event>
 5   0  0.9353994E-08  0.3200585E+04  0.7818609E-02  0.8188663E-01
        2   -1    0    0  501    0  0.00000000000E+00  0.00000000000E+00  0.17678635196E+04  0.17678635196E+04  0.25500000920E-02 0. -1.
       -2   -1    0    0    0  501  0.00000000000E+00  0.00000000000E+00 -0.14486047619E+04  0.14486047619E+04  0.25500000920E-02 0.  1.
    10030    2    1    2    0    0  0.00000000000E+00  0.00000000000E+00  0.31925875764E+03  0.32164682815E+04  0.32005846422E+04 0.  0.
        2    1    3    3  502    0  0.98037312473E+03  0.53174533061E+03  0.13129531529E+04  0.17227102316E+04  0.25500000920E-02 0. -1.
       -2    1    3    3    0  502 -0.98037312473E+03 -0.53174533061E+03 -0.99369439531E+03  0.14937580499E+04  0.25500000920E-02 0.  1.
</event>
<event>
 5   0  0.9727083E-08  0.3201376E+04  0.7818609E-02  0.8188454E-01
        2   -1    0    0  501    0  0.00000000000E+00  0.00000000000E+00  0.15961834111E+04  0.15961834111E+04  0.25500000920E-02 0.  1.
       -2   -1    0    0    0  501  0.00000000000E+00  0.00000000000E+00 -0.16052050948E+04  0.16052050948E+04  0.25500000920E-02 0. -1.
    10030    2    1    2    0    0  0.00000000000E+00  0.00000000000E+00 -0.90216837354E+01  0.32013885059E+04  0.32013757941E+04 0.  0.
        4    1    3    3  502    0  0.77259242447E+02 -0.12979984267E+04  0.92899767179E+03  0.15980635761E+04  0.12699999809E+01 0.  1.
       -4    1    3    3    0  502 -0.77259242447E+02  0.12979984267E+04 -0.93801935553E+03  0.16033249298E+04  0.12699999809E+01 0. -1.
</event>
<event>
 5   0  0.3283581E-08  0.3200698E+04  0.7818609E-02  0.8188633E-01
        1   -1    0    0  501    0  0.00000000000E+00  0.00000000000E+00  0.16283636963E+04  0.16283636963E+04  0.50400001928E-02 0. -1.
       -1   -1    0    0    0  501  0.00000000000E+00  0.00000000000E+00 -0.15728167337E+04  0.15728167337E+04  0.50400001928E-02 0.  1.
    10030    2    1    2    0    0  0.00000000000E+00  0.00000000000E+00  0.55546962653E+02  0.32011804300E+04  0.32006984676E+04 0.  0.
        5    1    3    3  502    0  0.30928490310E+03  0.50129123169E+03 -0.14604510964E+04  0.15747665050E+04  0.46999998093E+01 0.  1.
       -5    1    3    3    0  502 -0.30928490310E+03 -0.50129123169E+03  0.15159980591E+04  0.16264139250E+04  0.46999998093E+01 0. -1.
</event>
<event>
 5   0  0.9727083E-08  0.3199160E+04  0.7818609E-02  0.8189039E-01
       -2   -1    0    0    0  501  0.00000000000E+00  0.00000000000E+00  0.12414835090E+04  0.12414835090E+04  0.25500000920E-02 0. -1.
        2   -1    0    0  501    0  0.00000000000E+00  0.00000000000E+00 -0.20609667109E+04  0.20609667109E+04  0.25500000920E-02 0.  1.
    10030    2    1    2    0    0  0.00000000000E+00  0.00000000000E+00 -0.81948320192E+03  0.33024502199E+04  0.31991600048E+04 0.  0.
        4    1    3    3  502    0  0.80713280143E+03 -0.12406860731E+04  0.21638028510E+03  0.14958567217E+04  0.12699999809E+01 0. -1.
       -4    1    3    3    0  502 -0.80713280143E+03  0.12406860731E+04 -0.10358634870E+04  0.18065934982E+04  0.12699999809E+01 0.  1.
</event>
<event>
 5   0  0.3427667E-08  0.3200223E+04  0.7818609E-02  0.8188758E-01
       -1   -1    0    0    0  501  0.00000000000E+00  0.00000000000E+00  0.17808628590E+04  0.17808628590E+04  0.50400001928E-02 0. -1.
        1   -1    0    0  501    0  0.00000000000E+00  0.00000000000E+00 -0.14377059410E+04  0.14377059410E+04  0.50400001928E-02 0.  1.
    10030    2    1    2    0    0  0.00000000000E+00  0.00000000000E+00  0.34315691796E+03  0.32185688000E+04  0.32002231875E+04 0.  0.
        2    1    3    3  502    0 -0.85872154186E+02  0.10742602614E+04  0.13611301306E+04  0.17361118537E+04  0.25500000920E-02 0. -1.
       -2    1    3    3    0  502  0.85872154186E+02 -0.10742602614E+04 -0.10179732126E+04  0.14824569463E+04  0.25500000920E-02 0.  1.
</event>
<event>
 5   0  0.9157524E-08  0.3200729E+04  0.7818609E-02  0.8188625E-01
        2   -1    0    0  501    0  0.00000000000E+00  0.00000000000E+00  0.11146724953E+04  0.11146724953E+04  0.25500000920E-02 0. -1.
       -2   -1    0    0    0  501  0.00000000000E+00  0.00000000000E+00 -0.22976846938E+04  0.22976846938E+04  0.25500000920E-02 0.  1.
    10030    2    1    2    0    0  0.00000000000E+00  0.00000000000E+00 -0.11830121985E+04  0.34123571891E+04  0.32007286239E+04 0.  0.
        5    1    3    3  502    0 -0.15371591754E+04 -0.31293823057E+03 -0.25377152961E+03  0.15890911698E+04  0.46999998093E+01 0.  1.
       -5    1    3    3    0  502  0.15371591754E+04  0.31293823057E+03 -0.92924066886E+03  0.18232660193E+04  0.46999998093E+01 0. -1.
</event>
<event>
 5   0  0.3220147E-08  0.3200446E+04  0.7818609E-02  0.8188699E-01
       -1   -1    0    0    0  501  0.00000000000E+00  0.00000000000E+00  0.13016941424E+04  0.13016941424E+04  0.50400001928E-02 0.  1.
        1   -1    0    0  501    0  0.00000000000E+00  0.00000000000E+00 -0.19672161598E+04  0.19672161598E+04  0.50400001928E-02 0. -1.
    10030    2    1    2    0    0  0.00000000000E+00  0.00000000000E+00 -0.66552201736E+03  0.32689103022E+04  0.32004460640E+04 0.  0.
        4    1    3    3  502    0 -0.12715274339E+04 -0.96486116583E+03 -0.21642514574E+03  0.16107701702E+04  0.12699999809E+01 0.  1.
       -4    1    3    3    0  502  0.12715274339E+04  0.96486116583E+03 -0.44909687163E+03  0.16581401321E+04  0.12699999809E+01 0. -1.
</event>
<event>
 5   0  0.9707721E-08  0.3201137E+04  0.7818609E-02  0.8188517E-01
        2   -1    0    0  501    0  0.00000000000E+00  0.00000000000E+00  0.24300343513E+04  0.24300343513E+04  0.25500000920E-02 0. -1.
       -2   -1    0    0    0  501  0.00000000000E+00  0.00000000000E+00 -0.10542316551E+04  0.10542316551E+04  0.25500000920E-02 0.  1.
    10030    2    1    2    0    0  0.00000000000E+00  0.00000000000E+00  0.13758026962E+04  0.34842660065E+04  0.32011367582E+04 0.  0.
        3    1    3    3  502    0 -0.55020379850E+01  0.13341113793E+04 -0.27458059619E+03  0.13620858853E+04  0.10100000352E+00 0.  1.
       -3    1    3    3    0  502  0.55020379850E+01 -0.13341113793E+04  0.16503832923E+04  0.21221801212E+04  0.10100000352E+00 0. -1.
</event>
<event>
 5   0  0.3427667E-08  0.3199625E+04  0.7818609E-02  0.8188916E-01
       -1   -1    0    0    0  501  0.00000000000E+00  0.00000000000E+00  0.12171425279E+04  0.12171425279E+04  0.50400001928E-02 0.  1.
        1   -1    0    0  501    0  0.00000000000E+00  0.00000000000E+00 -0.21027936148E+04  0.21027936148E+04  0.50400001928E-02 0. -1.
    10030    2    1    2    0    0  0.00000000000E+00  0.00000000000E+00 -0.88565108687E+03  0.33199361427E+04  0.31996246880E+04 0.  0.
        2    1    3    3  502    0 -0.12946968533E+04  0.93311103005E+03 -0.55866298338E+03  0.16908697364E+04  0.25500000920E-02 0. -1.
       -2    1    3    3    0  502  0.12946968533E+04 -0.93311103005E+03 -0.32698810349E+03  0.16290664063E+04  0.25500000920E-02 0.  1.
</event>
<event>
 5   0  0.9353994E-08  0.3199710E+04  0.7818609E-02  0.8188894E-01
       -2   -1    0    0    0  501  0.00000000000E+00  0.00000000000E+00  0.15970648053E+04  0.15970648053E+04  0.25500000920E-02 0. -1.
        2   -1    0    0  501    0  0.00000000000E+00  0.00000000000E+00 -0.16026504345E+04  0.16026504345E+04  0.25500000920E-02 0.  1.
    10030    2    1    2    0    0  0.00000000000E+00  0.00000000000E+00 -0.55856292351E+01  0.31997152397E+04  0.31997103644E+04 0.  0.
        2    1    3    3  502    0 -0.62032739846E+03  0.51132556328E+03 -0.13860073755E+04  0.16022722484E+04  0.25500000920E-02 0.  1.
       -2    1    3    3    0  502  0.62032739846E+03 -0.51132556328E+03  0.13804217463E+04  0.15974429913E+04  0.25500000920E-02 0. -1.
</event>
<event>
 5   0  0.3080500E-08  0.3200665E+04  0.7818609E-02  0.8188641E-01
        3   -1    0    0  501    0  0.00000000000E+00  0.00000000000E+00  0.18454043972E+04  0.18454044000E+04  0.10100000352E+00 0. -1.
       -3   -1    0    0    0  501  0.00000000000E+00  0.00000000000E+00 -0.13878067368E+04  0.13878067405E+04  0.10100000352E+00 0.  1.
    10030    2    1    2    0    0  0.00000000000E+00  0.00000000000E+00  0.45759766045E+03  0.32332111405E+04  0.32006653465E+04 0.  0.
        5    1    3    3  502    0 -0.12816658892E+04 -0.94572104968E+03  0.72347185186E+02  0.15944629066E+04  0.46999998093E+01 0. -1.
       -5    1    3    3    0  502  0.12816658892E+04  0.94572104968E+03  0.38525047526E+03  0.16387482339E+04  0.46999998093E+01 0.  1.
</event>
<event>
 5   0  0.9727083E-08  0.3199969E+04  0.7818609E-02  0.8188825E-01
       -2   -1    0    0    0  501  0.00000000000E+00  0.00000000000E+00  0.12171948197E+04  0.12171948197E+04  0.25500000920E-02 0.  1.
        2   -1    0    0  501    0  0.00000000000E+00  0.00000000000E+00 -0.21031555425E+04  0.21031555425E+04  0.25500000920E-02 0. -1.
    10030    2    1    2    0    0  0.00000000000E+00  0.00000000000E+00 -0.88596072281E+03  0.33203503623E+04  0.31999687695E+04 0.  0.
        4    1    3    3  502    0 -0.14856836076E+04  0.24385785875E+03 -0.10048549580E+04  0.18100987643E+04  0.12699999809E+01 0. -1.
       -4    1    3    3    0  502  0.14856836076E+04 -0.24385785875E+03  0.11889423522E+03  0.15102515980E+04  0.12699999809E+01 0.  1.
</event>
<event>
 5   0  0.9157524E-08  0.3200312E+04  0.7818609E-02  0.8188735E-01
        2   -1    0    0  501    0  0.00000000000E+00  0.00000000000E+00  0.14179996055E+04  0.14179996055E+04  0.25500000920E-02 0. -1.
       -2   -1    0    0    0  501  0.00000000000E+00  0.00000000000E+00 -0.18057123292E+04  0.18057123292E+04  0.25500000920E-02 0.  1.
    10030    2    1    2    0    0  0.00000000000E+00  0.00000000000E+00 -0.38771272373E+03  0.32237119347E+04  0.32003120913E+04 0.  0.
        5    1    3    3  502    0 -0.21295076479E+03 -0.76262845632E+02  0.14018072192E+04  0.14199470482E+04  0.46999998093E+01 0. -1.
       -5    1    3    3    0  502  0.21295076479E+03  0.76262845632E+02 -0.17895199429E+04  0.18037648865E+04  0.46999998093E+01 0.  1.
</event>
<event>
 5   0  0.3343140E-08  0.3199354E+04  0.7818609E-02  0.8188988E-01
        1   -1    0    0  501    0  0.00000000000E+00  0.00000000000E+00  0.23289299822E+04  0.23289299822E+04  0.50400001928E-02 0.  1.
       -1   -1    0    0    0  501  0.00000000000E+00  0.00000000000E+00 -0.10987734501E+04  0.10987734501E+04  0.50400001928E-02 0. -1.
    10030    2    1    2    0    0  0.00000000000E+00  0.00000000000E+00  0.12301565321E+04  0.34277034324E+04  0.31993539546E+04 0.  0.
        1    1    3    3  502    0 -0.12797269229E+04 -0.85850932546E+03  0.10749299621E+04  0.18788862878E+04  0.50400001928E-02 0.  1.
       -1    1    3    3    0  502  0.12797269229E+04  0.85850932546E+03  0.15522657006E+03  0.15488171446E+04  0.50400001928E-02 0. -1.
</event>
<event>
 5   0  0.3427667E-08  0.3199492E+04  0.7818609E-02  0.8188951E-01
       -1   -1    0    0    0  501  0.00000000000E+00  0.00000000000E+00  0.14695569679E+04  0.14695569679E+04  0.50400001928E-02 0. -1.
        1   -1    0    0  501    0  0.00000000000E+00  0.00000000000E+00 -0.17414688354E+04  0.17414688354E+04  0.50400001928E-02 0.  1.
    10030    2    1    2    0    0  0.00000000000E+00  0.00000000000E+00 -0.27191186748E+03  0.32110258033E+04  0.31994922481E+04 0.  0.
        2    1    3    3  502    0 -0.14715725588E+03  0.29874711481E+03  0.14343833788E+04  0.14725354916E+04  0.25500000920E-02 0. -1.
       -2    1    3    3    0  502  0.14715725588E+03 -0.29874711481E+03 -0.17062952463E+04  0.17384903117E+04  0.25500000920E-02 0.  1.
</event>
<event>
 5   0  0.9157524E-08  0.3203381E+04  0.7818609E-02  0.8187925E-01
        2   -1    0    0  501    0  0.00000000000E+00  0.00000000000E+00  0.25456852254E+04  0.25456852254E+04  0.25500000920E-02 0.  1.
       -2   -1    0    0    0  501  0.00000000000E+00  0.00000000000E+00 -0.10077492890E+04  0.10077492890E+04  0.25500000920E-02 0. -1.
    10030    2    1    2    0    0  0.00000000000E+00  0.00000000000E+00  0.15379359364E+04  0.35534345144E+04  0.32033810113E+04 0.  0.
        5    1    3    3  502    0 -0.42265107067E+03 -0.98807154712E+03 -0.54844462870E+03  0.12065375711E+04  0.46999998093E+01 0. -1.
       -5    1    3    3    0  502  0.42265107067E+03  0.98807154712E+03  0.20863805651E+04  0.23468969433E+04  0.46999998093E+01 0.  1.
</event>
<event>
 5   0  0.3270966E-08  0.3199804E+04  0.7818609E-02  0.8188869E-01
        1   -1    0    0  501    0  0.00000000000E+00  0.00000000000E+00  0.17955995388E+04  0.17955995389E+04  0.50400001928E-02 0.  1.
       -1   -1    0    0    0  501  0.00000000000E+00  0.00000000000E+00 -0.14255332734E+04  0.14255332734E+04  0.50400001928E-02 0. -1.
    10030    2    1    2    0    0  0.00000000000E+00  0.00000000000E+00  0.37006626541E+03  0.32211328123E+04  0.31998042993E+04 0.  0.
        3    1    3    3  502    0 -0.17683325915E+03  0.14548664962E+04 -0.46094531140E+03  0.15363518847E+04  0.10100000352E+00 0. -1.
       -3    1    3    3    0  502  0.17683325915E+03 -0.14548664962E+04  0.83101157682E+03  0.16847809277E+04  0.10100000352E+00 0.  1.
</event>
<event>
 5   0  0.9329929E-08  0.3199589E+04  0.7818609E-02  0.8188926E-01
        2   -1    0    0  501    0  0.00000000000E+00  0.00000000000E+00  0.19264605498E+04  0.19264605498E+04  0.25500000920E-02 0.  1.
       -2   -1    0    0    0  501  0.00000000000E+00  0.00000000000E+00 -0.13285204406E+04  0.13285204406E+04  0.25500000920E-02 0. -1.
    10030    2    1    2    0    0  0.00000000000E+00  0.00000000000E+00  0.59794010917E+03  0.32549809904E+04  0.31995888601E+04 0.  0.
        1    1    3    3  502    0 -0.11219234426E+04  0.10377102343E+04 -0.18228152772E+03  0.15390845645E+04  0.50400001928E-02 0. -1.
       -1    1    3    3    0  502  0.11219234426E+04 -0.10377102343E+04  0.78022163689E+03  0.17158964258E+04  0.50400001928E-02 0.  1.
</event>
<event>
 5   0  0.3343140E-08  0.3204065E+04  0.7818609E-02  0.8187744E-01
       -1   -1    0    0    0  501  0.00000000000E+00  0.00000000000E+00  0.18263044719E+04  0.18263044719E+04  0.50400001928E-02 0.  1.
        1   -1    0    0  501    0  0.00000000000E+00  0.00000000000E+00 -0.14053014553E+04  0.14053014553E+04  0.50400001928E-02 0. -1.
    10030    2    1    2    0    0  0.00000000000E+00  0.00000000000E+00  0.42100301652E+03  0.32316059272E+04  0.32040651256E+04 0.  0.
        1    1    3    3  502    0  0.14590882278E+04  0.52159734362E+03  0.62082279352E+03  0.16692582743E+04  0.50400001928E-02 0.  1.
       -1    1    3    3    0  502 -0.14590882278E+04 -0.52159734362E+03 -0.19981977700E+03  0.15623476529E+04  0.50400001928E-02 0. -1.
</event>
<event>
 5   0  0.9329929E-08  0.3199007E+04  0.7818609E-02  0.8189079E-01
        2   -1    0    0  501    0  0.00000000000E+00  0.00000000000E+00  0.20136518319E+04  0.20136518319E+04  0.25500000920E-02 0. -1.
       -2   -1    0    0    0  501  0.00000000000E+00  0.00000000000E+00 -0.12705331692E+04  0.12705331692E+04  0.25500000920E-02 0.  1.
    10030    2    1    2    0    0  0.00000000000E+00  0.00000000000E+00  0.74311866273E+03  0.32841850011E+04  0.31990069982E+04 0.  0.
        1    1    3    3  502    0  0.70651952609E+03  0.13853470935E+04  0.75576324446E+03  0.17290270362E+04  0.50400001928E-02 0.  1.
       -1    1    3    3    0  502 -0.70651952609E+03 -0.13853470935E+04 -0.12644581728E+02  0.15551579649E+04  0.50400001928E-02 0. -1.
</event>
<event>
 5   0  0.9329929E-08  0.3200161E+04  0.7818609E-02  0.8188775E-01
        2   -1    0    0  501    0  0.00000000000E+00  0.00000000000E+00  0.13421093577E+04  0.13421093577E+04  0.25500000920E-02 0.  1.
       -2   -1    0    0    0  501  0.00000000000E+00  0.00000000000E+00 -0.19076371679E+04  0.19076371679E+04  0.25500000920E-02 0. -1.
    10030    2    1    2    0    0  0.00000000000E+00  0.00000000000E+00 -0.56552781023E+03  0.32497465257E+04  0.32001610548E+04 0.  0.
        1    1    3    3  502    0 -0.84976712885E+03 -0.12726184521E+04 -0.75755061677E+03  0.17074966574E+04  0.50400001928E-02 0. -1.
       -1    1    3    3    0  502  0.84976712885E+03  0.12726184521E+04  0.19202280654E+03  0.15422498683E+04  0.50400001928E-02 0.  1.
</event>
<event>
 5   0  0.9157524E-08  0.3200691E+04  0.7818609E-02  0.8188635E-01
        2   -1    0    0  501    0  0.00000000000E+00  0.00000000000E+00  0.20389099822E+04  0.20389099822E+04  0.25500000920E-02 0. -1.
       -2   -1    0    0    0  501  0.00000000000E+00  0.00000000000E+00 -0.12561151294E+04  0.12561151294E+04  0.25500000920E-02 0.  1.
    10030    2    1    2    0    0  0.00000000000E+00  0.00000000000E+00  0.78279485276E+03  0.32950251116E+04  0.32006909730E+04 0.  0.
        5    1    3    3  502    0  0.61906575373E+03  0.13060044224E+02 -0.11277890268E+04  0.12866013956E+04  0.46999998093E+01 0.  1.
       -5    1    3    3    0  502 -0.61906575373E+03 -0.13060044224E+02  0.19105838795E+04  0.20084237160E+04  0.46999998093E+01 0. -1.
</event>
<event>
 5   0  0.9707721E-08  0.3218608E+04  0.7818609E-02  0.8183920E-01
       -2   -1    0    0    0  501  0.00000000000E+00  0.00000000000E+00  0.91341764129E+03  0.91341764129E+03  0.25500000920E-02 0. -1.
        2   -1    0    0  501    0  0.00000000000E+00  0.00000000000E+00 -0.28353508733E+04  0.28353508733E+04  0.25500000920E-02 0.  1.
    10030    2    1    2    0    0  0.00000000000E+00  0.00000000000E+00 -0.19219332320E+04  0.37487685146E+04  0.32186080885E+04 0.  0.
        3    1    3    3  502    0 -0.35813007925E+03  0.32029227566E+03  0.82793268780E+03  0.95724439995E+03  0.10100000352E+00 0. -1.
       -3    1    3    3    0  502  0.35813007925E+03 -0.32029227566E+03 -0.27498659198E+04  0.27915241146E+04  0.10100000352E+00 0.  1.
</event>
<event>
 5   0  0.3427667E-08  0.3200468E+04  0.7818609E-02  0.8188694E-01
       -1   -1    0    0    0  501  0.00000000000E+00  0.00000000000E+00  0.16718143974E+04  0.16718143974E+04  0.50400001928E-02 0.  1.
        1   -1    0    0  501    0  0.00000000000E+00  0.00000000000E+00 -0.15317183533E+04  0.15317183533E+04  0.50400001928E-02 0. -1.
    10030    2    1    2    0    0  0.00000000000E+00  0.00000000000E+00  0.14009604408E+03  0.32035327507E+04  0.32004679632E+04 0.  0.
        2    1    3    3  502    0 -0.37382273082E+03  0.27386454937E+03  0.16031816810E+04  0.16688129697E+04  0.25500000920E-02 0.  1.
       -2    1    3    3    0  502  0.37382273082E+03 -0.27386454937E+03 -0.14630856369E+04  0.15347197811E+04  0.25500000920E-02 0. -1.
</event>
<event>
 5   0  0.3270966E-08  0.3198560E+04  0.7818609E-02  0.8189198E-01
        1   -1    0    0  501    0  0.00000000000E+00  0.00000000000E+00  0.21473220064E+04  0.21473220064E+04  0.50400001928E-02 0.  1.
       -1   -1    0    0    0  501  0.00000000000E+00  0.00000000000E+00 -0.11911098717E+04  0.11911098718E+04  0.50400001928E-02 0. -1.
    10030    2    1    2    0    0  0.00000000000E+00  0.00000000000E+00  0.95621213469E+03  0.33384318782E+04  0.31985599508E+04 0.  0.
        3    1    3    3  502    0 -0.24651052832E+03 -0.14823914267E+04  0.10492509640E+04  0.18328064213E+04  0.10100000352E+00 0.  1.
       -3    1    3    3    0  502  0.24651052832E+03  0.14823914267E+04 -0.93038829294E+02  0.15056254569E+04  0.10100000352E+00 0. -1.
</event>
<event>
 5   0  0.3427667E-08  0.3195999E+04  0.7818609E-02  0.8189875E-01
        1   -1    0    0  501    0  0.00000000000E+00  0.00000000000E+00  0.27835428458E+04  0.27835428458E+04  0.50400001928E-02 0. -1.
       -1   -1    0    0    0  501  0.00000000000E+00  0.00000000000E+00 -0.91739262324E+03  0.91739262326E+03  0.50400001928E-02 0.  1.
    10030    2    1    2    0    0  0.00000000000E+00  0.00000000000E+00  0.18661502225E+04  0.37009354690E+04  0.31959985439E+04 0.  0.
        2    1    3    3  502    0 -0.10226846707E+04  0.66248824182E+03  0.21302529296E+04  0.24541296116E+04  0.25500000920E-02 0. -1.
       -2    1    3    3    0  502  0.10226846707E+04 -0.66248824182E+03 -0.26410270706E+03  0.12468058575E+04  0.25500000920E-02 0.  1.
</event>
<event>
 5   0  0.3343140E-08  0.3197176E+04  0.7818609E-02  0.8189563E-01
        1   -1    0    0  501    0  0.00000000000E+00  0.00000000000E+00  0.25229776025E+04  0.25229776025E+04  0.50400001928E-02 0.  1.
       -1   -1    0    0    0  501  0.00000000000E+00  0.00000000000E+00 -0.10128842685E+04  0.10128842685E+04  0.50400001928E-02 0. -1.
    10030    2    1    2    0    0  0.00000000000E+00  0.00000000000E+00  0.15100933340E+04  0.35358618711E+04  0.31971764565E+04 0.  0.
        1    1    3    3  502    0  0.12694055962E+04  0.94857156160E+03  0.98783366687E+03  0.18673494393E+04  0.50400001928E-02 0.  1.
       -1    1    3    3    0  502 -0.12694055962E+04 -0.94857156160E+03  0.52225966712E+03  0.16685124318E+04  0.50400001928E-02 0. -1.
</event>
<event>
 5   0  0.9329929E-08  0.3200317E+04  0.7818609E-02  0.8188734E-01
       -2   -1    0    0    0  501  0.00000000000E+00  0.00000000000E+00  0.10426214147E+04  0.10426214147E+04  0.25500000920E-02 0.  1.
        2   -1    0    0  501    0  0.00000000000E+00  0.00000000000E+00 -0.24558354326E+04  0.24558354327E+04  0.25500000920E-02 0. -1.
    10030    2    1    2    0    0  0.00000000000E+00  0.00000000000E+00 -0.14132140179E+04  0.34984568474E+04  0.32003166175E+04 0.  0.
        1    1    3    3  502    0  0.34362626584E+03 -0.14296005282E+04 -0.13968314217E+04  0.20280470166E+04  0.50400001928E-02 0. -1.
       -1    1    3    3    0  502 -0.34362626584E+03  0.14296005282E+04 -0.16382596242E+02  0.14704098308E+04  0.50400001928E-02 0.  1.
</event>
<event>
 5   0  0.3270966E-08  0.3201015E+04  0.7818609E-02  0.8188549E-01
       -1   -1    0    0    0  501  0.00000000000E+00  0.00000000000E+00  0.17593269165E+04  0.17593269165E+04  0.50400001928E-02 0. -1.
        1   -1    0    0  501    0  0.00000000000E+00  0.00000000000E+00 -0.14560252719E+04  0.14560252719E+04  0.50400001928E-02 0.  1.
    10030    2    1    2    0    0  0.00000000000E+00  0.00000000000E+00  0.30330164457E+03  0.32153521883E+04  0.32010151214E+04 0.  0.
        3    1    3    3  502    0 -0.47408982314E+03 -0.11114377651E+04 -0.90260680258E+03  0.15082288011E+04  0.10100000352E+00 0. -1.
       -3    1    3    3    0  502  0.47408982314E+03  0.11114377651E+04  0.12059084471E+04  0.17071233873E+04  0.10100000352E+00 0.  1.
</event>
<event>
 5   0  0.9353994E-08  0.3202688E+04  0.7818609E-02  0.8188108E-01
        2   -1    0    0  501    0  0.00000000000E+00  0.00000000000E+00  0.14831581844E+04  0.14831581844E+04  0.25500000920E-02 0. -1.
       -2   -1    0    0    0  501  0.00000000000E+00  0.00000000000E+00 -0.17289479073E+04  0.17289479073E+04  0.25500000920E-02 0.  1.
    10030    2    1    2    0    0  0.00000000000E+00  0.00000000000E+00 -0.24578972296E+03  0.32121060917E+04  0.32026883952E+04 0.  0.
        2    1    3    3  502    0 -0.12640926027E+04  0.32373168572E+03  0.80804304082E+03  0.15348178617E+04  0.25500000920E-02 0. -1.
       -2    1    3    3    0  502  0.12640926027E+04 -0.32373168572E+03 -0.10538327638E+04  0.16772882301E+04  0.25500000920E-02 0.  1.
</event>
<event>
 5   0  0.3283581E-08  0.3197558E+04  0.7818609E-02  0.8189462E-01
        1   -1    0    0  501    0  0.00000000000E+00  0.00000000000E+00  0.15472083322E+04  0.15472083323E+04  0.50400001928E-02 0. -1.
       -1   -1    0    0    0  501  0.00000000000E+00  0.00000000000E+00 -0.16520690721E+04  0.16520690721E+04  0.50400001928E-02 0.  1.
    10030    2    1    2    0    0  0.00000000000E+00  0.00000000000E+00 -0.10486073985E+03  0.31992774044E+04  0.31975584647E+04 0.  0.
        5    1    3    3  502    0 -0.24466293386E+03 -0.54425544467E+03 -0.15364670895E+04  0.16482800573E+04  0.46999998093E+01 0.  1.
       -5    1    3    3    0  502  0.24466293386E+03  0.54425544467E+03  0.14316063496E+04  0.15509973471E+04  0.46999998093E+01 0. -1.
</event>
<event>
 5   0  0.9727083E-08  0.3198521E+04  0.7818609E-02  0.8189208E-01
       -2   -1    0    0    0  501  0.00000000000E+00  0.00000000000E+00  0.23747486766E+04  0.23747486766E+04  0.25500000920E-02 0. -1.
        2   -1    0    0  501    0  0.00000000000E+00  0.00000000000E+00 -0.10770123312E+04  0.10770123312E+04  0.25500000920E-02 0.  1.
    10030    2    1    2    0    0  0.00000000000E+00  0.00000000000E+00  0.12977363455E+04  0.34517610078E+04  0.31985206631E+04 0.  0.
        4    1    3    3  502    0  0.61535741484E+02 -0.14162130990E+04 -0.15014778127E+03  0.14254796239E+04  0.12699999809E+01 0.  1.
       -4    1    3    3    0  502 -0.61535741484E+02  0.14162130990E+04  0.14478841267E+04  0.20262813838E+04  0.12699999809E+01 0. -1.
</event>
<event>
 5   0  0.9329929E-08  0.3206342E+04  0.7818609E-02  0.8187144E-01
        2   -1    0    0  501    0  0.00000000000E+00  0.00000000000E+00  0.18768215978E+04  0.18768215978E+04  0.25500000920E-02 0.  1.
       -2   -1    0    0    0  501  0.00000000000E+00  0.00000000000E+00 -0.13694205426E+04  0.13694205426E+04  0.25500000920E-02 0. -1.
    10030    2    1    2    0    0  0.00000000000E+00  0.00000000000E+00  0.50740105518E+03  0.32462421404E+04  0.32063424963E+04 0.  0.
        1    1    3    3  502    0  0.85543564124E+03 -0.61239354574E+03  0.14784489692E+04  0.18145543105E+04  0.50400001928E-02 0.  1.
       -1    1    3    3    0  502 -0.85543564124E+03  0.61239354574E+03 -0.97104791399E+03  0.14316878300E+04  0.50400001928E-02 0. -1.
</event>
<event>
 5   0  0.9329929E-08  0.3199335E+04  0.7818609E-02  0.8188993E-01
       -2   -1    0    0    0  501  0.00000000000E+00  0.00000000000E+00  0.15765033660E+04  0.15765033660E+04  0.25500000920E-02 0.  1.
        2   -1    0    0  501    0  0.00000000000E+00  0.00000000000E+00 -0.16231721823E+04  0.16231721823E+04  0.25500000920E-02 0. -1.
    10030    2    1    2    0    0  0.00000000000E+00  0.00000000000E+00 -0.46668816231E+02  0.31996755483E+04  0.31993351866E+04 0.  0.
        1    1    3    3  502    0 -0.10061897525E+04 -0.40801674363E+03  0.11515420004E+04  0.15827016332E+04  0.50400001928E-02 0.  1.
       -1    1    3    3    0  502  0.10061897525E+04  0.40801674363E+03 -0.11982108166E+04  0.16169739151E+04  0.50400001928E-02 0. -1.
</event>
<event>
 5   0  0.3220147E-08  0.3200208E+04  0.7818609E-02  0.8188762E-01
       -1   -1    0    0    0  501  0.00000000000E+00  0.00000000000E+00  0.15541557374E+04  0.15541557374E+04  0.50400001928E-02 0. -1.
        1   -1    0    0  501    0  0.00000000000E+00  0.00000000000E+00 -0.16474102169E+04  0.16474102169E+04  0.50400001928E-02 0.  1.
    10030    2    1    2    0    0  0.00000000000E+00  0.00000000000E+00 -0.93254479538E+02  0.32015659543E+04  0.32002075186E+04 0.  0.
        4    1    3    3  502    0 -0.58939920212E+03 -0.12891088928E+04 -0.78932857107E+03  0.16224162114E+04  0.12699999809E+01 0.  1.
       -4    1    3    3    0  502  0.58939920212E+03  0.12891088928E+04  0.69607409153E+03  0.15791497430E+04  0.12699999809E+01 0. -1.
</event>
<event>
 5   0  0.9727083E-08  0.3199686E+04  0.7818609E-02  0.8188900E-01
        2   -1    0    0  501    0  0.00000000000E+00  0.00000000000E+00  0.16914914478E+04  0.16914914478E+04  0.25500000920E-02 0. -1.
       -2   -1    0    0    0  501  0.00000000000E+00  0.00000000000E+00 -0.15131602035E+04  0.15131602035E+04  0.25500000920E-02 0.  1.
    10030    2    1    2    0    0  0.00000000000E+00  0.00000000000E+00  0.17833124434E+03  0.32046516513E+04  0.31996859492E+04 0.  0.
        4    1    3    3  502    0 -0.10741995032E+04 -0.15812701745E-01 -0.10982506964E+04  0.15362489310E+04  0.12699999809E+01 0.  1.
       -4    1    3    3    0  502  0.10741995032E+04  0.15812701745E-01  0.12765819407E+04  0.16684027203E+04  0.12699999809E+01 0. -1.
</event>
<event>
 5   0  0.9727083E-08  0.3198658E+04  0.7818609E-02  0.8189172E-01
        2   -1    0    0  501    0  0.00000000000E+00  0.00000000000E+00  0.19814308422E+04  0.19814308422E+04  0.25500000920E-02 0. -1.
       -2   -1    0    0    0  501  0.00000000000E+00  0.00000000000E+00 -0.12909125534E+04  0.12909125534E+04  0.25500000920E-02 0.  1.
    10030    2    1    2    0    0  0.00000000000E+00  0.00000000000E+00  0.69051828884E+03  0.32723433956E+04  0.31986584362E+04 0.  0.
        4    1    3    3  502    0  0.15131748644E+04 -0.29344550711E+03 -0.91235650108E+02  0.15440641155E+04  0.12699999809E+01 0. -1.
       -4    1    3    3    0  502 -0.15131748644E+04  0.29344550711E+03  0.78175393895E+03  0.17282792801E+04  0.12699999809E+01 0.  1.
</event>
<event>
 5   0  0.3427667E-08  0.3200042E+04  0.7818609E-02  0.8188806E-01
        1   -1    0    0  501    0  0.00000000000E+00  0.00000000000E+00  0.19761387821E+04  0.19761387821E+04  0.50400001928E-02 0.  1.
       -1   -1    0    0    0  501  0.00000000000E+00  0.00000000000E+00 -0.12954894464E+04  0.12954894464E+04  0.50400001928E-02 0. -1.
    10030    2    1    2    0    0  0.00000000000E+00  0.00000000000E+00  0.68064933571E+03  0.32716282285E+04  0.32000418353E+04 0.  0.
        2    1    3    3  502    0  0.31514313332E+03  0.14448525644E+04 -0.28420295005E+03  0.15058836091E+04  0.25500000920E-02 0. -1.
       -2    1    3    3    0  502 -0.31514313332E+03 -0.14448525644E+04  0.96485228576E+03  0.17657446194E+04  0.25500000920E-02 0.  1.
</event>
<event>
 5   0  0.9329929E-08  0.3199705E+04  0.7818609E-02  0.8188895E-01
        2   -1    0    0  501    0  0.00000000000E+00  0.00000000000E+00  0.16307324335E+04  0.16307324335E+04  0.25500000920E-02 0.  1.
       -2   -1    0    0    0  501  0.00000000000E+00  0.00000000000E+00 -0.15695568672E+04  0.15695568672E+04  0.25500000920E-02 0. -1.
    10030    2    1    2    0    0  0.00000000000E+00  0.00000000000E+00  0.61175566324E+02  0.32002893007E+04  0.31997045423E+04 0.  0.
        1    1    3    3  502    0 -0.12228666928E+04 -0.58387285134E+03 -0.81998919749E+03  0.15838853301E+04  0.50400001928E-02 0. -1.
       -1    1    3    3    0  502  0.12228666928E+04  0.58387285134E+03  0.88116476381E+03  0.16164039705E+04  0.50400001928E-02 0.  1.
</event>
<event>
 5   0  0.3283581E-08  0.3201614E+04  0.7818609E-02  0.8188391E-01
        1   -1    0    0  501    0  0.00000000000E+00  0.00000000000E+00  0.19884697249E+04  0.19884697249E+04  0.50400001928E-02 0. -1.
       -1   -1    0    0    0  501  0.00000000000E+00  0.00000000000E+00 -0.12887211689E+04  0.12887211689E+04  0.50400001928E-02 0.  1.
    10030    2    1    2    0    0  0.00000000000E+00  0.00000000000E+00  0.69974855598E+03  0.32771908938E+04  0.32016139856E+04 0.  0.
        5    1    3    3  502    0 -0.10772645348E+04  0.10988897204E+04 -0.10156195900E+03  0.15422044019E+04  0.46999998093E+01 0.  1.
       -5    1    3    3    0  502  0.10772645348E+04 -0.10988897204E+04  0.80131051498E+03  0.17349864919E+04  0.46999998093E+01 0. -1.
</event>
<event>
 5   0  0.3283581E-08  0.3204300E+04  0.7818609E-02  0.8187683E-01
       -1   -1    0    0    0  501  0.00000000000E+00  0.00000000000E+00  0.13360723261E+04  0.13360723261E+04  0.50400001928E-02 0.  1.
        1   -1    0    0  501    0  0.00000000000E+00  0.00000000000E+00 -0.19212163224E+04  0.19212163224E+04  0.50400001928E-02 0. -1.
    10030    2    1    2    0    0  0.00000000000E+00  0.00000000000E+00 -0.58514399634E+03  0.32572886485E+04  0.32042995870E+04 0.  0.
        5    1    3    3  502    0 -0.12161211266E+04  0.34488982547E+03 -0.12932090235E+04  0.18084001921E+04  0.46999998093E+01 0. -1.
       -5    1    3    3    0  502  0.12161211266E+04 -0.34488982547E+03  0.70806502716E+03  0.14488884564E+04  0.46999998093E+01 0.  1.
</event>
<event>
 5   0  0.3283581E-08  0.3201961E+04  0.7818609E-02  0.8188299E-01
        1   -1    0    0  501    0  0.00000000000E+00  0.00000000000E+00  0.19365413244E+04  0.19365413244E+04  0.50400001928E-02 0.  1.
       -1   -1    0    0    0  501  0.00000000000E+00  0.00000000000E+00 -0.13235652908E+04  0.13235652908E+04  0.50400001928E-02 0. -1.
    10030    2    1    2    0    0  0.00000000000E+00  0.00000000000E+00  0.61297603359E+03  0.32601066152E+04  0.32019611997E+04 0.  0.
        5    1    3    3  502    0 -0.19873326146E+03 -0.12927914919E+04  0.12464603045E+04  0.18067900075E+04  0.46999998093E+01 0.  1.
       -5    1    3    3    0  502  0.19873326146E+03  0.12927914919E+04 -0.63348427090E+03  0.14533166077E+04  0.46999998093E+01 0. -1.
</event>
<event>
 5   0  0.3427667E-08  0.3200035E+04  0.7818609E-02  0.8188808E-01
       -1   -1    0    0    0  501  0.00000000000E+00  0.00000000000E+00  0.14628979104E+04  0.14628979104E+04  0.50400001928E-02 0. -1.
        1   -1    0    0  501    0  0.00000000000E+00  0.00000000000E+00 -0.17499894471E+04  0.17499894471E+04  0.50400001928E-02 0.  1.
    10030    2    1    2    0    0  0.00000000000E+00  0.00000000000E+00 -0.28709153669E+03  0.32128873575E+04  0.32000349407E+04 0.  0.
        2    1    3    3  502    0  0.14520549533E+04  0.16068843031E+01 -0.81824903144E+03  0.16667326261E+04  0.25500000920E-02 0.  1.
       -2    1    3    3    0  502 -0.14520549533E+04 -0.16068843031E+01  0.53115749475E+03  0.15461547314E+04  0.25500000920E-02 0. -1.
</event>
<event>
 5   0  0.9707721E-08  0.3199574E+04  0.7818609E-02  0.8188930E-01
       -2   -1    0    0    0  501  0.00000000000E+00  0.00000000000E+00  0.11399672048E+04  0.11399672048E+04  0.25500000920E-02 0.  1.
        2   -1    0    0  501    0  0.00000000000E+00  0.00000000000E+00 -0.22450812774E+04  0.22450812774E+04  0.25500000920E-02 0. -1.
    10030    2    1    2    0    0  0.00000000000E+00  0.00000000000E+00 -0.11051140726E+04  0.33850484823E+04  0.31995743645E+04 0.  0.
        3    1    3    3  502    0  0.72342207656E+03 -0.48314488920E+03 -0.19729758276E+04  0.21562472287E+04  0.10100000352E+00 0. -1.
       -3    1    3    3    0  502 -0.72342207656E+03  0.48314488920E+03  0.86786175499E+03  0.12288012536E+04  0.10100000352E+00 0.  1.
</event>
<event>
 5   0  0.9157524E-08  0.3198830E+04  0.7818609E-02  0.8189126E-01
        2   -1    0    0  501    0  0.00000000000E+00  0.00000000000E+00  0.14378651006E+04  0.14378651006E+04  0.25500000920E-02 0.  1.
       -2   -1    0    0    0  501  0.00000000000E+00  0.00000000000E+00 -0.17791155176E+04  0.17791155176E+04  0.25500000920E-02 0. -1.
    10030    2    1    2    0    0  0.00000000000E+00  0.00000000000E+00 -0.34125041699E+03  0.32169806182E+04  0.31988298564E+04 0.  0.
        5    1    3    3  502    0  0.87758715273E+03 -0.82258565720E+03 -0.12307888159E+04  0.17209501949E+04  0.46999998093E+01 0. -1.
       -5    1    3    3    0  502 -0.87758715273E+03  0.82258565720E+03  0.88953839891E+03  0.14960304232E+04  0.46999998093E+01 0.  1.
</event>
<event>
 5   0  0.9353994E-08  0.3202172E+04  0.7818609E-02  0.8188244E-01
        2   -1    0    0  501    0  0.00000000000E+00  0.00000000000E+00  0.12710436931E+04  0.12710436931E+04  0.25500000920E-02 0. -1.
       -2   -1    0    0    0  501  0.00000000000E+00  0.00000000000E+00 -0.20168273460E+04  0.20168273460E+04  0.25500000920E-02 0.  1.
    10030    2    1    2    0    0  0.00000000000E+00  0.00000000000E+00 -0.74578365296E+03  0.32878710391E+04  0.32021715620E+04 0.  0.
        2    1    3    3  502    0 -0.15982487454E+04 -0.46123140733E+02 -0.45848519966E+03  0.16633505567E+04  0.25500000920E-02 0. -1.
       -2    1    3    3    0  502  0.15982487454E+04  0.46123140733E+02 -0.28729845330E+03  0.16245204824E+04  0.25500000920E-02 0.  1.
</event>
<event>
 5   0  0.3220147E-08  0.3202948E+04  0.7818609E-02  0.8188039E-01
        1   -1    0    0  501    0  0.00000000000E+00  0.00000000000E+00  0.96483888638E+03  0.96483888640E+03  0.50400001928E-02 0. -1.
       -1   -1    0    0    0  501  0.00000000000E+00  0.00000000000E+00 -0.26581833515E+04  0.26581833515E+04  0.50400001928E-02 0.  1.
    10030    2    1    2    0    0  0.00000000000E+00  0.00000000000E+00 -0.16933444651E+04  0.36230222379E+04  0.32029478077E+04 0.  0.
        4    1    3    3  502    0 -0.10579956070E+04  0.11580626150E+04 -0.12119019436E+04  0.19822138277E+04  0.12699999809E+01 0. -1.
       -4    1    3    3    0  502  0.10579956070E+04 -0.11580626150E+04 -0.48144252148E+03  0.16408084102E+04  0.12699999809E+01 0.  1.
</event>
<event>
 5   0  0.9329929E-08  0.3200473E+04  0.7818609E-02  0.8188692E-01
       -2   -1    0    0    0  501  0.00000000000E+00  0.00000000000E+00  0.12972045724E+04  0.12972045724E+04  0.25500000920E-02 0.  1.
        2   -1    0    0  501    0  0.00000000000E+00  0.00000000000E+00 -0.19740574720E+04  0.19740574720E+04  0.25500000920E-02 0. -1.
    10030    2    1    2    0    0  0.00000000000E+00  0.00000000000E+00 -0.67685289964E+03  0.32712620444E+04  0.32004727019E+04 0.  0.
        1    1    3    3  502    0  0.45750892953E+03 -0.64028633233E+03 -0.17626138859E+04  0.19303079336E+04  0.50400001928E-02 0. -1.
       -1    1    3    3    0  502 -0.45750892953E+03  0.64028633233E+03  0.10857609862E+04  0.13409541108E+04  0.50400001928E-02 0.  1.
</event>
<event>
 5   0  0.3427667E-08  0.3197722E+04  0.7818609E-02  0.8189419E-01
       -1   -1    0    0    0  501  0.00000000000E+00  0.00000000000E+00  0.17822537586E+04  0.17822537586E+04  0.50400001928E-02 0.  1.
        1   -1    0    0  501    0  0.00000000000E+00  0.00000000000E+00 -0.14343392206E+04  0.14343392206E+04  0.50400001928E-02 0. -1.
    10030    2    1    2    0    0  0.00000000000E+00  0.00000000000E+00  0.34791453799E+03  0.32165929792E+04  0.31977219810E+04 0.  0.
        2    1    3    3  502    0 -0.18055002814E+03  0.35578317625E+03  0.17313760656E+04  0.17767507033E+04  0.25500000920E-02 0.  1.
       -2    1    3    3    0  502  0.18055002814E+03 -0.35578317625E+03 -0.13834615276E+04  0.14398422759E+04  0.25500000920E-02 0. -1.
</event>
<event>
 5   0  0.3343140E-08  0.3197389E+04  0.7818609E-02  0.8189507E-01
       -1   -1    0    0    0  501  0.00000000000E+00  0.00000000000E+00  0.12434411719E+04  0.12434411719E+04  0.50400001928E-02 0.  1.
        1   -1    0    0  501    0  0.00000000000E+00  0.00000000000E+00 -0.20554443554E+04  0.20554443554E+04  0.50400001928E-02 0. -1.
    10030    2    1    2    0    0  0.00000000000E+00  0.00000000000E+00 -0.81200318351E+03  0.32988855274E+04  0.31973890212E+04 0.  0.
        1    1    3    3  502    0  0.44350409194E+03 -0.15286548542E+04 -0.25178234535E+03  0.16114825138E+04  0.50400001928E-02 0. -1.
       -1    1    3    3    0  502 -0.44350409194E+03  0.15286548542E+04 -0.56022083816E+03  0.16874030136E+04  0.50400001928E-02 0.  1.
</event>
<event>
 5   0  0.3270966E-08  0.3199313E+04  0.7818609E-02  0.8188999E-01
       -1   -1    0    0    0  501  0.00000000000E+00  0.00000000000E+00  0.20221892425E+04  0.20221892425E+04  0.50400001928E-02 0.  1.
        1   -1    0    0  501    0  0.00000000000E+00  0.00000000000E+00 -0.12654108522E+04  0.12654108522E+04  0.50400001928E-02 0. -1.
    10030    2    1    2    0    0  0.00000000000E+00  0.00000000000E+00  0.75677839022E+03  0.32876000947E+04  0.31993125591E+04 0.  0.
        3    1    3    3  502    0 -0.59899559977E+03 -0.14339744972E+04 -0.11314384193E+02  0.15540935019E+04  0.10100000352E+00 0.  1.
       -3    1    3    3    0  502  0.59899559977E+03  0.14339744972E+04  0.76809277442E+03  0.17335065928E+04  0.10100000352E+00 0. -1.
</event>
<event>
 5   0  0.3427667E-08  0.3199895E+04  0.7818609E-02  0.8188845E-01
       -1   -1    0    0    0  501  0.00000000000E+00  0.00000000000E+00  0.14327532740E+04  0.14327532740E+04  0.50400001928E-02 0.  1.
        1   -1    0    0  501    0  0.00000000000E+00  0.00000000000E+00 -0.17866523138E+04  0.17866523138E+04  0.50400001928E-02 0. -1.
    10030    2    1    2    0    0  0.00000000000E+00  0.00000000000E+00 -0.35389903982E+03  0.32194055878E+04  0.31998949684E+04 0.  0.
        2    1    3    3  502    0 -0.12031863652E+04  0.30124690096E+03 -0.11937674012E+04  0.17214783568E+04  0.25500000920E-02 0. -1.
       -2    1    3    3    0  502  0.12031863652E+04 -0.30124690096E+03  0.83986836140E+03  0.14979272310E+04  0.25500000920E-02 0.  1.
</event>
<event>
 5   0  0.3270966E-08  0.3202871E+04  0.7818609E-02  0.8188059E-01
        1   -1    0    0  501    0  0.00000000000E+00  0.00000000000E+00  0.12774429786E+04  0.12774429786E+04  0.50400001928E-02 0.  1.
       -1   -1    0    0    0  501  0.00000000000E+00  0.00000000000E+00 -0.20076006891E+04  0.20076006891E+04  0.50400001928E-02 0. -1.
    10030    2    1    2    0    0  0.00000000000E+00  0.00000000000E+00 -0.73015771050E+03  0.32850436676E+04  0.32028708397E+04 0.  0.
        3    1    3    3  502    0  0.32370156336E+03  0.66411036801E+03  0.10922083588E+04  0.13186145731E+04  0.10100000352E+00 0.  1.
       -3    1    3    3    0  502 -0.32370156336E+03 -0.66411036801E+03 -0.18223660693E+04  0.19664290945E+04  0.10100000352E+00 0. -1.
</event>
<event>
 5   0  0.3343140E-08  0.3202488E+04  0.7818609E-02  0.8188160E-01
       -1   -1    0    0    0  501  0.00000000000E+00  0.00000000000E+00  0.16974005848E+04  0.16974005848E+04  0.50400001928E-02 0. -1.
        1   -1    0    0  501    0  0.00000000000E+00  0.00000000000E+00 -0.15105344764E+04  0.15105344764E+04  0.50400001928E-02 0.  1.
    10030    2    1    2    0    0  0.00000000000E+00  0.00000000000E+00  0.18686610844E+03  0.32079350612E+04  0.32024878477E+04 0.  0.
        1    1    3    3  502    0 -0.98279172427E+02 -0.21299303679E+03 -0.14932300050E+04  0.15115424828E+04  0.50400001928E-02 0.  1.
       -1    1    3    3    0  502  0.98279172427E+02  0.21299303679E+03  0.16800961135E+04  0.16963925784E+04  0.50400001928E-02 0. -1.
</event>
<event>
 5   0  0.3427667E-08  0.3197410E+04  0.7818609E-02  0.8189501E-01
       -1   -1    0    0    0  501  0.00000000000E+00  0.00000000000E+00  0.15237714806E+04  0.15237714806E+04  0.50400001928E-02 0.  1.
        1   -1    0    0  501    0  0.00000000000E+00  0.00000000000E+00 -0.16773237454E+04  0.16773237454E+04  0.50400001928E-02 0. -1.
    10030    2    1    2    0    0  0.00000000000E+00  0.00000000000E+00 -0.15355226473E+03  0.32010952260E+04  0.31974102564E+04 0.  0.
        2    1    3    3  502    0 -0.37201968409E+03  0.13780983662E+04 -0.79753940828E+03  0.16351216652E+04  0.25500000920E-02 0. -1.
       -2    1    3    3    0  502  0.37201968409E+03 -0.13780983662E+04  0.64398714355E+03  0.15659735608E+04  0.25500000920E-02 0.  1.
</event>
<event>
 5   0  0.9353994E-08  0.3200314E+04  0.7818609E-02  0.8188734E-01
        2   -1    0    0  501    0  0.00000000000E+00  0.00000000000E+00  0.26995963620E+04  0.26995963620E+04  0.25500000920E-02 0. -1.
       -2   -1    0    0    0  501  0.00000000000E+00  0.00000000000E+00 -0.94847624874E+03  0.94847624874E+03  0.25500000920E-02 0.  1.
    10030    2    1    2    0    0  0.00000000000E+00  0.00000000000E+00  0.17511201133E+04  0.36480726108E+04  0.32003143787E+04 0.  0.
        2    1    3    3  502    0  0.97688933482E+03  0.87206683464E+03  0.19238377639E+04  0.23272226104E+04  0.25500000920E-02 0. -1.
       -2    1    3    3    0  502 -0.97688933482E+03 -0.87206683464E+03 -0.17271765064E+03  0.13208500003E+04  0.25500000920E-02 0.  1.
</event>
<event>
 5   0  0.3427667E-08  0.3186365E+04  0.7818609E-02  0.8192427E-01
       -1   -1    0    0    0  501  0.00000000000E+00  0.00000000000E+00  0.11913862172E+04  0.11913862172E+04  0.50400001928E-02 0.  1.
        1   -1    0    0  501    0  0.00000000000E+00  0.00000000000E+00 -0.21304852382E+04  0.21304852383E+04  0.50400001928E-02 0. -1.
    10030    2    1    2    0    0  0.00000000000E+00  0.00000000000E+00 -0.93909902106E+03  0.33218714554E+04  0.31863651698E+04 0.  0.
        2    1    3    3  502    0 -0.23581976125E+03 -0.16099691440E+03  0.11644928856E+04  0.11989890103E+04  0.25500000920E-02 0.  1.
       -2    1    3    3    0  502  0.23581976125E+03  0.16099691440E+03 -0.21035919066E+04  0.21228824451E+04  0.25500000920E-02 0. -1.
</event>
<event>
 5   0  0.3283581E-08  0.3194901E+04  0.7818609E-02  0.8190165E-01
       -1   -1    0    0    0  501  0.00000000000E+00  0.00000000000E+00  0.21834997922E+04  0.21834997922E+04  0.50400001928E-02 0. -1.
        1   -1    0    0  501    0  0.00000000000E+00  0.00000000000E+00 -0.11686963088E+04  0.11686963088E+04  0.50400001928E-02 0.  1.
    10030    2    1    2    0    0  0.00000000000E+00  0.00000000000E+00  0.10148034834E+04  0.33521961010E+04  0.31949010298E+04 0.  0.
        5    1    3    3  502    0  0.18291007126E+03 -0.72802131001E+03 -0.97211186333E+03  0.12282079168E+04  0.46999998093E+01 0.  1.
       -5    1    3    3    0  502 -0.18291007126E+03  0.72802131001E+03  0.19869153467E+04  0.21239881843E+04  0.46999998093E+01 0. -1.
</event>
<event>
 5   0  0.9707721E-08  0.3199035E+04  0.7818609E-02  0.8189072E-01
        2   -1    0    0  501    0  0.00000000000E+00  0.00000000000E+00  0.20005202244E+04  0.20005202244E+04  0.25500000920E-02 0.  1.
       -2   -1    0    0    0  501  0.00000000000E+00  0.00000000000E+00 -0.12788955122E+04  0.12788955122E+04  0.25500000920E-02 0. -1.
    10030    2    1    2    0    0  0.00000000000E+00  0.00000000000E+00  0.72162471221E+03  0.32794157365E+04  0.31990350651E+04 0.  0.
        3    1    3    3  502    0  0.12265749456E+04  0.63477726144E+03 -0.46632441637E+03  0.14576991254E+04  0.10100000352E+00 0. -1.
       -3    1    3    3    0  502 -0.12265749456E+04 -0.63477726144E+03  0.11879491286E+04  0.18217166111E+04  0.10100000352E+00 0.  1.
</event>
<event>
 5   0  0.9707721E-08  0.3199100E+04  0.7818609E-02  0.8189055E-01
       -2   -1    0    0    0  501  0.00000000000E+00  0.00000000000E+00  0.14991722068E+04  0.14991722068E+04  0.25500000920E-02 0. -1.
        2   -1    0    0  501    0  0.00000000000E+00  0.00000000000E+00 -0.17066486270E+04  0.17066486270E+04  0.25500000920E-02 0.  1.
    10030    2    1    2    0    0  0.00000000000E+00  0.00000000000E+00 -0.20747642020E+03  0.32058208337E+04  0.31990999911E+04 0.  0.
        3    1    3    3  502    0 -0.14805639116E+04 -0.27895222431E+03 -0.64215305579E+03  0.16377559028E+04  0.10100000352E+00 0.  1.
       -3    1    3    3    0  502  0.14805639116E+04  0.27895222431E+03  0.43467663558E+03  0.15680649309E+04  0.10100000352E+00 0. -1.
</event>
<event>
 5   0  0.9727083E-08  0.3199654E+04  0.7818609E-02  0.8188909E-01
       -2   -1    0    0    0  501  0.00000000000E+00  0.00000000000E+00  0.12790542090E+04  0.12790542090E+04  0.25500000920E-02 0. -1.
        2   -1    0    0  501    0  0.00000000000E+00  0.00000000000E+00 -0.20010457890E+04  0.20010457890E+04  0.25500000920E-02 0.  1.
    10030    2    1    2    0    0  0.00000000000E+00  0.00000000000E+00 -0.72199158000E+03  0.32800999980E+04  0.31996537555E+04 0.  0.
        4    1    3    3  502    0  0.29297473184E+03 -0.12645727434E+04 -0.13196358331E+04  0.18510588219E+04  0.12699999809E+01 0. -1.
       -4    1    3    3    0  502 -0.29297473184E+03  0.12645727434E+04  0.59764425313E+03  0.14290411762E+04  0.12699999809E+01 0.  1.
</event>
<event>
 5   0  0.9707721E-08  0.3203109E+04  0.7818609E-02  0.8187997E-01
       -2   -1    0    0    0  501  0.00000000000E+00  0.00000000000E+00  0.14748707141E+04  0.14748707141E+04  0.25500000920E-02 0.  1.
        2   -1    0    0  501    0  0.00000000000E+00  0.00000000000E+00 -0.17391195714E+04  0.17391195714E+04  0.25500000920E-02 0. -1.
    10030    2    1    2    0    0  0.00000000000E+00  0.00000000000E+00 -0.26424885729E+03  0.32139902855E+04  0.32031088175E+04 0.  0.
        3    1    3    3  502    0  0.14602453944E+04  0.27376905572E+03 -0.73224519332E+03  0.16563360592E+04  0.10100000352E+00 0. -1.
       -3    1    3    3    0  502 -0.14602453944E+04 -0.27376905572E+03  0.46799633603E+03  0.15576542262E+04  0.10100000352E+00 0.  1.
</event>
<event>
 5   0  0.9329929E-08  0.3195882E+04  0.7818609E-02  0.8189906E-01
       -2   -1    0    0    0  501  0.00000000000E+00  0.00000000000E+00  0.93218134903E+03  0.93218134903E+03  0.25500000920E-02 0.  1.
        2   -1    0    0  501    0  0.00000000000E+00  0.00000000000E+00 -0.27391835140E+04  0.27391835140E+04  0.25500000920E-02 0. -1.
    10030    2    1    2    0    0  0.00000000000E+00  0.00000000000E+00 -0.18070021649E+04  0.36713648630E+04  0.31958822152E+04 0.  0.
        1    1    3    3  502    0 -0.11823636268E+04 -0.10747698214E+04 -0.88354177270E+03  0.18258586964E+04  0.50400001928E-02 0.  1.
       -1    1    3    3    0  502  0.11823636268E+04  0.10747698214E+04 -0.92346039222E+03  0.18455061666E+04  0.50400001928E-02 0. -1.
</event>
<event>
 5   0  0.9707721E-08  0.3199018E+04  0.7818609E-02  0.8189077E-01
       -2   -1    0    0    0  501  0.00000000000E+00  0.00000000000E+00  0.22304583634E+04  0.22304583634E+04  0.25500000920E-02 0. -1.
        2   -1    0    0  501    0  0.00000000000E+00  0.00000000000E+00 -0.11470416064E+04  0.11470416064E+04  0.25500000920E-02 0.  1.
    10030    2    1    2    0    0  0.00000000000E+00  0.00000000000E+00  0.10834167570E+04  0.33774999698E+04  0.31990176894E+04 0.  0.
        3    1    3    3  502    0  0.38456323406E+03  0.11247702485E+04  0.16716689280E+04  0.20512128139E+04  0.10100000352E+00 0. -1.
       -3    1    3    3    0  502 -0.38456323406E+03 -0.11247702485E+04 -0.58825217107E+03  0.13262871559E+04  0.10100000352E+00 0.  1.
</event>
<event>
 5   0  0.9157524E-08  0.3198243E+04  0.7818609E-02  0.8189281E-01
        2   -1    0    0  501    0  0.00000000000E+00  0.00000000000E+00  0.11392026542E+04  0.11392026542E+04  0.25500000920E-02 0.  1.
       -2   -1    0    0    0  501  0.00000000000E+00  0.00000000000E+00 -0.22447184201E+04  0.22447184201E+04  0.25500000920E-02 0. -1.
    10030    2    1    2    0    0  0.00000000000E+00  0.00000000000E+00 -0.11055157659E+04  0.33839210743E+04  0.31982427563E+04 0.  0.
        5    1    3    3  502    0  0.12162398391E+03  0.14208325395E+04 -0.13183766980E+04  0.19420856589E+04  0.46999998093E+01 0. -1.
       -5    1    3    3    0  502 -0.12162398391E+03 -0.14208325395E+04  0.21286093213E+03  0.14418354154E+04  0.46999998093E+01 0.  1.
</event>
<event>
 5   0  0.3270966E-08  0.3200366E+04  0.7818609E-02  0.8188720E-01
        1   -1    0    0  501    0  0.00000000000E+00  0.00000000000E+00  0.26599174988E+04  0.26599174988E+04  0.50400001928E-02 0. -1.
       -1   -1    0    0    0  501  0.00000000000E+00  0.00000000000E+00 -0.96265609345E+03  0.96265609346E+03  0.50400001928E-02 0.  1.
    10030    2    1    2    0    0  0.00000000000E+00  0.00000000000E+00  0.16972614054E+04  0.36225735923E+04  0.32003660968E+04 0.  0.
        3    1    3    3  502    0 -0.10260106573E+04  0.11174768629E+04  0.27242277731E+03  0.15413197552E+04  0.10100000352E+00 0. -1.
       -3    1    3    3    0  502  0.10260106573E+04 -0.11174768629E+04  0.14248386280E+04  0.20812538370E+04  0.10100000352E+00 0.  1.
</event>
<event>
 5   0  0.3343140E-08  0.3199401E+04  0.7818609E-02  0.8188975E-01
        1   -1    0    0  501    0  0.00000000000E+00  0.00000000000E+00  0.14165636329E+04  0.14165636329E+04  0.50400001928E-02 0. -1.
       -1   -1    0    0    0  501  0.00000000000E+00  0.00000000000E+00 -0.18065133679E+04  0.18065133679E+04  0.50400001928E-02 0.  1.
    10030    2    1    2    0    0  0.00000000000E+00  0.00000000000E+00 -0.38994973501E+03  0.32230770008E+04  0.31994006560E+04 0.  0.
        1    1    3    3  502    0  0.28676884966E+02 -0.84691797834E+03 -0.15618312861E+04  0.17769100687E+04  0.50400001928E-02 0.  1.
       -1    1    3    3    0  502 -0.28676884966E+02  0.84691797834E+03  0.11718815511E+04  0.14461669322E+04  0.50400001928E-02 0. -1.
</event>
<event>
 5   0  0.3270966E-08  0.3200296E+04  0.7818609E-02  0.8188739E-01
        1   -1    0    0  501    0  0.00000000000E+00  0.00000000000E+00  0.17391646792E+04  0.17391646792E+04  0.50400001928E-02 0. -1.
       -1   -1    0    0    0  501  0.00000000000E+00  0.00000000000E+00 -0.14722434141E+04  0.14722434141E+04  0.50400001928E-02 0.  1.
    10030    2    1    2    0    0  0.00000000000E+00  0.00000000000E+00  0.26692126511E+03  0.32114080934E+04  0.32002960770E+04 0.  0.
        3    1    3    3  502    0 -0.42253560441E+03 -0.12075645522E+04 -0.83098276879E+03  0.15255428073E+04  0.10100000352E+00 0.  1.
       -3    1    3    3    0  502  0.42253560441E+03  0.12075645522E+04  0.10979040339E+04  0.16858652860E+04  0.10100000352E+00 0. -1.
</event>
<event>
 5   0  0.3343140E-08  0.3198621E+04  0.7818609E-02  0.8189181E-01
        1   -1    0    0  501    0  0.00000000000E+00  0.00000000000E+00  0.19730806422E+04  0.19730806422E+04  0.50400001928E-02 0. -1.
       -1   -1    0    0    0  501  0.00000000000E+00  0.00000000000E+00 -0.12963456166E+04  0.12963456166E+04  0.50400001928E-02 0.  1.
    10030    2    1    2    0    0  0.00000000000E+00  0.00000000000E+00  0.67673502554E+03  0.32694262588E+04  0.31986212291E+04 0.  0.
        1    1    3    3  502    0 -0.15582541375E+04  0.22972042158E+03  0.54981289828E+02  0.15760553199E+04  0.50400001928E-02 0. -1.
       -1    1    3    3    0  502  0.15582541375E+04 -0.22972042158E+03  0.62175373571E+03  0.16933709390E+04  0.50400001928E-02 0.  1.
</event>
<event>
 5   0  0.3220147E-08  0.3199319E+04  0.7818609E-02  0.8188997E-01
        1   -1    0    0  501    0  0.00000000000E+00  0.00000000000E+00  0.33327233703E+04  0.33327233703E+04  0.50400001928E-02 0.  1.
       -1   -1    0    0    0  501  0.00000000000E+00  0.00000000000E+00 -0.76781383146E+03  0.76781383147E+03  0.50400001928E-02 0. -1.
    10030    2    1    2    0    0  0.00000000000E+00  0.00000000000E+00  0.25649095389E+04  0.41005372018E+04  0.31993193652E+04 0.  0.
        4    1    3    3  502    0 -0.14642820781E+04  0.63777922066E+03  0.13972726979E+04  0.21220878737E+04  0.12699999809E+01 0. -1.
       -4    1    3    3    0  502  0.14642820781E+04 -0.63777922066E+03  0.11676368410E+04  0.19784493281E+04  0.12699999809E+01 0.  1.
</event>
<event>
 5   0  0.9727083E-08  0.3200989E+04  0.7818609E-02  0.8188556E-01
        2   -1    0    0  501    0  0.00000000000E+00  0.00000000000E+00  0.14684003028E+04  0.14684003028E+04  0.25500000920E-02 0.  1.
       -2   -1    0    0    0  501  0.00000000000E+00  0.00000000000E+00 -0.17444719170E+04  0.17444719170E+04  0.25500000920E-02 0. -1.
    10030    2    1    2    0    0  0.00000000000E+00  0.00000000000E+00 -0.27607161418E+03  0.32128722198E+04  0.32009892790E+04 0.  0.
        4    1    3    3  502    0 -0.69654491348E+03 -0.99418832001E+03  0.90890693931E+03  0.15164757398E+04  0.12699999809E+01 0.  1.
       -4    1    3    3    0  502  0.69654491348E+03  0.99418832001E+03 -0.11849785535E+04  0.16963964800E+04  0.12699999809E+01 0. -1.
</event>
<event>
 5   0  0.9157524E-08  0.3198079E+04  0.7818609E-02  0.8189325E-01
       -2   -1    0    0    0  501  0.00000000000E+00  0.00000000000E+00  0.16767009420E+04  0.16767009420E+04  0.25500000920E-02 0. -1.
        2   -1    0    0  501    0  0.00000000000E+00  0.00000000000E+00 -0.15249756308E+04  0.15249756308E+04  0.25500000920E-02 0.  1.
    10030    2    1    2    0    0  0.00000000000E+00  0.00000000000E+00  0.15172531127E+03  0.32016765728E+04  0.31980794716E+04 0.  0.
        5    1    3    3  502    0 -0.12320145709E+03  0.76189017209E+02  0.16701118472E+04  0.16763886892E+04  0.46999998093E+01 0. -1.
       -5    1    3    3    0  502  0.12320145709E+03 -0.76189017209E+02 -0.15183865359E+04  0.15252878836E+04  0.46999998093E+01 0.  1.
</event>
<event>
 5   0  0.3343140E-08  0.3200027E+04  0.7818609E-02  0.8188810E-01
        1   -1    0    0  501    0  0.00000000000E+00  0.00000000000E+00  0.14210494457E+04  0.14210494457E+04  0.50400001928E-02 0.  1.
       -1   -1    0    0    0  501  0.00000000000E+00  0.00000000000E+00 -0.18015161990E+04  0.18015161990E+04  0.50400001928E-02 0. -1.
    10030    2    1    2    0    0  0.00000000000E+00  0.00000000000E+00 -0.38046675325E+03  0.32225656447E+04  0.32000272474E+04 0.  0.
        1    1    3    3  502    0  0.15118957677E+04  0.50948229894E+03 -0.68374614531E+02  0.15968957741E+04  0.50400001928E-02 0. -1.
       -1    1    3    3    0  502 -0.15118957677E+04 -0.50948229894E+03 -0.31209213872E+03  0.16256698707E+04  0.50400001928E-02 0.  1.
</event>
<event>
 5   0  0.9707721E-08  0.3200647E+04  0.7818609E-02  0.8188646E-01
       -2   -1    0    0    0  501  0.00000000000E+00  0.00000000000E+00  0.15990389313E+04  0.15990389313E+04  0.25500000920E-02 0.  1.
        2   -1    0    0  501    0  0.00000000000E+00  0.00000000000E+00 -0.16016092924E+04  0.16016092924E+04  0.25500000920E-02 0. -1.
    10030    2    1    2    0    0  0.00000000000E+00  0.00000000000E+00 -0.25703611931E+01  0.32006482237E+04  0.32006471916E+04 0.  0.
        3    1    3    3  502    0  0.11847698601E+04 -0.45451317715E+03 -0.97636177484E+03  0.16011071717E+04  0.10100000352E+00 0. -1.
       -3    1    3    3    0  502 -0.11847698601E+04  0.45451317715E+03  0.97379141365E+03  0.15995410520E+04  0.10100000352E+00 0.  1.
</event>
<event>
 5   0  0.9329929E-08  0.3200231E+04  0.7818609E-02  0.8188756E-01
       -2   -1    0    0    0  501  0.00000000000E+00  0.00000000000E+00  0.14672264709E+04  0.14672264709E+04  0.25500000920E-02 0.  1.
        2   -1    0    0  501    0  0.00000000000E+00  0.00000000000E+00 -0.17450399813E+04  0.17450399813E+04  0.25500000920E-02 0. -1.
    10030    2    1    2    0    0  0.00000000000E+00  0.00000000000E+00 -0.27781351035E+03  0.32122664522E+04  0.32002305250E+04 0.  0.
        1    1    3    3  502    0 -0.47395722295E+03  0.81963989079E+03 -0.14336898564E+04  0.17181128031E+04  0.50400001928E-02 0. -1.
       -1    1    3    3    0  502  0.47395722295E+03 -0.81963989079E+03  0.11558763461E+04  0.14941536491E+04  0.50400001928E-02 0.  1.
</event>
<event>
 5   0  0.9353994E-08  0.3199805E+04  0.7818609E-02  0.8188869E-01
        2   -1    0    0  501    0  0.00000000000E+00  0.00000000000E+00  0.18022780916E+04  0.18022780916E+04  0.25500000920E-02 0.  1.
       -2   -1    0    0    0  501  0.00000000000E+00  0.00000000000E+00 -0.14202510378E+04  0.14202510378E+04  0.25500000920E-02 0. -1.
    10030    2    1    2    0    0  0.00000000000E+00  0.00000000000E+00  0.38202705376E+03  0.32225291294E+04  0.31998045753E+04 0.  0.
        2    1    3    3  502    0  0.12789144459E+04  0.70388517256E+03 -0.46831970983E+03  0.15331013818E+04  0.25500000920E-02 0. -1.
       -2    1    3    3    0  502 -0.12789144459E+04 -0.70388517256E+03  0.85034676359E+03  0.16894277476E+04  0.25500000920E-02 0.  1.
</event>
<event>
 5   0  0.3427667E-08  0.3199274E+04  0.7818609E-02  0.8189009E-01
        1   -1    0    0  501    0  0.00000000000E+00  0.00000000000E+00  0.20372633746E+04  0.20372633746E+04  0.50400001928E-02 0.  1.
       -1   -1    0    0    0  501  0.00000000000E+00  0.00000000000E+00 -0.12560177134E+04  0.12560177134E+04  0.50400001928E-02 0. -1.
    10030    2    1    2    0    0  0.00000000000E+00  0.00000000000E+00  0.78124566121E+03  0.32932810879E+04  0.31992742210E+04 0.  0.
        2    1    3    3  502    0  0.39648571645E+03  0.10361785492E+04 -0.79561505091E+03  0.13652363233E+04  0.25500000920E-02 0. -1.
       -2    1    3    3    0  502 -0.39648571645E+03 -0.10361785492E+04  0.15768607121E+04  0.19280447647E+04  0.25500000920E-02 0.  1.
</event>
<event>
 5   0  0.3220147E-08  0.3195182E+04  0.7818609E-02  0.8190091E-01
        1   -1    0    0  501    0  0.00000000000E+00  0.00000000000E+00  0.21093588952E+04  0.21093588952E+04  0.50400001928E-02 0.  1.
       -1   -1    0    0    0  501  0.00000000000E+00  0.00000000000E+00 -0.12099871296E+04  0.12099871297E+04  0.50400001928E-02 0. -1.
    10030    2    1    2    0    0  0.00000000000E+00  0.00000000000E+00  0.89937176557E+03  0.33193460249E+04  0.31951820700E+04 0.  0.
        4    1    3    3  502    0  0.80361368423E+03  0.70823521582E+03 -0.78166025736E+03  0.13260416454E+04  0.12699999809E+01 0.  1.
       -4    1    3    3    0  502 -0.80361368423E+03 -0.70823521582E+03  0.16810320229E+04  0.19933043795E+04  0.12699999809E+01 0. -1.
</event>
<event>
 5   0  0.9157524E-08  0.3201096E+04  0.7818609E-02  0.8188528E-01
        2   -1    0    0  501    0  0.00000000000E+00  0.00000000000E+00  0.15964436763E+04  0.15964436763E+04  0.25500000920E-02 0. -1.
       -2   -1    0    0    0  501  0.00000000000E+00  0.00000000000E+00 -0.16046630584E+04  0.16046630584E+04  0.25500000920E-02 0.  1.
    10030    2    1    2    0    0  0.00000000000E+00  0.00000000000E+00 -0.82193820560E+01  0.32011067348E+04  0.32010961824E+04 0.  0.
        5    1    3    3  502    0 -0.15918162196E+04  0.10292768353E+02  0.16246601894E+03  0.16001256561E+04  0.46999998093E+01 0.  1.
       -5    1    3    3    0  502  0.15918162196E+04 -0.10292768353E+02 -0.17068540099E+03  0.16009810786E+04  0.46999998093E+01 0. -1.
</event>
<event>
 5   0  0.3080500E-08  0.3200273E+04  0.7818609E-02  0.8188745E-01
        4   -1    0    0  501    0  0.00000000000E+00  0.00000000000E+00  0.13308554947E+04  0.13308561006E+04  0.12699999809E+01 0. -1.
       -4   -1    0    0    0  501  0.00000000000E+00  0.00000000000E+00 -0.19239011894E+04  0.19239016086E+04  0.12699999809E+01 0.  1.
    10030    2    1    2    0    0  0.00000000000E+00  0.00000000000E+00 -0.59304569471E+03  0.32547577092E+04  0.32002725743E+04 0.  0.
        5    1    3    3  502    0 -0.49103235662E+03 -0.10517383731E+04  0.82365899393E+03  0.14232717973E+04  0.46999998093E+01 0. -1.
       -5    1    3    3    0  502  0.49103235662E+03  0.10517383731E+04 -0.14167046886E+04  0.18314859119E+04  0.46999998093E+01 0.  1.
</event>
<event>
 5   0  0.3283581E-08  0.3216129E+04  0.7818609E-02  0.8184570E-01
       -1   -1    0    0    0  501  0.00000000000E+00  0.00000000000E+00  0.13336154433E+04  0.13336154433E+04  0.50400001928E-02 0.  1.
        1   -1    0    0  501    0  0.00000000000E+00  0.00000000000E+00 -0.19389936273E+04  0.19389936273E+04  0.50400001928E-02 0. -1.
    10030    2    1    2    0    0  0.00000000000E+00  0.00000000000E+00 -0.60537818401E+03  0.32726090705E+04  0.32161292547E+04 0.  0.
        5    1    3    3  502    0 -0.32372129852E+03  0.11008097375E+04  0.84371576940E+03  0.14242387253E+04  0.46999998093E+01 0.  1.
       -5    1    3    3    0  502  0.32372129852E+03 -0.11008097375E+04 -0.14490939534E+04  0.18483703452E+04  0.46999998093E+01 0. -1.
</event>
<event>
 5   0  0.3220147E-08  0.3200436E+04  0.7818609E-02  0.8188702E-01
       -1   -1    0    0    0  501  0.00000000000E+00  0.00000000000E+00  0.11059691823E+04  0.11059691823E+04  0.50400001928E-02 0.  1.
        1   -1    0    0  501    0  0.00000000000E+00  0.00000000000E+00 -0.23153420902E+04  0.23153420902E+04  0.50400001928E-02 0. -1.
    10030    2    1    2    0    0  0.00000000000E+00  0.00000000000E+00 -0.12093729079E+04  0.34213112725E+04  0.32004355943E+04 0.  0.
        4    1    3    3  502    0 -0.73359361865E+03  0.12771079621E+04 -0.12735947714E+04  0.19471028732E+04  0.12699999809E+01 0. -1.
       -4    1    3    3    0  502  0.73359361865E+03 -0.12771079621E+04  0.64221863422E+02  0.14742083994E+04  0.12699999809E+01 0.  1.
</event>
<event>
 5   0  0.3270966E-08  0.3200425E+04  0.7818609E-02  0.8188705E-01
        1   -1    0    0  501    0  0.00000000000E+00  0.00000000000E+00  0.28342597399E+04  0.28342597399E+04  0.50400001928E-02 0.  1.
       -1   -1    0    0    0  501  0.00000000000E+00  0.00000000000E+00 -0.90347413273E+03  0.90347413275E+03  0.50400001928E-02 0. -1.
    10030    2    1    2    0    0  0.00000000000E+00  0.00000000000E+00  0.19307856072E+04  0.37377338727E+04  0.32004251971E+04 0.  0.
        3    1    3    3  502    0  0.96328556742E+03  0.22430708985E+03 -0.50375457215E+03  0.11099556001E+04  0.10100000352E+00 0. -1.
       -3    1    3    3    0  502 -0.96328556742E+03 -0.22430708985E+03  0.24345401794E+04  0.26277782726E+04  0.10100000352E+00 0.  1.
</event>
<event>
 5   0  0.3283581E-08  0.3200397E+04  0.7818609E-02  0.8188712E-01
       -1   -1    0    0    0  501  0.00000000000E+00  0.00000000000E+00  0.21591543889E+04  0.21591543889E+04  0.50400001928E-02 0. -1.
        1   -1    0    0  501    0  0.00000000000E+00  0.00000000000E+00 -0.11859436638E+04  0.11859436639E+04  0.50400001928E-02 0.  1.
    10030    2    1    2    0    0  0.00000000000E+00  0.00000000000E+00  0.97321072508E+03  0.33450980528E+04  0.32003971421E+04 0.  0.
        5    1    3    3  502    0 -0.10277229568E+04 -0.53979259739E+02 -0.79414797957E+03  0.12999312827E+04  0.46999998093E+01 0.  1.
       -5    1    3    3    0  502  0.10277229568E+04  0.53979259739E+02  0.17673587046E+04  0.20451667700E+04  0.46999998093E+01 0. -1.
</event>
<event>
 5   0  0.3343140E-08  0.3199805E+04  0.7818609E-02  0.8188869E-01
       -1   -1    0    0    0  501  0.00000000000E+00  0.00000000000E+00  0.13006780801E+04  0.13006780801E+04  0.50400001928E-02 0.  1.
        1   -1    0    0  501    0  0.00000000000E+00  0.00000000000E+00 -0.19679641633E+04  0.19679641633E+04  0.50400001928E-02 0. -1.
    10030    2    1    2    0    0  0.00000000000E+00  0.00000000000E+00 -0.66728608315E+03  0.32686422434E+04  0.31998049001E+04 0.  0.
        1    1    3    3  502    0  0.30977094925E+02  0.14902205904E+04  0.26021619997E+03  0.15130860713E+04  0.50400001928E-02 0.  1.
       -1    1    3    3    0  502 -0.30977094925E+02 -0.14902205904E+04 -0.92750228311E+03  0.17555561721E+04  0.50400001928E-02 0. -1.
</event>
<event>
 5   0  0.9329929E-08  0.3197598E+04  0.7818609E-02  0.8189452E-01
       -2   -1    0    0    0  501  0.00000000000E+00  0.00000000000E+00  0.14640674213E+04  0.14640674213E+04  0.25500000920E-02 0.  1.
        2   -1    0    0  501    0  0.00000000000E+00  0.00000000000E+00 -0.17459293453E+04  0.17459293453E+04  0.25500000920E-02 0. -1.
    10030    2    1    2    0    0  0.00000000000E+00  0.00000000000E+00 -0.28186192398E+03  0.32099967666E+04  0.31975980200E+04 0.  0.
        1    1    3    3  502    0 -0.81014730301E+03  0.11000332165E+03  0.12383393539E+04  0.14838880479E+04  0.50400001928E-02 0.  1.
       -1    1    3    3    0  502  0.81014730301E+03 -0.11000332165E+03 -0.15202012779E+04  0.17261087187E+04  0.50400001928E-02 0. -1.
</event>
<event>
 5   0  0.3343140E-08  0.3198281E+04  0.7818609E-02  0.8189271E-01
        1   -1    0    0  501    0  0.00000000000E+00  0.00000000000E+00  0.19478919491E+04  0.19478919491E+04  0.50400001928E-02 0.  1.
       -1   -1    0    0    0  501  0.00000000000E+00  0.00000000000E+00 -0.13128295852E+04  0.13128295852E+04  0.50400001928E-02 0. -1.
    10030    2    1    2    0    0  0.00000000000E+00  0.00000000000E+00  0.63506236397E+03  0.32607215343E+04  0.31982809005E+04 0.  0.
        1    1    3    3  502    0  0.10469148548E+04  0.23077002895E+03  0.15272738097E+04  0.18659718136E+04  0.50400001928E-02 0.  1.
       -1    1    3    3    0  502 -0.10469148548E+04 -0.23077002895E+03 -0.89221144572E+03  0.13947497207E+04  0.50400001928E-02 0. -1.
</event>
<event>
 5   0  0.9727083E-08  0.3199914E+04  0.7818609E-02  0.8188840E-01
        2   -1    0    0  501    0  0.00000000000E+00  0.00000000000E+00  0.24221272672E+04  0.24221272672E+04  0.25500000920E-02 0.  1.
       -2   -1    0    0    0  501  0.00000000000E+00  0.00000000000E+00 -0.10568655682E+04  0.10568655682E+04  0.25500000920E-02 0. -1.
    10030    2    1    2    0    0  0.00000000000E+00  0.00000000000E+00  0.13652616990E+04  0.34789928355E+04  0.31999143180E+04 0.  0.
        4    1    3    3  502    0 -0.27919073662E+03 -0.67535049432E+03 -0.86481383624E+03  0.11322324593E+04  0.12699999809E+01 0. -1.
       -4    1    3    3    0  502  0.27919073662E+03  0.67535049432E+03  0.22300755352E+04  0.23467603762E+04  0.12699999809E+01 0.  1.
</event>
<event>
 5   0  0.9157524E-08  0.3197165E+04  0.7818609E-02  0.8189566E-01
       -2   -1    0    0    0  501  0.00000000000E+00  0.00000000000E+00  0.15978563389E+04  0.15978563389E+04  0.25500000920E-02 0. -1.
        2   -1    0    0  501    0  0.00000000000E+00  0.00000000000E+00 -0.15993086875E+04  0.15993086875E+04  0.25500000920E-02 0.  1.
    10030    2    1    2    0    0  0.00000000000E+00  0.00000000000E+00 -0.14523485872E+01  0.31971650264E+04  0.31971646965E+04 0.  0.
        5    1    3    3  502    0  0.84164890929E+03  0.80798300211E+02 -0.13573921472E+04  0.15991987942E+04  0.46999998093E+01 0.  1.
       -5    1    3    3    0  502 -0.84164890929E+03 -0.80798300211E+02  0.13559397987E+04  0.15979662322E+04  0.46999998093E+01 0. -1.
</event>
<event>
 5   0  0.3427667E-08  0.3187434E+04  0.7818609E-02  0.8192144E-01
        1   -1    0    0  501    0  0.00000000000E+00  0.00000000000E+00  0.22410448070E+04  0.22410448070E+04  0.50400001928E-02 0.  1.
       -1   -1    0    0    0  501  0.00000000000E+00  0.00000000000E+00 -0.11333701603E+04  0.11333701603E+04  0.50400001928E-02 0. -1.
    10030    2    1    2    0    0  0.00000000000E+00  0.00000000000E+00  0.11076746467E+04  0.33744149673E+04  0.31874336462E+04 0.  0.
        2    1    3    3  502    0 -0.11115153228E+04 -0.11331069573E+04  0.40212834837E+03  0.16374079816E+04  0.25500000920E-02 0. -1.
       -2    1    3    3    0  502  0.11115153228E+04  0.11331069573E+04  0.70554629829E+03  0.17370069857E+04  0.25500000920E-02 0.  1.
</event>
<event>
 5   0  0.3343140E-08  0.3199397E+04  0.7818609E-02  0.8188976E-01
       -1   -1    0    0    0  501  0.00000000000E+00  0.00000000000E+00  0.31478316890E+04  0.31478316890E+04  0.50400001928E-02 0. -1.
        1   -1    0    0  501    0  0.00000000000E+00  0.00000000000E+00 -0.81295169268E+03  0.81295169270E+03  0.50400001928E-02 0.  1.
    10030    2    1    2    0    0  0.00000000000E+00  0.00000000000E+00  0.23348799963E+04  0.39607833817E+04  0.31993968806E+04 0.  0.
        1    1    3    3  502    0  0.15316744674E+04 -0.41276879837E+03  0.14230467950E+04  0.21310717810E+04  0.50400001928E-02 0.  1.
       -1    1    3    3    0  502 -0.15316744674E+04  0.41276879837E+03  0.91183320136E+03  0.18297116008E+04  0.50400001928E-02 0. -1.
</event>
<event>
 5   0  0.9353994E-08  0.3200089E+04  0.7818609E-02  0.8188794E-01
        2   -1    0    0  501    0  0.00000000000E+00  0.00000000000E+00  0.18265329307E+04  0.18265329307E+04  0.25500000920E-02 0.  1.
       -2   -1    0    0    0  501  0.00000000000E+00  0.00000000000E+00 -0.14016407102E+04  0.14016407102E+04  0.25500000920E-02 0. -1.
    10030    2    1    2    0    0  0.00000000000E+00  0.00000000000E+00  0.42489222051E+03  0.32281736408E+04  0.32000893200E+04 0.  0.
        2    1    3    3  502    0  0.35122884134E+03 -0.63079911186E+03  0.16528687809E+04  0.18036752550E+04  0.25500000920E-02 0.  1.
       -2    1    3    3    0  502 -0.35122884134E+03  0.63079911186E+03 -0.12279765604E+04  0.14244983859E+04  0.25500000920E-02 0. -1.
</event>
<event>
 5   0  0.3270966E-08  0.3200425E+04  0.7818609E-02  0.8188705E-01
        1   -1    0    0  501    0  0.00000000000E+00  0.00000000000E+00  0.12590047159E+04  0.12590047159E+04  0.50400001928E-02 0. -1.
       -1   -1    0    0    0  501  0.00000000000E+00  0.00000000000E+00 -0.20338923098E+04  0.20338923099E+04  0.50400001928E-02 0.  1.
    10030    2    1    2    0    0  0.00000000000E+00  0.00000000000E+00 -0.77488759398E+03  0.32928970257E+04  0.32004249778E+04 0.  0.
        3    1    3    3  502    0  0.79141721086E+03  0.13024607519E+04  0.11443571863E+03  0.15283457580E+04  0.10100000352E+00 0.  1.
       -3    1    3    3    0  502 -0.79141721086E+03 -0.13024607519E+04 -0.88932331261E+03  0.17645512678E+04  0.10100000352E+00 0. -1.
</event>
<event>
 5   0  0.3270966E-08  0.3179326E+04  0.7818609E-02  0.8194299E-01
       -1   -1    0    0    0  501  0.00000000000E+00  0.00000000000E+00  0.13669541262E+04  0.13669541262E+04  0.50400001928E-02 0. -1.
        1   -1    0    0  501    0  0.00000000000E+00  0.00000000000E+00 -0.18486560719E+04  0.18486560719E+04  0.50400001928E-02 0.  1.
    10030    2    1    2    0    0  0.00000000000E+00  0.00000000000E+00 -0.48170194574E+03  0.32156101981E+04  0.31793257432E+04 0.  0.
        3    1    3    3  502    0  0.96783935338E+02 -0.14143696492E+04 -0.96823837319E+03  0.17167685319E+04  0.10100000352E+00 0.  1.
       -3    1    3    3    0  502 -0.96783935338E+02  0.14143696492E+04  0.48653642746E+03  0.14988416662E+04  0.10100000352E+00 0. -1.
</event>
<event>
 5   0  0.9353994E-08  0.3199800E+04  0.7818609E-02  0.8188870E-01
       -2   -1    0    0    0  501  0.00000000000E+00  0.00000000000E+00  0.15012092810E+04  0.15012092810E+04  0.25500000920E-02 0.  1.
        2   -1    0    0  501    0  0.00000000000E+00  0.00000000000E+00 -0.17050782889E+04  0.17050782889E+04  0.25500000920E-02 0. -1.
    10030    2    1    2    0    0  0.00000000000E+00  0.00000000000E+00 -0.20386900783E+03  0.32062875699E+04  0.31997995888E+04 0.  0.
        2    1    3    3  502    0 -0.37852274718E+03 -0.86464815759E+03  0.11924988189E+04  0.15208383674E+04  0.25500000920E-02 0.  1.
       -2    1    3    3    0  502  0.37852274718E+03  0.86464815759E+03 -0.13963678268E+04  0.16854492025E+04  0.25500000920E-02 0. -1.
</event>
<event>
 5   0  0.3283581E-08  0.3199735E+04  0.7818609E-02  0.8188887E-01
        1   -1    0    0  501    0  0.00000000000E+00  0.00000000000E+00  0.19753436206E+04  0.19753436206E+04  0.50400001928E-02 0.  1.
       -1   -1    0    0    0  501  0.00000000000E+00  0.00000000000E+00 -0.12957622413E+04  0.12957622413E+04  0.50400001928E-02 0. -1.
    10030    2    1    2    0    0  0.00000000000E+00  0.00000000000E+00  0.67958137926E+03  0.32711058619E+04  0.31997347873E+04 0.  0.
        5    1    3    3  502    0 -0.30365903910E+03 -0.13795538078E+04 -0.42807974403E+03  0.14760257036E+04  0.46999998093E+01 0. -1.
       -5    1    3    3    0  502  0.30365903910E+03  0.13795538078E+04  0.11076611233E+04  0.17950801583E+04  0.46999998093E+01 0.  1.
</event>
<event>
 5   0  0.9707721E-08  0.3182717E+04  0.7818609E-02  0.8193397E-01
        2   -1    0    0  501    0  0.00000000000E+00  0.00000000000E+00  0.13600526316E+04  0.13600526316E+04  0.25500000920E-02 0.  1.
       -2   -1    0    0    0  501  0.00000000000E+00  0.00000000000E+00 -0.18620024105E+04  0.18620024105E+04  0.25500000920E-02 0. -1.
    10030    2    1    2    0    0  0.00000000000E+00  0.00000000000E+00 -0.50194977892E+03  0.32220550421E+04  0.31827166248E+04 0.  0.
        3    1    3    3  502    0  0.82743314804E+02  0.15889492636E+04 -0.22207294217E+03  0.16065250139E+04  0.10100000352E+00 0.  1.
       -3    1    3    3    0  502 -0.82743314804E+02 -0.15889492636E+04 -0.27987683675E+03  0.16155300283E+04  0.10100000352E+00 0. -1.
</event>
<event>
 5   0  0.9707721E-08  0.3196882E+04  0.7818609E-02  0.8189641E-01
       -2   -1    0    0    0  501  0.00000000000E+00  0.00000000000E+00  0.86788139780E+03  0.86788139780E+03  0.25500000920E-02 0. -1.
        2   -1    0    0  501    0  0.00000000000E+00  0.00000000000E+00 -0.29439665231E+04  0.29439665231E+04  0.25500000920E-02 0.  1.
    10030    2    1    2    0    0  0.00000000000E+00  0.00000000000E+00 -0.20760851253E+04  0.38118479209E+04  0.31968820943E+04 0.  0.
        3    1    3    3  502    0  0.77504977693E+02 -0.40311595191E+03 -0.28800443829E+04  0.29091519641E+04  0.10100000352E+00 0.  1.
       -3    1    3    3    0  502 -0.77504977693E+02  0.40311595191E+03  0.80395925766E+03  0.90269595680E+03  0.10100000352E+00 0. -1.
</event>
<event>
 5   0  0.9353994E-08  0.3199478E+04  0.7818609E-02  0.8188955E-01
       -2   -1    0    0    0  501  0.00000000000E+00  0.00000000000E+00  0.15896862742E+04  0.15896862742E+04  0.25500000920E-02 0. -1.
        2   -1    0    0  501    0  0.00000000000E+00  0.00000000000E+00 -0.16098549427E+04  0.16098549427E+04  0.25500000920E-02 0.  1.
    10030    2    1    2    0    0  0.00000000000E+00  0.00000000000E+00 -0.20168668468E+02  0.31995412169E+04  0.31994776486E+04 0.  0.
        2    1    3    3  502    0  0.63094966962E+03  0.15710273310E+03  0.14515826748E+04  0.15905568258E+04  0.25500000920E-02 0. -1.
       -2    1    3    3    0  502 -0.63094966962E+03 -0.15710273310E+03 -0.14717513433E+04  0.16089843911E+04  0.25500000920E-02 0.  1.
</event>
<event>
 5   0  0.3220147E-08  0.3200054E+04  0.7818609E-02  0.8188803E-01
        1   -1    0    0  501    0  0.00000000000E+00  0.00000000000E+00  0.17861037282E+04  0.17861037283E+04  0.50400001928E-02 0.  1.
       -1   -1    0    0    0  501  0.00000000000E+00  0.00000000000E+00 -0.14333361875E+04  0.14333361875E+04  0.50400001928E-02 0. -1.
    10030    2    1    2    0    0  0.00000000000E+00  0.00000000000E+00  0.35276754076E+03  0.32194399158E+04  0.32000544422E+04 0.  0.
        4    1    3    3  502    0 -0.25117718988E+02 -0.13177290928E+04  0.10890976420E+04  0.17097298467E+04  0.12699999809E+01 0.  1.
       -4    1    3    3    0  502  0.25117718988E+02  0.13177290928E+04 -0.73633010127E+03  0.15097100691E+04  0.12699999809E+01 0. -1.
</event>
<event>
 5   0  0.9329929E-08  0.3199444E+04  0.7818609E-02  0.8188964E-01
        2   -1    0    0  501    0  0.00000000000E+00  0.00000000000E+00  0.14181693690E+04  0.14181693690E+04  0.25500000920E-02 0.  1.
       -2   -1    0    0    0  501  0.00000000000E+00  0.00000000000E+00 -0.18045169391E+04  0.18045169391E+04  0.25500000920E-02 0. -1.
    10030    2    1    2    0    0  0.00000000000E+00  0.00000000000E+00 -0.38634757009E+03  0.32226863081E+04  0.31994441072E+04 0.  0.
        1    1    3    3  502    0 -0.13846180720E+04 -0.14036740298E+03  0.60137875659E+03  0.15160892527E+04  0.50400001928E-02 0.  1.
       -1    1    3    3    0  502  0.13846180720E+04  0.14036740298E+03 -0.98772632668E+03  0.17065970554E+04  0.50400001928E-02 0. -1.
</event>
<event>
 5   0  0.9353994E-08  0.3198519E+04  0.7818609E-02  0.8189208E-01
       -2   -1    0    0    0  501  0.00000000000E+00  0.00000000000E+00  0.13413797746E+04  0.13413797746E+04  0.25500000920E-02 0. -1.
        2   -1    0    0  501    0  0.00000000000E+00  0.00000000000E+00 -0.19067168007E+04  0.19067168007E+04  0.25500000920E-02 0.  1.
    10030    2    1    2    0    0  0.00000000000E+00  0.00000000000E+00 -0.56533702610E+03  0.32480965752E+04  0.31985192525E+04 0.  0.
        2    1    3    3  502    0  0.27854348874E+03  0.12744305535E+04  0.65680444264E+03  0.14605313371E+04  0.25500000920E-02 0. -1.
       -2    1    3    3    0  502 -0.27854348874E+03 -0.12744305535E+04 -0.12221414687E+04  0.17875652381E+04  0.25500000920E-02 0.  1.
</event>
<event>
 5   0  0.9329929E-08  0.3202446E+04  0.7818609E-02  0.8188171E-01
       -2   -1    0    0    0  501  0.00000000000E+00  0.00000000000E+00  0.16536609942E+04  0.16536609942E+04  0.25500000920E-02 0.  1.
        2   -1    0    0  501    0  0.00000000000E+00  0.00000000000E+00 -0.15504478402E+04  0.15504478402E+04  0.25500000920E-02 0. -1.
    10030    2    1    2    0    0  0.00000000000E+00  0.00000000000E+00  0.10321315395E+03  0.32041088344E+04  0.32024460132E+04 0.  0.
        1    1    3    3  502    0 -0.13978662648E+03  0.13661750033E+04 -0.77219247606E+03  0.15755175850E+04  0.50400001928E-02 0. -1.
       -1    1    3    3    0  502  0.13978662648E+03 -0.13661750033E+04  0.87540563001E+03  0.16285912494E+04  0.50400001928E-02 0.  1.
</event>
<event>
 5   0  0.9707721E-08  0.3200030E+04  0.7818609E-02  0.8188809E-01
       -2   -1    0    0    0  501  0.00000000000E+00  0.00000000000E+00  0.11196880080E+04  0.11196880080E+04  0.25500000920E-02 0. -1.
        2   -1    0    0  501    0  0.00000000000E+00  0.00000000000E+00 -0.22863938420E+04  0.22863938420E+04  0.25500000920E-02 0.  1.
    10030    2    1    2    0    0  0.00000000000E+00  0.00000000000E+00 -0.11667058340E+04  0.34060818499E+04  0.32000298538E+04 0.  0.
        3    1    3    3  502    0 -0.31846472254E+03 -0.14688033480E+03  0.10782744603E+04  0.11338736412E+04  0.10100000352E+00 0. -1.
       -3    1    3    3    0  502  0.31846472254E+03  0.14688033480E+03 -0.22449802942E+04  0.22722082088E+04  0.10100000352E+00 0.  1.
</event>
<event>
 5   0  0.3427667E-08  0.3199449E+04  0.7818609E-02  0.8188963E-01
        1   -1    0    0  501    0  0.00000000000E+00  0.00000000000E+00  0.15630803652E+04  0.15630803652E+04  0.50400001928E-02 0. -1.
       -1   -1    0    0    0  501  0.00000000000E+00  0.00000000000E+00 -0.16372279249E+04  0.16372279249E+04  0.50400001928E-02 0.  1.
    10030    2    1    2    0    0  0.00000000000E+00  0.00000000000E+00 -0.74147559743E+02  0.32003082901E+04  0.31994492169E+04 0.  0.
        2    1    3    3  502    0 -0.97118063369E+03 -0.11990857951E+04 -0.45923005585E+03  0.16099350333E+04  0.25500000920E-02 0.  1.
       -2    1    3    3    0  502  0.97118063369E+03  0.11990857951E+04  0.38508249611E+03  0.15903732568E+04  0.25500000920E-02 0. -1.
</event>
<event>
 5   0  0.9329929E-08  0.3201606E+04  0.7818609E-02  0.8188393E-01
       -2   -1    0    0    0  501  0.00000000000E+00  0.00000000000E+00  0.14412424401E+04  0.14412424401E+04  0.25500000920E-02 0. -1.
        2   -1    0    0  501    0  0.00000000000E+00  0.00000000000E+00 -0.17780286095E+04  0.17780286095E+04  0.25500000920E-02 0.  1.
    10030    2    1    2    0    0  0.00000000000E+00  0.00000000000E+00 -0.33678616945E+03  0.32192710496E+04  0.32016060293E+04 0.  0.
        1    1    3    3  502    0 -0.92220658275E+03 -0.10738066396E+04  0.58342520655E+03  0.15309835572E+04  0.50400001928E-02 0. -1.
       -1    1    3    3    0  502  0.92220658275E+03  0.10738066396E+04 -0.92021137600E+03  0.16882874925E+04  0.50400001928E-02 0.  1.
</event>
<event>
 5   0  0.9727083E-08  0.3200307E+04  0.7818609E-02  0.8188736E-01
        2   -1    0    0  501    0  0.00000000000E+00  0.00000000000E+00  0.92636197704E+03  0.92636197704E+03  0.25500000920E-02 0.  1.
       -2   -1    0    0    0  501  0.00000000000E+00  0.00000000000E+00 -0.27640294751E+04  0.27640294751E+04  0.25500000920E-02 0. -1.
    10030    2    1    2    0    0  0.00000000000E+00  0.00000000000E+00 -0.18376674980E+04  0.36903914521E+04  0.32003073659E+04 0.  0.
        4    1    3    3  502    0 -0.12446397437E+04 -0.84688575911E+03 -0.15442406550E+04  0.21566233778E+04  0.12699999809E+01 0. -1.
       -4    1    3    3    0  502  0.12446397437E+04  0.84688575911E+03 -0.29342684306E+03  0.15337680743E+04  0.12699999809E+01 0.  1.
</event>
<event>
 5   0  0.3343140E-08  0.3200014E+04  0.7818609E-02  0.8188814E-01
       -1   -1    0    0    0  501  0.00000000000E+00  0.00000000000E+00  0.13286284806E+04  0.13286284806E+04  0.50400001928E-02 0.  1.
        1   -1    0    0  501    0  0.00000000000E+00  0.00000000000E+00 -0.19268154419E+04  0.19268154419E+04  0.50400001928E-02 0. -1.
    10030    2    1    2    0    0  0.00000000000E+00  0.00000000000E+00 -0.59818696136E+03  0.32554439225E+04  0.32000136706E+04 0.  0.
        1    1    3    3  502    0 -0.72354030167E+03  0.30778815518E+03  0.11185210168E+04  0.13672356716E+04  0.50400001928E-02 0.  1.
       -1    1    3    3    0  502  0.72354030167E+03 -0.30778815518E+03 -0.17167079781E+04  0.18882082509E+04  0.50400001928E-02 0. -1.
</event>
<event>
 5   0  0.3427667E-08  0.3198289E+04  0.7818609E-02  0.8189269E-01
       -1   -1    0    0    0  501  0.00000000000E+00  0.00000000000E+00  0.11318345472E+04  0.11318345472E+04  0.50400001928E-02 0. -1.
        1   -1    0    0  501    0  0.00000000000E+00  0.00000000000E+00 -0.22593970068E+04  0.22593970068E+04  0.50400001928E-02 0.  1.
    10030    2    1    2    0    0  0.00000000000E+00  0.00000000000E+00 -0.11275624596E+04  0.33912315540E+04  0.31982892853E+04 0.  0.
        2    1    3    3  502    0 -0.67371801809E+03  0.31463313964E+03 -0.20649483348E+04  0.21947440866E+04  0.25500000920E-02 0.  1.
       -2    1    3    3    0  502  0.67371801809E+03 -0.31463313964E+03  0.93738587520E+03  0.11964874673E+04  0.25500000920E-02 0. -1.
</event>
<event>
 5   0  0.3283581E-08  0.3200182E+04  0.7818609E-02  0.8188769E-01
       -1   -1    0    0    0  501  0.00000000000E+00  0.00000000000E+00  0.11869133242E+04  0.11869133242E+04  0.50400001928E-02 0. -1.
        1   -1    0    0  501    0  0.00000000000E+00  0.00000000000E+00 -0.21571004477E+04  0.21571004477E+04  0.50400001928E-02 0.  1.
    10030    2    1    2    0    0  0.00000000000E+00  0.00000000000E+00 -0.97018712347E+03  0.33440137719E+04  0.32001820342E+04 0.  0.
        5    1    3    3  502    0 -0.56124351193E+03 -0.12513202496E+04  0.37625577810E+03  0.14221065879E+04  0.46999998093E+01 0. -1.
       -5    1    3    3    0  502  0.56124351193E+03  0.12513202496E+04 -0.13464429016E+04  0.19219071840E+04  0.46999998093E+01 0.  1.
</event>
<event>
 5   0  0.3270966E-08  0.3199942E+04  0.7818609E-02  0.8188832E-01
       -1   -1    0    0    0  501  0.00000000000E+00  0.00000000000E+00  0.12068988017E+04  0.12068988017E+04  0.50400001928E-02 0. -1.
        1   -1    0    0  501    0  0.00000000000E+00  0.00000000000E+00 -0.21210620088E+04  0.21210620088E+04  0.50400001928E-02 0.  1.
    10030    2    1    2    0    0  0.00000000000E+00  0.00000000000E+00 -0.91416320708E+03  0.33279608105E+04  0.31999419975E+04 0.  0.
        3    1    3    3  502    0 -0.10710054598E+02  0.45969777074E+03  0.11366994007E+04  0.12261819944E+04  0.10100000352E+00 0. -1.
       -3    1    3    3    0  502  0.10710054598E+02 -0.45969777074E+03 -0.20508626078E+04  0.21017788161E+04  0.10100000352E+00 0.  1.
</event>
<event>
 5   0  0.9727083E-08  0.3200063E+04  0.7818609E-02  0.8188801E-01
        2   -1    0    0  501    0  0.00000000000E+00  0.00000000000E+00  0.17993196507E+04  0.17993196507E+04  0.25500000920E-02 0.  1.
       -2   -1    0    0    0  501  0.00000000000E+00  0.00000000000E+00 -0.14228161163E+04  0.14228161163E+04  0.25500000920E-02 0. -1.
    10030    2    1    2    0    0  0.00000000000E+00  0.00000000000E+00  0.37650353434E+03  0.32221357670E+04  0.32000631227E+04 0.  0.
        4    1    3    3  502    0  0.80612983896E+03 -0.83141576611E+03 -0.92344791217E+03  0.14811668214E+04  0.12699999809E+01 0. -1.
       -4    1    3    3    0  502 -0.80612983896E+03  0.83141576611E+03  0.12999514465E+04  0.17409689456E+04  0.12699999809E+01 0.  1.
</event>
<event>
 5   0  0.3343140E-08  0.3201019E+04  0.7818609E-02  0.8188548E-01
       -1   -1    0    0    0  501  0.00000000000E+00  0.00000000000E+00  0.89144088734E+03  0.89144088736E+03  0.50400001928E-02 0. -1.
        1   -1    0    0  501    0  0.00000000000E+00  0.00000000000E+00 -0.28735836463E+04  0.28735836463E+04  0.50400001928E-02 0.  1.
    10030    2    1    2    0    0  0.00000000000E+00  0.00000000000E+00 -0.19821427590E+04  0.37650245337E+04  0.32010185601E+04 0.  0.
        1    1    3    3  502    0  0.32823430518E+02 -0.66830144220E+03 -0.27011831011E+04  0.27828212915E+04  0.50400001928E-02 0.  1.
       -1    1    3    3    0  502 -0.32823430518E+02  0.66830144220E+03  0.71904034209E+03  0.98220324212E+03  0.50400001928E-02 0. -1.
</event>
<event>
 5   0  0.9157524E-08  0.3199797E+04  0.7818609E-02  0.8188871E-01
       -2   -1    0    0    0  501  0.00000000000E+00  0.00000000000E+00  0.97707922734E+03  0.97707922734E+03  0.25500000920E-02 0. -1.
        2   -1    0    0  501    0  0.00000000000E+00  0.00000000000E+00 -0.26197207100E+04  0.26197207100E+04  0.25500000920E-02 0.  1.
    10030    2    1    2    0    0  0.00000000000E+00  0.00000000000E+00 -0.16426414827E+04  0.35967999373E+04  0.31997966730E+04 0.  0.
        5    1    3    3  502    0  0.46557169581E+03 -0.24229731114E+03  0.87754784090E+03  0.10225347398E+04  0.46999998093E+01 0. -1.
       -5    1    3    3    0  502 -0.46557169581E+03  0.24229731114E+03 -0.25201893236E+04  0.25742651976E+04  0.46999998093E+01 0.  1.
</event>
<event>
 5   0  0.9157524E-08  0.3199998E+04  0.7818609E-02  0.8188818E-01
       -2   -1    0    0    0  501  0.00000000000E+00  0.00000000000E+00  0.89965624720E+03  0.89965624720E+03  0.25500000920E-02 0.  1.
        2   -1    0    0  501    0  0.00000000000E+00  0.00000000000E+00 -0.28455280233E+04  0.28455280233E+04  0.25500000920E-02 0. -1.
    10030    2    1    2    0    0  0.00000000000E+00  0.00000000000E+00 -0.19458717761E+04  0.37451842705E+04  0.31999981642E+04 0.  0.
        5    1    3    3  502    0 -0.13043275736E+04 -0.91717925598E+03 -0.11277028325E+04  0.19530038339E+04  0.46999998093E+01 0.  1.
       -5    1    3    3    0  502  0.13043275736E+04  0.91717925598E+03 -0.81816894357E+03  0.17921804365E+04  0.46999998093E+01 0. -1.
</event>
<event>
 5   0  0.9157524E-08  0.3200529E+04  0.7818609E-02  0.8188678E-01
        2   -1    0    0  501    0  0.00000000000E+00  0.00000000000E+00  0.23313837374E+04  0.23313837374E+04  0.25500000920E-02 0.  1.
       -2   -1    0    0    0  501  0.00000000000E+00  0.00000000000E+00 -0.10984232591E+04  0.10984232592E+04  0.25500000920E-02 0. -1.
    10030    2    1    2    0    0  0.00000000000E+00  0.00000000000E+00  0.12329604782E+04  0.34298069965E+04  0.32005287833E+04 0.  0.
        5    1    3    3  502    0  0.15649794031E+01 -0.43598843386E+03  0.22665013915E+04  0.23080595771E+04  0.46999998093E+01 0.  1.
       -5    1    3    3    0  502 -0.15649794031E+01  0.43598843386E+03 -0.10335409133E+04  0.11217474195E+04  0.46999998093E+01 0. -1.
</event>
<event>
 5   0  0.9353994E-08  0.3199728E+04  0.7818609E-02  0.8188889E-01
       -2   -1    0    0    0  501  0.00000000000E+00  0.00000000000E+00  0.21297614041E+04  0.21297614041E+04  0.25500000920E-02 0.  1.
        2   -1    0    0  501    0  0.00000000000E+00  0.00000000000E+00 -0.12018081039E+04  0.12018081039E+04  0.25500000920E-02 0. -1.
    10030    2    1    2    0    0  0.00000000000E+00  0.00000000000E+00  0.92795330019E+03  0.33315695079E+04  0.31997278101E+04 0.  0.
        2    1    3    3  502    0 -0.82683267098E+03  0.13038415585E+04  0.27279442639E+02  0.15441500068E+04  0.25500000920E-02 0.  1.
       -2    1    3    3    0  502  0.82683267098E+03 -0.13038415585E+04  0.90067385755E+03  0.17874195012E+04  0.25500000920E-02 0. -1.
</event>
<event>
 5   0  0.3220147E-08  0.3199438E+04  0.7818609E-02  0.8188966E-01
        1   -1    0    0  501    0  0.00000000000E+00  0.00000000000E+00  0.19075893713E+04  0.19075893713E+04  0.50400001928E-02 0.  1.
       -1   -1    0    0    0  501  0.00000000000E+00  0.00000000000E+00 -0.13415367493E+04  0.13415367493E+04  0.50400001928E-02 0. -1.
    10030    2    1    2    0    0  0.00000000000E+00  0.00000000000E+00  0.56605262193E+03  0.32491261206E+04  0.31994382283E+04 0.  0.
        4    1    3    3  502    0 -0.13986758151E+04  0.54209727051E+03 -0.28142592957E+03  0.15262259509E+04  0.12699999809E+01 0. -1.
       -4    1    3    3    0  502  0.13986758151E+04 -0.54209727051E+03  0.84747855150E+03  0.17229001697E+04  0.12699999809E+01 0.  1.
</event>
<event>
 5   0  0.9329929E-08  0.3214212E+04  0.7818609E-02  0.8185074E-01
       -2   -1    0    0    0  501  0.00000000000E+00  0.00000000000E+00  0.13419481068E+04  0.13419481069E+04  0.25500000920E-02 0.  1.
        2   -1    0    0  501    0  0.00000000000E+00  0.00000000000E+00 -0.19246569668E+04  0.19246569669E+04  0.25500000920E-02 0. -1.
    10030    2    1    2    0    0  0.00000000000E+00  0.00000000000E+00 -0.58270886000E+03  0.32666050737E+04  0.32142120484E+04 0.  0.
        1    1    3    3  502    0  0.13407515626E+04  0.76423499576E+03  0.16441964754E+03  0.15519999039E+04  0.50400001928E-02 0.  1.
       -1    1    3    3    0  502 -0.13407515626E+04 -0.76423499576E+03 -0.74712850754E+03  0.17146051698E+04  0.50400001928E-02 0. -1.
</event>
<event>
 5   0  0.9157524E-08  0.3199451E+04  0.7818609E-02  0.8188962E-01
       -2   -1    0    0    0  501  0.00000000000E+00  0.00000000000E+00  0.13162173058E+04  0.13162173058E+04  0.25500000920E-02 0. -1.
        2   -1    0    0  501    0  0.00000000000E+00  0.00000000000E+00 -0.19443007246E+04  0.19443007246E+04  0.25500000920E-02 0.  1.
    10030    2    1    2    0    0  0.00000000000E+00  0.00000000000E+00 -0.62808341877E+03  0.32605180304E+04  0.31994513663E+04 0.  0.
        5    1    3    3  502    0 -0.59378340112E+03 -0.84563419901E+03 -0.15585898280E+04  0.18700000716E+04  0.46999998093E+01 0.  1.
       -5    1    3    3    0  502  0.59378340112E+03  0.84563419901E+03  0.93050640924E+03  0.13905179588E+04  0.46999998093E+01 0. -1.
</event>
<event>
 5   0  0.9727083E-08  0.3200962E+04  0.7818609E-02  0.8188563E-01
       -2   -1    0    0    0  501  0.00000000000E+00  0.00000000000E+00  0.20735940103E+04  0.20735940103E+04  0.25500000920E-02 0.  1.
        2   -1    0    0  501    0  0.00000000000E+00  0.00000000000E+00 -0.12353139171E+04  0.12353139171E+04  0.25500000920E-02 0. -1.
    10030    2    1    2    0    0  0.00000000000E+00  0.00000000000E+00  0.83828009316E+03  0.33089079274E+04  0.32009620675E+04 0.  0.
        4    1    3    3  502    0  0.10008114029E+04 -0.95353721349E+03 -0.41471065698E+03  0.14432058840E+04  0.12699999809E+01 0. -1.
       -4    1    3    3    0  502 -0.10008114029E+04  0.95353721349E+03  0.12529907501E+04  0.18657020434E+04  0.12699999809E+01 0.  1.
</event>
<event>
 5   0  0.9707721E-08  0.3200139E+04  0.7818609E-02  0.8188780E-01
       -2   -1    0    0    0  501  0.00000000000E+00  0.00000000000E+00  0.12659172755E+04  0.12659172755E+04  0.25500000920E-02 0.  1.
        2   -1    0    0  501    0  0.00000000000E+00  0.00000000000E+00 -0.20224246407E+04  0.20224246407E+04  0.25500000920E-02 0. -1.
    10030    2    1    2    0    0  0.00000000000E+00  0.00000000000E+00 -0.75650736523E+03  0.32883419161E+04  0.32001389288E+04 0.  0.
        3    1    3    3  502    0 -0.24428690205E+03  0.76838853549E+03 -0.17984195096E+04  0.19708906044E+04  0.10100000352E+00 0. -1.
       -3    1    3    3    0  502  0.24428690205E+03 -0.76838853549E+03  0.10419121443E+04  0.13174513117E+04  0.10100000352E+00 0.  1.
</event>
<event>
 5   0  0.9157524E-08  0.3206748E+04  0.7818609E-02  0.8187037E-01
       -2   -1    0    0    0  501  0.00000000000E+00  0.00000000000E+00  0.12858708996E+04  0.12858708996E+04  0.25500000920E-02 0.  1.
        2   -1    0    0  501    0  0.00000000000E+00  0.00000000000E+00 -0.19992738909E+04  0.19992738909E+04  0.25500000920E-02 0. -1.
    10030    2    1    2    0    0  0.00000000000E+00  0.00000000000E+00 -0.71340299131E+03  0.32851447906E+04  0.32067479581E+04 0.  0.
        5    1    3    3  502    0 -0.15448586534E+04 -0.17373880836E+03 -0.75874014660E+03  0.17298792248E+04  0.46999998093E+01 0. -1.
       -5    1    3    3    0  502  0.15448586534E+04  0.17373880836E+03  0.45337155287E+02  0.15552655658E+04  0.46999998093E+01 0.  1.
</event>
<event>
 5   0  0.3220147E-08  0.3199303E+04  0.7818609E-02  0.8189001E-01
       -1   -1    0    0    0  501  0.00000000000E+00  0.00000000000E+00  0.15367887477E+04  0.15367887478E+04  0.50400001928E-02 0. -1.
        1   -1    0    0  501    0  0.00000000000E+00  0.00000000000E+00 -0.16650852679E+04  0.16650852679E+04  0.50400001928E-02 0.  1.
    10030    2    1    2    0    0  0.00000000000E+00  0.00000000000E+00 -0.12829652017E+03  0.32018740157E+04  0.31993026139E+04 0.  0.
        4    1    3    3  502    0  0.11592035289E+04 -0.13420904739E+03 -0.11591564395E+04  0.16448131061E+04  0.12699999809E+01 0.  1.
       -4    1    3    3    0  502 -0.11592035289E+04  0.13420904739E+03  0.10308599194E+04  0.15570609096E+04  0.12699999809E+01 0. -1.
</event>
<event>
 5   0  0.3270966E-08  0.3200415E+04  0.7818609E-02  0.8188707E-01
       -1   -1    0    0    0  501  0.00000000000E+00  0.00000000000E+00  0.86069026406E+03  0.86069026407E+03  0.50400001928E-02 0. -1.
        1   -1    0    0  501    0  0.00000000000E+00  0.00000000000E+00 -0.29751292923E+04  0.29751292923E+04  0.50400001928E-02 0.  1.
    10030    2    1    2    0    0  0.00000000000E+00  0.00000000000E+00 -0.21144390283E+04  0.38358195564E+04  0.32004154832E+04 0.  0.
        3    1    3    3  502    0  0.27554773085E+03  0.13384075885E+03  0.82521973100E+03  0.88024287293E+03  0.10100000352E+00 0. -1.
       -3    1    3    3    0  502 -0.27554773085E+03 -0.13384075885E+03 -0.29396587593E+04  0.29555766835E+04  0.10100000352E+00 0.  1.
</event>
<event>
 5   0  0.3283581E-08  0.3200193E+04  0.7818609E-02  0.8188766E-01
        1   -1    0    0  501    0  0.00000000000E+00  0.00000000000E+00  0.21047671490E+04  0.21047671490E+04  0.50400001928E-02 0. -1.
       -1   -1    0    0    0  501  0.00000000000E+00  0.00000000000E+00 -0.12164332385E+04  0.12164332385E+04  0.50400001928E-02 0.  1.
    10030    2    1    2    0    0  0.00000000000E+00  0.00000000000E+00  0.88833391053E+03  0.33212003875E+04  0.32001929438E+04 0.  0.
        5    1    3    3  502    0 -0.11365767506E+04 -0.81828361133E+03  0.12473103990E+04  0.18754199796E+04  0.46999998093E+01 0. -1.
       -5    1    3    3    0  502  0.11365767506E+04  0.81828361133E+03 -0.35897648843E+03  0.14457804079E+04  0.46999998093E+01 0.  1.
</event>
<event>
 5   0  0.9329929E-08  0.3199337E+04  0.7818609E-02  0.8188992E-01
        2   -1    0    0  501    0  0.00000000000E+00  0.00000000000E+00  0.10917576584E+04  0.10917576584E+04  0.25500000920E-02 0. -1.
       -2   -1    0    0    0  501  0.00000000000E+00  0.00000000000E+00 -0.23438713744E+04  0.23438713744E+04  0.25500000920E-02 0.  1.
    10030    2    1    2    0    0  0.00000000000E+00  0.00000000000E+00 -0.12521137159E+04  0.34356290328E+04  0.31993371335E+04 0.  0.
        1    1    3    3  502    0 -0.11875966755E+04  0.80811644890E+03  0.12985077145E+03  0.14423242636E+04  0.50400001928E-02 0. -1.
       -1    1    3    3    0  502  0.11875966755E+04 -0.80811644890E+03 -0.13819644874E+04  0.19933047692E+04  0.50400001928E-02 0.  1.
</event>
<event>
 5   0  0.9157524E-08  0.3200010E+04  0.7818609E-02  0.8188814E-01
       -2   -1    0    0    0  501  0.00000000000E+00  0.00000000000E+00  0.16035649023E+04  0.16035649023E+04  0.25500000920E-02 0. -1.
        2   -1    0    0  501    0  0.00000000000E+00  0.00000000000E+00 -0.15964534133E+04  0.15964534133E+04  0.25500000920E-02 0.  1.
    10030    2    1    2    0    0  0.00000000000E+00  0.00000000000E+00  0.71114890170E+01  0.32000183156E+04  0.32000104136E+04 0.  0.
        5    1    3    3  502    0 -0.14890770985E+04  0.40865655295E+03  0.42265556046E+03  0.16009405349E+04  0.46999998093E+01 0. -1.
       -5    1    3    3    0  502  0.14890770985E+04 -0.40865655295E+03 -0.41554407145E+03  0.15990777807E+04  0.46999998093E+01 0.  1.
</event>
<event>
 5   0  0.3283581E-08  0.3201049E+04  0.7818609E-02  0.8188540E-01
        1   -1    0    0  501    0  0.00000000000E+00  0.00000000000E+00  0.84531420341E+03  0.84531420343E+03  0.50400001928E-02 0.  1.
       -1   -1    0    0    0  501  0.00000000000E+00  0.00000000000E+00 -0.30304449504E+04  0.30304449504E+04  0.50400001928E-02 0. -1.
    10030    2    1    2    0    0  0.00000000000E+00  0.00000000000E+00 -0.21851307470E+04  0.38757591538E+04  0.32010486777E+04 0.  0.
        5    1    3    3  502    0  0.96795790916E+03 -0.23334661640E+03  0.42466207009E+03  0.10824754598E+04  0.46999998093E+01 0.  1.
       -5    1    3    3    0  502 -0.96795790916E+03  0.23334661640E+03 -0.26097928171E+04  0.27932836940E+04  0.46999998093E+01 0. -1.
</event>
<event>
 5   0  0.3343140E-08  0.3199389E+04  0.7818609E-02  0.8188979E-01
        1   -1    0    0  501    0  0.00000000000E+00  0.00000000000E+00  0.12507519726E+04  0.12507519727E+04  0.50400001928E-02 0. -1.
       -1   -1    0    0    0  501  0.00000000000E+00  0.00000000000E+00 -0.20459869976E+04  0.20459869976E+04  0.50400001928E-02 0.  1.
    10030    2    1    2    0    0  0.00000000000E+00  0.00000000000E+00 -0.79523502493E+03  0.32967389702E+04  0.31993888624E+04 0.  0.
        1    1    3    3  502    0  0.90695071483E+03  0.57212414845E+03  0.82557294932E+03  0.13533130957E+04  0.50400001928E-02 0. -1.
       -1    1    3    3    0  502 -0.90695071483E+03 -0.57212414845E+03 -0.16208079742E+04  0.19434258745E+04  0.50400001928E-02 0.  1.
</event>
<event>
 5   0  0.9727083E-08  0.3203446E+04  0.7818609E-02  0.8187908E-01
       -2   -1    0    0    0  501  0.00000000000E+00  0.00000000000E+00  0.10167902764E+04  0.10167902764E+04  0.25500000920E-02 0. -1.
        2   -1    0    0  501    0  0.00000000000E+00  0.00000000000E+00 -0.25231526695E+04  0.25231526695E+04  0.25500000920E-02 0.  1.
    10030    2    1    2    0    0  0.00000000000E+00  0.00000000000E+00 -0.15063623931E+04  0.35399429459E+04  0.32034463318E+04 0.  0.
        4    1    3    3  502    0 -0.18170760477E+03 -0.66756747896E+03 -0.23495182055E+04  0.24492654824E+04  0.12699999809E+01 0.  1.
       -4    1    3    3    0  502  0.18170760477E+03  0.66756747896E+03  0.84315581232E+03  0.10906774635E+04  0.12699999809E+01 0. -1.
</event>
<event>
 5   0  0.3343140E-08  0.3199266E+04  0.7818609E-02  0.8189011E-01
       -1   -1    0    0    0  501  0.00000000000E+00  0.00000000000E+00  0.11646904360E+04  0.11646904360E+04  0.50400001928E-02 0.  1.
        1   -1    0    0  501    0  0.00000000000E+00  0.00000000000E+00 -0.21970004373E+04  0.21970004373E+04  0.50400001928E-02 0. -1.
    10030    2    1    2    0    0  0.00000000000E+00  0.00000000000E+00 -0.10323100013E+04  0.33616908733E+04  0.31992657890E+04 0.  0.
        1    1    3    3  502    0  0.15329244741E+04 -0.36955570241E+03 -0.23342861011E+03  0.15940256511E+04  0.50400001928E-02 0.  1.
       -1    1    3    3    0  502 -0.15329244741E+04  0.36955570241E+03 -0.79888139118E+03  0.17676652222E+04  0.50400001928E-02 0. -1.
</event>
<event>
 5   0  0.9727083E-08  0.3199770E+04  0.7818609E-02  0.8188878E-01
       -2   -1    0    0    0  501  0.00000000000E+00  0.00000000000E+00  0.11041576319E+04  0.11041576319E+04  0.25500000920E-02 0.  1.
        2   -1    0    0  501    0  0.00000000000E+00  0.00000000000E+00 -0.23181757809E+04  0.23181757809E+04  0.25500000920E-02 0. -1.
    10030    2    1    2    0    0  0.00000000000E+00  0.00000000000E+00 -0.12140181490E+04  0.34223334128E+04  0.31997696670E+04 0.  0.
        4    1    3    3  502    0  0.18400190262E+03 -0.91661331588E+02  0.10899729594E+04  0.11091894180E+04  0.12699999809E+01 0.  1.
       -4    1    3    3    0  502 -0.18400190262E+03  0.91661331588E+02 -0.23039911084E+04  0.23131439948E+04  0.12699999809E+01 0. -1.
</event>
<event>
 5   0  0.9329929E-08  0.3198899E+04  0.7818609E-02  0.8189108E-01
       -2   -1    0    0    0  501  0.00000000000E+00  0.00000000000E+00  0.10990096499E+04  0.10990096499E+04  0.25500000920E-02 0. -1.
        2   -1    0    0  501    0  0.00000000000E+00  0.00000000000E+00 -0.23277676590E+04  0.23277676590E+04  0.25500000920E-02 0.  1.
    10030    2    1    2    0    0  0.00000000000E+00  0.00000000000E+00 -0.12287580091E+04  0.34267773089E+04  0.31988992607E+04 0.  0.
        1    1    3    3  502    0  0.31607457966E+03 -0.14538715410E+04  0.14459134194E+02  0.14879027738E+04  0.50400001928E-02 0. -1.
       -1    1    3    3    0  502 -0.31607457966E+03  0.14538715410E+04 -0.12432171433E+04  0.19388745351E+04  0.50400001928E-02 0.  1.
</event>
<event>
 5   0  0.3080500E-08  0.3198932E+04  0.7818609E-02  0.8189099E-01
        4   -1    0    0  501    0  0.00000000000E+00  0.00000000000E+00  0.11819760730E+04  0.11819767553E+04  0.12699999809E+01 0.  1.
       -4   -1    0    0    0  501  0.00000000000E+00  0.00000000000E+00 -0.21644175968E+04  0.21644179694E+04  0.12699999809E+01 0. -1.
    10030    2    1    2    0    0  0.00000000000E+00  0.00000000000E+00 -0.98244152382E+03  0.33463947247E+04  0.31989320570E+04 0.  0.
        4    1    3    3  502    0  0.52210174771E+03 -0.55732641427E+03  0.97894148377E+03  0.12415840723E+04  0.12699999809E+01 0.  1.
       -4    1    3    3    0  502 -0.52210174771E+03  0.55732641427E+03 -0.19613830076E+04  0.21048106524E+04  0.12699999809E+01 0. -1.
</event>
<event>
 5   0  0.3343140E-08  0.3198045E+04  0.7818609E-02  0.8189334E-01
        1   -1    0    0  501    0  0.00000000000E+00  0.00000000000E+00  0.24750928713E+04  0.24750928713E+04  0.50400001928E-02 0.  1.
       -1   -1    0    0    0  501  0.00000000000E+00  0.00000000000E+00 -0.10330414090E+04  0.10330414090E+04  0.50400001928E-02 0. -1.
    10030    2    1    2    0    0  0.00000000000E+00  0.00000000000E+00  0.14420514624E+04  0.35081342803E+04  0.31980452950E+04 0.  0.
        1    1    3    3  502    0 -0.14043822044E+04 -0.51396964966E+03  0.13419675335E+04  0.20093110854E+04  0.50400001928E-02 0.  1.
       -1    1    3    3    0  502  0.14043822044E+04  0.51396964966E+03  0.10008392887E+03  0.14988231950E+04  0.50400001928E-02 0. -1.
</event>
<event>
 5   0  0.3080500E-08  0.3199283E+04  0.7818609E-02  0.8189007E-01
        3   -1    0    0  501    0  0.00000000000E+00  0.00000000000E+00  0.11030629346E+04  0.11030629392E+04  0.10100000352E+00 0. -1.
       -3   -1    0    0    0  501  0.00000000000E+00  0.00000000000E+00 -0.23197703040E+04  0.23197703062E+04  0.10100000352E+00 0.  1.
    10030    2    1    2    0    0  0.00000000000E+00  0.00000000000E+00 -0.12167073695E+04  0.34228332454E+04  0.31992828263E+04 0.  0.
        3    1    3    3  502    0  0.10988740273E+04  0.23949885531E+03  0.60865873731E+03  0.12788077644E+04  0.10100000352E+00 0. -1.
       -3    1    3    3    0  502 -0.10988740273E+04 -0.23949885531E+03 -0.18253661068E+04  0.21440254810E+04  0.10100000352E+00 0.  1.
</event>
<event>
 5   0  0.9727083E-08  0.3204329E+04  0.7818609E-02  0.8187675E-01
        2   -1    0    0  501    0  0.00000000000E+00  0.00000000000E+00  0.18596667084E+04  0.18596667084E+04  0.25500000920E-02 0. -1.
       -2   -1    0    0    0  501  0.00000000000E+00  0.00000000000E+00 -0.13803182368E+04  0.13803182368E+04  0.25500000920E-02 0.  1.
    10030    2    1    2    0    0  0.00000000000E+00  0.00000000000E+00  0.47934847162E+03  0.32399849452E+04  0.32043294911E+04 0.  0.
        4    1    3    3  502    0 -0.12603366690E+04  0.19539690836E+03 -0.74080738303E+03  0.14749324265E+04  0.12699999809E+01 0.  1.
       -4    1    3    3    0  502  0.12603366690E+04 -0.19539690836E+03  0.12201558547E+04  0.17650525187E+04  0.12699999809E+01 0. -1.
</event>
<event>
 5   0  0.3220147E-08  0.3197795E+04  0.7818609E-02  0.8189400E-01
        1   -1    0    0  501    0  0.00000000000E+00  0.00000000000E+00  0.22053072022E+04  0.22053072022E+04  0.50400001928E-02 0. -1.
       -1   -1    0    0    0  501  0.00000000000E+00  0.00000000000E+00 -0.11592370863E+04  0.11592370863E+04  0.50400001928E-02 0.  1.
    10030    2    1    2    0    0  0.00000000000E+00  0.00000000000E+00  0.10460701159E+04  0.33645442885E+04  0.31977954253E+04 0.  0.
        4    1    3    3  502    0  0.12597391588E+04  0.97723569366E+03  0.64990442675E+03  0.17217170865E+04  0.12699999809E+01 0. -1.
       -4    1    3    3    0  502 -0.12597391588E+04 -0.97723569366E+03  0.39616568911E+03  0.16428272019E+04  0.12699999809E+01 0.  1.
</event>
<event>
 5   0  0.9727083E-08  0.3199614E+04  0.7818609E-02  0.8188919E-01
       -2   -1    0    0    0  501  0.00000000000E+00  0.00000000000E+00  0.13241054126E+04  0.13241054126E+04  0.25500000920E-02 0.  1.
        2   -1    0    0  501    0  0.00000000000E+00  0.00000000000E+00 -0.19329138791E+04  0.19329138791E+04  0.25500000920E-02 0. -1.
    10030    2    1    2    0    0  0.00000000000E+00  0.00000000000E+00 -0.60880846647E+03  0.32570192917E+04  0.31996135576E+04 0.  0.
        4    1    3    3  502    0 -0.63276150251E+01 -0.10539611872E+04 -0.15295363808E+04  0.18575137619E+04  0.12699999809E+01 0. -1.
       -4    1    3    3    0  502  0.63276150251E+01  0.10539611872E+04  0.92072791429E+03  0.13995055298E+04  0.12699999809E+01 0.  1.
</event>
<event>
 5   0  0.3427667E-08  0.3198786E+04  0.7818609E-02  0.8189138E-01
       -1   -1    0    0    0  501  0.00000000000E+00  0.00000000000E+00  0.11558181856E+04  0.11558181856E+04  0.50400001928E-02 0.  1.
        1   -1    0    0  501    0  0.00000000000E+00  0.00000000000E+00 -0.22132007502E+04  0.22132007502E+04  0.50400001928E-02 0. -1.
    10030    2    1    2    0    0  0.00000000000E+00  0.00000000000E+00 -0.10573825646E+04  0.33690189358E+04  0.31987858169E+04 0.  0.
        2    1    3    3  502    0 -0.79837451488E+03 -0.13029814892E+03 -0.19818567159E+04  0.21405923283E+04  0.25500000920E-02 0. -1.
       -2    1    3    3    0  502  0.79837451488E+03  0.13029814892E+03  0.92447415134E+03  0.12284266075E+04  0.25500000920E-02 0.  1.
</event>
<event>
 5   0  0.9329929E-08  0.3201411E+04  0.7818609E-02  0.8188445E-01
       -2   -1    0    0    0  501  0.00000000000E+00  0.00000000000E+00  0.14287083851E+04  0.14287083851E+04  0.25500000920E-02 0.  1.
        2   -1    0    0  501    0  0.00000000000E+00  0.00000000000E+00 -0.17934083506E+04  0.17934083506E+04  0.25500000920E-02 0. -1.
    10030    2    1    2    0    0  0.00000000000E+00  0.00000000000E+00 -0.36469996558E+03  0.32221167357E+04  0.32014106568E+04 0.  0.
        1    1    3    3  502    0 -0.12351332956E+04 -0.10178607723E+04 -0.20826019757E+03  0.16139910532E+04  0.50400001928E-02 0.  1.
       -1    1    3    3    0  502  0.12351332956E+04  0.10178607723E+04 -0.15643976800E+03  0.16081256825E+04  0.50400001928E-02 0. -1.
</event>
<event>
 5   0  0.3270966E-08  0.3202216E+04  0.7818609E-02  0.8188232E-01
       -1   -1    0    0    0  501  0.00000000000E+00  0.00000000000E+00  0.22102233736E+04  0.22102233736E+04  0.50400001928E-02 0.  1.
        1   -1    0    0  501    0  0.00000000000E+00  0.00000000000E+00 -0.11598583513E+04  0.11598583513E+04  0.50400001928E-02 0. -1.
    10030    2    1    2    0    0  0.00000000000E+00  0.00000000000E+00  0.10503650223E+04  0.33700817249E+04  0.32022155069E+04 0.  0.
        3    1    3    3  502    0 -0.12255108762E+04  0.97269864254E+03  0.16747288272E+03  0.15735522659E+04  0.10100000352E+00 0. -1.
       -3    1    3    3    0  502  0.12255108762E+04 -0.97269864254E+03  0.88289213953E+03  0.17965294590E+04  0.10100000352E+00 0.  1.
</event>
<event>
 5   0  0.3343140E-08  0.3196109E+04  0.7818609E-02  0.8189846E-01
       -1   -1    0    0    0  501  0.00000000000E+00  0.00000000000E+00  0.85864162505E+03  0.85864162507E+03  0.50400001928E-02 0.  1.
        1   -1    0    0  501    0  0.00000000000E+00  0.00000000000E+00 -0.29742071012E+04  0.29742071012E+04  0.50400001928E-02 0. -1.
    10030    2    1    2    0    0  0.00000000000E+00  0.00000000000E+00 -0.21155654762E+04  0.38328487263E+04  0.31961088959E+04 0.  0.
        1    1    3    3  502    0  0.54082793699E+03 -0.88776567628E+03  0.39775802391E+03  0.11130292894E+04  0.50400001928E-02 0.  1.
       -1    1    3    3    0  502 -0.54082793699E+03  0.88776567628E+03 -0.25133235001E+04  0.27198194369E+04  0.50400001928E-02 0. -1.
</event>
<event>
 5   0  0.3270966E-08  0.3197443E+04  0.7818609E-02  0.8189493E-01
        1   -1    0    0  501    0  0.00000000000E+00  0.00000000000E+00  0.18770385375E+04  0.18770385375E+04  0.50400001928E-02 0. -1.
       -1   -1    0    0    0  501  0.00000000000E+00  0.00000000000E+00 -0.13616716011E+04  0.13616716011E+04  0.50400001928E-02 0.  1.
    10030    2    1    2    0    0  0.00000000000E+00  0.00000000000E+00  0.51536693637E+03  0.32387101386E+04  0.31974427724E+04 0.  0.
        3    1    3    3  502    0  0.18571663204E+03 -0.61660074286E+03  0.17398610561E+04  0.18552098664E+04  0.10100000352E+00 0. -1.
       -3    1    3    3    0  502 -0.18571663204E+03  0.61660074286E+03 -0.12244941198E+04  0.13835002722E+04  0.10100000352E+00 0.  1.
</event>
<event>
 5   0  0.9707721E-08  0.3200066E+04  0.7818609E-02  0.8188800E-01
       -2   -1    0    0    0  501  0.00000000000E+00  0.00000000000E+00  0.16744748912E+04  0.16744748912E+04  0.25500000920E-02 0. -1.
        2   -1    0    0  501    0  0.00000000000E+00  0.00000000000E+00 -0.15289001517E+04  0.15289001517E+04  0.25500000920E-02 0.  1.
    10030    2    1    2    0    0  0.00000000000E+00  0.00000000000E+00  0.14557473943E+03  0.32033750429E+04  0.32000655713E+04 0.  0.
        3    1    3    3  502    0  0.92943827786E+03  0.22180686197E+03  0.13574895116E+04  0.16600697518E+04  0.10100000352E+00 0. -1.
       -3    1    3    3    0  502 -0.92943827786E+03 -0.22180686197E+03 -0.12119147722E+04  0.15433052911E+04  0.10100000352E+00 0.  1.
</event>
<event>
 5   0  0.9353994E-08  0.3199981E+04  0.7818609E-02  0.8188822E-01
        2   -1    0    0  501    0  0.00000000000E+00  0.00000000000E+00  0.14422835921E+04  0.14422835921E+04  0.25500000920E-02 0.  1.
       -2   -1    0    0    0  501  0.00000000000E+00  0.00000000000E+00 -0.17749422931E+04  0.17749422931E+04  0.25500000920E-02 0. -1.
    10030    2    1    2    0    0  0.00000000000E+00  0.00000000000E+00 -0.33265870100E+03  0.32172258852E+04  0.31999813414E+04 0.  0.
        2    1    3    3  502    0  0.13416110517E+04  0.56562198311E+03 -0.83332116079E+03  0.16775793867E+04  0.25500000920E-02 0. -1.
       -2    1    3    3    0  502 -0.13416110517E+04 -0.56562198311E+03  0.50066245978E+03  0.15396464985E+04  0.25500000920E-02 0.  1.
</event>
<event>
 5   0  0.3220147E-08  0.3200789E+04  0.7818609E-02  0.8188609E-01
       -1   -1    0    0    0  501  0.00000000000E+00  0.00000000000E+00  0.97405009172E+03  0.97405009173E+03  0.50400001928E-02 0. -1.
        1   -1    0    0  501    0  0.00000000000E+00  0.00000000000E+00 -0.26294974287E+04  0.26294974287E+04  0.50400001928E-02 0.  1.
    10030    2    1    2    0    0  0.00000000000E+00  0.00000000000E+00 -0.16554473370E+04  0.36035475205E+04  0.32007887851E+04 0.  0.
        4    1    3    3  502    0 -0.10551138014E+03  0.15808418839E+03  0.96129856772E+03  0.97990806261E+03  0.12699999809E+01 0. -1.
       -4    1    3    3    0  502  0.10551138014E+03 -0.15808418839E+03 -0.26167459047E+04  0.26236394579E+04  0.12699999809E+01 0.  1.
</event>
<event>
 5   0  0.9329929E-08  0.3199408E+04  0.7818609E-02  0.8188973E-01
       -2   -1    0    0    0  501  0.00000000000E+00  0.00000000000E+00  0.12026292033E+04  0.12026292033E+04  0.25500000920E-02 0. -1.
        2   -1    0    0  501    0  0.00000000000E+00  0.00000000000E+00 -0.21278823512E+04  0.21278823512E+04  0.25500000920E-02 0.  1.
    10030    2    1    2    0    0  0.00000000000E+00  0.00000000000E+00 -0.92525314790E+03  0.33305115546E+04  0.31994083559E+04 0.  0.
        1    1    3    3  502    0  0.40963243600E+03 -0.90784577273E+03 -0.17657500716E+04  0.20272779767E+04  0.50400001928E-02 0.  1.
       -1    1    3    3    0  502 -0.40963243600E+03  0.90784577273E+03  0.84049692368E+03  0.13032335779E+04  0.50400001928E-02 0. -1.
</event>
<event>
 5   0  0.9157524E-08  0.3212626E+04  0.7818609E-02  0.8185491E-01
        2   -1    0    0  501    0  0.00000000000E+00  0.00000000000E+00  0.10154652291E+04  0.10154652291E+04  0.25500000920E-02 0.  1.
       -2   -1    0    0    0  501  0.00000000000E+00  0.00000000000E+00 -0.25409451682E+04  0.25409451682E+04  0.25500000920E-02 0. -1.
    10030    2    1    2    0    0  0.00000000000E+00  0.00000000000E+00 -0.15254799391E+04  0.35564103972E+04  0.32126260083E+04 0.  0.
        5    1    3    3  502    0 -0.14811127951E+04  0.59650063968E+03 -0.95673940340E+03  0.18614189483E+04  0.46999998093E+01 0.  1.
       -5    1    3    3    0  502  0.14811127951E+04 -0.59650063968E+03 -0.56874053570E+03  0.16949914489E+04  0.46999998093E+01 0. -1.
</event>
<event>
 5   0  0.3220147E-08  0.3202112E+04  0.7818609E-02  0.8188260E-01
       -1   -1    0    0    0  501  0.00000000000E+00  0.00000000000E+00  0.13174259112E+04  0.13174259112E+04  0.50400001928E-02 0.  1.
        1   -1    0    0  501    0  0.00000000000E+00  0.00000000000E+00 -0.19457492113E+04  0.19457492113E+04  0.50400001928E-02 0. -1.
    10030    2    1    2    0    0  0.00000000000E+00  0.00000000000E+00 -0.62832330007E+03  0.32631751226E+04  0.32021120704E+04 0.  0.
        4    1    3    3  502    0 -0.64599513696E+03  0.12874093804E+04 -0.10265242495E+04  0.17687527463E+04  0.12699999809E+01 0. -1.
       -4    1    3    3    0  502  0.64599513696E+03 -0.12874093804E+04  0.39820094941E+03  0.14944223763E+04  0.12699999809E+01 0.  1.
</event>
<event>
 5   0  0.9329929E-08  0.3198711E+04  0.7818609E-02  0.8189158E-01
        2   -1    0    0  501    0  0.00000000000E+00  0.00000000000E+00  0.18995379405E+04  0.18995379405E+04  0.25500000920E-02 0.  1.
       -2   -1    0    0    0  501  0.00000000000E+00  0.00000000000E+00 -0.13466102339E+04  0.13466102339E+04  0.25500000920E-02 0. -1.
    10030    2    1    2    0    0  0.00000000000E+00  0.00000000000E+00  0.55292770654E+03  0.32461481744E+04  0.31987105092E+04 0.  0.
        1    1    3    3  502    0  0.92866425226E+03  0.82803260450E+03 -0.74336831361E+03  0.14493625279E+04  0.50400001928E-02 0. -1.
       -1    1    3    3    0  502 -0.92866425226E+03 -0.82803260450E+03  0.12962960201E+04  0.17967856465E+04  0.50400001928E-02 0.  1.
</event>
<event>
 5   0  0.3343140E-08  0.3199472E+04  0.7818609E-02  0.8188957E-01
       -1   -1    0    0    0  501  0.00000000000E+00  0.00000000000E+00  0.12544221735E+04  0.12544221735E+04  0.50400001928E-02 0. -1.
        1   -1    0    0  501    0  0.00000000000E+00  0.00000000000E+00 -0.20401068272E+04  0.20401068272E+04  0.50400001928E-02 0.  1.
    10030    2    1    2    0    0  0.00000000000E+00  0.00000000000E+00 -0.78568465367E+03  0.32945290006E+04  0.31994719816E+04 0.  0.
        1    1    3    3  502    0 -0.79481690272E+03 -0.12263836299E+04 -0.10628700468E+04  0.18070538046E+04  0.50400001928E-02 0.  1.
       -1    1    3    3    0  502  0.79481690272E+03  0.12263836299E+04  0.27718539310E+03  0.14874751960E+04  0.50400001928E-02 0. -1.
</event>
<event>
 5   0  0.9329929E-08  0.3198391E+04  0.7818609E-02  0.8189242E-01
        2   -1    0    0  501    0  0.00000000000E+00  0.00000000000E+00  0.24804788846E+04  0.24804788846E+04  0.25500000920E-02 0.  1.
       -2   -1    0    0    0  501  0.00000000000E+00  0.00000000000E+00 -0.10310214280E+04  0.10310214280E+04  0.25500000920E-02 0. -1.
    10030    2    1    2    0    0  0.00000000000E+00  0.00000000000E+00  0.14494574567E+04  0.35115003126E+04  0.31983913967E+04 0.  0.
        1    1    3    3  502    0  0.26616944772E+03 -0.10431648512E+04 -0.57357084994E+03  0.12198453187E+04  0.50400001928E-02 0. -1.
       -1    1    3    3    0  502 -0.26616944772E+03  0.10431648512E+04  0.20230283066E+04  0.22916549939E+04  0.50400001928E-02 0.  1.
</event>
<event>
 5   0  0.3220147E-08  0.3200018E+04  0.7818609E-02  0.8188812E-01
        1   -1    0    0  501    0  0.00000000000E+00  0.00000000000E+00  0.17922756186E+04  0.17922756186E+04  0.50400001928E-02 0.  1.
       -1   -1    0    0    0  501  0.00000000000E+00  0.00000000000E+00 -0.14283676391E+04  0.14283676391E+04  0.50400001928E-02 0. -1.
    10030    2    1    2    0    0  0.00000000000E+00  0.00000000000E+00  0.36390797946E+03  0.32206432577E+04  0.32000178087E+04 0.  0.
        4    1    3    3  502    0 -0.15669205624E+04  0.31125832058E+03  0.27143762824E+03  0.16204325935E+04  0.12699999809E+01 0.  1.
       -4    1    3    3    0  502  0.15669205624E+04 -0.31125832058E+03  0.92470351217E+02  0.16002106642E+04  0.12699999809E+01 0. -1.
</event>
<event>
 5   0  0.9353994E-08  0.3201771E+04  0.7818609E-02  0.8188350E-01
        2   -1    0    0  501    0  0.00000000000E+00  0.00000000000E+00  0.17563056825E+04  0.17563056825E+04  0.25500000920E-02 0.  1.
       -2   -1    0    0    0  501  0.00000000000E+00  0.00000000000E+00 -0.14592191353E+04  0.14592191353E+04  0.25500000920E-02 0. -1.
    10030    2    1    2    0    0  0.00000000000E+00  0.00000000000E+00  0.29708654724E+03  0.32155248178E+04  0.32017712968E+04 0.  0.
        2    1    3    3  502    0 -0.94014382303E+03 -0.11723039989E+04 -0.40579495127E+03  0.15565463746E+04  0.25500000920E-02 0.  1.
       -2    1    3    3    0  502  0.94014382303E+03  0.11723039989E+04  0.70288149851E+03  0.16589784431E+04  0.25500000920E-02 0. -1.
</event>
<event>
 5   0  0.9353994E-08  0.3199539E+04  0.7818609E-02  0.8188939E-01
        2   -1    0    0  501    0  0.00000000000E+00  0.00000000000E+00  0.26539564066E+04  0.26539564066E+04  0.25500000920E-02 0. -1.
       -2   -1    0    0    0  501  0.00000000000E+00  0.00000000000E+00 -0.96431969605E+03  0.96431969606E+03  0.25500000920E-02 0.  1.
    10030    2    1    2    0    0  0.00000000000E+00  0.00000000000E+00  0.16896367105E+04  0.36182761027E+04  0.31995389889E+04 0.  0.
        2    1    3    3  502    0  0.11056364943E+04  0.24658270103E+03 -0.43263275616E+03  0.12126030627E+04  0.25500000920E-02 0.  1.
       -2    1    3    3    0  502 -0.11056364943E+04 -0.24658270103E+03  0.21222694667E+04  0.24056730400E+04  0.25500000920E-02 0. -1.
</event>
<event>
 5   0  0.3220147E-08  0.3191956E+04  0.7818609E-02  0.8190945E-01
       -1   -1    0    0    0  501  0.00000000000E+00  0.00000000000E+00  0.17746216186E+04  0.17746216186E+04  0.50400001928E-02 0.  1.
        1   -1    0    0  501    0  0.00000000000E+00  0.00000000000E+00 -0.14353179323E+04  0.14353179323E+04  0.50400001928E-02 0. -1.
    10030    2    1    2    0    0  0.00000000000E+00  0.00000000000E+00  0.33930368639E+03  0.32099395509E+04  0.31919562856E+04 0.  0.
        4    1    3    3  502    0 -0.10778937725E+04  0.11623575577E+04 -0.16362009301E+02  0.15853073535E+04  0.12699999809E+01 0. -1.
       -4    1    3    3    0  502  0.10778937725E+04 -0.11623575577E+04  0.35566569569E+03  0.16246321974E+04  0.12699999809E+01 0.  1.
</event>
<event>
 5   0  0.3283581E-08  0.3200244E+04  0.7818609E-02  0.8188753E-01
       -1   -1    0    0    0  501  0.00000000000E+00  0.00000000000E+00  0.17800512318E+04  0.17800512318E+04  0.50400001928E-02 0.  1.
        1   -1    0    0  501    0  0.00000000000E+00  0.00000000000E+00 -0.14383806120E+04  0.14383806120E+04  0.50400001928E-02 0. -1.
    10030    2    1    2    0    0  0.00000000000E+00  0.00000000000E+00  0.34167061980E+03  0.32184318439E+04  0.32002444783E+04 0.  0.
        5    1    3    3  502    0  0.45947747600E+02 -0.94003613137E+03  0.14722490932E+04  0.17473747755E+04  0.46999998093E+01 0.  1.
       -5    1    3    3    0  502 -0.45947747600E+02  0.94003613137E+03 -0.11305784734E+04  0.14710570683E+04  0.46999998093E+01 0. -1.
</event>
<event>
 5   0  0.3427667E-08  0.3198301E+04  0.7818609E-02  0.8189266E-01
        1   -1    0    0  501    0  0.00000000000E+00  0.00000000000E+00  0.18147464775E+04  0.18147464775E+04  0.50400001928E-02 0. -1.
       -1   -1    0    0    0  501  0.00000000000E+00  0.00000000000E+00 -0.14091677338E+04  0.14091677339E+04  0.50400001928E-02 0.  1.
    10030    2    1    2    0    0  0.00000000000E+00  0.00000000000E+00  0.40557874368E+03  0.32239142114E+04  0.31983009122E+04 0.  0.
        2    1    3    3  502    0  0.87921379626E+03 -0.19766121581E+02  0.15491032215E+04  0.17813277043E+04  0.25500000920E-02 0. -1.
       -2    1    3    3    0  502 -0.87921379626E+03  0.19766121581E+02 -0.11435244778E+04  0.14425865071E+04  0.25500000920E-02 0.  1.
</event>
<event>
 5   0  0.9707721E-08  0.3207167E+04  0.7818609E-02  0.8186927E-01
       -2   -1    0    0    0  501  0.00000000000E+00  0.00000000000E+00  0.15021351505E+04  0.15021351505E+04  0.25500000920E-02 0. -1.
        2   -1    0    0  501    0  0.00000000000E+00  0.00000000000E+00 -0.17118830750E+04  0.17118830750E+04  0.25500000920E-02 0.  1.
    10030    2    1    2    0    0  0.00000000000E+00  0.00000000000E+00 -0.20974792449E+03  0.32140182254E+04  0.32071668123E+04 0.  0.
        3    1    3    3  502    0 -0.14411941162E+04  0.12435429598E+03  0.58868490130E+03  0.15617472250E+04  0.10100000352E+00 0.  1.
       -3    1    3    3    0  502  0.14411941162E+04 -0.12435429598E+03 -0.79843282579E+03  0.16522710005E+04  0.10100000352E+00 0. -1.
</event>
<event>
 5   0  0.3427667E-08  0.3199694E+04  0.7818609E-02  0.8188898E-01
        1   -1    0    0  501    0  0.00000000000E+00  0.00000000000E+00  0.17177629667E+04  0.17177629667E+04  0.50400001928E-02 0. -1.
       -1   -1    0    0    0  501  0.00000000000E+00  0.00000000000E+00 -0.14900254274E+04  0.14900254274E+04  0.50400001928E-02 0.  1.
    10030    2    1    2    0    0  0.00000000000E+00  0.00000000000E+00  0.22773753935E+03  0.32077883941E+04  0.31996940470E+04 0.  0.
        2    1    3    3  502    0 -0.14903783404E+04 -0.56135139681E+03  0.26646258863E+03  0.16147276239E+04  0.25500000920E-02 0.  1.
       -2    1    3    3    0  502  0.14903783404E+04  0.56135139681E+03 -0.38725049277E+02  0.15930607702E+04  0.25500000920E-02 0. -1.
</event>
<event>
 5   0  0.3343140E-08  0.3200533E+04  0.7818609E-02  0.8188676E-01
        1   -1    0    0  501    0  0.00000000000E+00  0.00000000000E+00  0.97821243136E+03  0.97821243137E+03  0.50400001928E-02 0.  1.
       -1   -1    0    0    0  501  0.00000000000E+00  0.00000000000E+00 -0.26178907868E+04  0.26178907868E+04  0.50400001928E-02 0. -1.
    10030    2    1    2    0    0  0.00000000000E+00  0.00000000000E+00 -0.16396783554E+04  0.35961032182E+04  0.32005332753E+04 0.  0.
        1    1    3    3  502    0 -0.21346428223E+03 -0.41438328318E+02 -0.26012136438E+04  0.26102866807E+04  0.50400001928E-02 0. -1.
       -1    1    3    3    0  502  0.21346428223E+03  0.41438328318E+02  0.96153528833E+03  0.98581653748E+03  0.50400001928E-02 0.  1.
</event>
<event>
 5   0  0.9329929E-08  0.3199294E+04  0.7818609E-02  0.8189004E-01
        2   -1    0    0  501    0  0.00000000000E+00  0.00000000000E+00  0.13827905946E+04  0.13827905946E+04  0.25500000920E-02 0. -1.
       -2   -1    0    0    0  501  0.00000000000E+00  0.00000000000E+00 -0.18505117563E+04  0.18505117563E+04  0.25500000920E-02 0.  1.
    10030    2    1    2    0    0  0.00000000000E+00  0.00000000000E+00 -0.46772116172E+03  0.32333023510E+04  0.31992938295E+04 0.  0.
        1    1    3    3  502    0  0.15256426353E+04  0.40519760102E+03 -0.49565024537E+03  0.16545209918E+04  0.50400001928E-02 0. -1.
       -1    1    3    3    0  502 -0.15256426353E+04 -0.40519760102E+03  0.27929083656E+02  0.15787813592E+04  0.50400001928E-02 0.  1.
</event>
<event>
 5   0  0.3080500E-08  0.3200519E+04  0.7818609E-02  0.8188680E-01
       -3   -1    0    0    0  501  0.00000000000E+00  0.00000000000E+00  0.14687015511E+04  0.14687015546E+04  0.10100000352E+00 0.  1.
        3   -1    0    0  501    0  0.00000000000E+00  0.00000000000E+00 -0.17436017030E+04  0.17436017059E+04  0.10100000352E+00 0. -1.
    10030    2    1    2    0    0  0.00000000000E+00  0.00000000000E+00 -0.27490015185E+03  0.32123032605E+04  0.32005190429E+04 0.  0.
        2    1    3    3  502    0 -0.34304719350E+03 -0.15608618712E+04 -0.22057638353E+03  0.16132653530E+04  0.25500000920E-02 0. -1.
       -2    1    3    3    0  502  0.34304719350E+03  0.15608618712E+04 -0.54323768320E+02  0.15990379076E+04  0.25500000920E-02 0.  1.
</event>
<event>
 5   0  0.3283581E-08  0.3200931E+04  0.7818609E-02  0.8188571E-01
       -1   -1    0    0    0  501  0.00000000000E+00  0.00000000000E+00  0.21613747170E+04  0.21613747170E+04  0.50400001928E-02 0.  1.
        1   -1    0    0  501    0  0.00000000000E+00  0.00000000000E+00 -0.11851204697E+04  0.11851204698E+04  0.50400001928E-02 0. -1.
    10030    2    1    2    0    0  0.00000000000E+00  0.00000000000E+00  0.97625424723E+03  0.33464951867E+04  0.32009307521E+04 0.  0.
        5    1    3    3  502    0  0.91871150389E+03 -0.13065778204E+04  0.38206980489E+03  0.16423080874E+04  0.46999998093E+01 0.  1.
       -5    1    3    3    0  502 -0.91871150389E+03  0.13065778204E+04  0.59418444234E+03  0.17041870994E+04  0.46999998093E+01 0. -1.
</event>
<event>
 5   0  0.9353994E-08  0.3199758E+04  0.7818609E-02  0.8188881E-01
       -2   -1    0    0    0  501  0.00000000000E+00  0.00000000000E+00  0.14579801858E+04  0.14579801858E+04  0.25500000920E-02 0. -1.
        2   -1    0    0  501    0  0.00000000000E+00  0.00000000000E+00 -0.17555877113E+04  0.17555877113E+04  0.25500000920E-02 0.  1.
    10030    2    1    2    0    0  0.00000000000E+00  0.00000000000E+00 -0.29760752559E+03  0.32135678971E+04  0.31997575517E+04 0.  0.
        2    1    3    3  502    0 -0.91804968339E+03  0.47993106981E+03 -0.13732718359E+04  0.17201815568E+04  0.25500000920E-02 0.  1.
       -2    1    3    3    0  502  0.91804968339E+03 -0.47993106981E+03  0.10756643103E+04  0.14933863403E+04  0.25500000920E-02 0. -1.
</event>
<event>
 5   0  0.9353994E-08  0.3197017E+04  0.7818609E-02  0.8189605E-01
       -2   -1    0    0    0  501  0.00000000000E+00  0.00000000000E+00  0.12465906025E+04  0.12465906025E+04  0.25500000920E-02 0. -1.
        2   -1    0    0  501    0  0.00000000000E+00  0.00000000000E+00 -0.20497746364E+04  0.20497746364E+04  0.25500000920E-02 0.  1.
    10030    2    1    2    0    0  0.00000000000E+00  0.00000000000E+00 -0.80318403391E+03  0.32963652389E+04  0.31970172342E+04 0.  0.
        2    1    3    3  502    0  0.11223380151E+04  0.10318626922E+04  0.93803480567E+02  0.15274758029E+04  0.25500000920E-02 0.  1.
       -2    1    3    3    0  502 -0.11223380151E+04 -0.10318626922E+04 -0.89698751447E+03  0.17688894360E+04  0.25500000920E-02 0. -1.
</event>
<event>
 5   0  0.3270966E-08  0.3199578E+04  0.7818609E-02  0.8188929E-01
       -1   -1    0    0    0  501  0.00000000000E+00  0.00000000000E+00  0.17538967078E+04  0.17538967078E+04  0.50400001928E-02 0.  1.
        1   -1    0    0  501    0  0.00000000000E+00  0.00000000000E+00 -0.14592225106E+04  0.14592225106E+04  0.50400001928E-02 0. -1.
    10030    2    1    2    0    0  0.00000000000E+00  0.00000000000E+00  0.29467419719E+03  0.32131192184E+04  0.31995784455E+04 0.  0.
        3    1    3    3  502    0  0.88155461300E+03 -0.39672677401E+03 -0.11327318065E+04  0.14891648749E+04  0.10100000352E+00 0. -1.
       -3    1    3    3    0  502 -0.88155461300E+03  0.39672677401E+03  0.14274060037E+04  0.17239543435E+04  0.10100000352E+00 0.  1.
</event>
<event>
 5   0  0.9157524E-08  0.3200612E+04  0.7818609E-02  0.8188656E-01
        2   -1    0    0  501    0  0.00000000000E+00  0.00000000000E+00  0.24998180853E+04  0.24998180853E+04  0.25500000920E-02 0. -1.
       -2   -1    0    0    0  501  0.00000000000E+00  0.00000000000E+00 -0.10244664122E+04  0.10244664122E+04  0.25500000920E-02 0.  1.
    10030    2    1    2    0    0  0.00000000000E+00  0.00000000000E+00  0.14753516731E+04  0.35242844976E+04  0.32006122321E+04 0.  0.
        5    1    3    3  502    0 -0.16758542228E+03  0.55708237960E+03 -0.90390359810E+03  0.10749369545E+04  0.46999998093E+01 0.  1.
       -5    1    3    3    0  502  0.16758542228E+03 -0.55708237960E+03  0.23792552712E+04  0.24493475431E+04  0.46999998093E+01 0. -1.
</event>
<event>
 5   0  0.3220147E-08  0.3199404E+04  0.7818609E-02  0.8188975E-01
       -1   -1    0    0    0  501  0.00000000000E+00  0.00000000000E+00  0.86911568026E+03  0.86911568028E+03  0.50400001928E-02 0.  1.
        1   -1    0    0  501    0  0.00000000000E+00  0.00000000000E+00 -0.29444249236E+04  0.29444249236E+04  0.50400001928E-02 0. -1.
    10030    2    1    2    0    0  0.00000000000E+00  0.00000000000E+00 -0.20753092433E+04  0.38135406039E+04  0.31994036135E+04 0.  0.
        4    1    3    3  502    0  0.17835962688E+03 -0.23701946028E+03 -0.29113563227E+04  0.29264291605E+04  0.12699999809E+01 0. -1.
       -4    1    3    3    0  502 -0.17835962688E+03  0.23701946028E+03  0.83604707937E+03  0.88711144333E+03  0.12699999809E+01 0.  1.
</event>
<event>
 5   0  0.9353994E-08  0.3203111E+04  0.7818609E-02  0.8187996E-01
       -2   -1    0    0    0  501  0.00000000000E+00  0.00000000000E+00  0.33981005758E+04  0.33981005758E+04  0.25500000920E-02 0.  1.
        2   -1    0    0  501    0  0.00000000000E+00  0.00000000000E+00 -0.75482771674E+03  0.75482771675E+03  0.25500000920E-02 0. -1.
    10030    2    1    2    0    0  0.00000000000E+00  0.00000000000E+00  0.26432728590E+04  0.41529282925E+04  0.32031112993E+04 0.  0.
        2    1    3    3  502    0 -0.41023576086E+03  0.41119358066E+03  0.32567287339E+04  0.33081196451E+04  0.25500000920E-02 0.  1.
       -2    1    3    3    0  502  0.41023576086E+03 -0.41119358066E+03 -0.61345587488E+03  0.84480864738E+03  0.25500000920E-02 0. -1.
</event>
<event>
 5   0  0.3283581E-08  0.3200008E+04  0.7818609E-02  0.8188815E-01
        1   -1    0    0  501    0  0.00000000000E+00  0.00000000000E+00  0.22399423239E+04  0.22399423240E+04  0.50400001928E-02 0.  1.
       -1   -1    0    0    0  501  0.00000000000E+00  0.00000000000E+00 -0.11428926395E+04  0.11428926395E+04  0.50400001928E-02 0. -1.
    10030    2    1    2    0    0  0.00000000000E+00  0.00000000000E+00  0.10970496845E+04  0.33828349634E+04  0.32000084968E+04 0.  0.
        5    1    3    3  502    0  0.81772595863E+01 -0.23233350151E+03  0.22219855291E+04  0.22341189550E+04  0.46999998093E+01 0.  1.
       -5    1    3    3    0  502 -0.81772595863E+01  0.23233350151E+03 -0.11249358446E+04  0.11487160084E+04  0.46999998093E+01 0. -1.
</event>
<event>
 5   0  0.3080500E-08  0.3197771E+04  0.7818609E-02  0.8189406E-01
       -3   -1    0    0    0  501  0.00000000000E+00  0.00000000000E+00  0.11160650239E+04  0.11160650285E+04  0.10100000352E+00 0. -1.
        3   -1    0    0  501    0  0.00000000000E+00  0.00000000000E+00 -0.22905780598E+04  0.22905780620E+04  0.10100000352E+00 0.  1.
    10030    2    1    2    0    0  0.00000000000E+00  0.00000000000E+00 -0.11745130358E+04  0.34066430905E+04  0.31977705163E+04 0.  0.
        4    1    3    3  502    0  0.15412279967E+03 -0.15149576385E+04 -0.67995066359E+02  0.15242950586E+04  0.12699999809E+01 0.  1.
       -4    1    3    3    0  502 -0.15412279967E+03  0.15149576385E+04 -0.11065179695E+04  0.18823480320E+04  0.12699999809E+01 0. -1.
</event>
<event>
 5   0  0.3427667E-08  0.3200429E+04  0.7818609E-02  0.8188704E-01
       -1   -1    0    0    0  501  0.00000000000E+00  0.00000000000E+00  0.86200573738E+03  0.86200573739E+03  0.50400001928E-02 0.  1.
        1   -1    0    0  501    0  0.00000000000E+00  0.00000000000E+00 -0.29706135306E+04  0.29706135306E+04  0.50400001928E-02 0. -1.
    10030    2    1    2    0    0  0.00000000000E+00  0.00000000000E+00 -0.21086077933E+04  0.38326192680E+04  0.32004286631E+04 0.  0.
        2    1    3    3  502    0  0.21949055411E+03 -0.15479292045E+04 -0.14629154254E+04  0.21411171074E+04  0.25500000920E-02 0. -1.
       -2    1    3    3    0  502 -0.21949055411E+03  0.15479292045E+04 -0.64569236787E+03  0.16915021607E+04  0.25500000920E-02 0.  1.
</event>
<event>
 5   0  0.3283581E-08  0.3203657E+04  0.7818609E-02  0.8187852E-01
       -1   -1    0    0    0  501  0.00000000000E+00  0.00000000000E+00  0.11971989389E+04  0.11971989389E+04  0.50400001928E-02 0. -1.
        1   -1    0    0  501    0  0.00000000000E+00  0.00000000000E+00 -0.21432153170E+04  0.21432153170E+04  0.50400001928E-02 0.  1.
    10030    2    1    2    0    0  0.00000000000E+00  0.00000000000E+00 -0.94601637813E+03  0.33404142559E+04  0.32036573495E+04 0.  0.
        5    1    3    3  502    0  0.54469213517E+03 -0.93133448005E+02 -0.20406744418E+04  0.21141754016E+04  0.46999998093E+01 0.  1.
       -5    1    3    3    0  502 -0.54469213517E+03  0.93133448005E+02  0.10946580637E+04  0.12262388543E+04  0.46999998093E+01 0. -1.
</event>
<event>
 5   0  0.9353994E-08  0.3199239E+04  0.7818609E-02  0.8189018E-01
        2   -1    0    0  501    0  0.00000000000E+00  0.00000000000E+00  0.11581107052E+04  0.11581107052E+04  0.25500000920E-02 0.  1.
       -2   -1    0    0    0  501  0.00000000000E+00  0.00000000000E+00 -0.22094460247E+04  0.22094460247E+04  0.25500000920E-02 0. -1.
    10030    2    1    2    0    0  0.00000000000E+00  0.00000000000E+00 -0.10513353196E+04  0.33675567299E+04  0.31992393432E+04 0.  0.
        2    1    3    3  502    0 -0.48832697406E+03  0.78823353136E+03  0.84636948754E+03  0.12554348422E+04  0.25500000920E-02 0.  1.
       -2    1    3    3    0  502  0.48832697406E+03 -0.78823353136E+03 -0.18977048071E+04  0.21121218877E+04  0.25500000920E-02 0. -1.
</event>
<event>
 5   0  0.9353994E-08  0.3200272E+04  0.7818609E-02  0.8188745E-01
       -2   -1    0    0    0  501  0.00000000000E+00  0.00000000000E+00  0.10719478257E+04  0.10719478258E+04  0.25500000920E-02 0. -1.
        2   -1    0    0  501    0  0.00000000000E+00  0.00000000000E+00 -0.23885813877E+04  0.23885813877E+04  0.25500000920E-02 0.  1.
    10030    2    1    2    0    0  0.00000000000E+00  0.00000000000E+00 -0.13166335619E+04  0.34605292134E+04  0.32002716292E+04 0.  0.
        2    1    3    3  502    0  0.15928546372E+04  0.14482599976E+03 -0.70988310110E+03  0.17498841341E+04  0.25500000920E-02 0.  1.
       -2    1    3    3    0  502 -0.15928546372E+04 -0.14482599976E+03 -0.60675046081E+03  0.17106450793E+04  0.25500000920E-02 0. -1.
</event>
<event>
 5   0  0.3220147E-08  0.3190717E+04  0.7818609E-02  0.8191273E-01
       -1   -1    0    0    0  501  0.00000000000E+00  0.00000000000E+00  0.17152551872E+04  0.17152551872E+04  0.50400001928E-02 0. -1.
        1   -1    0    0  501    0  0.00000000000E+00  0.00000000000E+00 -0.14838426020E+04  0.14838426020E+04  0.50400001928E-02 0.  1.
    10030    2    1    2    0    0  0.00000000000E+00  0.00000000000E+00  0.23141258529E+03  0.31990977892E+04  0.31907169853E+04 0.  0.
        4    1    3    3  502    0 -0.16112714252E+03  0.15230038925E+04  0.56371807486E+03  0.16319566457E+04  0.12699999809E+01 0. -1.
       -4    1    3    3    0  502  0.16112714252E+03 -0.15230038925E+04 -0.33230548958E+03  0.15671411435E+04  0.12699999809E+01 0.  1.
</event>
<event>
 5   0  0.9727083E-08  0.3200154E+04  0.7818609E-02  0.8188776E-01
       -2   -1    0    0    0  501  0.00000000000E+00  0.00000000000E+00  0.15241121835E+04  0.15241121835E+04  0.25500000920E-02 0. -1.
        2   -1    0    0  501    0  0.00000000000E+00  0.00000000000E+00 -0.16798284935E+04  0.16798284935E+04  0.25500000920E-02 0.  1.
    10030    2    1    2    0    0  0.00000000000E+00  0.00000000000E+00 -0.15571630997E+03  0.32039406770E+04  0.32001544170E+04 0.  0.
        4    1    3    3  502    0 -0.84024133332E+03 -0.98432304663E+03  0.86418448679E+03  0.15561856568E+04  0.12699999809E+01 0. -1.
       -4    1    3    3    0  502  0.84024133332E+03  0.98432304663E+03 -0.10199007968E+04  0.16477550202E+04  0.12699999809E+01 0.  1.
</event>
<event>
 5   0  0.3080500E-08  0.3198904E+04  0.7818609E-02  0.8189107E-01
        3   -1    0    0  501    0  0.00000000000E+00  0.00000000000E+00  0.17006144429E+04  0.17006144459E+04  0.10100000352E+00 0. -1.
       -3   -1    0    0    0  501  0.00000000000E+00  0.00000000000E+00 -0.15043075770E+04  0.15043075804E+04  0.10100000352E+00 0.  1.
    10030    2    1    2    0    0  0.00000000000E+00  0.00000000000E+00  0.19630686593E+03  0.32049220262E+04  0.31989043138E+04 0.  0.
        5    1    3    3  502    0  0.14404426287E+04 -0.41575151703E+03  0.65642768098E+03  0.16366562500E+04  0.46999998093E+01 0. -1.
       -5    1    3    3    0  502 -0.14404426287E+04  0.41575151703E+03 -0.46012081505E+03  0.15682657762E+04  0.46999998093E+01 0.  1.
</event>
<event>
 5   0  0.3080500E-08  0.3199465E+04  0.7818609E-02  0.8188959E-01
       -3   -1    0    0    0  501  0.00000000000E+00  0.00000000000E+00  0.25642410667E+04  0.25642410687E+04  0.10100000352E+00 0.  1.
        3   -1    0    0  501    0  0.00000000000E+00  0.00000000000E+00 -0.99801212388E+03  0.99801212899E+03  0.10100000352E+00 0. -1.
    10030    2    1    2    0    0  0.00000000000E+00  0.00000000000E+00  0.15662289429E+04  0.35622531977E+04  0.31994647589E+04 0.  0.
        2    1    3    3  502    0 -0.81354794528E+03 -0.10032341474E+04  0.18339595561E+04  0.22431555156E+04  0.25500000920E-02 0.  1.
       -2    1    3    3    0  502  0.81354794528E+03  0.10032341474E+04 -0.26773061321E+03  0.13190976821E+04  0.25500000920E-02 0. -1.
</event>
<event>
 5   0  0.3270966E-08  0.3198805E+04  0.7818609E-02  0.8189133E-01
        1   -1    0    0  501    0  0.00000000000E+00  0.00000000000E+00  0.16218158106E+04  0.16218158106E+04  0.50400001928E-02 0.  1.
       -1   -1    0    0    0  501  0.00000000000E+00  0.00000000000E+00 -0.15772987410E+04  0.15772987410E+04  0.50400001928E-02 0. -1.
    10030    2    1    2    0    0  0.00000000000E+00  0.00000000000E+00  0.44517069638E+02  0.31991145517E+04  0.31988047995E+04 0.  0.
        3    1    3    3  502    0  0.84735085390E+03 -0.11114359707E+04 -0.75550220870E+03  0.15887343970E+04  0.10100000352E+00 0. -1.
       -3    1    3    3    0  502 -0.84735085390E+03  0.11114359707E+04  0.80001927834E+03  0.16103801547E+04  0.10100000352E+00 0.  1.
</event>
<event>
 5   0  0.9353994E-08  0.3197712E+04  0.7818609E-02  0.8189422E-01
        2   -1    0    0  501    0  0.00000000000E+00  0.00000000000E+00  0.12520450418E+04  0.12520450418E+04  0.25500000920E-02 0. -1.
       -2   -1    0    0    0  501  0.00000000000E+00  0.00000000000E+00 -0.20417322600E+04  0.20417322600E+04  0.25500000920E-02 0.  1.
    10030    2    1    2    0    0  0.00000000000E+00  0.00000000000E+00 -0.78968721819E+03  0.32937773018E+04  0.31977121527E+04 0.  0.
        2    1    3    3  502    0  0.15818917155E+04  0.16805390729E+03 -0.56002724575E+03  0.16864916339E+04  0.25500000920E-02 0.  1.
       -2    1    3    3    0  502 -0.15818917155E+04 -0.16805390729E+03 -0.22965997244E+03  0.16072856679E+04  0.25500000920E-02 0. -1.
</event>
<event>
 5   0  0.3343140E-08  0.3199595E+04  0.7818609E-02  0.8188924E-01
       -1   -1    0    0    0  501  0.00000000000E+00  0.00000000000E+00  0.12352438426E+04  0.12352438426E+04  0.50400001928E-02 0. -1.
        1   -1    0    0  501    0  0.00000000000E+00  0.00000000000E+00 -0.20719401444E+04  0.20719401444E+04  0.50400001928E-02 0.  1.
    10030    2    1    2    0    0  0.00000000000E+00  0.00000000000E+00 -0.83669630181E+03  0.33071839870E+04  0.31995945403E+04 0.  0.
        1    1    3    3  502    0 -0.93360661268E+03  0.50016121027E+03  0.82095548258E+03  0.13400561361E+04  0.50400001928E-02 0. -1.
       -1    1    3    3    0  502  0.93360661268E+03 -0.50016121027E+03 -0.16576517844E+04  0.19671278509E+04  0.50400001928E-02 0.  1.
</event>
<event>
 5   0  0.9353994E-08  0.3197814E+04  0.7818609E-02  0.8189395E-01
       -2   -1    0    0    0  501  0.00000000000E+00  0.00000000000E+00  0.15174734681E+04  0.15174734681E+04  0.25500000920E-02 0. -1.
        2   -1    0    0  501    0  0.00000000000E+00  0.00000000000E+00 -0.16847102176E+04  0.16847102176E+04  0.25500000920E-02 0.  1.
    10030    2    1    2    0    0  0.00000000000E+00  0.00000000000E+00 -0.16723674948E+03  0.32021836856E+04  0.31978136634E+04 0.  0.
        2    1    3    3  502    0 -0.27490052924E+03  0.72171215954E+03 -0.14855545672E+04  0.16743091454E+04  0.25500000920E-02 0.  1.
       -2    1    3    3    0  502  0.27490052924E+03 -0.72171215954E+03  0.13183178177E+04  0.15278745402E+04  0.25500000920E-02 0. -1.
</event>
<event>
 5   0  0.9353994E-08  0.3206080E+04  0.7818609E-02  0.8187213E-01
        2   -1    0    0  501    0  0.00000000000E+00  0.00000000000E+00  0.20490815199E+04  0.20490815199E+04  0.25500000920E-02 0.  1.
       -2   -1    0    0    0  501  0.00000000000E+00  0.00000000000E+00 -0.12540921302E+04  0.12540921302E+04  0.25500000920E-02 0. -1.
    10030    2    1    2    0    0  0.00000000000E+00  0.00000000000E+00  0.79498938971E+03  0.33031736501E+04  0.32060798544E+04 0.  0.
        2    1    3    3  502    0  0.78326575441E+02 -0.88788218644E+03 -0.97524733916E+03  0.13212029375E+04  0.25500000920E-02 0. -1.
       -2    1    3    3    0  502 -0.78326575441E+02  0.88788218644E+03  0.17702367289E+04  0.19819707126E+04  0.25500000920E-02 0.  1.
</event>
<event>
 5   0  0.3270966E-08  0.3201478E+04  0.7818609E-02  0.8188427E-01
       -1   -1    0    0    0  501  0.00000000000E+00  0.00000000000E+00  0.13862247129E+04  0.13862247129E+04  0.50400001928E-02 0. -1.
        1   -1    0    0  501    0  0.00000000000E+00  0.00000000000E+00 -0.18484486500E+04  0.18484486500E+04  0.50400001928E-02 0.  1.
    10030    2    1    2    0    0  0.00000000000E+00  0.00000000000E+00 -0.46222393714E+03  0.32346733629E+04  0.32014779082E+04 0.  0.
        3    1    3    3  502    0  0.73531321153E+03 -0.31759625223E+03 -0.16314161506E+04  0.18174354363E+04  0.10100000352E+00 0.  1.
       -3    1    3    3    0  502 -0.73531321153E+03  0.31759625223E+03  0.11691922134E+04  0.14172379266E+04  0.10100000352E+00 0. -1.
</event>
<event>
 5   0  0.3343140E-08  0.3202071E+04  0.7818609E-02  0.8188270E-01
       -1   -1    0    0    0  501  0.00000000000E+00  0.00000000000E+00  0.11419980803E+04  0.11419980803E+04  0.50400001928E-02 0. -1.
        1   -1    0    0  501    0  0.00000000000E+00  0.00000000000E+00 -0.22445880292E+04  0.22445880292E+04  0.50400001928E-02 0.  1.
    10030    2    1    2    0    0  0.00000000000E+00  0.00000000000E+00 -0.11025899489E+04  0.33865861095E+04  0.32020713424E+04 0.  0.
        1    1    3    3  502    0  0.11590768512E+04  0.87909016330E+03  0.15585634182E+03  0.14630618105E+04  0.50400001928E-02 0. -1.
       -1    1    3    3    0  502 -0.11590768512E+04 -0.87909016330E+03 -0.12584462907E+04  0.19235242990E+04  0.50400001928E-02 0.  1.
</event>
<event>
 5   0  0.3270966E-08  0.3201478E+04  0.7818609E-02  0.8188427E-01
       -1   -1    0    0    0  501  0.00000000000E+00  0.00000000000E+00  0.16983439294E+04  0.16983439294E+04  0.50400001928E-02 0. -1.
        1   -1    0    0  501    0  0.00000000000E+00  0.00000000000E+00 -0.15087438439E+04  0.15087438439E+04  0.50400001928E-02 0.  1.
    10030    2    1    2    0    0  0.00000000000E+00  0.00000000000E+00  0.18960008555E+03  0.32070877733E+04  0.32014783762E+04 0.  0.
        3    1    3    3  502    0 -0.68360604174E+03 -0.24350203375E+03 -0.13344989224E+04  0.15190450437E+04  0.10100000352E+00 0.  1.
       -3    1    3    3    0  502  0.68360604174E+03  0.24350203375E+03  0.15240990079E+04  0.16880427296E+04  0.10100000352E+00 0. -1.
</event>
<event>
 5   0  0.3080500E-08  0.3202041E+04  0.7818609E-02  0.8188278E-01
       -3   -1    0    0    0  501  0.00000000000E+00  0.00000000000E+00  0.18521366044E+04  0.18521366072E+04  0.10100000352E+00 0.  1.
        3   -1    0    0  501    0  0.00000000000E+00  0.00000000000E+00 -0.13839508280E+04  0.13839508317E+04  0.10100000352E+00 0. -1.
    10030    2    1    2    0    0  0.00000000000E+00  0.00000000000E+00  0.46818577641E+03  0.32360874389E+04  0.32020405980E+04 0.  0.
        3    1    3    3  502    0  0.53337572603E+03  0.11009659065E+04 -0.80967627744E+03  0.14670348588E+04  0.10100000352E+00 0. -1.
       -3    1    3    3    0  502 -0.53337572603E+03 -0.11009659065E+04  0.12778620539E+04  0.17690525801E+04  0.10100000352E+00 0.  1.
</event>
<event>
 5   0  0.3220147E-08  0.3200503E+04  0.7818609E-02  0.8188684E-01
        1   -1    0    0  501    0  0.00000000000E+00  0.00000000000E+00  0.23491962492E+04  0.23491962492E+04  0.50400001928E-02 0. -1.
       -1   -1    0    0    0  501  0.00000000000E+00  0.00000000000E+00 -0.10900768010E+04  0.10900768010E+04  0.50400001928E-02 0.  1.
    10030    2    1    2    0    0  0.00000000000E+00  0.00000000000E+00  0.12591194482E+04  0.34392730503E+04  0.32005026683E+04 0.  0.
        4    1    3    3  502    0 -0.25758037549E+03 -0.77383490070E+03  0.21090965470E+04  0.22612956376E+04  0.12699999809E+01 0. -1.
       -4    1    3    3    0  502  0.25758037549E+03  0.77383490070E+03 -0.84997709878E+03  0.11779774127E+04  0.12699999809E+01 0.  1.
</event>
<event>
 5   0  0.3220147E-08  0.3203269E+04  0.7818609E-02  0.8187954E-01
        1   -1    0    0  501    0  0.00000000000E+00  0.00000000000E+00  0.81329127238E+03  0.81329127240E+03  0.50400001928E-02 0. -1.
       -1   -1    0    0    0  501  0.00000000000E+00  0.00000000000E+00 -0.31541379410E+04  0.31541379410E+04  0.50400001928E-02 0.  1.
    10030    2    1    2    0    0  0.00000000000E+00  0.00000000000E+00 -0.23408466686E+04  0.39674292134E+04  0.32032688675E+04 0.  0.
        4    1    3    3  502    0  0.12090971324E+04  0.87452755522E+03 -0.18910427984E+04  0.24088916120E+04  0.12699999809E+01 0.  1.
       -4    1    3    3    0  502 -0.12090971324E+04 -0.87452755522E+03 -0.44980387026E+03  0.15585376014E+04  0.12699999809E+01 0. -1.
</event>
<event>
 5   0  0.9329929E-08  0.3199567E+04  0.7818609E-02  0.8188931E-01
       -2   -1    0    0    0  501  0.00000000000E+00  0.00000000000E+00  0.16753821368E+04  0.16753821368E+04  0.25500000920E-02 0. -1.
        2   -1    0    0  501    0  0.00000000000E+00  0.00000000000E+00 -0.15275965082E+04  0.15275965082E+04  0.25500000920E-02 0.  1.
    10030    2    1    2    0    0  0.00000000000E+00  0.00000000000E+00  0.14778562854E+03  0.32029786450E+04  0.31995674095E+04 0.  0.
        1    1    3    3  502    0 -0.23334994651E+03  0.37814220742E+03  0.16123670869E+04  0.16724746185E+04  0.50400001928E-02 0. -1.
       -1    1    3    3    0  502  0.23334994651E+03 -0.37814220742E+03 -0.14645814584E+04  0.15305040264E+04  0.50400001928E-02 0.  1.
</event>
<event>
 5   0  0.9707721E-08  0.3199652E+04  0.7818609E-02  0.8188909E-01
       -2   -1    0    0    0  501  0.00000000000E+00  0.00000000000E+00  0.93446657043E+03  0.93446657043E+03  0.25500000920E-02 0. -1.
        2   -1    0    0  501    0  0.00000000000E+00  0.00000000000E+00 -0.27389358641E+04  0.27389358641E+04  0.25500000920E-02 0.  1.
    10030    2    1    2    0    0  0.00000000000E+00  0.00000000000E+00 -0.18044692936E+04  0.36734024345E+04  0.31996524833E+04 0.  0.
        3    1    3    3  502    0  0.15269959502E+04  0.33499665926E+02 -0.14487477386E+04  0.21051624355E+04  0.10100000352E+00 0.  1.
       -3    1    3    3    0  502 -0.15269959502E+04 -0.33499665926E+02 -0.35572155501E+03  0.15682399990E+04  0.10100000352E+00 0. -1.
</event>
<event>
 5   0  0.3080500E-08  0.3202470E+04  0.7818609E-02  0.8188165E-01
       -3   -1    0    0    0  501  0.00000000000E+00  0.00000000000E+00  0.11040908039E+04  0.11040908086E+04  0.10100000352E+00 0.  1.
        3   -1    0    0  501    0  0.00000000000E+00  0.00000000000E+00 -0.23222309145E+04  0.23222309167E+04  0.10100000352E+00 0. -1.
    10030    2    1    2    0    0  0.00000000000E+00  0.00000000000E+00 -0.12181401106E+04  0.34263217253E+04  0.32024701772E+04 0.  0.
        4    1    3    3  502    0  0.14975272066E+04 -0.11987979746E+03 -0.16271015604E+02  0.15024064894E+04  0.12699999809E+01 0.  1.
       -4    1    3    3    0  502 -0.14975272066E+04  0.11987979746E+03 -0.12018690950E+04  0.19239152359E+04  0.12699999809E+01 0. -1.
</event>
<event>
 5   0  0.9353994E-08  0.3196365E+04  0.7818609E-02  0.8189778E-01
        2   -1    0    0  501    0  0.00000000000E+00  0.00000000000E+00  0.22076143937E+04  0.22076143938E+04  0.25500000920E-02 0.  1.
       -2   -1    0    0    0  501  0.00000000000E+00  0.00000000000E+00 -0.11569900145E+04  0.11569900145E+04  0.25500000920E-02 0. -1.
    10030    2    1    2    0    0  0.00000000000E+00  0.00000000000E+00  0.10506243792E+04  0.33646044083E+04  0.31963653167E+04 0.  0.
        2    1    3    3  502    0 -0.19371653746E+03 -0.98769536701E+03 -0.78144761828E+03  0.12742561026E+04  0.25500000920E-02 0. -1.
       -2    1    3    3    0  502  0.19371653746E+03  0.98769536701E+03  0.18320719975E+04  0.20903483057E+04  0.25500000920E-02 0.  1.
</event>
<event>
 5   0  0.9727083E-08  0.3201521E+04  0.7818609E-02  0.8188416E-01
        2   -1    0    0  501    0  0.00000000000E+00  0.00000000000E+00  0.25682461865E+04  0.25682461865E+04  0.25500000920E-02 0.  1.
       -2   -1    0    0    0  501  0.00000000000E+00  0.00000000000E+00 -0.99773696751E+03  0.99773696752E+03  0.25500000920E-02 0. -1.
    10030    2    1    2    0    0  0.00000000000E+00  0.00000000000E+00  0.15705092190E+04  0.35659831540E+04  0.32015209898E+04 0.  0.
        4    1    3    3  502    0  0.46065384646E+03 -0.45764495778E+03  0.24149638851E+04  0.25007385015E+04  0.12699999809E+01 0.  1.
       -4    1    3    3    0  502 -0.46065384646E+03  0.45764495778E+03 -0.84445466613E+03  0.10652446525E+04  0.12699999809E+01 0. -1.
</event>
<event>
 5   0  0.3220147E-08  0.3200464E+04  0.7818609E-02  0.8188695E-01
        1   -1    0    0  501    0  0.00000000000E+00  0.00000000000E+00  0.13507485784E+04  0.13507485784E+04  0.50400001928E-02 0. -1.
       -1   -1    0    0    0  501  0.00000000000E+00  0.00000000000E+00 -0.18957948005E+04  0.18957948005E+04  0.50400001928E-02 0.  1.
    10030    2    1    2    0    0  0.00000000000E+00  0.00000000000E+00 -0.54504622214E+03  0.32465433789E+04  0.32004637987E+04 0.  0.
        4    1    3    3  502    0 -0.20870093862E+03  0.14003948067E+04  0.48392034269E+03  0.14962761134E+04  0.12699999809E+01 0. -1.
       -4    1    3    3    0  502  0.20870093862E+03 -0.14003948067E+04 -0.10289665648E+04  0.17502672656E+04  0.12699999809E+01 0.  1.
</event>
<event>
 5   0  0.9157524E-08  0.3200314E+04  0.7818609E-02  0.8188734E-01
       -2   -1    0    0    0  501  0.00000000000E+00  0.00000000000E+00  0.13175372281E+04  0.13175372281E+04  0.25500000920E-02 0.  1.
        2   -1    0    0  501    0  0.00000000000E+00  0.00000000000E+00 -0.19434005175E+04  0.19434005175E+04  0.25500000920E-02 0. -1.
    10030    2    1    2    0    0  0.00000000000E+00  0.00000000000E+00 -0.62586328935E+03  0.32609377456E+04  0.32003140664E+04 0.  0.
        5    1    3    3  502    0 -0.14805988508E+04  0.56028531744E+03 -0.75301878189E+02  0.15848612106E+04  0.46999998093E+01 0.  1.
       -5    1    3    3    0  502  0.14805988508E+04 -0.56028531744E+03 -0.55056141116E+03  0.16760765351E+04  0.46999998093E+01 0. -1.
</event>
<event>
 5   0  0.9329929E-08  0.3196276E+04  0.7818609E-02  0.8189801E-01
       -2   -1    0    0    0  501  0.00000000000E+00  0.00000000000E+00  0.15436935466E+04  0.15436935466E+04  0.25500000920E-02 0. -1.
        2   -1    0    0  501    0  0.00000000000E+00  0.00000000000E+00 -0.16545022361E+04  0.16545022361E+04  0.25500000920E-02 0.  1.
    10030    2    1    2    0    0  0.00000000000E+00  0.00000000000E+00 -0.11080868950E+03  0.31981957827E+04  0.31962755981E+04 0.  0.
        1    1    3    3  502    0 -0.12069749464E+04 -0.17761208602E+03 -0.10883567638E+04  0.16348868523E+04  0.50400001928E-02 0.  1.
       -1    1    3    3    0  502  0.12069749464E+04  0.17761208602E+03  0.97754807433E+03  0.15633089304E+04  0.50400001928E-02 0. -1.
</event>
<event>
 5   0  0.3220147E-08  0.3199862E+04  0.7818609E-02  0.8188854E-01
        1   -1    0    0  501    0  0.00000000000E+00  0.00000000000E+00  0.13290544469E+04  0.13290544469E+04  0.50400001928E-02 0. -1.
       -1   -1    0    0    0  501  0.00000000000E+00  0.00000000000E+00 -0.19260153382E+04  0.19260153382E+04  0.50400001928E-02 0.  1.
    10030    2    1    2    0    0  0.00000000000E+00  0.00000000000E+00 -0.59696089125E+03  0.32550697851E+04  0.31998620283E+04 0.  0.
        4    1    3    3  502    0  0.22891907506E+03 -0.65001067822E+03 -0.17672967340E+04  0.18969072681E+04  0.12699999809E+01 0.  1.
       -4    1    3    3    0  502 -0.22891907506E+03  0.65001067822E+03  0.11703358428E+04  0.13581625170E+04  0.12699999809E+01 0. -1.
</event>
<event>
 5   0  0.3270966E-08  0.3204445E+04  0.7818609E-02  0.8187644E-01
        1   -1    0    0  501    0  0.00000000000E+00  0.00000000000E+00  0.14625276450E+04  0.14625276450E+04  0.50400001928E-02 0. -1.
       -1   -1    0    0    0  501  0.00000000000E+00  0.00000000000E+00 -0.17552603778E+04  0.17552603778E+04  0.50400001928E-02 0.  1.
    10030    2    1    2    0    0  0.00000000000E+00  0.00000000000E+00 -0.29273273280E+03  0.32177880227E+04  0.32044449295E+04 0.  0.
        3    1    3    3  502    0  0.14523215577E+04  0.59756000720E+03  0.17244729665E+03  0.15798904865E+04  0.10100000352E+00 0.  1.
       -3    1    3    3    0  502 -0.14523215577E+04 -0.59756000720E+03 -0.46518002945E+03  0.16378975362E+04  0.10100000352E+00 0. -1.
</event>
<event>
 5   0  0.9727083E-08  0.3200974E+04  0.7818609E-02  0.8188560E-01
       -2   -1    0    0    0  501  0.00000000000E+00  0.00000000000E+00  0.13950847410E+04  0.13950847410E+04  0.25500000920E-02 0. -1.
        2   -1    0    0  501    0  0.00000000000E+00  0.00000000000E+00 -0.18361317727E+04  0.18361317727E+04  0.25500000920E-02 0.  1.
    10030    2    1    2    0    0  0.00000000000E+00  0.00000000000E+00 -0.44104703175E+03  0.32312165137E+04  0.32009744882E+04 0.  0.
        4    1    3    3  502    0 -0.63505566328E+03 -0.64372991995E+03 -0.15535580047E+04  0.17975616797E+04  0.12699999809E+01 0.  1.
       -4    1    3    3    0  502  0.63505566328E+03  0.64372991995E+03  0.11125109730E+04  0.14336548340E+04  0.12699999809E+01 0. -1.
</event>
<event>
 5   0  0.9707721E-08  0.3200420E+04  0.7818609E-02  0.8188706E-01
       -2   -1    0    0    0  501  0.00000000000E+00  0.00000000000E+00  0.11482466136E+04  0.11482466136E+04  0.25500000920E-02 0. -1.
        2   -1    0    0  501    0  0.00000000000E+00  0.00000000000E+00 -0.22300714672E+04  0.22300714672E+04  0.25500000920E-02 0.  1.
    10030    2    1    2    0    0  0.00000000000E+00  0.00000000000E+00 -0.10818248536E+04  0.33783180808E+04  0.32004199789E+04 0.  0.
        3    1    3    3  502    0 -0.13467231163E+04  0.13063006419E+02  0.37132277751E+03  0.13970377266E+04  0.10100000352E+00 0.  1.
       -3    1    3    3    0  502  0.13467231163E+04 -0.13063006419E+02 -0.14531476311E+04  0.19812803542E+04  0.10100000352E+00 0. -1.
</event>
<event>
 5   0  0.9353994E-08  0.3204381E+04  0.7818609E-02  0.8187661E-01
       -2   -1    0    0    0  501  0.00000000000E+00  0.00000000000E+00  0.12073606001E+04  0.12073606001E+04  0.25500000920E-02 0.  1.
        2   -1    0    0  501    0  0.00000000000E+00  0.00000000000E+00 -0.21261376723E+04  0.21261376723E+04  0.25500000920E-02 0. -1.
    10030    2    1    2    0    0  0.00000000000E+00  0.00000000000E+00 -0.91877707224E+03  0.33334982724E+04  0.32043812856E+04 0.  0.
        2    1    3    3  502    0 -0.10605512642E+04 -0.10694793407E+04 -0.10277164377E+04  0.18233913789E+04  0.25500000920E-02 0. -1.
       -2    1    3    3    0  502  0.10605512642E+04  0.10694793407E+04  0.10893936543E+03  0.15101068935E+04  0.25500000920E-02 0.  1.
</event>
<event>
 5   0  0.9353994E-08  0.3191063E+04  0.7818609E-02  0.8191181E-01
       -2   -1    0    0    0  501  0.00000000000E+00  0.00000000000E+00  0.13294709595E+04  0.13294709595E+04  0.25500000920E-02 0.  1.
        2   -1    0    0  501    0  0.00000000000E+00  0.00000000000E+00 -0.19148379630E+04  0.19148379630E+04  0.25500000920E-02 0. -1.
    10030    2    1    2    0    0  0.00000000000E+00  0.00000000000E+00 -0.58536700344E+03  0.32443089225E+04  0.31910634365E+04 0.  0.
        2    1    3    3  502    0 -0.87128333370E+03  0.13082590587E+04 -0.57119799103E+03  0.16724065168E+04  0.25500000920E-02 0. -1.
       -2    1    3    3    0  502  0.87128333370E+03 -0.13082590587E+04 -0.14169012415E+02  0.15719024058E+04  0.25500000920E-02 0.  1.
</event>
<event>
 5   0  0.9727083E-08  0.3199200E+04  0.7818609E-02  0.8189028E-01
        2   -1    0    0  501    0  0.00000000000E+00  0.00000000000E+00  0.11833205892E+04  0.11833205892E+04  0.25500000920E-02 0. -1.
       -2   -1    0    0    0  501  0.00000000000E+00  0.00000000000E+00 -0.21623224968E+04  0.21623224968E+04  0.25500000920E-02 0.  1.
    10030    2    1    2    0    0  0.00000000000E+00  0.00000000000E+00 -0.97900190761E+03  0.33456430861E+04  0.31992003570E+04 0.  0.
        4    1    3    3  502    0 -0.12015627775E+04  0.97430517042E+03 -0.91519095887E+03  0.17973869304E+04  0.12699999809E+01 0.  1.
       -4    1    3    3    0  502  0.12015627775E+04 -0.97430517042E+03 -0.63810948733E+02  0.15482561557E+04  0.12699999809E+01 0. -1.
</event>
<event>
 5   0  0.9157524E-08  0.3197223E+04  0.7818609E-02  0.8189551E-01
       -2   -1    0    0    0  501  0.00000000000E+00  0.00000000000E+00  0.10361146923E+04  0.10361146923E+04  0.25500000920E-02 0. -1.
        2   -1    0    0  501    0  0.00000000000E+00  0.00000000000E+00 -0.24664817341E+04  0.24664817341E+04  0.25500000920E-02 0.  1.
    10030    2    1    2    0    0  0.00000000000E+00  0.00000000000E+00 -0.14303670419E+04  0.35025964264E+04  0.31972225215E+04 0.  0.
        5    1    3    3  502    0 -0.70672298743E+03 -0.13542690803E+04 -0.19897314000E+03  0.15404916498E+04  0.46999998093E+01 0. -1.
       -5    1    3    3    0  502  0.70672298743E+03  0.13542690803E+04 -0.12313939019E+04  0.19621047766E+04  0.46999998093E+01 0.  1.
</event>
<event>
 5   0  0.9157524E-08  0.3200411E+04  0.7818609E-02  0.8188709E-01
       -2   -1    0    0    0  501  0.00000000000E+00  0.00000000000E+00  0.17716429870E+04  0.17716429870E+04  0.25500000920E-02 0.  1.
        2   -1    0    0  501    0  0.00000000000E+00  0.00000000000E+00 -0.14453578426E+04  0.14453578426E+04  0.25500000920E-02 0. -1.
    10030    2    1    2    0    0  0.00000000000E+00  0.00000000000E+00  0.32628514441E+03  0.32170008296E+04  0.32004112770E+04 0.  0.
        5    1    3    3  502    0  0.61722064523E+03 -0.79019370506E+03 -0.10904259549E+04  0.14813569014E+04  0.46999998093E+01 0. -1.
       -5    1    3    3    0  502 -0.61722064523E+03  0.79019370506E+03  0.14167110993E+04  0.17356439281E+04  0.46999998093E+01 0.  1.
</event>
<event>
 5   0  0.9707721E-08  0.3199490E+04  0.7818609E-02  0.8188952E-01
        2   -1    0    0  501    0  0.00000000000E+00  0.00000000000E+00  0.20168702785E+04  0.20168702786E+04  0.25500000920E-02 0. -1.
       -2   -1    0    0    0  501  0.00000000000E+00  0.00000000000E+00 -0.12688885757E+04  0.12688885757E+04  0.25500000920E-02 0.  1.
    10030    2    1    2    0    0  0.00000000000E+00  0.00000000000E+00  0.74798170287E+03  0.32857588542E+04  0.31994897437E+04 0.  0.
        3    1    3    3  502    0 -0.37302675929E+03 -0.37476821890E+03 -0.11765482171E+04  0.12899092597E+04  0.10100000352E+00 0.  1.
       -3    1    3    3    0  502  0.37302675929E+03  0.37476821890E+03  0.19245299199E+04  0.19958495945E+04  0.10100000352E+00 0. -1.
</event>
<event>
 5   0  0.3343140E-08  0.3200163E+04  0.7818609E-02  0.8188774E-01
        1   -1    0    0  501    0  0.00000000000E+00  0.00000000000E+00  0.21839442029E+04  0.21839442029E+04  0.50400001928E-02 0. -1.
       -1   -1    0    0    0  501  0.00000000000E+00  0.00000000000E+00 -0.11723102463E+04  0.11723102463E+04  0.50400001928E-02 0.  1.
    10030    2    1    2    0    0  0.00000000000E+00  0.00000000000E+00  0.10116339566E+04  0.33562544493E+04  0.32001625999E+04 0.  0.
        1    1    3    3  502    0  0.45203706893E+03 -0.12861517561E+04 -0.37273975077E+03  0.14133148174E+04  0.50400001928E-02 0.  1.
       -1    1    3    3    0  502 -0.45203706893E+03  0.12861517561E+04  0.13843737073E+04  0.19429396318E+04  0.50400001928E-02 0. -1.
</event>
<event>
 5   0  0.3343140E-08  0.3199927E+04  0.7818609E-02  0.8188836E-01
       -1   -1    0    0    0  501  0.00000000000E+00  0.00000000000E+00  0.12559646619E+04  0.12559646619E+04  0.50400001928E-02 0.  1.
        1   -1    0    0  501    0  0.00000000000E+00  0.00000000000E+00 -0.20381813248E+04  0.20381813248E+04  0.50400001928E-02 0. -1.
    10030    2    1    2    0    0  0.00000000000E+00  0.00000000000E+00 -0.78221666295E+03  0.32941459867E+04  0.31999273232E+04 0.  0.
        1    1    3    3  502    0 -0.15842793902E+04 -0.45425644281E+02 -0.16585280315E+03  0.15935845844E+04  0.50400001928E-02 0.  1.
       -1    1    3    3    0  502  0.15842793902E+04  0.45425644281E+02 -0.61636385981E+03  0.17005614023E+04  0.50400001928E-02 0. -1.
</event>
<event>
 5   0  0.9353994E-08  0.3200865E+04  0.7818609E-02  0.8188589E-01
       -2   -1    0    0    0  501  0.00000000000E+00  0.00000000000E+00  0.10783901450E+04  0.10783901450E+04  0.25500000920E-02 0. -1.
        2   -1    0    0  501    0  0.00000000000E+00  0.00000000000E+00 -0.23751923544E+04  0.23751923544E+04  0.25500000920E-02 0.  1.
    10030    2    1    2    0    0  0.00000000000E+00  0.00000000000E+00 -0.12968022094E+04  0.34535824994E+04  0.32008649002E+04 0.  0.
        2    1    3    3  502    0  0.64793810517E+03  0.13050205442E+04  0.66059335384E+02  0.14585150821E+04  0.25500000920E-02 0. -1.
       -2    1    3    3    0  502 -0.64793810517E+03 -0.13050205442E+04 -0.13628615448E+04  0.19950674172E+04  0.25500000920E-02 0.  1.
</event>
<event>
 5   0  0.9727083E-08  0.3201019E+04  0.7818609E-02  0.8188548E-01
        2   -1    0    0  501    0  0.00000000000E+00  0.00000000000E+00  0.21822840819E+04  0.21822840819E+04  0.25500000920E-02 0.  1.
       -2   -1    0    0    0  501  0.00000000000E+00  0.00000000000E+00 -0.11738303020E+04  0.11738303020E+04  0.25500000920E-02 0. -1.
    10030    2    1    2    0    0  0.00000000000E+00  0.00000000000E+00  0.10084537799E+04  0.33561143838E+04  0.32010193269E+04 0.  0.
        4    1    3    3  502    0  0.12969674333E+04  0.17584285932E+03  0.14700463756E+04  0.19682690857E+04  0.12699999809E+01 0.  1.
       -4    1    3    3    0  502 -0.12969674333E+04 -0.17584285932E+03 -0.46159259575E+03  0.13878452982E+04  0.12699999809E+01 0. -1.
</event>
<event>
 5   0  0.3283581E-08  0.3202097E+04  0.7818609E-02  0.8188264E-01
       -1   -1    0    0    0  501  0.00000000000E+00  0.00000000000E+00  0.25723088537E+04  0.25723088537E+04  0.50400001928E-02 0.  1.
        1   -1    0    0  501    0  0.00000000000E+00  0.00000000000E+00 -0.99651965256E+03  0.99651965257E+03  0.50400001928E-02 0. -1.
    10030    2    1    2    0    0  0.00000000000E+00  0.00000000000E+00  0.15757892012E+04  0.35688285063E+04  0.32020970162E+04 0.  0.
        5    1    3    3  502    0  0.87202050138E+03 -0.69161160896E+03 -0.49482455082E+03  0.12180393255E+04  0.46999998093E+01 0. -1.
       -5    1    3    3    0  502 -0.87202050138E+03  0.69161160896E+03  0.20706137520E+04  0.23507891808E+04  0.46999998093E+01 0.  1.
</event>
<event>
 5   0  0.9329929E-08  0.3199005E+04  0.7818609E-02  0.8189080E-01
        2   -1    0    0  501    0  0.00000000000E+00  0.00000000000E+00  0.29526237662E+04  0.29526237662E+04  0.25500000920E-02 0.  1.
       -2   -1    0    0    0  501  0.00000000000E+00  0.00000000000E+00 -0.86648661294E+03  0.86648661295E+03  0.25500000920E-02 0. -1.
    10030    2    1    2    0    0  0.00000000000E+00  0.00000000000E+00  0.20861371532E+04  0.38191103791E+04  0.31990054495E+04 0.  0.
        1    1    3    3  502    0 -0.44134939821E+03  0.11635632818E+04 -0.15657448442E+03  0.12542664674E+04  0.50400001928E-02 0. -1.
       -1    1    3    3    0  502  0.44134939821E+03 -0.11635632818E+04  0.22427116376E+04  0.25648439117E+04  0.50400001928E-02 0.  1.
</event>
<event>
 5   0  0.3283581E-08  0.3201193E+04  0.7818609E-02  0.8188502E-01
        1   -1    0    0  501    0  0.00000000000E+00  0.00000000000E+00  0.18509759484E+04  0.18509759484E+04  0.50400001928E-02 0.  1.
       -1   -1    0    0    0  501  0.00000000000E+00  0.00000000000E+00 -0.13840851723E+04  0.13840851723E+04  0.50400001928E-02 0. -1.
    10030    2    1    2    0    0  0.00000000000E+00  0.00000000000E+00  0.46689077612E+03  0.32350611207E+04  0.32011925056E+04 0.  0.
        5    1    3    3  502    0  0.13152024673E+04  0.83207164310E+03 -0.14438927652E+03  0.15630006726E+04  0.46999998093E+01 0.  1.
       -5    1    3    3    0  502 -0.13152024673E+04 -0.83207164310E+03  0.61128005264E+03  0.16720604481E+04  0.46999998093E+01 0. -1.
</event>
<event>
 5   0  0.3220147E-08  0.3201942E+04  0.7818609E-02  0.8188305E-01
       -1   -1    0    0    0  501  0.00000000000E+00  0.00000000000E+00  0.11822064069E+04  0.11822064069E+04  0.50400001928E-02 0.  1.
        1   -1    0    0  501    0  0.00000000000E+00  0.00000000000E+00 -0.21680710717E+04  0.21680710717E+04  0.50400001928E-02 0. -1.
    10030    2    1    2    0    0  0.00000000000E+00  0.00000000000E+00 -0.98586466475E+03  0.33502774786E+04  0.32019416058E+04 0.  0.
        4    1    3    3  502    0  0.98800086071E+03 -0.11680507547E+04  0.74950582090E+00  0.15298661513E+04  0.12699999809E+01 0. -1.
       -4    1    3    3    0  502 -0.98800086071E+03  0.11680507547E+04 -0.98661417057E+03  0.18204113273E+04  0.12699999809E+01 0.  1.
</event>
<event>
 5   0  0.3343140E-08  0.3197966E+04  0.7818609E-02  0.8189355E-01
       -1   -1    0    0    0  501  0.00000000000E+00  0.00000000000E+00  0.28296524318E+04  0.28296524318E+04  0.50400001928E-02 0. -1.
        1   -1    0    0  501    0  0.00000000000E+00  0.00000000000E+00 -0.90355502419E+03  0.90355502420E+03  0.50400001928E-02 0.  1.
    10030    2    1    2    0    0  0.00000000000E+00  0.00000000000E+00  0.19260974077E+04  0.37332074560E+04  0.31979660233E+04 0.  0.
        1    1    3    3  502    0  0.13854349243E+02  0.11239125808E+04  0.22906588122E+04  0.25515660341E+04  0.50400001928E-02 0. -1.
       -1    1    3    3    0  502 -0.13854349243E+02 -0.11239125808E+04 -0.36456140455E+03  0.11816414220E+04  0.50400001928E-02 0.  1.
</event>
<event>
 5   0  0.3343140E-08  0.3200483E+04  0.7818609E-02  0.8188690E-01
        1   -1    0    0  501    0  0.00000000000E+00  0.00000000000E+00  0.19256416669E+04  0.19256416669E+04  0.50400001928E-02 0.  1.
       -1   -1    0    0    0  501  0.00000000000E+00  0.00000000000E+00 -0.13298281740E+04  0.13298281740E+04  0.50400001928E-02 0. -1.
    10030    2    1    2    0    0  0.00000000000E+00  0.00000000000E+00  0.59581349289E+03  0.32554698409E+04  0.32004828021E+04 0.  0.
        1    1    3    3  502    0  0.41149584965E+03  0.13966153838E+04  0.97332492880E+03  0.17513494173E+04  0.50400001928E-02 0.  1.
       -1    1    3    3    0  502 -0.41149584965E+03 -0.13966153838E+04 -0.37751143590E+03  0.15041204236E+04  0.50400001928E-02 0. -1.
</event>
<event>
 5   0  0.3343140E-08  0.3200081E+04  0.7818609E-02  0.8188796E-01
        1   -1    0    0  501    0  0.00000000000E+00  0.00000000000E+00  0.16617568348E+04  0.16617568348E+04  0.50400001928E-02 0. -1.
       -1   -1    0    0    0  501  0.00000000000E+00  0.00000000000E+00 -0.15406166917E+04  0.15406166917E+04  0.50400001928E-02 0.  1.
    10030    2    1    2    0    0  0.00000000000E+00  0.00000000000E+00  0.12114014313E+03  0.32023735265E+04  0.32000814472E+04 0.  0.
        1    1    3    3  502    0  0.10607441118E+03 -0.10716584362E+04 -0.11236738141E+04  0.15563889055E+04  0.50400001928E-02 0.  1.
       -1    1    3    3    0  502 -0.10607441118E+03  0.10716584362E+04  0.12448139572E+04  0.16459846210E+04  0.50400001928E-02 0. -1.
</event>
<event>
 5   0  0.3427667E-08  0.3202828E+04  0.7818609E-02  0.8188071E-01
       -1   -1    0    0    0  501  0.00000000000E+00  0.00000000000E+00  0.16149277342E+04  0.16149277342E+04  0.50400001928E-02 0. -1.
        1   -1    0    0  501    0  0.00000000000E+00  0.00000000000E+00 -0.15880128535E+04  0.15880128535E+04  0.50400001928E-02 0.  1.
    10030    2    1    2    0    0  0.00000000000E+00  0.00000000000E+00  0.26914880771E+02  0.32029405877E+04  0.32028275004E+04 0.  0.
        2    1    3    3  502    0 -0.83172616147E+03  0.93480693256E+03  0.10129393716E+04  0.16098691187E+04  0.25500000920E-02 0. -1.
       -2    1    3    3    0  502  0.83172616147E+03 -0.93480693256E+03 -0.98602449083E+03  0.15930714690E+04  0.25500000920E-02 0.  1.
</event>
<event>
 5   0  0.3283581E-08  0.3198310E+04  0.7818609E-02  0.8189264E-01
        1   -1    0    0  501    0  0.00000000000E+00  0.00000000000E+00  0.12388792050E+04  0.12388792050E+04  0.50400001928E-02 0. -1.
       -1   -1    0    0    0  501  0.00000000000E+00  0.00000000000E+00 -0.20642018174E+04  0.20642018175E+04  0.50400001928E-02 0.  1.
    10030    2    1    2    0    0  0.00000000000E+00  0.00000000000E+00 -0.82532261246E+03  0.33030810225E+04  0.31983099953E+04 0.  0.
        5    1    3    3  502    0 -0.69773477760E+03  0.71536676092E+03 -0.17020347240E+04  0.19737091260E+04  0.46999998093E+01 0.  1.
       -5    1    3    3    0  502  0.69773477760E+03 -0.71536676092E+03  0.87671211153E+03  0.13293718964E+04  0.46999998093E+01 0. -1.
</event>
<event>
 5   0  0.9707721E-08  0.3201102E+04  0.7818609E-02  0.8188526E-01
       -2   -1    0    0    0  501  0.00000000000E+00  0.00000000000E+00  0.13414424231E+04  0.13414424231E+04  0.25500000920E-02 0.  1.
        2   -1    0    0  501    0  0.00000000000E+00  0.00000000000E+00 -0.19097082361E+04  0.19097082361E+04  0.25500000920E-02 0. -1.
    10030    2    1    2    0    0  0.00000000000E+00  0.00000000000E+00 -0.56826581294E+03  0.32511506592E+04  0.32011020875E+04 0.  0.
        3    1    3    3  502    0 -0.28101002626E+03 -0.83066696083E+03 -0.16440179848E+04  0.18632684668E+04  0.10100000352E+00 0. -1.
       -3    1    3    3    0  502  0.28101002626E+03  0.83066696083E+03  0.10757521719E+04  0.13878821925E+04  0.10100000352E+00 0.  1.
</event>
<event>
 5   0  0.3270966E-08  0.3200297E+04  0.7818609E-02  0.8188739E-01
       -1   -1    0    0    0  501  0.00000000000E+00  0.00000000000E+00  0.20119417063E+04  0.20119417063E+04  0.50400001928E-02 0.  1.
        1   -1    0    0  501    0  0.00000000000E+00  0.00000000000E+00 -0.12726388293E+04  0.12726388293E+04  0.50400001928E-02 0. -1.
    10030    2    1    2    0    0  0.00000000000E+00  0.00000000000E+00  0.73930287700E+03  0.32845805356E+04  0.32002969473E+04 0.  0.
        3    1    3    3  502    0  0.24515939085E+03 -0.12924626538E+03 -0.12478190162E+04  0.12782253445E+04  0.10100000352E+00 0. -1.
       -3    1    3    3    0  502 -0.24515939085E+03  0.12924626538E+03  0.19871218932E+04  0.20063551910E+04  0.10100000352E+00 0.  1.
</event>
<event>
 5   0  0.3427667E-08  0.3200015E+04  0.7818609E-02  0.8188813E-01
        1   -1    0    0  501    0  0.00000000000E+00  0.00000000000E+00  0.20088969701E+04  0.20088969701E+04  0.50400001928E-02 0.  1.
       -1   -1    0    0    0  501  0.00000000000E+00  0.00000000000E+00 -0.12743434329E+04  0.12743434329E+04  0.50400001928E-02 0. -1.
    10030    2    1    2    0    0  0.00000000000E+00  0.00000000000E+00  0.73455353720E+03  0.32832404030E+04  0.32000154132E+04 0.  0.
        2    1    3    3  502    0  0.11508929407E+04 -0.59564358997E+03 -0.59557490092E+03  0.14262031096E+04  0.25500000920E-02 0. -1.
       -2    1    3    3    0  502 -0.11508929407E+04  0.59564358997E+03  0.13301284381E+04  0.18570372934E+04  0.25500000920E-02 0.  1.
</event>
<event>
 5   0  0.9157524E-08  0.3200286E+04  0.7818609E-02  0.8188742E-01
        2   -1    0    0  501    0  0.00000000000E+00  0.00000000000E+00  0.11897490735E+04  0.11897490735E+04  0.25500000920E-02 0. -1.
       -2   -1    0    0    0  501  0.00000000000E+00  0.00000000000E+00 -0.21520989776E+04  0.21520989776E+04  0.25500000920E-02 0.  1.
    10030    2    1    2    0    0  0.00000000000E+00  0.00000000000E+00 -0.96234990402E+03  0.33418480511E+04  0.32002860902E+04 0.  0.
        5    1    3    3  502    0  0.11301634260E+04 -0.22955163641E+03  0.67715910406E+03  0.13373592881E+04  0.46999998093E+01 0. -1.
       -5    1    3    3    0  502 -0.11301634260E+04  0.22955163641E+03 -0.16395090081E+04  0.20044887630E+04  0.46999998093E+01 0.  1.
</event>
<event>
 5   0  0.9707721E-08  0.3191225E+04  0.7818609E-02  0.8191139E-01
        2   -1    0    0  501    0  0.00000000000E+00  0.00000000000E+00  0.18476338022E+04  0.18476338022E+04  0.25500000920E-02 0.  1.
       -2   -1    0    0    0  501  0.00000000000E+00  0.00000000000E+00 -0.13779671326E+04  0.13779671326E+04  0.25500000920E-02 0. -1.
    10030    2    1    2    0    0  0.00000000000E+00  0.00000000000E+00  0.46966666967E+03  0.32256009348E+04  0.31912246254E+04 0.  0.
        3    1    3    3  502    0 -0.15403356357E+04  0.36806304551E+02 -0.18435090450E+03  0.15517647504E+04  0.10100000352E+00 0. -1.
       -3    1    3    3    0  502  0.15403356357E+04 -0.36806304551E+02  0.65401757416E+03  0.16738361844E+04  0.10100000352E+00 0.  1.
</event>
<event>
 5   0  0.3343140E-08  0.3198337E+04  0.7818609E-02  0.8189256E-01
        1   -1    0    0  501    0  0.00000000000E+00  0.00000000000E+00  0.15295575127E+04  0.15295575127E+04  0.50400001928E-02 0.  1.
       -1   -1    0    0    0  501  0.00000000000E+00  0.00000000000E+00 -0.16719477984E+04  0.16719477984E+04  0.50400001928E-02 0. -1.
    10030    2    1    2    0    0  0.00000000000E+00  0.00000000000E+00 -0.14239028570E+03  0.32015053110E+04  0.31983372654E+04 0.  0.
        1    1    3    3  502    0 -0.23640030141E+03  0.15095680264E+04 -0.54353072990E+03  0.16217602731E+04  0.50400001928E-02 0. -1.
       -1    1    3    3    0  502  0.23640030141E+03 -0.15095680264E+04  0.40114044420E+03  0.15797450380E+04  0.50400001928E-02 0.  1.
</event>
<event>
 5   0  0.9727083E-08  0.3199137E+04  0.7818609E-02  0.8189045E-01
       -2   -1    0    0    0  501  0.00000000000E+00  0.00000000000E+00  0.15981298575E+04  0.15981298575E+04  0.25500000920E-02 0.  1.
        2   -1    0    0  501    0  0.00000000000E+00  0.00000000000E+00 -0.16010086765E+04  0.16010086765E+04  0.25500000920E-02 0. -1.
    10030    2    1    2    0    0  0.00000000000E+00  0.00000000000E+00 -0.28788190241E+01  0.31991385341E+04  0.31991372388E+04 0.  0.
        4    1    3    3  502    0  0.85587147352E+03 -0.21699259032E+03 -0.13352376823E+04  0.16007695163E+04  0.12699999809E+01 0. -1.
       -4    1    3    3    0  502 -0.85587147352E+03  0.21699259032E+03  0.13323588632E+04  0.15983690177E+04  0.12699999809E+01 0.  1.
</event>
<event>
 5   0  0.9329929E-08  0.3204005E+04  0.7818609E-02  0.8187760E-01
        2   -1    0    0  501    0  0.00000000000E+00  0.00000000000E+00  0.14107729133E+04  0.14107729133E+04  0.25500000920E-02 0. -1.
       -2   -1    0    0    0  501  0.00000000000E+00  0.00000000000E+00 -0.18191531393E+04  0.18191531393E+04  0.25500000920E-02 0.  1.
    10030    2    1    2    0    0  0.00000000000E+00  0.00000000000E+00 -0.40838022594E+03  0.32299260526E+04  0.32040049776E+04 0.  0.
        1    1    3    3  502    0  0.14649324978E+04 -0.37614642830E+03  0.32819092245E+03  0.15476506842E+04  0.50400001928E-02 0. -1.
       -1    1    3    3    0  502 -0.14649324978E+04  0.37614642830E+03 -0.73657114839E+03  0.16822753684E+04  0.50400001928E-02 0.  1.
</event>
<event>
 5   0  0.9707721E-08  0.3199963E+04  0.7818609E-02  0.8188827E-01
       -2   -1    0    0    0  501  0.00000000000E+00  0.00000000000E+00  0.11803109774E+04  0.11803109774E+04  0.25500000920E-02 0.  1.
        2   -1    0    0  501    0  0.00000000000E+00  0.00000000000E+00 -0.21688700975E+04  0.21688700975E+04  0.25500000920E-02 0. -1.
    10030    2    1    2    0    0  0.00000000000E+00  0.00000000000E+00 -0.98855912006E+03  0.33491810749E+04  0.31999632402E+04 0.  0.
        3    1    3    3  502    0  0.13455889479E+04  0.56107978585E+03 -0.11842000450E+04  0.18782305235E+04  0.10100000352E+00 0. -1.
       -3    1    3    3    0  502 -0.13455889479E+04 -0.56107978585E+03  0.19564092490E+03  0.14709505513E+04  0.10100000352E+00 0.  1.
</event>
<event>
 5   0  0.3283581E-08  0.3191450E+04  0.7818609E-02  0.8191079E-01
       -1   -1    0    0    0  501  0.00000000000E+00  0.00000000000E+00  0.13037548890E+04  0.13037548890E+04  0.50400001928E-02 0. -1.
        1   -1    0    0  501    0  0.00000000000E+00  0.00000000000E+00 -0.19530804509E+04  0.19530804509E+04  0.50400001928E-02 0.  1.
    10030    2    1    2    0    0  0.00000000000E+00  0.00000000000E+00 -0.64932556191E+03  0.32568353400E+04  0.31914499442E+04 0.  0.
        5    1    3    3  502    0 -0.86795316138E+03  0.10701081519E+04  0.49671376553E+03  0.14646572302E+04  0.46999998093E+01 0. -1.
       -5    1    3    3    0  502  0.86795316138E+03 -0.10701081519E+04 -0.11460393274E+04  0.17921781098E+04  0.46999998093E+01 0.  1.
</event>
<event>
 5   0  0.3427667E-08  0.3200126E+04  0.7818609E-02  0.8188784E-01
       -1   -1    0    0    0  501  0.00000000000E+00  0.00000000000E+00  0.15316495042E+04  0.15316495042E+04  0.50400001928E-02 0. -1.
        1   -1    0    0  501    0  0.00000000000E+00  0.00000000000E+00 -0.16715321204E+04  0.16715321204E+04  0.50400001928E-02 0.  1.
    10030    2    1    2    0    0  0.00000000000E+00  0.00000000000E+00 -0.13988261616E+03  0.32031816246E+04  0.32001258372E+04 0.  0.
        2    1    3    3  502    0 -0.47692509273E+03 -0.15169678378E+04  0.10785820203E+03  0.15938263258E+04  0.25500000920E-02 0. -1.
       -2    1    3    3    0  502  0.47692509273E+03  0.15169678378E+04 -0.24774081819E+03  0.16093552989E+04  0.25500000920E-02 0.  1.
</event>
<event>
 5   0  0.3270966E-08  0.3198492E+04  0.7818609E-02  0.8189216E-01
        1   -1    0    0  501    0  0.00000000000E+00  0.00000000000E+00  0.13237714025E+04  0.13237714025E+04  0.50400001928E-02 0. -1.
       -1   -1    0    0    0  501  0.00000000000E+00  0.00000000000E+00 -0.19320461017E+04  0.19320461017E+04  0.50400001928E-02 0.  1.
    10030    2    1    2    0    0  0.00000000000E+00  0.00000000000E+00 -0.60827469914E+03  0.32558175042E+04  0.31984917556E+04 0.  0.
        3    1    3    3  502    0  0.27361247748E+03  0.99036976440E+02  0.12965976292E+04  0.13288481978E+04  0.10100000352E+00 0. -1.
       -3    1    3    3    0  502 -0.27361247748E+03 -0.99036976440E+02 -0.19048723283E+04  0.19269693064E+04  0.10100000352E+00 0.  1.
</event>
<event>
 5   0  0.9353994E-08  0.3201324E+04  0.7818609E-02  0.8188468E-01
        2   -1    0    0  501    0  0.00000000000E+00  0.00000000000E+00  0.17075693921E+04  0.17075693921E+04  0.25500000920E-02 0. -1.
       -2   -1    0    0    0  501  0.00000000000E+00  0.00000000000E+00 -0.15004475418E+04  0.15004475418E+04  0.25500000920E-02 0.  1.
    10030    2    1    2    0    0  0.00000000000E+00  0.00000000000E+00  0.20712185029E+03  0.32080169340E+04  0.32013236618E+04 0.  0.
        2    1    3    3  502    0  0.18570647464E+03  0.72694008938E+03 -0.13133222703E+04  0.15125290655E+04  0.25500000920E-02 0.  1.
       -2    1    3    3    0  502 -0.18570647464E+03 -0.72694008938E+03  0.15204441206E+04  0.16954878685E+04  0.25500000920E-02 0. -1.
</event>
<event>
 5   0  0.9727083E-08  0.3199102E+04  0.7818609E-02  0.8189054E-01
        2   -1    0    0  501    0  0.00000000000E+00  0.00000000000E+00  0.17015176996E+04  0.17015176996E+04  0.25500000920E-02 0.  1.
       -2   -1    0    0    0  501  0.00000000000E+00  0.00000000000E+00 -0.15036950460E+04  0.15036950460E+04  0.25500000920E-02 0. -1.
    10030    2    1    2    0    0  0.00000000000E+00  0.00000000000E+00  0.19782265355E+03  0.32052127456E+04  0.31991022088E+04 0.  0.
        4    1    3    3  502    0  0.32508673652E+03 -0.63170865937E+03  0.15347658923E+04  0.16912259381E+04  0.12699999809E+01 0.  1.
       -4    1    3    3    0  502 -0.32508673652E+03  0.63170865937E+03 -0.13369432388E+04  0.15139868075E+04  0.12699999809E+01 0. -1.
</event>
<event>
 5   0  0.3427667E-08  0.3201160E+04  0.7818609E-02  0.8188511E-01
        1   -1    0    0  501    0  0.00000000000E+00  0.00000000000E+00  0.11790017559E+04  0.11790017559E+04  0.50400001928E-02 0.  1.
       -1   -1    0    0    0  501  0.00000000000E+00  0.00000000000E+00 -0.21729026787E+04  0.21729026787E+04  0.50400001928E-02 0. -1.
    10030    2    1    2    0    0  0.00000000000E+00  0.00000000000E+00 -0.99390092286E+03  0.33519044346E+04  0.32011598358E+04 0.  0.
        2    1    3    3  502    0 -0.55434232018E+03  0.84022740397E+03  0.80606896943E+03  0.12895831426E+04  0.25500000920E-02 0.  1.
       -2    1    3    3    0  502  0.55434232018E+03 -0.84022740397E+03 -0.17999698923E+04  0.20623212920E+04  0.25500000920E-02 0. -1.
</event>
<event>
 5   0  0.3283581E-08  0.3199986E+04  0.7818609E-02  0.8188821E-01
        1   -1    0    0  501    0  0.00000000000E+00  0.00000000000E+00  0.11699612574E+04  0.11699612575E+04  0.50400001928E-02 0. -1.
       -1   -1    0    0    0  501  0.00000000000E+00  0.00000000000E+00 -0.21880880987E+04  0.21880880987E+04  0.50400001928E-02 0.  1.
    10030    2    1    2    0    0  0.00000000000E+00  0.00000000000E+00 -0.10181268412E+04  0.33580493561E+04  0.31999864396E+04 0.  0.
        5    1    3    3  502    0 -0.91054834818E+03 -0.54986783781E+03  0.74517343422E+03  0.12987526595E+04  0.46999998093E+01 0. -1.
       -5    1    3    3    0  502  0.91054834818E+03  0.54986783781E+03 -0.17633002754E+04  0.20592966966E+04  0.46999998093E+01 0.  1.
</event>
<event>
 5   0  0.3427667E-08  0.3200121E+04  0.7818609E-02  0.8188785E-01
       -1   -1    0    0    0  501  0.00000000000E+00  0.00000000000E+00  0.10501933035E+04  0.10501933035E+04  0.50400001928E-02 0. -1.
        1   -1    0    0  501    0  0.00000000000E+00  0.00000000000E+00 -0.24378303824E+04  0.24378303824E+04  0.50400001928E-02 0.  1.
    10030    2    1    2    0    0  0.00000000000E+00  0.00000000000E+00 -0.13876370789E+04  0.34880236860E+04  0.32001207120E+04 0.  0.
        2    1    3    3  502    0 -0.14752522326E+04  0.59567318303E+03 -0.87942495474E+03  0.18178514631E+04  0.25500000920E-02 0.  1.
       -2    1    3    3    0  502  0.14752522326E+04 -0.59567318303E+03 -0.50821212416E+03  0.16701722229E+04  0.25500000920E-02 0. -1.
</event>
<event>
 5   0  0.9353994E-08  0.3203320E+04  0.7818609E-02  0.8187941E-01
        2   -1    0    0  501    0  0.00000000000E+00  0.00000000000E+00  0.19259883591E+04  0.19259883591E+04  0.25500000920E-02 0.  1.
       -2   -1    0    0    0  501  0.00000000000E+00  0.00000000000E+00 -0.13319474481E+04  0.13319474481E+04  0.25500000920E-02 0. -1.
    10030    2    1    2    0    0  0.00000000000E+00  0.00000000000E+00  0.59404091099E+03  0.32579358071E+04  0.32033203273E+04 0.  0.
        2    1    3    3  502    0  0.58584336778E+03 -0.10914901058E+04 -0.73554902296E+03  0.14406927042E+04  0.25500000920E-02 0. -1.
       -2    1    3    3    0  502 -0.58584336778E+03  0.10914901058E+04  0.13295899340E+04  0.18172431029E+04  0.25500000920E-02 0.  1.
</event>
<event>
 5   0  0.9707721E-08  0.3199928E+04  0.7818609E-02  0.8188836E-01
        2   -1    0    0  501    0  0.00000000000E+00  0.00000000000E+00  0.22436030677E+04  0.22436030677E+04  0.25500000920E-02 0. -1.
       -2   -1    0    0    0  501  0.00000000000E+00  0.00000000000E+00 -0.11409703725E+04  0.11409703725E+04  0.25500000920E-02 0.  1.
    10030    2    1    2    0    0  0.00000000000E+00  0.00000000000E+00  0.11026326952E+04  0.33845734402E+04  0.31999278916E+04 0.  0.
        3    1    3    3  502    0  0.66388364926E+03 -0.14055280601E+04  0.95217601596E+03  0.18228795361E+04  0.10100000352E+00 0. -1.
       -3    1    3    3    0  502 -0.66388364926E+03  0.14055280601E+04  0.15045667928E+03  0.15616939041E+04  0.10100000352E+00 0.  1.
</event>
<event>
 5   0  0.9353994E-08  0.3202576E+04  0.7818609E-02  0.8188137E-01
       -2   -1    0    0    0  501  0.00000000000E+00  0.00000000000E+00  0.95698294829E+03  0.95698294829E+03  0.25500000920E-02 0. -1.
        2   -1    0    0  501    0  0.00000000000E+00  0.00000000000E+00 -0.26793819306E+04  0.26793819306E+04  0.25500000920E-02 0.  1.
    10030    2    1    2    0    0  0.00000000000E+00  0.00000000000E+00 -0.17223989823E+04  0.36363648789E+04  0.32025757256E+04 0.  0.
        2    1    3    3  502    0 -0.15582222024E+04 -0.33388490761E+03 -0.68315723966E+03  0.17338510252E+04  0.25500000920E-02 0.  1.
       -2    1    3    3    0  502  0.15582222024E+04  0.33388490761E+03 -0.10392417426E+04  0.19025138536E+04  0.25500000920E-02 0. -1.
</event>
<event>
 5   0  0.3270966E-08  0.3200195E+04  0.7818609E-02  0.8188766E-01
        1   -1    0    0  501    0  0.00000000000E+00  0.00000000000E+00  0.14250280498E+04  0.14250280498E+04  0.50400001928E-02 0.  1.
       -1   -1    0    0    0  501  0.00000000000E+00  0.00000000000E+00 -0.17966751708E+04  0.17966751708E+04  0.50400001928E-02 0. -1.
    10030    2    1    2    0    0  0.00000000000E+00  0.00000000000E+00 -0.37164712104E+03  0.32217032206E+04  0.32001953157E+04 0.  0.
        3    1    3    3  502    0 -0.12786295286E+04  0.16224974179E+03 -0.11404019735E+04  0.17209692390E+04  0.10100000352E+00 0. -1.
       -3    1    3    3    0  502  0.12786295286E+04 -0.16224974179E+03  0.76875485244E+03  0.15007339816E+04  0.10100000352E+00 0.  1.
</event>
<event>
 5   0  0.3283581E-08  0.3198725E+04  0.7818609E-02  0.8189154E-01
        1   -1    0    0  501    0  0.00000000000E+00  0.00000000000E+00  0.16755060000E+04  0.16755060001E+04  0.50400001928E-02 0. -1.
       -1   -1    0    0    0  501  0.00000000000E+00  0.00000000000E+00 -0.15266795896E+04  0.15266795896E+04  0.50400001928E-02 0.  1.
    10030    2    1    2    0    0  0.00000000000E+00  0.00000000000E+00  0.14882641049E+03  0.32021855896E+04  0.31987252539E+04 0.  0.
        5    1    3    3  502    0 -0.97697825604E+02 -0.93550978603E+03  0.13693407619E+04  0.16612765083E+04  0.46999998093E+01 0. -1.
       -5    1    3    3    0  502  0.97697825604E+02  0.93550978603E+03 -0.12205143514E+04  0.15409090813E+04  0.46999998093E+01 0.  1.
</event>
<event>
 5   0  0.9157524E-08  0.3198548E+04  0.7818609E-02  0.8189201E-01
        2   -1    0    0  501    0  0.00000000000E+00  0.00000000000E+00  0.19371252073E+04  0.19371252073E+04  0.25500000920E-02 0.  1.
       -2   -1    0    0    0  501  0.00000000000E+00  0.00000000000E+00 -0.13203471694E+04  0.13203471694E+04  0.25500000920E-02 0. -1.
    10030    2    1    2    0    0  0.00000000000E+00  0.00000000000E+00  0.61677803787E+03  0.32574723767E+04  0.31985482859E+04 0.  0.
        5    1    3    3  502    0  0.21145544054E+03 -0.55311868936E+03  0.18213551088E+04  0.19152050048E+04  0.46999998093E+01 0.  1.
       -5    1    3    3    0  502 -0.21145544054E+03  0.55311868936E+03 -0.12045770710E+04  0.13422673719E+04  0.46999998093E+01 0. -1.
</event>
<event>
 5   0  0.3283581E-08  0.3199668E+04  0.7818609E-02  0.8188905E-01
       -1   -1    0    0    0  501  0.00000000000E+00  0.00000000000E+00  0.13613249419E+04  0.13613249419E+04  0.50400001928E-02 0.  1.
        1   -1    0    0  501    0  0.00000000000E+00  0.00000000000E+00 -0.18801301604E+04  0.18801301605E+04  0.50400001928E-02 0. -1.
    10030    2    1    2    0    0  0.00000000000E+00  0.00000000000E+00 -0.51880521852E+03  0.32414551024E+04  0.31996675337E+04 0.  0.
        5    1    3    3  502    0 -0.42973870164E+03 -0.11611499466E+04 -0.12857985781E+04  0.17850054968E+04  0.46999998093E+01 0. -1.
       -5    1    3    3    0  502  0.42973870164E+03  0.11611499466E+04  0.76699335958E+03  0.14564496056E+04  0.46999998093E+01 0.  1.
</event>
<event>
 5   0  0.3427667E-08  0.3199950E+04  0.7818609E-02  0.8188830E-01
        1   -1    0    0  501    0  0.00000000000E+00  0.00000000000E+00  0.18100192443E+04  0.18100192443E+04  0.50400001928E-02 0.  1.
       -1   -1    0    0    0  501  0.00000000000E+00  0.00000000000E+00 -0.14143052492E+04  0.14143052492E+04  0.50400001928E-02 0. -1.
    10030    2    1    2    0    0  0.00000000000E+00  0.00000000000E+00  0.39571399509E+03  0.32243244935E+04  0.31999498236E+04 0.  0.
        2    1    3    3  502    0 -0.93229860474E+03  0.22427164248E+03 -0.10926962142E+04  0.14537755929E+04  0.25500000920E-02 0. -1.
       -2    1    3    3    0  502  0.93229860474E+03 -0.22427164248E+03  0.14884102093E+04  0.17705489006E+04  0.25500000920E-02 0.  1.
</event>
<event>
 5   0  0.9157524E-08  0.3199316E+04  0.7818609E-02  0.8188998E-01
       -2   -1    0    0    0  501  0.00000000000E+00  0.00000000000E+00  0.12418483280E+04  0.12418483280E+04  0.25500000920E-02 0.  1.
        2   -1    0    0  501    0  0.00000000000E+00  0.00000000000E+00 -0.20605622256E+04  0.20605622256E+04  0.25500000920E-02 0. -1.
    10030    2    1    2    0    0  0.00000000000E+00  0.00000000000E+00 -0.81871389756E+03  0.33024105536E+04  0.31993160236E+04 0.  0.
        5    1    3    3  502    0  0.12963147967E+03 -0.52734948847E+03  0.11437822969E+04  0.12661602727E+04  0.46999998093E+01 0.  1.
       -5    1    3    3    0  502 -0.12963147967E+03  0.52734948847E+03 -0.19624961944E+04  0.20362502809E+04  0.46999998093E+01 0. -1.
</event>
<event>
 5   0  0.3343140E-08  0.3200616E+04  0.7818609E-02  0.8188655E-01
       -1   -1    0    0    0  501  0.00000000000E+00  0.00000000000E+00  0.16346148623E+04  0.16346148623E+04  0.50400001928E-02 0.  1.
        1   -1    0    0  501    0  0.00000000000E+00  0.00000000000E+00 -0.15667210262E+04  0.15667210262E+04  0.50400001928E-02 0. -1.
    10030    2    1    2    0    0  0.00000000000E+00  0.00000000000E+00  0.67893836099E+02  0.32013358885E+04  0.32006158623E+04 0.  0.
        1    1    3    3  502    0  0.16057965820E+03  0.43796661239E+03  0.15651031386E+04  0.16331406598E+04  0.50400001928E-02 0.  1.
       -1    1    3    3    0  502 -0.16057965820E+03 -0.43796661239E+03 -0.14972093025E+04  0.15681952288E+04  0.50400001928E-02 0. -1.
</event>
<event>
 5   0  0.9707721E-08  0.3201978E+04  0.7818609E-02  0.8188295E-01
        2   -1    0    0  501    0  0.00000000000E+00  0.00000000000E+00  0.22786501809E+04  0.22786501809E+04  0.25500000920E-02 0. -1.
       -2   -1    0    0    0  501  0.00000000000E+00  0.00000000000E+00 -0.11248611730E+04  0.11248611730E+04  0.25500000920E-02 0.  1.
    10030    2    1    2    0    0  0.00000000000E+00  0.00000000000E+00  0.11537890080E+04  0.34035113539E+04  0.32019775860E+04 0.  0.
        3    1    3    3  502    0 -0.70339924295E+02 -0.15937191680E+04  0.43319449962E+03  0.16530414321E+04  0.10100000352E+00 0.  1.
       -3    1    3    3    0  502  0.70339924295E+02  0.15937191680E+04  0.72059450835E+03  0.17504699218E+04  0.10100000352E+00 0. -1.
</event>
<event>
 5   0  0.9329929E-08  0.3201009E+04  0.7818609E-02  0.8188551E-01
        2   -1    0    0  501    0  0.00000000000E+00  0.00000000000E+00  0.19215949449E+04  0.19215949449E+04  0.25500000920E-02 0. -1.
       -2   -1    0    0    0  501  0.00000000000E+00  0.00000000000E+00 -0.13330667610E+04  0.13330667611E+04  0.25500000920E-02 0.  1.
    10030    2    1    2    0    0  0.00000000000E+00  0.00000000000E+00  0.58852818381E+03  0.32546617059E+04  0.32010088092E+04 0.  0.
        1    1    3    3  502    0  0.13537912791E+04  0.46471498646E+03 -0.43391267352E+03  0.14956573987E+04  0.50400001928E-02 0. -1.
       -1    1    3    3    0  502 -0.13537912791E+04 -0.46471498646E+03  0.10224408573E+04  0.17590043072E+04  0.50400001928E-02 0.  1.
</event>
<event>
 5   0  0.9707721E-08  0.3194982E+04  0.7818609E-02  0.8190144E-01
        2   -1    0    0  501    0  0.00000000000E+00  0.00000000000E+00  0.12063024036E+04  0.12063024036E+04  0.25500000920E-02 0.  1.
       -2   -1    0    0    0  501  0.00000000000E+00  0.00000000000E+00 -0.21155374334E+04  0.21155374334E+04  0.25500000920E-02 0. -1.
    10030    2    1    2    0    0  0.00000000000E+00  0.00000000000E+00 -0.90923502988E+03  0.33218398370E+04  0.31949822477E+04 0.  0.
        3    1    3    3  502    0  0.29652430445E+03 -0.15110295530E+04 -0.12478765541E+02  0.15399002250E+04  0.10100000352E+00 0.  1.
       -3    1    3    3    0  502 -0.29652430445E+03  0.15110295530E+04 -0.89675626434E+03  0.17819396120E+04  0.10100000352E+00 0. -1.
</event>
<event>
 5   0  0.3427667E-08  0.3200691E+04  0.7818609E-02  0.8188635E-01
        1   -1    0    0  501    0  0.00000000000E+00  0.00000000000E+00  0.23370729132E+04  0.23370729133E+04  0.50400001928E-02 0. -1.
       -1   -1    0    0    0  501  0.00000000000E+00  0.00000000000E+00 -0.10958606554E+04  0.10958606554E+04  0.50400001928E-02 0.  1.
    10030    2    1    2    0    0  0.00000000000E+00  0.00000000000E+00  0.12412122579E+04  0.34329335687E+04  0.32006913343E+04 0.  0.
        2    1    3    3  502    0 -0.15883363296E+04 -0.18398499501E+03  0.69210237376E+03  0.17423169832E+04  0.25500000920E-02 0. -1.
       -2    1    3    3    0  502  0.15883363296E+04  0.18398499501E+03  0.54910988410E+03  0.16906165855E+04  0.25500000920E-02 0.  1.
</event>
<event>
 5   0  0.9727083E-08  0.3198964E+04  0.7818609E-02  0.8189091E-01
       -2   -1    0    0    0  501  0.00000000000E+00  0.00000000000E+00  0.17020084919E+04  0.17020084919E+04  0.25500000920E-02 0.  1.
        2   -1    0    0  501    0  0.00000000000E+00  0.00000000000E+00 -0.15031318350E+04  0.15031318350E+04  0.25500000920E-02 0. -1.
    10030    2    1    2    0    0  0.00000000000E+00  0.00000000000E+00  0.19887665690E+03  0.32051403269E+04  0.31989642996E+04 0.  0.
        4    1    3    3  502    0  0.83970988208E+03  0.72641068932E+03  0.12529892058E+04  0.16741471674E+04  0.12699999809E+01 0.  1.
       -4    1    3    3    0  502 -0.83970988208E+03 -0.72641068932E+03 -0.10541125489E+04  0.15309931594E+04  0.12699999809E+01 0. -1.
</event>
<event>
 5   0  0.3283581E-08  0.3197801E+04  0.7818609E-02  0.8189398E-01
       -1   -1    0    0    0  501  0.00000000000E+00  0.00000000000E+00  0.11986450210E+04  0.11986450210E+04  0.50400001928E-02 0. -1.
        1   -1    0    0  501    0  0.00000000000E+00  0.00000000000E+00 -0.21328112662E+04  0.21328112662E+04  0.50400001928E-02 0.  1.
    10030    2    1    2    0    0  0.00000000000E+00  0.00000000000E+00 -0.93416624514E+03  0.33314562872E+04  0.31978014979E+04 0.  0.
        5    1    3    3  502    0  0.94363055724E+03  0.35731779936E+03  0.82505742409E+03  0.13034018879E+04  0.46999998093E+01 0. -1.
       -5    1    3    3    0  502 -0.94363055724E+03 -0.35731779936E+03 -0.17592236692E+04  0.20280543993E+04  0.46999998093E+01 0.  1.
</event>
<event>
 5   0  0.3427667E-08  0.3199727E+04  0.7818609E-02  0.8188889E-01
       -1   -1    0    0    0  501  0.00000000000E+00  0.00000000000E+00  0.18813537787E+04  0.18813537787E+04  0.50400001928E-02 0.  1.
        1   -1    0    0  501    0  0.00000000000E+00  0.00000000000E+00 -0.13604904857E+04  0.13604904857E+04  0.50400001928E-02 0. -1.
    10030    2    1    2    0    0  0.00000000000E+00  0.00000000000E+00  0.52086329296E+03  0.32418442644E+04  0.31997274360E+04 0.  0.
        2    1    3    3  502    0 -0.13514515496E+03  0.83424645499E+03 -0.11158790480E+04  0.13997919168E+04  0.25500000920E-02 0. -1.
       -2    1    3    3    0  502  0.13514515496E+03 -0.83424645499E+03  0.16367423410E+04  0.18420523476E+04  0.25500000920E-02 0.  1.
</event>
<event>
 5   0  0.3427667E-08  0.3199502E+04  0.7818609E-02  0.8188949E-01
        1   -1    0    0  501    0  0.00000000000E+00  0.00000000000E+00  0.23618571458E+04  0.23618571458E+04  0.50400001928E-02 0.  1.
       -1   -1    0    0    0  501  0.00000000000E+00  0.00000000000E+00 -0.10835554792E+04  0.10835554792E+04  0.50400001928E-02 0. -1.
    10030    2    1    2    0    0  0.00000000000E+00  0.00000000000E+00  0.12783016666E+04  0.34454126249E+04  0.31995019933E+04 0.  0.
        2    1    3    3  502    0 -0.50395868484E+03  0.93923443592E+02  0.22710123972E+04  0.23281523313E+04  0.25500000920E-02 0.  1.
       -2    1    3    3    0  502  0.50395868484E+03 -0.93923443592E+02 -0.99271073057E+03  0.11172602937E+04  0.25500000920E-02 0. -1.
</event>
<event>
 5   0  0.3270966E-08  0.3199046E+04  0.7818609E-02  0.8189069E-01
       -1   -1    0    0    0  501  0.00000000000E+00  0.00000000000E+00  0.19397151046E+04  0.19397151046E+04  0.50400001928E-02 0. -1.
        1   -1    0    0  501    0  0.00000000000E+00  0.00000000000E+00 -0.13189946848E+04  0.13189946849E+04  0.50400001928E-02 0.  1.
    10030    2    1    2    0    0  0.00000000000E+00  0.00000000000E+00  0.62072041973E+03  0.32587097894E+04  0.31990460535E+04 0.  0.
        3    1    3    3  502    0  0.13674924113E+04  0.94656533723E+02 -0.52931835792E+03  0.14694125658E+04  0.10100000352E+00 0.  1.
       -3    1    3    3    0  502 -0.13674924113E+04 -0.94656533723E+02  0.11500387777E+04  0.17892972236E+04  0.10100000352E+00 0. -1.
</event>
<event>
 5   0  0.3283581E-08  0.3199371E+04  0.7818609E-02  0.8188983E-01
       -1   -1    0    0    0  501  0.00000000000E+00  0.00000000000E+00  0.14541083013E+04  0.14541083013E+04  0.50400001928E-02 0.  1.
        1   -1    0    0  501    0  0.00000000000E+00  0.00000000000E+00 -0.17598372009E+04  0.17598372009E+04  0.50400001928E-02 0. -1.
    10030    2    1    2    0    0  0.00000000000E+00  0.00000000000E+00 -0.30572889953E+03  0.32139455022E+04  0.31993711149E+04 0.  0.
        5    1    3    3  502    0 -0.13903524920E+04  0.20679305486E+03  0.61424260265E+03  0.15340011357E+04  0.46999998093E+01 0.  1.
       -5    1    3    3    0  502  0.13903524920E+04 -0.20679305486E+03 -0.91997150219E+03  0.16799443665E+04  0.46999998093E+01 0. -1.
</event>
<event>
 5   0  0.9157524E-08  0.3198093E+04  0.7818609E-02  0.8189321E-01
        2   -1    0    0  501    0  0.00000000000E+00  0.00000000000E+00  0.18837662949E+04  0.18837662949E+04  0.25500000920E-02 0. -1.
       -2   -1    0    0    0  501  0.00000000000E+00  0.00000000000E+00 -0.13573604333E+04  0.13573604334E+04  0.25500000920E-02 0.  1.
    10030    2    1    2    0    0  0.00000000000E+00  0.00000000000E+00  0.52640586157E+03  0.32411267283E+04  0.31980930783E+04 0.  0.
        5    1    3    3  502    0  0.46446583108E+03  0.12245772986E+04  0.11929402695E+04  0.17715661560E+04  0.46999998093E+01 0. -1.
       -5    1    3    3    0  502 -0.46446583108E+03 -0.12245772986E+04 -0.66653440795E+03  0.14695605722E+04  0.46999998093E+01 0.  1.
</event>
<event>
 5   0  0.3343140E-08  0.3198190E+04  0.7818609E-02  0.8189295E-01
       -1   -1    0    0    0  501  0.00000000000E+00  0.00000000000E+00  0.20922993640E+04  0.20922993640E+04  0.50400001928E-02 0.  1.
        1   -1    0    0  501    0  0.00000000000E+00  0.00000000000E+00 -0.12221508156E+04  0.12221508156E+04  0.50400001928E-02 0. -1.
    10030    2    1    2    0    0  0.00000000000E+00  0.00000000000E+00  0.87014854833E+03  0.33144501796E+04  0.31981903472E+04 0.  0.
        1    1    3    3  502    0  0.13853862072E+04 -0.27335425245E+03  0.12127441540E+04  0.18613881577E+04  0.50400001928E-02 0.  1.
       -1    1    3    3    0  502 -0.13853862072E+04  0.27335425245E+03 -0.34259560567E+03  0.14530620219E+04  0.50400001928E-02 0. -1.
</event>
<event>
 5   0  0.3283581E-08  0.3199714E+04  0.7818609E-02  0.8188893E-01
       -1   -1    0    0    0  501  0.00000000000E+00  0.00000000000E+00  0.96119125259E+03  0.96119125260E+03  0.50400001928E-02 0. -1.
        1   -1    0    0  501    0  0.00000000000E+00  0.00000000000E+00 -0.26628853180E+04  0.26628853180E+04  0.50400001928E-02 0.  1.
    10030    2    1    2    0    0  0.00000000000E+00  0.00000000000E+00 -0.17016940654E+04  0.36240765706E+04  0.31997137836E+04 0.  0.
        5    1    3    3  502    0  0.14739167908E+04 -0.39020108258E+03 -0.13997116503E+04  0.20697590161E+04  0.46999998093E+01 0. -1.
       -5    1    3    3    0  502 -0.14739167908E+04  0.39020108258E+03 -0.30198241512E+03  0.15543175544E+04  0.46999998093E+01 0.  1.
</event>
<event>
 5   0  0.3220147E-08  0.3200738E+04  0.7818609E-02  0.8188622E-01
        1   -1    0    0  501    0  0.00000000000E+00  0.00000000000E+00  0.21136920717E+04  0.21136920717E+04  0.50400001928E-02 0.  1.
       -1   -1    0    0    0  501  0.00000000000E+00  0.00000000000E+00 -0.12117098024E+04  0.12117098024E+04  0.50400001928E-02 0. -1.
    10030    2    1    2    0    0  0.00000000000E+00  0.00000000000E+00  0.90198226931E+03  0.33254018741E+04  0.32007382914E+04 0.  0.
        4    1    3    3  502    0 -0.15601315669E+03 -0.19819436576E+03 -0.11909282186E+04  0.12173466008E+04  0.12699999809E+01 0. -1.
       -4    1    3    3    0  502  0.15601315669E+03  0.19819436576E+03  0.20929104879E+04  0.21080552733E+04  0.12699999809E+01 0.  1.
</event>
<event>
 5   0  0.3427667E-08  0.3197564E+04  0.7818609E-02  0.8189461E-01
       -1   -1    0    0    0  501  0.00000000000E+00  0.00000000000E+00  0.19094805235E+04  0.19094805235E+04  0.50400001928E-02 0.  1.
        1   -1    0    0  501    0  0.00000000000E+00  0.00000000000E+00 -0.13386381197E+04  0.13386381197E+04  0.50400001928E-02 0. -1.
    10030    2    1    2    0    0  0.00000000000E+00  0.00000000000E+00  0.57084240383E+03  0.32481186432E+04  0.31975637086E+04 0.  0.
        2    1    3    3  502    0 -0.55244514006E+03 -0.14527376284E+04  0.66612816109E+03  0.16909668763E+04  0.25500000920E-02 0.  1.
       -2    1    3    3    0  502  0.55244514006E+03  0.14527376284E+04 -0.95285757260E+02  0.15571517669E+04  0.25500000920E-02 0. -1.
</event>
<event>
 5   0  0.9353994E-08  0.3197760E+04  0.7818609E-02  0.8189409E-01
       -2   -1    0    0    0  501  0.00000000000E+00  0.00000000000E+00  0.96127198518E+03  0.96127198519E+03  0.25500000920E-02 0.  1.
        2   -1    0    0  501    0  0.00000000000E+00  0.00000000000E+00 -0.26594107060E+04  0.26594107060E+04  0.25500000920E-02 0. -1.
    10030    2    1    2    0    0  0.00000000000E+00  0.00000000000E+00 -0.16981387208E+04  0.36206826911E+04  0.31977598464E+04 0.  0.
        2    1    3    3  502    0  0.41296908573E+03 -0.12871114205E+04  0.11781209799E+03  0.13568636501E+04  0.25500000920E-02 0. -1.
       -2    1    3    3    0  502 -0.41296908573E+03  0.12871114205E+04 -0.18159508188E+04  0.22638190411E+04  0.25500000920E-02 0.  1.
</event>
<event>
 5   0  0.9707721E-08  0.3201428E+04  0.7818609E-02  0.8188440E-01
        2   -1    0    0  501    0  0.00000000000E+00  0.00000000000E+00  0.17953074664E+04  0.17953074664E+04  0.25500000920E-02 0.  1.
       -2   -1    0    0    0  501  0.00000000000E+00  0.00000000000E+00 -0.14272121594E+04  0.14272121594E+04  0.25500000920E-02 0. -1.
    10030    2    1    2    0    0  0.00000000000E+00  0.00000000000E+00  0.36809530700E+03  0.32225196258E+04  0.32014275852E+04 0.  0.
        3    1    3    3  502    0  0.13450406611E+04 -0.45760216388E+03  0.92630025606E+03  0.16960443081E+04  0.10100000352E+00 0.  1.
       -3    1    3    3    0  502 -0.13450406611E+04  0.45760216388E+03 -0.55820494906E+03  0.15264753177E+04  0.10100000352E+00 0. -1.
</event>
<event>
 5   0  0.9727083E-08  0.3200594E+04  0.7818609E-02  0.8188660E-01
        2   -1    0    0  501    0  0.00000000000E+00  0.00000000000E+00  0.18085568949E+04  0.18085568949E+04  0.25500000920E-02 0. -1.
       -2   -1    0    0    0  501  0.00000000000E+00  0.00000000000E+00 -0.14160190239E+04  0.14160190239E+04  0.25500000920E-02 0.  1.
    10030    2    1    2    0    0  0.00000000000E+00  0.00000000000E+00  0.39253787104E+03  0.32245759188E+04  0.32005943004E+04 0.  0.
        4    1    3    3  502    0  0.17487863937E+03 -0.46406596163E+03 -0.13366471344E+04  0.14256812161E+04  0.12699999809E+01 0.  1.
       -4    1    3    3    0  502 -0.17487863937E+03  0.46406596163E+03  0.17291850054E+04  0.17988947026E+04  0.12699999809E+01 0. -1.
</event>
<event>
 5   0  0.3283581E-08  0.3208806E+04  0.7818609E-02  0.8186495E-01
        1   -1    0    0  501    0  0.00000000000E+00  0.00000000000E+00  0.14835350334E+04  0.14835350334E+04  0.50400001928E-02 0. -1.
       -1   -1    0    0    0  501  0.00000000000E+00  0.00000000000E+00 -0.17351189523E+04  0.17351189523E+04  0.50400001928E-02 0.  1.
    10030    2    1    2    0    0  0.00000000000E+00  0.00000000000E+00 -0.25158391892E+03  0.32186539858E+04  0.32088064778E+04 0.  0.
        5    1    3    3  502    0 -0.63600760247E+03  0.13983341674E+04  0.33849302936E+03  0.15730364697E+04  0.46999998093E+01 0. -1.
       -5    1    3    3    0  502  0.63600760247E+03 -0.13983341674E+04 -0.59007694827E+03  0.16456175160E+04  0.46999998093E+01 0.  1.
</event>
<event>
 5   0  0.9329929E-08  0.3200753E+04  0.7818609E-02  0.8188618E-01
       -2   -1    0    0    0  501  0.00000000000E+00  0.00000000000E+00  0.16696454064E+04  0.16696454064E+04  0.25500000920E-02 0.  1.
        2   -1    0    0  501    0  0.00000000000E+00  0.00000000000E+00 -0.15339811642E+04  0.15339811642E+04  0.25500000920E-02 0. -1.
    10030    2    1    2    0    0  0.00000000000E+00  0.00000000000E+00  0.13566424221E+03  0.32036265707E+04  0.32007527892E+04 0.  0.
        1    1    3    3  502    0  0.11217826537E+04  0.11209681453E+04 -0.14739280128E+03  0.15926991375E+04  0.50400001928E-02 0.  1.
       -1    1    3    3    0  502 -0.11217826537E+04 -0.11209681453E+04  0.28305704349E+03  0.16109274331E+04  0.50400001928E-02 0. -1.
</event>
<event>
 5   0  0.9157524E-08  0.3199870E+04  0.7818609E-02  0.8188852E-01
        2   -1    0    0  501    0  0.00000000000E+00  0.00000000000E+00  0.20370518443E+04  0.20370518443E+04  0.25500000920E-02 0. -1.
       -2   -1    0    0    0  501  0.00000000000E+00  0.00000000000E+00 -0.12566158226E+04  0.12566158226E+04  0.25500000920E-02 0.  1.
    10030    2    1    2    0    0  0.00000000000E+00  0.00000000000E+00  0.78043602167E+03  0.32936676669E+04  0.31998697342E+04 0.  0.
        5    1    3    3  502    0 -0.11668220915E+04  0.49499718309E+03  0.13951952696E+04  0.18849636428E+04  0.46999998093E+01 0. -1.
       -5    1    3    3    0  502  0.11668220915E+04 -0.49499718309E+03 -0.61475924792E+03  0.14087040240E+04  0.46999998093E+01 0.  1.
</event>
<event>
 5   0  0.3220147E-08  0.3200348E+04  0.7818609E-02  0.8188725E-01
        1   -1    0    0  501    0  0.00000000000E+00  0.00000000000E+00  0.20511540223E+04  0.20511540223E+04  0.50400001928E-02 0.  1.
       -1   -1    0    0    0  501  0.00000000000E+00  0.00000000000E+00 -0.12483496760E+04  0.12483496760E+04  0.50400001928E-02 0. -1.
    10030    2    1    2    0    0  0.00000000000E+00  0.00000000000E+00  0.80280434630E+03  0.32995036983E+04  0.32003483930E+04 0.  0.
        4    1    3    3  502    0 -0.13369858585E+03 -0.10840963472E+04  0.16069977140E+04  0.19430860680E+04  0.12699999809E+01 0.  1.
       -4    1    3    3    0  502  0.13369858585E+03  0.10840963472E+04 -0.80419336774E+03  0.13564176302E+04  0.12699999809E+01 0. -1.
</event>
<event>
 5   0  0.3427667E-08  0.3199893E+04  0.7818609E-02  0.8188845E-01
        1   -1    0    0  501    0  0.00000000000E+00  0.00000000000E+00  0.18118345056E+04  0.18118345057E+04  0.50400001928E-02 0. -1.
       -1   -1    0    0    0  501  0.00000000000E+00  0.00000000000E+00 -0.14128378960E+04  0.14128378960E+04  0.50400001928E-02 0.  1.
    10030    2    1    2    0    0  0.00000000000E+00  0.00000000000E+00  0.39899660968E+03  0.32246724016E+04  0.31998927800E+04 0.  0.
        2    1    3    3  502    0  0.68409281053E+03  0.14361196652E+04  0.37230738528E+03  0.16337182913E+04  0.25500000920E-02 0. -1.
       -2    1    3    3    0  502 -0.68409281053E+03 -0.14361196652E+04  0.26689224400E+02  0.15909541103E+04  0.25500000920E-02 0.  1.
</event>
<event>
 5   0  0.3427667E-08  0.3200272E+04  0.7818609E-02  0.8188745E-01
        1   -1    0    0  501    0  0.00000000000E+00  0.00000000000E+00  0.21252775117E+04  0.21252775117E+04  0.50400001928E-02 0.  1.
       -1   -1    0    0    0  501  0.00000000000E+00  0.00000000000E+00 -0.12047535467E+04  0.12047535467E+04  0.50400001928E-02 0. -1.
    10030    2    1    2    0    0  0.00000000000E+00  0.00000000000E+00  0.92052396500E+03  0.33300310583E+04  0.32002722508E+04 0.  0.
        2    1    3    3  502    0  0.76259450846E+03 -0.14984014119E+03  0.19157005085E+04  0.20673439217E+04  0.25500000920E-02 0.  1.
       -2    1    3    3    0  502 -0.76259450846E+03  0.14984014119E+03 -0.99517654352E+03  0.12626871366E+04  0.25500000920E-02 0. -1.
</event>
<event>
 5   0  0.3283581E-08  0.3197403E+04  0.7818609E-02  0.8189503E-01
       -1   -1    0    0    0  501  0.00000000000E+00  0.00000000000E+00  0.13053737248E+04  0.13053737248E+04  0.50400001928E-02 0. -1.
        1   -1    0    0  501    0  0.00000000000E+00  0.00000000000E+00 -0.19579428127E+04  0.19579428127E+04  0.50400001928E-02 0.  1.
    10030    2    1    2    0    0  0.00000000000E+00  0.00000000000E+00 -0.65256908783E+03  0.32633165375E+04  0.31974033855E+04 0.  0.
        5    1    3    3  502    0 -0.19622721160E+03 -0.15747546092E+04 -0.12872821226E+03  0.15921527063E+04  0.46999998093E+01 0.  1.
       -5    1    3    3    0  502  0.19622721160E+03  0.15747546092E+04 -0.52384087557E+03  0.16711638312E+04  0.46999998093E+01 0. -1.
</event>
<event>
 5   0  0.3427667E-08  0.3200897E+04  0.7818609E-02  0.8188580E-01
       -1   -1    0    0    0  501  0.00000000000E+00  0.00000000000E+00  0.11855348636E+04  0.11855348636E+04  0.50400001928E-02 0.  1.
        1   -1    0    0  501    0  0.00000000000E+00  0.00000000000E+00 -0.21605734131E+04  0.21605734131E+04  0.50400001928E-02 0. -1.
    10030    2    1    2    0    0  0.00000000000E+00  0.00000000000E+00 -0.97503854942E+03  0.33461082767E+04  0.32008968160E+04 0.  0.
        2    1    3    3  502    0 -0.11545595820E+04  0.10890883720E+04 -0.27248419673E+03  0.16103940350E+04  0.25500000920E-02 0.  1.
       -2    1    3    3    0  502  0.11545595820E+04 -0.10890883720E+04 -0.70255435270E+03  0.17357142417E+04  0.25500000920E-02 0. -1.
</event>
<event>
 5   0  0.9353994E-08  0.3207502E+04  0.7818609E-02  0.8186839E-01
       -2   -1    0    0    0  501  0.00000000000E+00  0.00000000000E+00  0.17873274549E+04  0.17873274549E+04  0.25500000920E-02 0. -1.
        2   -1    0    0  501    0  0.00000000000E+00  0.00000000000E+00 -0.14390298131E+04  0.14390298131E+04  0.25500000920E-02 0.  1.
    10030    2    1    2    0    0  0.00000000000E+00  0.00000000000E+00  0.34829764176E+03  0.32263572680E+04  0.32075021393E+04 0.  0.
        2    1    3    3  502    0 -0.59103266108E+03 -0.39345134877E+02 -0.13249643908E+04  0.14513436130E+04  0.25500000920E-02 0.  1.
       -2    1    3    3    0  502  0.59103266108E+03  0.39345134877E+02  0.16732620325E+04  0.17750136551E+04  0.25500000920E-02 0. -1.
</event>
<event>
 5   0  0.9353994E-08  0.3198333E+04  0.7818609E-02  0.8189258E-01
        2   -1    0    0  501    0  0.00000000000E+00  0.00000000000E+00  0.18957535503E+04  0.18957535503E+04  0.25500000920E-02 0.  1.
       -2   -1    0    0    0  501  0.00000000000E+00  0.00000000000E+00 -0.13489796391E+04  0.13489796391E+04  0.25500000920E-02 0. -1.
    10030    2    1    2    0    0  0.00000000000E+00  0.00000000000E+00  0.54677391121E+03  0.32447331893E+04  0.31983326531E+04 0.  0.
        2    1    3    3  502    0 -0.13778419913E+04  0.69541984326E+03 -0.15134616240E+03  0.15507943036E+04  0.25500000920E-02 0. -1.
       -2    1    3    3    0  502  0.13778419913E+04 -0.69541984326E+03  0.69812007361E+03  0.16939388857E+04  0.25500000920E-02 0.  1.
</event>
<event>
 5   0  0.9707721E-08  0.3200661E+04  0.7818609E-02  0.8188643E-01
       -2   -1    0    0    0  501  0.00000000000E+00  0.00000000000E+00  0.16144562924E+04  0.16144562924E+04  0.25500000920E-02 0. -1.
        2   -1    0    0  501    0  0.00000000000E+00  0.00000000000E+00 -0.15863285759E+04  0.15863285759E+04  0.25500000920E-02 0.  1.
    10030    2    1    2    0    0  0.00000000000E+00  0.00000000000E+00  0.28127716478E+02  0.32007848684E+04  0.32006612762E+04 0.  0.
        3    1    3    3  502    0 -0.12741821201E+04  0.62019952434E+03  0.75764526902E+03  0.16069268462E+04  0.10100000352E+00 0.  1.
       -3    1    3    3    0  502  0.12741821201E+04 -0.62019952434E+03 -0.72951755254E+03  0.15938580222E+04  0.10100000352E+00 0. -1.
</event>
<event>
 5   0  0.3343140E-08  0.3199887E+04  0.7818609E-02  0.8188847E-01
        1   -1    0    0  501    0  0.00000000000E+00  0.00000000000E+00  0.93380319511E+03  0.93380319513E+03  0.50400001928E-02 0.  1.
       -1   -1    0    0    0  501  0.00000000000E+00  0.00000000000E+00 -0.27412841657E+04  0.27412841657E+04  0.50400001928E-02 0. -1.
    10030    2    1    2    0    0  0.00000000000E+00  0.00000000000E+00 -0.18074809706E+04  0.36750873609E+04  0.31998874435E+04 0.  0.
        1    1    3    3  502    0 -0.12351666771E+04 -0.26580012715E+03 -0.20311102183E+04  0.23920065106E+04  0.50400001928E-02 0. -1.
       -1    1    3    3    0  502  0.12351666771E+04  0.26580012715E+03  0.22362924773E+03  0.12830808502E+04  0.50400001928E-02 0.  1.
</event>
<event>
 5   0  0.3427667E-08  0.3200384E+04  0.7818609E-02  0.8188716E-01
       -1   -1    0    0    0  501  0.00000000000E+00  0.00000000000E+00  0.16936573416E+04  0.16936573416E+04  0.50400001928E-02 0. -1.
        1   -1    0    0  501    0  0.00000000000E+00  0.00000000000E+00 -0.15118845734E+04  0.15118845734E+04  0.50400001928E-02 0.  1.
    10030    2    1    2    0    0  0.00000000000E+00  0.00000000000E+00  0.18177276821E+03  0.32055419149E+04  0.32003839815E+04 0.  0.
        2    1    3    3  502    0  0.14372992828E+04  0.55124840832E+03  0.52852348566E+03  0.16275875125E+04  0.25500000920E-02 0. -1.
       -2    1    3    3    0  502 -0.14372992828E+04 -0.55124840832E+03 -0.34675071744E+03  0.15779544024E+04  0.25500000920E-02 0.  1.
</event>
<event>
 5   0  0.3427667E-08  0.3199743E+04  0.7818609E-02  0.8188885E-01
       -1   -1    0    0    0  501  0.00000000000E+00  0.00000000000E+00  0.23671532388E+04  0.23671532388E+04  0.50400001928E-02 0. -1.
        1   -1    0    0  501    0  0.00000000000E+00  0.00000000000E+00 -0.10812942760E+04  0.10812942760E+04  0.50400001928E-02 0.  1.
    10030    2    1    2    0    0  0.00000000000E+00  0.00000000000E+00  0.12858589628E+04  0.34484475147E+04  0.31997432693E+04 0.  0.
        2    1    3    3  502    0 -0.83690653379E+03  0.12278560083E+04  0.12819278755E+04  0.19624938220E+04  0.25500000920E-02 0. -1.
       -2    1    3    3    0  502  0.83690653379E+03 -0.12278560083E+04  0.39310873199E+01  0.14859536927E+04  0.25500000920E-02 0.  1.
</event>
<event>
 5   0  0.9707721E-08  0.3200178E+04  0.7818609E-02  0.8188770E-01
        2   -1    0    0  501    0  0.00000000000E+00  0.00000000000E+00  0.15879507151E+04  0.15879507151E+04  0.25500000920E-02 0.  1.
       -2   -1    0    0    0  501  0.00000000000E+00  0.00000000000E+00 -0.16123201137E+04  0.16123201137E+04  0.25500000920E-02 0. -1.
    10030    2    1    2    0    0  0.00000000000E+00  0.00000000000E+00 -0.24369398562E+02  0.32002708288E+04  0.32001780435E+04 0.  0.
        3    1    3    3  502    0 -0.51560455725E+02  0.12067968685E+04 -0.10616281546E+04  0.16081267087E+04  0.10100000352E+00 0. -1.
       -3    1    3    3    0  502  0.51560455725E+02 -0.12067968685E+04  0.10372587560E+04  0.15921441202E+04  0.10100000352E+00 0.  1.
</event>
<event>
 5   0  0.9353994E-08  0.3200043E+04  0.7818609E-02  0.8188806E-01
       -2   -1    0    0    0  501  0.00000000000E+00  0.00000000000E+00  0.10132159925E+04  0.10132159925E+04  0.25500000920E-02 0. -1.
        2   -1    0    0  501    0  0.00000000000E+00  0.00000000000E+00 -0.25266767210E+04  0.25266767210E+04  0.25500000920E-02 0.  1.
    10030    2    1    2    0    0  0.00000000000E+00  0.00000000000E+00 -0.15134607286E+04  0.35398927135E+04  0.32000432882E+04 0.  0.
        2    1    3    3  502    0  0.12010821851E+04  0.10520188097E+04 -0.64215826877E+03  0.17209617176E+04  0.25500000920E-02 0.  1.
       -2    1    3    3    0  502 -0.12010821851E+04 -0.10520188097E+04 -0.87130245982E+03  0.18189309959E+04  0.25500000920E-02 0. -1.
</event>
<event>
 5   0  0.9353994E-08  0.3200372E+04  0.7818609E-02  0.8188719E-01
       -2   -1    0    0    0  501  0.00000000000E+00  0.00000000000E+00  0.13088019601E+04  0.13088019601E+04  0.25500000920E-02 0. -1.
        2   -1    0    0  501    0  0.00000000000E+00  0.00000000000E+00 -0.19564416457E+04  0.19564416457E+04  0.25500000920E-02 0.  1.
    10030    2    1    2    0    0  0.00000000000E+00  0.00000000000E+00 -0.64763968565E+03  0.32652436058E+04  0.32003716413E+04 0.  0.
        2    1    3    3  502    0  0.32821975426E+03 -0.80081812278E+03 -0.16970431013E+04  0.19049916432E+04  0.25500000920E-02 0.  1.
       -2    1    3    3    0  502 -0.32821975426E+03  0.80081812278E+03  0.10494034157E+04  0.13602519626E+04  0.25500000920E-02 0. -1.
</event>
<event>
 5   0  0.3220147E-08  0.3198785E+04  0.7818609E-02  0.8189138E-01
       -1   -1    0    0    0  501  0.00000000000E+00  0.00000000000E+00  0.14364326603E+04  0.14364326603E+04  0.50400001928E-02 0. -1.
        1   -1    0    0  501    0  0.00000000000E+00  0.00000000000E+00 -0.17808395035E+04  0.17808395035E+04  0.50400001928E-02 0.  1.
    10030    2    1    2    0    0  0.00000000000E+00  0.00000000000E+00 -0.34440684322E+03  0.32172721638E+04  0.31987847852E+04 0.  0.
        4    1    3    3  502    0 -0.94055940042E+02 -0.15030721726E+04 -0.71381539021E+03  0.16666152826E+04  0.12699999809E+01 0.  1.
       -4    1    3    3    0  502  0.94055940042E+02  0.15030721726E+04  0.36940854698E+03  0.15506568812E+04  0.12699999809E+01 0. -1.
</event>
<event>
 5   0  0.3080500E-08  0.3195787E+04  0.7818609E-02  0.8189931E-01
        3   -1    0    0  501    0  0.00000000000E+00  0.00000000000E+00  0.16037205367E+04  0.16037205399E+04  0.10100000352E+00 0.  1.
       -3   -1    0    0    0  501  0.00000000000E+00  0.00000000000E+00 -0.15920877794E+04  0.15920877826E+04  0.10100000352E+00 0. -1.
    10030    2    1    2    0    0  0.00000000000E+00  0.00000000000E+00  0.11632757272E+02  0.31958083225E+04  0.31957871508E+04 0.  0.
        3    1    3    3  502    0 -0.15876688065E+04 -0.57544577114E+02  0.17687379114E+03  0.15985268110E+04  0.10100000352E+00 0.  1.
       -3    1    3    3    0  502  0.15876688065E+04  0.57544577114E+02 -0.16524103387E+03  0.15972815115E+04  0.10100000352E+00 0. -1.
</event>
<event>
 5   0  0.9329929E-08  0.3199332E+04  0.7818609E-02  0.8188994E-01
        2   -1    0    0  501    0  0.00000000000E+00  0.00000000000E+00  0.91476399610E+03  0.91476399610E+03  0.25500000920E-02 0. -1.
       -2   -1    0    0    0  501  0.00000000000E+00  0.00000000000E+00 -0.27973679149E+04  0.27973679149E+04  0.25500000920E-02 0.  1.
    10030    2    1    2    0    0  0.00000000000E+00  0.00000000000E+00 -0.18826039188E+04  0.37121319110E+04  0.31993320881E+04 0.  0.
        1    1    3    3  502    0 -0.65412750715E+03  0.14586781072E+04 -0.10080241699E+04  0.18899040566E+04  0.50400001928E-02 0.  1.
       -1    1    3    3    0  502  0.65412750715E+03 -0.14586781072E+04 -0.87457974896E+03  0.18222278544E+04  0.50400001928E-02 0. -1.
</event>
<event>
 5   0  0.9707721E-08  0.3199500E+04  0.7818609E-02  0.8188949E-01
        2   -1    0    0  501    0  0.00000000000E+00  0.00000000000E+00  0.15139514599E+04  0.15139514599E+04  0.25500000920E-02 0. -1.
       -2   -1    0    0    0  501  0.00000000000E+00  0.00000000000E+00 -0.16904109404E+04  0.16904109404E+04  0.25500000920E-02 0.  1.
    10030    2    1    2    0    0  0.00000000000E+00  0.00000000000E+00 -0.17645948047E+03  0.32043624003E+04  0.31995000303E+04 0.  0.
        3    1    3    3  502    0 -0.49855391094E+03 -0.11925495315E+04  0.85578944930E+03  0.15501954648E+04  0.10100000352E+00 0. -1.
       -3    1    3    3    0  502  0.49855391094E+03  0.11925495315E+04 -0.10322489298E+04  0.16541669355E+04  0.10100000352E+00 0.  1.
</event>
<event>
 5   0  0.3427667E-08  0.3200106E+04  0.7818609E-02  0.8188789E-01
        1   -1    0    0  501    0  0.00000000000E+00  0.00000000000E+00  0.20109970426E+04  0.20109970426E+04  0.50400001928E-02 0.  1.
       -1   -1    0    0    0  501  0.00000000000E+00  0.00000000000E+00 -0.12730849696E+04  0.12730849696E+04  0.50400001928E-02 0. -1.
    10030    2    1    2    0    0  0.00000000000E+00  0.00000000000E+00  0.73791207305E+03  0.32840820122E+04  0.32001063163E+04 0.  0.
        2    1    3    3  502    0  0.74644558833E+03  0.11648129859E+04  0.11939162369E+04  0.18274042490E+04  0.25500000920E-02 0.  1.
       -2    1    3    3    0  502 -0.74644558833E+03 -0.11648129859E+04 -0.45600416386E+03  0.14566777632E+04  0.25500000920E-02 0. -1.
</event>
<event>
 5   0  0.9707721E-08  0.3204234E+04  0.7818609E-02  0.8187700E-01
        2   -1    0    0  501    0  0.00000000000E+00  0.00000000000E+00  0.21748341792E+04  0.21748341792E+04  0.25500000920E-02 0.  1.
       -2   -1    0    0    0  501  0.00000000000E+00  0.00000000000E+00 -0.11802183529E+04  0.11802183529E+04  0.25500000920E-02 0. -1.
    10030    2    1    2    0    0  0.00000000000E+00  0.00000000000E+00  0.99461582632E+03  0.33550525320E+04  0.32042342066E+04 0.  0.
        3    1    3    3  502    0 -0.81133688633E+03  0.13611319949E+04  0.74471614428E+03  0.17508712107E+04  0.10100000352E+00 0.  1.
       -3    1    3    3    0  502  0.81133688633E+03 -0.13611319949E+04  0.24989968204E+03  0.16041813214E+04  0.10100000352E+00 0. -1.
</event>
<event>
 5   0  0.9353994E-08  0.3198563E+04  0.7818609E-02  0.8189197E-01
       -2   -1    0    0    0  501  0.00000000000E+00  0.00000000000E+00  0.12193611858E+04  0.12193611858E+04  0.25500000920E-02 0.  1.
        2   -1    0    0  501    0  0.00000000000E+00  0.00000000000E+00 -0.20975747166E+04  0.20975747166E+04  0.25500000920E-02 0. -1.
    10030    2    1    2    0    0  0.00000000000E+00  0.00000000000E+00 -0.87821353079E+03  0.33169359024E+04  0.31985629234E+04 0.  0.
        2    1    3    3  502    0 -0.86673840218E+03 -0.81154769112E+03 -0.15501370574E+04  0.19526315601E+04  0.25500000920E-02 0. -1.
       -2    1    3    3    0  502  0.86673840218E+03  0.81154769112E+03  0.67192352660E+03  0.13643043423E+04  0.25500000920E-02 0.  1.
</event>
<event>
 5   0  0.9157524E-08  0.3196254E+04  0.7818609E-02  0.8189807E-01
        2   -1    0    0  501    0  0.00000000000E+00  0.00000000000E+00  0.21516465282E+04  0.21516465282E+04  0.25500000920E-02 0. -1.
       -2   -1    0    0    0  501  0.00000000000E+00  0.00000000000E+00 -0.11870024671E+04  0.11870024671E+04  0.25500000920E-02 0.  1.
    10030    2    1    2    0    0  0.00000000000E+00  0.00000000000E+00  0.96464406106E+03  0.33386489953E+04  0.31962538931E+04 0.  0.
        5    1    3    3  502    0 -0.99106274591E+03  0.97127558927E+03 -0.34571480622E+03  0.14300777790E+04  0.46999998093E+01 0.  1.
       -5    1    3    3    0  502  0.99106274591E+03 -0.97127558927E+03  0.13103588673E+04  0.19085712163E+04  0.46999998093E+01 0. -1.
</event>
<event>
 5   0  0.3283581E-08  0.3194574E+04  0.7818609E-02  0.8190252E-01
        1   -1    0    0  501    0  0.00000000000E+00  0.00000000000E+00  0.16257842119E+04  0.16257842119E+04  0.50400001928E-02 0.  1.
       -1   -1    0    0    0  501  0.00000000000E+00  0.00000000000E+00 -0.15692888632E+04  0.15692888632E+04  0.50400001928E-02 0. -1.
    10030    2    1    2    0    0  0.00000000000E+00  0.00000000000E+00  0.56495348685E+02  0.31950730751E+04  0.31945735601E+04 0.  0.
        5    1    3    3  502    0  0.74231589940E+03  0.68833167685E+03  0.12639446363E+04  0.16193861570E+04  0.46999998093E+01 0.  1.
       -5    1    3    3    0  502 -0.74231589940E+03 -0.68833167685E+03 -0.12074492876E+04  0.15756869181E+04  0.46999998093E+01 0. -1.
</event>
<event>
 5   0  0.3283581E-08  0.3200060E+04  0.7818609E-02  0.8188801E-01
       -1   -1    0    0    0  501  0.00000000000E+00  0.00000000000E+00  0.10960858630E+04  0.10960858631E+04  0.50400001928E-02 0.  1.
        1   -1    0    0  501    0  0.00000000000E+00  0.00000000000E+00 -0.23356708041E+04  0.23356708041E+04  0.50400001928E-02 0. -1.
    10030    2    1    2    0    0  0.00000000000E+00  0.00000000000E+00 -0.12395849410E+04  0.34317566671E+04  0.32000598426E+04 0.  0.
        5    1    3    3  502    0 -0.53707583257E+02  0.99371104260E+03 -0.19633941007E+04  0.22012007236E+04  0.46999998093E+01 0. -1.
       -5    1    3    3    0  502  0.53707583257E+02 -0.99371104260E+03  0.72380915967E+03  0.12305559436E+04  0.46999998093E+01 0.  1.
</event>
<event>
 5   0  0.9329929E-08  0.3199962E+04  0.7818609E-02  0.8188827E-01
       -2   -1    0    0    0  501  0.00000000000E+00  0.00000000000E+00  0.16325116991E+04  0.16325116991E+04  0.25500000920E-02 0. -1.
        2   -1    0    0  501    0  0.00000000000E+00  0.00000000000E+00 -0.15680982814E+04  0.15680982814E+04  0.25500000920E-02 0.  1.
    10030    2    1    2    0    0  0.00000000000E+00  0.00000000000E+00  0.64413417723E+02  0.32006099804E+04  0.31999617433E+04 0.  0.
        1    1    3    3  502    0  0.30193944469E+03  0.24503527704E+02  0.16035663198E+04  0.16319291630E+04  0.50400001928E-02 0. -1.
       -1    1    3    3    0  502 -0.30193944469E+03 -0.24503527704E+02 -0.15391529020E+04  0.15686808174E+04  0.50400001928E-02 0.  1.
</event>
<event>
 5   0  0.3220147E-08  0.3196209E+04  0.7818609E-02  0.8189819E-01
        1   -1    0    0  501    0  0.00000000000E+00  0.00000000000E+00  0.26509515281E+04  0.26509515281E+04  0.50400001928E-02 0.  1.
       -1   -1    0    0    0  501  0.00000000000E+00  0.00000000000E+00 -0.96340415996E+03  0.96340415998E+03  0.50400001928E-02 0. -1.
    10030    2    1    2    0    0  0.00000000000E+00  0.00000000000E+00  0.16875473681E+04  0.36143556881E+04  0.31962088355E+04 0.  0.
        4    1    3    3  502    0 -0.12049233222E+03  0.85708043904E+03  0.23629703291E+04  0.25164927320E+04  0.12699999809E+01 0.  1.
       -4    1    3    3    0  502  0.12049233222E+03 -0.85708043904E+03 -0.67542296100E+03  0.10978629560E+04  0.12699999809E+01 0. -1.
</event>
<event>
 5   0  0.9353994E-08  0.3198745E+04  0.7818609E-02  0.8189149E-01
        2   -1    0    0  501    0  0.00000000000E+00  0.00000000000E+00  0.23248777000E+04  0.23248777000E+04  0.25500000920E-02 0. -1.
       -2   -1    0    0    0  501  0.00000000000E+00  0.00000000000E+00 -0.11002694979E+04  0.11002694979E+04  0.25500000920E-02 0.  1.
    10030    2    1    2    0    0  0.00000000000E+00  0.00000000000E+00  0.12246082021E+04  0.34251471980E+04  0.31987447662E+04 0.  0.
        2    1    3    3  502    0 -0.12351125029E+04  0.10154874242E+04  0.57407841611E+03  0.16989065988E+04  0.25500000920E-02 0.  1.
       -2    1    3    3    0  502  0.12351125029E+04 -0.10154874242E+04  0.65052978598E+03  0.17262405991E+04  0.25500000920E-02 0. -1.
</event>
<event>
 5   0  0.3343140E-08  0.3206558E+04  0.7818609E-02  0.8187087E-01
        1   -1    0    0  501    0  0.00000000000E+00  0.00000000000E+00  0.19128149354E+04  0.19128149355E+04  0.50400001928E-02 0. -1.
       -1   -1    0    0    0  501  0.00000000000E+00  0.00000000000E+00 -0.13438332716E+04  0.13438332716E+04  0.50400001928E-02 0.  1.
    10030    2    1    2    0    0  0.00000000000E+00  0.00000000000E+00  0.56898166388E+03  0.32566482070E+04  0.32065584995E+04 0.  0.
        1    1    3    3  502    0  0.15086929649E+04  0.29740647067E+03 -0.17635864126E+03  0.15478073011E+04  0.50400001928E-02 0. -1.
       -1    1    3    3    0  502 -0.15086929649E+04 -0.29740647067E+03  0.74534030515E+03  0.17088409059E+04  0.50400001928E-02 0.  1.
</event>
<event>
 5   0  0.9727083E-08  0.3207445E+04  0.7818609E-02  0.8186854E-01
        2   -1    0    0  501    0  0.00000000000E+00  0.00000000000E+00  0.97086667462E+03  0.97086667462E+03  0.25500000920E-02 0. -1.
       -2   -1    0    0    0  501  0.00000000000E+00  0.00000000000E+00 -0.26491025074E+04  0.26491025074E+04  0.25500000920E-02 0.  1.
    10030    2    1    2    0    0  0.00000000000E+00  0.00000000000E+00 -0.16782358328E+04  0.36199691820E+04  0.32074446789E+04 0.  0.
        4    1    3    3  502    0  0.13984204000E+04  0.72158723178E+03 -0.49005656641E+03  0.16481580019E+04  0.12699999809E+01 0.  1.
       -4    1    3    3    0  502 -0.13984204000E+04 -0.72158723178E+03 -0.11881792664E+04  0.19718111801E+04  0.12699999809E+01 0. -1.
</event>
<event>
 5   0  0.3220147E-08  0.3200988E+04  0.7818609E-02  0.8188556E-01
        1   -1    0    0  501    0  0.00000000000E+00  0.00000000000E+00  0.12658417717E+04  0.12658417717E+04  0.50400001928E-02 0. -1.
       -1   -1    0    0    0  501  0.00000000000E+00  0.00000000000E+00 -0.20236186027E+04  0.20236186027E+04  0.50400001928E-02 0.  1.
    10030    2    1    2    0    0  0.00000000000E+00  0.00000000000E+00 -0.75777683104E+03  0.32894603745E+04  0.32009879458E+04 0.  0.
        4    1    3    3  502    0 -0.77351915077E+03 -0.13967813425E+04 -0.26515263136E+03  0.16185294332E+04  0.12699999809E+01 0. -1.
       -4    1    3    3    0  502  0.77351915077E+03  0.13967813425E+04 -0.49262419968E+03  0.16709309412E+04  0.12699999809E+01 0.  1.
</event>
<event>
 5   0  0.9157524E-08  0.3198918E+04  0.7818609E-02  0.8189103E-01
        2   -1    0    0  501    0  0.00000000000E+00  0.00000000000E+00  0.15637068956E+04  0.15637068956E+04  0.25500000920E-02 0. -1.
       -2   -1    0    0    0  501  0.00000000000E+00  0.00000000000E+00 -0.16360286866E+04  0.16360286866E+04  0.25500000920E-02 0.  1.
    10030    2    1    2    0    0  0.00000000000E+00  0.00000000000E+00 -0.72321790965E+02  0.31997355822E+04  0.31989181538E+04 0.  0.
        5    1    3    3  502    0 -0.83258997849E+03  0.10389264825E+04 -0.92276933324E+03  0.16199072939E+04  0.46999998093E+01 0.  1.
       -5    1    3    3    0  502  0.83258997849E+03 -0.10389264825E+04  0.85044754227E+03  0.15798282883E+04  0.46999998093E+01 0. -1.
</event>
<event>
 5   0  0.3220147E-08  0.3199315E+04  0.7818609E-02  0.8188998E-01
       -1   -1    0    0    0  501  0.00000000000E+00  0.00000000000E+00  0.16478584309E+04  0.16478584309E+04  0.50400001928E-02 0. -1.
        1   -1    0    0  501    0  0.00000000000E+00  0.00000000000E+00 -0.15528663386E+04  0.15528663386E+04  0.50400001928E-02 0.  1.
    10030    2    1    2    0    0  0.00000000000E+00  0.00000000000E+00  0.94992092344E+02  0.32007247695E+04  0.31993148567E+04 0.  0.
        4    1    3    3  502    0 -0.13855700841E+04 -0.71785827009E+03  0.39947110308E+03  0.16108084085E+04  0.12699999809E+01 0.  1.
       -4    1    3    3    0  502  0.13855700841E+04  0.71785827009E+03 -0.30447901073E+03  0.15899163609E+04  0.12699999809E+01 0. -1.
</event>
<event>
 5   0  0.3283581E-08  0.3199715E+04  0.7818609E-02  0.8188893E-01
       -1   -1    0    0    0  501  0.00000000000E+00  0.00000000000E+00  0.21962856786E+04  0.21962856786E+04  0.50400001928E-02 0.  1.
        1   -1    0    0  501    0  0.00000000000E+00  0.00000000000E+00 -0.11653964595E+04  0.11653964595E+04  0.50400001928E-02 0. -1.
    10030    2    1    2    0    0  0.00000000000E+00  0.00000000000E+00  0.10308892191E+04  0.33616821381E+04  0.31997147085E+04 0.  0.
        5    1    3    3  502    0 -0.22392612189E+03 -0.14937523045E+04 -0.38584142111E+02  0.15109433084E+04  0.46999998093E+01 0. -1.
       -5    1    3    3    0  502  0.22392612189E+03  0.14937523045E+04  0.10694733613E+04  0.18507388297E+04  0.46999998093E+01 0.  1.
</event>
<event>
 5   0  0.9329929E-08  0.3200909E+04  0.7818609E-02  0.8188577E-01
        2   -1    0    0  501    0  0.00000000000E+00  0.00000000000E+00  0.20168167441E+04  0.20168167441E+04  0.25500000920E-02 0. -1.
       -2   -1    0    0    0  501  0.00000000000E+00  0.00000000000E+00 -0.12700481548E+04  0.12700481548E+04  0.25500000920E-02 0.  1.
    10030    2    1    2    0    0  0.00000000000E+00  0.00000000000E+00  0.74676858937E+03  0.32868648989E+04  0.32009088611E+04 0.  0.
        1    1    3    3  502    0  0.42822165503E+03  0.25220835995E+03  0.19355765029E+04  0.19983591372E+04  0.50400001928E-02 0. -1.
       -1    1    3    3    0  502 -0.42822165503E+03 -0.25220835995E+03 -0.11888079135E+04  0.12885057617E+04  0.50400001928E-02 0.  1.
</event>
<event>
 5   0  0.3283581E-08  0.3202343E+04  0.7818609E-02  0.8188199E-01
        1   -1    0    0  501    0  0.00000000000E+00  0.00000000000E+00  0.22435967059E+04  0.22435967059E+04  0.50400001928E-02 0.  1.
       -1   -1    0    0    0  501  0.00000000000E+00  0.00000000000E+00 -0.11426965368E+04  0.11426965368E+04  0.50400001928E-02 0. -1.
    10030    2    1    2    0    0  0.00000000000E+00  0.00000000000E+00  0.11009001691E+04  0.33862932426E+04  0.32023430083E+04 0.  0.
        5    1    3    3  502    0 -0.15588299878E+03  0.93312762057E+03  0.19164354136E+04  0.21372350012E+04  0.46999998093E+01 0.  1.
       -5    1    3    3    0  502  0.15588299878E+03 -0.93312762057E+03 -0.81553524451E+03  0.12490582415E+04  0.46999998093E+01 0. -1.
</event>
<event>
 5   0  0.9329929E-08  0.3199354E+04  0.7818609E-02  0.8188988E-01
        2   -1    0    0  501    0  0.00000000000E+00  0.00000000000E+00  0.18675491025E+04  0.18675491025E+04  0.25500000920E-02 0.  1.
       -2   -1    0    0    0  501  0.00000000000E+00  0.00000000000E+00 -0.13702270880E+04  0.13702270880E+04  0.25500000920E-02 0. -1.
    10030    2    1    2    0    0  0.00000000000E+00  0.00000000000E+00  0.49732201456E+03  0.32377761905E+04  0.31993539150E+04 0.  0.
        1    1    3    3  502    0  0.12404321915E+04 -0.28967445497E+03 -0.73062897926E+03  0.14684692768E+04  0.50400001928E-02 0. -1.
       -1    1    3    3    0  502 -0.12404321915E+04  0.28967445497E+03  0.12279509938E+04  0.17693069137E+04  0.50400001928E-02 0.  1.
</event>
<event>
 5   0  0.3270966E-08  0.3200546E+04  0.7818609E-02  0.8188673E-01
        1   -1    0    0  501    0  0.00000000000E+00  0.00000000000E+00  0.20809136746E+04  0.20809136746E+04  0.50400001928E-02 0.  1.
       -1   -1    0    0    0  501  0.00000000000E+00  0.00000000000E+00 -0.12306487228E+04  0.12306487228E+04  0.50400001928E-02 0. -1.
    10030    2    1    2    0    0  0.00000000000E+00  0.00000000000E+00  0.85026495180E+03  0.33115623975E+04  0.32005460509E+04 0.  0.
        3    1    3    3  502    0 -0.89052227216E+03 -0.53589238536E+03 -0.83390019705E+03  0.13325164595E+04  0.10100000352E+00 0. -1.
       -3    1    3    3    0  502  0.89052227216E+03  0.53589238536E+03  0.16841651489E+04  0.19790459380E+04  0.10100000352E+00 0.  1.
</event>
<event>
 5   0  0.3283581E-08  0.3199072E+04  0.7818609E-02  0.8189062E-01
        1   -1    0    0  501    0  0.00000000000E+00  0.00000000000E+00  0.20739390001E+04  0.20739390001E+04  0.50400001928E-02 0.  1.
       -1   -1    0    0    0  501  0.00000000000E+00  0.00000000000E+00 -0.12336505123E+04  0.12336505123E+04  0.50400001928E-02 0. -1.
    10030    2    1    2    0    0  0.00000000000E+00  0.00000000000E+00  0.84028848774E+03  0.33075895124E+04  0.31990723093E+04 0.  0.
        5    1    3    3  502    0  0.80860732069E+03  0.11975534347E+04 -0.28906392397E+03  0.14736214135E+04  0.46999998093E+01 0. -1.
       -5    1    3    3    0  502 -0.80860732069E+03 -0.11975534347E+04  0.11293524117E+04  0.18339680990E+04  0.46999998093E+01 0.  1.
</event>
<event>
 5   0  0.9727083E-08  0.3189774E+04  0.7818609E-02  0.8191523E-01
        2   -1    0    0  501    0  0.00000000000E+00  0.00000000000E+00  0.18903892775E+04  0.18903892775E+04  0.25500000920E-02 0. -1.
       -2   -1    0    0    0  501  0.00000000000E+00  0.00000000000E+00 -0.13455773082E+04  0.13455773082E+04  0.25500000920E-02 0.  1.
    10030    2    1    2    0    0  0.00000000000E+00  0.00000000000E+00  0.54481196929E+03  0.32359665858E+04  0.31897742338E+04 0.  0.
        4    1    3    3  502    0  0.31614461304E+01 -0.10583763887E+03 -0.13420070992E+04  0.13461783937E+04  0.12699999809E+01 0.  1.
       -4    1    3    3    0  502 -0.31614461304E+01  0.10583763887E+03  0.18868190685E+04  0.18897881920E+04  0.12699999809E+01 0. -1.
</event>
<event>
 5   0  0.9353994E-08  0.3199556E+04  0.7818609E-02  0.8188934E-01
        2   -1    0    0  501    0  0.00000000000E+00  0.00000000000E+00  0.16279072179E+04  0.16279072179E+04  0.25500000920E-02 0.  1.
       -2   -1    0    0    0  501  0.00000000000E+00  0.00000000000E+00 -0.15721352546E+04  0.15721352546E+04  0.25500000920E-02 0. -1.
    10030    2    1    2    0    0  0.00000000000E+00  0.00000000000E+00  0.55771963372E+02  0.32000424725E+04  0.31995564246E+04 0.  0.
        2    1    3    3  502    0 -0.11700861725E+04  0.56646334721E+03 -0.90462251090E+03  0.15837690052E+04  0.25500000920E-02 0. -1.
       -2    1    3    3    0  502  0.11700861725E+04 -0.56646334721E+03  0.96039447428E+03  0.16162734673E+04  0.25500000920E-02 0.  1.
</event>
<event>
 5   0  0.3220147E-08  0.3197907E+04  0.7818609E-02  0.8189370E-01
        1   -1    0    0  501    0  0.00000000000E+00  0.00000000000E+00  0.21664826320E+04  0.21664826320E+04  0.50400001928E-02 0. -1.
       -1   -1    0    0    0  501  0.00000000000E+00  0.00000000000E+00 -0.11800934135E+04  0.11800934136E+04  0.50400001928E-02 0.  1.
    10030    2    1    2    0    0  0.00000000000E+00  0.00000000000E+00  0.98638921848E+03  0.33465760456E+04  0.31979067433E+04 0.  0.
        4    1    3    3  502    0  0.10334336723E+04 -0.94104226151E+03  0.13058963989E+04  0.19128284582E+04  0.12699999809E+01 0. -1.
       -4    1    3    3    0  502 -0.10334336723E+04  0.94104226151E+03 -0.31950718046E+03  0.14337475874E+04  0.12699999809E+01 0.  1.
</event>
<event>
 5   0  0.9157524E-08  0.3200068E+04  0.7818609E-02  0.8188799E-01
        2   -1    0    0  501    0  0.00000000000E+00  0.00000000000E+00  0.16336986484E+04  0.16336986484E+04  0.25500000920E-02 0.  1.
       -2   -1    0    0    0  501  0.00000000000E+00  0.00000000000E+00 -0.15670630383E+04  0.15670630383E+04  0.25500000920E-02 0. -1.
    10030    2    1    2    0    0  0.00000000000E+00  0.00000000000E+00  0.66635610054E+02  0.32007616867E+04  0.32000679790E+04 0.  0.
        5    1    3    3  502    0  0.83090395325E+03  0.63199498319E+03  0.12461265924E+04  0.16256299126E+04  0.46999998093E+01 0.  1.
       -5    1    3    3    0  502 -0.83090395325E+03 -0.63199498319E+03 -0.11794909824E+04  0.15751317741E+04  0.46999998093E+01 0. -1.
</event>
<event>
 5   0  0.3343140E-08  0.3199469E+04  0.7818609E-02  0.8188957E-01
       -1   -1    0    0    0  501  0.00000000000E+00  0.00000000000E+00  0.95623443767E+03  0.95623443768E+03  0.50400001928E-02 0.  1.
        1   -1    0    0  501    0  0.00000000000E+00  0.00000000000E+00 -0.26762794603E+04  0.26762794603E+04  0.50400001928E-02 0. -1.
    10030    2    1    2    0    0  0.00000000000E+00  0.00000000000E+00 -0.17200450227E+04  0.36325138980E+04  0.31994690715E+04 0.  0.
        1    1    3    3  502    0 -0.14683414028E+03 -0.17784642616E+03  0.93726070815E+03  0.96521875817E+03  0.50400001928E-02 0.  1.
       -1    1    3    3    0  502  0.14683414028E+03  0.17784642616E+03 -0.26573057308E+04  0.26672951399E+04  0.50400001928E-02 0. -1.
</event>
<event>
 5   0  0.9727083E-08  0.3201445E+04  0.7818609E-02  0.8188436E-01
        2   -1    0    0  501    0  0.00000000000E+00  0.00000000000E+00  0.21830124587E+04  0.21830124587E+04  0.25500000920E-02 0. -1.
       -2   -1    0    0    0  501  0.00000000000E+00  0.00000000000E+00 -0.11737507127E+04  0.11737507127E+04  0.25500000920E-02 0.  1.
    10030    2    1    2    0    0  0.00000000000E+00  0.00000000000E+00  0.10092617461E+04  0.33567631714E+04  0.32014449420E+04 0.  0.
        4    1    3    3  502    0  0.13877671501E+04  0.51626574156E+03  0.11423166855E+04  0.18701114944E+04  0.12699999809E+01 0. -1.
       -4    1    3    3    0  502 -0.13877671501E+04 -0.51626574156E+03 -0.13305493941E+03  0.14866516770E+04  0.12699999809E+01 0.  1.
</event>
<event>
 5   0  0.3427667E-08  0.3199625E+04  0.7818609E-02  0.8188916E-01
       -1   -1    0    0    0  501  0.00000000000E+00  0.00000000000E+00  0.19428107131E+04  0.19428107131E+04  0.50400001928E-02 0. -1.
        1   -1    0    0  501    0  0.00000000000E+00  0.00000000000E+00 -0.13173693888E+04  0.13173693888E+04  0.50400001928E-02 0.  1.
    10030    2    1    2    0    0  0.00000000000E+00  0.00000000000E+00  0.62544132436E+03  0.32601801019E+04  0.31996245790E+04 0.  0.
        2    1    3    3  502    0 -0.14254186553E+04  0.60481211620E+03 -0.97114714597E+02  0.15514661796E+04  0.25500000920E-02 0.  1.
       -2    1    3    3    0  502  0.14254186553E+04 -0.60481211620E+03  0.72255603895E+03  0.17087139223E+04  0.25500000920E-02 0. -1.
</event>
<event>
 5   0  0.3427667E-08  0.3200869E+04  0.7818609E-02  0.8188588E-01
       -1   -1    0    0    0  501  0.00000000000E+00  0.00000000000E+00  0.99442302580E+03  0.99442302581E+03  0.50400001928E-02 0. -1.
        1   -1    0    0  501    0  0.00000000000E+00  0.00000000000E+00 -0.25757548389E+04  0.25757548389E+04  0.50400001928E-02 0.  1.
    10030    2    1    2    0    0  0.00000000000E+00  0.00000000000E+00 -0.15813318131E+04  0.35701778647E+04  0.32008685825E+04 0.  0.
        2    1    3    3  502    0  0.82601778006E+03 -0.11049163245E+04 -0.16955972206E+04  0.21859083676E+04  0.25500000920E-02 0.  1.
       -2    1    3    3    0  502 -0.82601778006E+03  0.11049163245E+04  0.11426540758E+03  0.13842694970E+04  0.25500000920E-02 0. -1.
</event>
<event>
 5   0  0.9353994E-08  0.3200400E+04  0.7818609E-02  0.8188712E-01
       -2   -1    0    0    0  501  0.00000000000E+00  0.00000000000E+00  0.15154136649E+04  0.15154136649E+04  0.25500000920E-02 0.  1.
        2   -1    0    0  501    0  0.00000000000E+00  0.00000000000E+00 -0.16897297322E+04  0.16897297322E+04  0.25500000920E-02 0. -1.
    10030    2    1    2    0    0  0.00000000000E+00  0.00000000000E+00 -0.17431606732E+03  0.32051433971E+04  0.32003996789E+04 0.  0.
        2    1    3    3  502    0 -0.62108827422E+03 -0.16620373413E+02 -0.15640005984E+04  0.16828917829E+04  0.25500000920E-02 0. -1.
       -2    1    3    3    0  502  0.62108827422E+03  0.16620373413E+02  0.13896845310E+04  0.15222516142E+04  0.25500000920E-02 0.  1.
</event>
<event>
 5   0  0.3283581E-08  0.3203975E+04  0.7818609E-02  0.8187768E-01
        1   -1    0    0  501    0  0.00000000000E+00  0.00000000000E+00  0.28353126014E+04  0.28353126014E+04  0.50400001928E-02 0.  1.
       -1   -1    0    0    0  501  0.00000000000E+00  0.00000000000E+00 -0.90514308131E+03  0.90514308132E+03  0.50400001928E-02 0. -1.
    10030    2    1    2    0    0  0.00000000000E+00  0.00000000000E+00  0.19301695200E+04  0.37404556827E+04  0.32039747717E+04 0.  0.
        5    1    3    3  502    0  0.10259875482E+04 -0.83910464906E+03  0.20155197567E+04  0.24122788066E+04  0.46999998093E+01 0.  1.
       -5    1    3    3    0  502 -0.10259875482E+04  0.83910464906E+03 -0.85350236682E+02  0.13281768760E+04  0.46999998093E+01 0. -1.
</event>
<event>
 5   0  0.3343140E-08  0.3194725E+04  0.7818609E-02  0.8190212E-01
       -1   -1    0    0    0  501  0.00000000000E+00  0.00000000000E+00  0.17573595893E+04  0.17573595893E+04  0.50400001928E-02 0. -1.
        1   -1    0    0  501    0  0.00000000000E+00  0.00000000000E+00 -0.14519317473E+04  0.14519317473E+04  0.50400001928E-02 0.  1.
    10030    2    1    2    0    0  0.00000000000E+00  0.00000000000E+00  0.30542784201E+03  0.32092913365E+04  0.31947245133E+04 0.  0.
        1    1    3    3  502    0 -0.47921718210E+03 -0.79833446167E+03 -0.11511174952E+04  0.14805602008E+04  0.50400001928E-02 0.  1.
       -1    1    3    3    0  502  0.47921718210E+03  0.79833446167E+03  0.14565453372E+04  0.17287311357E+04  0.50400001928E-02 0. -1.
</event>
<event>
 5   0  0.3283581E-08  0.3199365E+04  0.7818609E-02  0.8188985E-01
        1   -1    0    0  501    0  0.00000000000E+00  0.00000000000E+00  0.16887816743E+04  0.16887816743E+04  0.50400001928E-02 0.  1.
       -1   -1    0    0    0  501  0.00000000000E+00  0.00000000000E+00 -0.15152844029E+04  0.15152844029E+04  0.50400001928E-02 0. -1.
    10030    2    1    2    0    0  0.00000000000E+00  0.00000000000E+00  0.17349727136E+03  0.32040660773E+04  0.31993652690E+04 0.  0.
        5    1    3    3  502    0  0.10283648426E+04  0.48317762528E+03  0.12144437832E+04  0.16630967078E+04  0.46999998093E+01 0.  1.
       -5    1    3    3    0  502 -0.10283648426E+04 -0.48317762528E+03 -0.10409465118E+04  0.15409693694E+04  0.46999998093E+01 0. -1.
</event>
<event>
 5   0  0.9353994E-08  0.3201185E+04  0.7818609E-02  0.8188504E-01
       -2   -1    0    0    0  501  0.00000000000E+00  0.00000000000E+00  0.95574812821E+03  0.95574812821E+03  0.25500000920E-02 0.  1.
        2   -1    0    0  501    0  0.00000000000E+00  0.00000000000E+00 -0.26805140472E+04  0.26805140472E+04  0.25500000920E-02 0. -1.
    10030    2    1    2    0    0  0.00000000000E+00  0.00000000000E+00 -0.17247659189E+04  0.36362621754E+04  0.32011849576E+04 0.  0.
        2    1    3    3  502    0  0.86822017570E+01  0.34465009826E+03 -0.26378371121E+04  0.26602713585E+04  0.25500000920E-02 0. -1.
       -2    1    3    3    0  502 -0.86822017570E+01 -0.34465009826E+03  0.91307119315E+03  0.97599081688E+03  0.25500000920E-02 0.  1.
</event>
<event>
 5   0  0.9353994E-08  0.3199442E+04  0.7818609E-02  0.8188965E-01
       -2   -1    0    0    0  501  0.00000000000E+00  0.00000000000E+00  0.15378889238E+04  0.15378889238E+04  0.25500000920E-02 0. -1.
        2   -1    0    0  501    0  0.00000000000E+00  0.00000000000E+00 -0.16640391450E+04  0.16640391450E+04  0.25500000920E-02 0.  1.
    10030    2    1    2    0    0  0.00000000000E+00  0.00000000000E+00 -0.12615022124E+03  0.32019280688E+04  0.31994420575E+04 0.  0.
        2    1    3    3  502    0  0.59308035197E+03 -0.43498021760E+02  0.14231616415E+04  0.15424089729E+04  0.25500000920E-02 0. -1.
       -2    1    3    3    0  502 -0.59308035197E+03  0.43498021760E+02 -0.15493118627E+04  0.16595190959E+04  0.25500000920E-02 0.  1.
</event>
<event>
 5   0  0.3343140E-08  0.3199989E+04  0.7818609E-02  0.8188820E-01
        1   -1    0    0  501    0  0.00000000000E+00  0.00000000000E+00  0.15300468712E+04  0.15300468712E+04  0.50400001928E-02 0.  1.
       -1   -1    0    0    0  501  0.00000000000E+00  0.00000000000E+00 -0.16731402447E+04  0.16731402447E+04  0.50400001928E-02 0. -1.
    10030    2    1    2    0    0  0.00000000000E+00  0.00000000000E+00 -0.14309337352E+03  0.32031871159E+04  0.31999893728E+04 0.  0.
        1    1    3    3  502    0  0.24241498864E+03  0.67786707761E+03 -0.15018602173E+04  0.16654887913E+04  0.50400001928E-02 0. -1.
       -1    1    3    3    0  502 -0.24241498864E+03 -0.67786707761E+03  0.13587668438E+04  0.15376983246E+04  0.50400001928E-02 0.  1.
</event>
<event>
 5   0  0.9707721E-08  0.3198680E+04  0.7818609E-02  0.8189166E-01
       -2   -1    0    0    0  501  0.00000000000E+00  0.00000000000E+00  0.15208631519E+04  0.15208631519E+04  0.25500000920E-02 0. -1.
        2   -1    0    0  501    0  0.00000000000E+00  0.00000000000E+00 -0.16818660897E+04  0.16818660897E+04  0.25500000920E-02 0.  1.
    10030    2    1    2    0    0  0.00000000000E+00  0.00000000000E+00 -0.16100293781E+03  0.32027292415E+04  0.31986798290E+04 0.  0.
        3    1    3    3  502    0 -0.61636080223E+03  0.97818283559E+03 -0.11869551115E+04  0.16569866461E+04  0.10100000352E+00 0.  1.
       -3    1    3    3    0  502  0.61636080223E+03 -0.97818283559E+03  0.10259521737E+04  0.15457425954E+04  0.10100000352E+00 0. -1.
</event>
<event>
 5   0  0.9707721E-08  0.3198969E+04  0.7818609E-02  0.8189089E-01
        2   -1    0    0  501    0  0.00000000000E+00  0.00000000000E+00  0.20155570185E+04  0.20155570185E+04  0.25500000920E-02 0. -1.
       -2   -1    0    0    0  501  0.00000000000E+00  0.00000000000E+00 -0.12693020999E+04  0.12693020999E+04  0.25500000920E-02 0.  1.
    10030    2    1    2    0    0  0.00000000000E+00  0.00000000000E+00  0.74625491868E+03  0.32848591184E+04  0.31989690564E+04 0.  0.
        3    1    3    3  502    0  0.12575192508E+04 -0.93148771101E+03  0.33603930333E+02  0.15652965394E+04  0.10100000352E+00 0.  1.
       -3    1    3    3    0  502 -0.12575192508E+04  0.93148771101E+03  0.71265098834E+03  0.17195625790E+04  0.10100000352E+00 0. -1.
</event>
<event>
 5   0  0.9727083E-08  0.3200365E+04  0.7818609E-02  0.8188721E-01
        2   -1    0    0  501    0  0.00000000000E+00  0.00000000000E+00  0.16227714671E+04  0.16227714671E+04  0.25500000920E-02 0.  1.
       -2   -1    0    0    0  501  0.00000000000E+00  0.00000000000E+00 -0.15779080882E+04  0.15779080882E+04  0.25500000920E-02 0. -1.
    10030    2    1    2    0    0  0.00000000000E+00  0.00000000000E+00  0.44863378925E+02  0.32006795553E+04  0.32003651187E+04 0.  0.
        4    1    3    3  502    0  0.63235308345E+03 -0.12995144599E+04 -0.66463970730E+03  0.15907092152E+04  0.12699999809E+01 0. -1.
       -4    1    3    3    0  502 -0.63235308345E+03  0.12995144599E+04  0.70950308623E+03  0.16099703401E+04  0.12699999809E+01 0.  1.
</event>
<event>
 5   0  0.3220147E-08  0.3199616E+04  0.7818609E-02  0.8188918E-01
        1   -1    0    0  501    0  0.00000000000E+00  0.00000000000E+00  0.19725118219E+04  0.19725118219E+04  0.50400001928E-02 0. -1.
       -1   -1    0    0    0  501  0.00000000000E+00  0.00000000000E+00 -0.12975264989E+04  0.12975264989E+04  0.50400001928E-02 0.  1.
    10030    2    1    2    0    0  0.00000000000E+00  0.00000000000E+00  0.67498532297E+03  0.32700383208E+04  0.31996164510E+04 0.  0.
        4    1    3    3  502    0 -0.54837754493E+03  0.14790724619E+04  0.60983750754E+03  0.16912352520E+04  0.12699999809E+01 0.  1.
       -4    1    3    3    0  502  0.54837754493E+03 -0.14790724619E+04  0.65147815431E+02  0.15788030688E+04  0.12699999809E+01 0. -1.
</event>
<event>
 5   0  0.3220147E-08  0.3200249E+04  0.7818609E-02  0.8188751E-01
        1   -1    0    0  501    0  0.00000000000E+00  0.00000000000E+00  0.12490993104E+04  0.12490993104E+04  0.50400001928E-02 0. -1.
       -1   -1    0    0    0  501  0.00000000000E+00  0.00000000000E+00 -0.20497963363E+04  0.20497963363E+04  0.50400001928E-02 0.  1.
    10030    2    1    2    0    0  0.00000000000E+00  0.00000000000E+00 -0.80069702589E+03  0.32988956468E+04  0.32002494842E+04 0.  0.
        4    1    3    3  502    0  0.14017438892E+03  0.10000187564E+04 -0.16798634555E+04  0.19600074527E+04  0.12699999809E+01 0.  1.
       -4    1    3    3    0  502 -0.14017438892E+03 -0.10000187564E+04  0.87916642963E+03  0.13388881941E+04  0.12699999809E+01 0. -1.
</event>
<event>
 5   0  0.9157524E-08  0.3197793E+04  0.7818609E-02  0.8189400E-01
       -2   -1    0    0    0  501  0.00000000000E+00  0.00000000000E+00  0.14143922995E+04  0.14143922995E+04  0.25500000920E-02 0.  1.
        2   -1    0    0  501    0  0.00000000000E+00  0.00000000000E+00 -0.18074692538E+04  0.18074692538E+04  0.25500000920E-02 0. -1.
    10030    2    1    2    0    0  0.00000000000E+00  0.00000000000E+00 -0.39307695438E+03  0.32218615533E+04  0.31977933605E+04 0.  0.
        5    1    3    3  502    0 -0.67679992444E+03  0.61167648852E+02 -0.16547216942E+04  0.17888335848E+04  0.46999998093E+01 0. -1.
       -5    1    3    3    0  502  0.67679992444E+03 -0.61167648852E+02  0.12616447398E+04  0.14330279685E+04  0.46999998093E+01 0.  1.
</event>
<event>
 5   0  0.3220147E-08  0.3200404E+04  0.7818609E-02  0.8188710E-01
       -1   -1    0    0    0  501  0.00000000000E+00  0.00000000000E+00  0.14348123563E+04  0.14348123563E+04  0.50400001928E-02 0.  1.
        1   -1    0    0  501    0  0.00000000000E+00  0.00000000000E+00 -0.17846559811E+04  0.17846559811E+04  0.50400001928E-02 0. -1.
    10030    2    1    2    0    0  0.00000000000E+00  0.00000000000E+00 -0.34984362484E+03  0.32194683375E+04  0.32004040079E+04 0.  0.
        4    1    3    3  502    0  0.53254083386E+03 -0.44487866243E+03 -0.16254292976E+04  0.17673536087E+04  0.12699999809E+01 0. -1.
       -4    1    3    3    0  502 -0.53254083386E+03  0.44487866243E+03  0.12755856727E+04  0.14521147287E+04  0.12699999809E+01 0.  1.
</event>
<event>
 5   0  0.9707721E-08  0.3201123E+04  0.7818609E-02  0.8188521E-01
       -2   -1    0    0    0  501  0.00000000000E+00  0.00000000000E+00  0.23005922411E+04  0.23005922411E+04  0.25500000920E-02 0. -1.
        2   -1    0    0  501    0  0.00000000000E+00  0.00000000000E+00 -0.11135380115E+04  0.11135380115E+04  0.25500000920E-02 0.  1.
    10030    2    1    2    0    0  0.00000000000E+00  0.00000000000E+00  0.11870542296E+04  0.34141302526E+04  0.32011228714E+04 0.  0.
        3    1    3    3  502    0 -0.68042558014E+03  0.11124533228E+04 -0.39627020950E+03  0.13629238624E+04  0.10100000352E+00 0.  1.
       -3    1    3    3    0  502  0.68042558014E+03 -0.11124533228E+04  0.15833244391E+04  0.20512063902E+04  0.10100000352E+00 0. -1.
</event>
<event>
 5   0  0.9707721E-08  0.3199084E+04  0.7818609E-02  0.8189059E-01
       -2   -1    0    0    0  501  0.00000000000E+00  0.00000000000E+00  0.12720742423E+04  0.12720742423E+04  0.25500000920E-02 0. -1.
        2   -1    0    0  501    0  0.00000000000E+00  0.00000000000E+00 -0.20113087575E+04  0.20113087575E+04  0.25500000920E-02 0.  1.
    10030    2    1    2    0    0  0.00000000000E+00  0.00000000000E+00 -0.73923451522E+03  0.32833829998E+04  0.31990836586E+04 0.  0.
        3    1    3    3  502    0 -0.59256920051E+03 -0.14848905065E+04 -0.42089353481E+03  0.16532360544E+04  0.10100000352E+00 0.  1.
       -3    1    3    3    0  502  0.59256920051E+03  0.14848905065E+04 -0.31834098041E+03  0.16301469454E+04  0.10100000352E+00 0. -1.
</event>
<event>
 5   0  0.3220147E-08  0.3199937E+04  0.7818609E-02  0.8188834E-01
       -1   -1    0    0    0  501  0.00000000000E+00  0.00000000000E+00  0.95449598782E+03  0.95449598784E+03  0.50400001928E-02 0.  1.
        1   -1    0    0  501    0  0.00000000000E+00  0.00000000000E+00 -0.26819374370E+04  0.26819374370E+04  0.50400001928E-02 0. -1.
    10030    2    1    2    0    0  0.00000000000E+00  0.00000000000E+00 -0.17274414492E+04  0.36364334248E+04  0.31999365764E+04 0.  0.
        4    1    3    3  502    0 -0.86087900516E+02  0.97304912326E+03 -0.23037165240E+04  0.25022684026E+04  0.12699999809E+01 0.  1.
       -4    1    3    3    0  502  0.86087900516E+02 -0.97304912326E+03  0.57627507482E+03  0.11341650222E+04  0.12699999809E+01 0. -1.
</event>
<event>
 5   0  0.3270966E-08  0.3201159E+04  0.7818609E-02  0.8188511E-01
        1   -1    0    0  501    0  0.00000000000E+00  0.00000000000E+00  0.21353811378E+04  0.21353811378E+04  0.50400001928E-02 0.  1.
       -1   -1    0    0    0  501  0.00000000000E+00  0.00000000000E+00 -0.11997177992E+04  0.11997177992E+04  0.50400001928E-02 0. -1.
    10030    2    1    2    0    0  0.00000000000E+00  0.00000000000E+00  0.93566333862E+03  0.33350989370E+04  0.32011590145E+04 0.  0.
        3    1    3    3  502    0  0.40126315412E+03  0.24910258559E+03 -0.11254667953E+04  0.12205489480E+04  0.10100000352E+00 0. -1.
       -3    1    3    3    0  502 -0.40126315412E+03 -0.24910258559E+03  0.20611301339E+04  0.21145499890E+04  0.10100000352E+00 0.  1.
</event>
<event>
 5   0  0.3220147E-08  0.3200215E+04  0.7818609E-02  0.8188760E-01
        1   -1    0    0  501    0  0.00000000000E+00  0.00000000000E+00  0.22125765997E+04  0.22125765997E+04  0.50400001928E-02 0.  1.
       -1   -1    0    0    0  501  0.00000000000E+00  0.00000000000E+00 -0.11571775683E+04  0.11571775683E+04  0.50400001928E-02 0. -1.
    10030    2    1    2    0    0  0.00000000000E+00  0.00000000000E+00  0.10553990314E+04  0.33697541680E+04  0.32002149986E+04 0.  0.
        4    1    3    3  502    0  0.62536922182E+03 -0.68847677625E+02 -0.10214717606E+04  0.11996803061E+04  0.12699999809E+01 0. -1.
       -4    1    3    3    0  502 -0.62536922182E+03  0.68847677625E+02  0.20768707920E+04  0.21700738619E+04  0.12699999809E+01 0.  1.
</event>
<event>
 5   0  0.9157524E-08  0.3196639E+04  0.7818609E-02  0.8189705E-01
        2   -1    0    0  501    0  0.00000000000E+00  0.00000000000E+00  0.17812234026E+04  0.17812234026E+04  0.25500000920E-02 0. -1.
       -2   -1    0    0    0  501  0.00000000000E+00  0.00000000000E+00 -0.14341972406E+04  0.14341972406E+04  0.25500000920E-02 0.  1.
    10030    2    1    2    0    0  0.00000000000E+00  0.00000000000E+00  0.34702616201E+03  0.32154206431E+04  0.31966392908E+04 0.  0.
        5    1    3    3  502    0  0.10068149812E+04  0.87619824902E+03  0.10579994783E+04  0.17031690356E+04  0.46999998093E+01 0. -1.
       -5    1    3    3    0  502 -0.10068149812E+04 -0.87619824902E+03 -0.71097331627E+03  0.15122516075E+04  0.46999998093E+01 0.  1.
</event>
<event>
 5   0  0.3220147E-08  0.3200283E+04  0.7818609E-02  0.8188742E-01
        1   -1    0    0  501    0  0.00000000000E+00  0.00000000000E+00  0.13545557275E+04  0.13545557275E+04  0.50400001928E-02 0. -1.
       -1   -1    0    0    0  501  0.00000000000E+00  0.00000000000E+00 -0.18902529012E+04  0.18902529012E+04  0.50400001928E-02 0.  1.
    10030    2    1    2    0    0  0.00000000000E+00  0.00000000000E+00 -0.53569717366E+03  0.32448086287E+04  0.32002830461E+04 0.  0.
        4    1    3    3  502    0 -0.14703436340E+04 -0.57535218590E+03 -0.53129187282E+03  0.16658971177E+04  0.12699999809E+01 0.  1.
       -4    1    3    3    0  502  0.14703436340E+04  0.57535218590E+03 -0.44053008436E+01  0.15789115110E+04  0.12699999809E+01 0. -1.
</event>
<event>
 5   0  0.3427667E-08  0.3200350E+04  0.7818609E-02  0.8188725E-01
       -1   -1    0    0    0  501  0.00000000000E+00  0.00000000000E+00  0.17067404450E+04  0.17067404450E+04  0.50400001928E-02 0.  1.
        1   -1    0    0  501    0  0.00000000000E+00  0.00000000000E+00 -0.15002631289E+04  0.15002631289E+04  0.50400001928E-02 0. -1.
    10030    2    1    2    0    0  0.00000000000E+00  0.00000000000E+00  0.20647731612E+03  0.32070035739E+04  0.32003498310E+04 0.  0.
        2    1    3    3  502    0 -0.84055164292E+02  0.39991467087E+02  0.17040251293E+04  0.17065656242E+04  0.25500000920E-02 0.  1.
       -2    1    3    3    0  502  0.84055164292E+02 -0.39991467087E+02 -0.14975478132E+04  0.15004379497E+04  0.25500000920E-02 0. -1.
</event>
<event>
 5   0  0.3283581E-08  0.3200898E+04  0.7818609E-02  0.8188580E-01
        1   -1    0    0  501    0  0.00000000000E+00  0.00000000000E+00  0.15171122332E+04  0.15171122332E+04  0.50400001928E-02 0.  1.
       -1   -1    0    0    0  501  0.00000000000E+00  0.00000000000E+00 -0.16883631606E+04  0.16883631606E+04  0.50400001928E-02 0. -1.
    10030    2    1    2    0    0  0.00000000000E+00  0.00000000000E+00 -0.17125092742E+03  0.32054753938E+04  0.32008976273E+04 0.  0.
        5    1    3    3  502    0 -0.13851010323E+03 -0.72718629843E+03 -0.15066083937E+04  0.16786530027E+04  0.46999998093E+01 0. -1.
       -5    1    3    3    0  502  0.13851010323E+03  0.72718629843E+03  0.13353574663E+04  0.15268223912E+04  0.46999998093E+01 0.  1.
</event>
<event>
 5   0  0.9353994E-08  0.3198455E+04  0.7818609E-02  0.8189225E-01
       -2   -1    0    0    0  501  0.00000000000E+00  0.00000000000E+00  0.11951987010E+04  0.11951987010E+04  0.25500000920E-02 0.  1.
        2   -1    0    0  501    0  0.00000000000E+00  0.00000000000E+00 -0.21398361522E+04  0.21398361522E+04  0.25500000920E-02 0. -1.
    10030    2    1    2    0    0  0.00000000000E+00  0.00000000000E+00 -0.94463745126E+03  0.33350348532E+04  0.31984554957E+04 0.  0.
        2    1    3    3  502    0 -0.79954402192E+03 -0.64861775275E+03 -0.17483204911E+04  0.20289406526E+04  0.25500000920E-02 0. -1.
       -2    1    3    3    0  502  0.79954402192E+03  0.64861775275E+03  0.80368303987E+03  0.13060942006E+04  0.25500000920E-02 0.  1.
</event>
<event>
 5   0  0.9727083E-08  0.3200060E+04  0.7818609E-02  0.8188801E-01
       -2   -1    0    0    0  501  0.00000000000E+00  0.00000000000E+00  0.10035798592E+04  0.10035798592E+04  0.25500000920E-02 0.  1.
        2   -1    0    0  501    0  0.00000000000E+00  0.00000000000E+00 -0.25509643199E+04  0.25509643199E+04  0.25500000920E-02 0. -1.
    10030    2    1    2    0    0  0.00000000000E+00  0.00000000000E+00 -0.15473844606E+04  0.35545441791E+04  0.32000602575E+04 0.  0.
        4    1    3    3  502    0 -0.15734777022E+04  0.27046503593E+03 -0.89077954931E+03  0.18282432095E+04  0.12699999809E+01 0.  1.
       -4    1    3    3    0  502  0.15734777022E+04 -0.27046503593E+03 -0.65660491134E+03  0.17263009695E+04  0.12699999809E+01 0. -1.
</event>
<event>
 5   0  0.9707721E-08  0.3202055E+04  0.7818609E-02  0.8188275E-01
        2   -1    0    0  501    0  0.00000000000E+00  0.00000000000E+00  0.15784029141E+04  0.15784029141E+04  0.25500000920E-02 0. -1.
       -2   -1    0    0    0  501  0.00000000000E+00  0.00000000000E+00 -0.16239767836E+04  0.16239767836E+04  0.25500000920E-02 0.  1.
    10030    2    1    2    0    0  0.00000000000E+00  0.00000000000E+00 -0.45573869426E+02  0.32023796977E+04  0.32020553947E+04 0.  0.
        3    1    3    3  502    0 -0.13578380905E+04  0.67433769521E+03  0.49188550246E+03  0.15938654162E+04  0.10100000352E+00 0. -1.
       -3    1    3    3    0  502  0.13578380905E+04 -0.67433769521E+03 -0.53745937189E+03  0.16085142815E+04  0.10100000352E+00 0.  1.
</event>
<event>
 5   0  0.3343140E-08  0.3200689E+04  0.7818609E-02  0.8188635E-01
        1   -1    0    0  501    0  0.00000000000E+00  0.00000000000E+00  0.18566312156E+04  0.18566312156E+04  0.50400001928E-02 0. -1.
       -1   -1    0    0    0  501  0.00000000000E+00  0.00000000000E+00 -0.13794352248E+04  0.13794352248E+04  0.50400001928E-02 0.  1.
    10030    2    1    2    0    0  0.00000000000E+00  0.00000000000E+00  0.47719599087E+03  0.32360664404E+04  0.32006889872E+04 0.  0.
        1    1    3    3  502    0  0.14753397040E+04 -0.60827520355E+03  0.36024634863E+03  0.16359716981E+04  0.50400001928E-02 0.  1.
       -1    1    3    3    0  502 -0.14753397040E+04  0.60827520355E+03  0.11694964224E+03  0.16000947423E+04  0.50400001928E-02 0. -1.
</event>
<event>
 5   0  0.3270966E-08  0.3199062E+04  0.7818609E-02  0.8189065E-01
       -1   -1    0    0    0  501  0.00000000000E+00  0.00000000000E+00  0.12823495293E+04  0.12823495294E+04  0.50400001928E-02 0.  1.
        1   -1    0    0  501    0  0.00000000000E+00  0.00000000000E+00 -0.19951650219E+04  0.19951650219E+04  0.50400001928E-02 0. -1.
    10030    2    1    2    0    0  0.00000000000E+00  0.00000000000E+00 -0.71281549258E+03  0.32775145513E+04  0.31990616917E+04 0.  0.
        3    1    3    3  502    0  0.98365476962E+03  0.75359779129E+03  0.67983737859E+03  0.14133878478E+04  0.10100000352E+00 0.  1.
       -3    1    3    3    0  502 -0.98365476962E+03 -0.75359779129E+03 -0.13926528712E+04  0.18641267035E+04  0.10100000352E+00 0. -1.
</event>
<event>
 5   0  0.3283581E-08  0.3200371E+04  0.7818609E-02  0.8188719E-01
        1   -1    0    0  501    0  0.00000000000E+00  0.00000000000E+00  0.25270330212E+04  0.25270330212E+04  0.50400001928E-02 0. -1.
       -1   -1    0    0    0  501  0.00000000000E+00  0.00000000000E+00 -0.10132803984E+04  0.10132803984E+04  0.50400001928E-02 0.  1.
    10030    2    1    2    0    0  0.00000000000E+00  0.00000000000E+00  0.15137526228E+04  0.35403134195E+04  0.32003706200E+04 0.  0.
        5    1    3    3  502    0  0.10481068701E+04 -0.45660096406E+03 -0.48167423948E+03  0.12405823691E+04  0.46999998093E+01 0.  1.
       -5    1    3    3    0  502 -0.10481068701E+04  0.45660096406E+03  0.19954268623E+04  0.22997310504E+04  0.46999998093E+01 0. -1.
</event>
<event>
 5   0  0.3283581E-08  0.3200109E+04  0.7818609E-02  0.8188788E-01
       -1   -1    0    0    0  501  0.00000000000E+00  0.00000000000E+00  0.15053995690E+04  0.15053995690E+04  0.50400001928E-02 0. -1.
        1   -1    0    0  501    0  0.00000000000E+00  0.00000000000E+00 -0.17006607986E+04  0.17006607986E+04  0.50400001928E-02 0.  1.
    10030    2    1    2    0    0  0.00000000000E+00  0.00000000000E+00 -0.19526122967E+03  0.32060603676E+04  0.32001087689E+04 0.  0.
        5    1    3    3  502    0 -0.31957912625E+03 -0.72513451164E+02 -0.16666732406E+04  0.16985908275E+04  0.46999998093E+01 0.  1.
       -5    1    3    3    0  502  0.31957912625E+03  0.72513451164E+02  0.14714120109E+04  0.15074695401E+04  0.46999998093E+01 0. -1.
</event>
<event>
 5   0  0.9353994E-08  0.3200064E+04  0.7818609E-02  0.8188800E-01
       -2   -1    0    0    0  501  0.00000000000E+00  0.00000000000E+00  0.75459955424E+03  0.75459955424E+03  0.25500000920E-02 0.  1.
        2   -1    0    0  501    0  0.00000000000E+00  0.00000000000E+00 -0.33926633833E+04  0.33926633833E+04  0.25500000920E-02 0. -1.
    10030    2    1    2    0    0  0.00000000000E+00  0.00000000000E+00 -0.26380638291E+04  0.41472629376E+04  0.32000639223E+04 0.  0.
        2    1    3    3  502    0  0.87139538501E+03  0.20532258047E+03 -0.30376853215E+04  0.31668627049E+04  0.25500000920E-02 0. -1.
       -2    1    3    3    0  502 -0.87139538501E+03 -0.20532258047E+03  0.39962149241E+03  0.98040023269E+03  0.25500000920E-02 0.  1.
</event>
<event>
 5   0  0.9353994E-08  0.3200348E+04  0.7818609E-02  0.8188725E-01
       -2   -1    0    0    0  501  0.00000000000E+00  0.00000000000E+00  0.87269269855E+03  0.87269269856E+03  0.25500000920E-02 0. -1.
        2   -1    0    0  501    0  0.00000000000E+00  0.00000000000E+00 -0.29340867872E+04  0.29340867872E+04  0.25500000920E-02 0.  1.
    10030    2    1    2    0    0  0.00000000000E+00  0.00000000000E+00 -0.20613940886E+04  0.38067794857E+04  0.32003475537E+04 0.  0.
        2    1    3    3  502    0  0.15645149470E+04 -0.31360294412E+03 -0.11739418453E+04  0.19809576679E+04  0.25500000920E-02 0.  1.
       -2    1    3    3    0  502 -0.15645149470E+04  0.31360294412E+03 -0.88745224333E+03  0.18258218178E+04  0.25500000920E-02 0. -1.
</event>
<event>
 5   0  0.3270966E-08  0.3198926E+04  0.7818609E-02  0.8189101E-01
       -1   -1    0    0    0  501  0.00000000000E+00  0.00000000000E+00  0.13390707084E+04  0.13390707084E+04  0.50400001928E-02 0. -1.
        1   -1    0    0  501    0  0.00000000000E+00  0.00000000000E+00 -0.19104907178E+04  0.19104907178E+04  0.50400001928E-02 0.  1.
    10030    2    1    2    0    0  0.00000000000E+00  0.00000000000E+00 -0.57142000940E+03  0.32495614262E+04  0.31989261691E+04 0.  0.
        3    1    3    3  502    0 -0.80992692453E+03  0.10570235610E+04  0.61431761565E+03  0.14665151123E+04  0.10100000352E+00 0. -1.
       -3    1    3    3    0  502  0.80992692453E+03 -0.10570235610E+04 -0.11857376251E+04  0.17830463138E+04  0.10100000352E+00 0.  1.
</event>
<event>
 5   0  0.3343140E-08  0.3200327E+04  0.7818609E-02  0.8188731E-01
        1   -1    0    0  501    0  0.00000000000E+00  0.00000000000E+00  0.21026086311E+04  0.21026086311E+04  0.50400001928E-02 0. -1.
       -1   -1    0    0    0  501  0.00000000000E+00  0.00000000000E+00 -0.12177841878E+04  0.12177841878E+04  0.50400001928E-02 0.  1.
    10030    2    1    2    0    0  0.00000000000E+00  0.00000000000E+00  0.88482444326E+03  0.33203928189E+04  0.32003271983E+04 0.  0.
        1    1    3    3  502    0  0.23576685506E+03  0.12989628988E+04 -0.49574206736E+03  0.14101953127E+04  0.50400001928E-02 0.  1.
       -1    1    3    3    0  502 -0.23576685506E+03 -0.12989628988E+04  0.13805665106E+04  0.19101975062E+04  0.50400001928E-02 0. -1.
</event>
<event>
 5   0  0.9329929E-08  0.3186976E+04  0.7818609E-02  0.8192265E-01
       -2   -1    0    0    0  501  0.00000000000E+00  0.00000000000E+00  0.10789946739E+04  0.10789946739E+04  0.25500000920E-02 0.  1.
        2   -1    0    0  501    0  0.00000000000E+00  0.00000000000E+00 -0.23533061240E+04  0.23533061240E+04  0.25500000920E-02 0. -1.
    10030    2    1    2    0    0  0.00000000000E+00  0.00000000000E+00 -0.12743114501E+04  0.34323007979E+04  0.31869764818E+04 0.  0.
        1    1    3    3  502    0  0.54065284710E+03 -0.11007813402E+04  0.45860154046E+03  0.13093282373E+04  0.50400001928E-02 0.  1.
       -1    1    3    3    0  502 -0.54065284710E+03  0.11007813402E+04 -0.17329129905E+04  0.21229725606E+04  0.50400001928E-02 0. -1.
</event>
<event>
 5   0  0.9157524E-08  0.3203057E+04  0.7818609E-02  0.8188010E-01
       -2   -1    0    0    0  501  0.00000000000E+00  0.00000000000E+00  0.98448316264E+03  0.98448316264E+03  0.25500000920E-02 0.  1.
        2   -1    0    0  501    0  0.00000000000E+00  0.00000000000E+00 -0.26053203548E+04  0.26053203548E+04  0.25500000920E-02 0. -1.
    10030    2    1    2    0    0  0.00000000000E+00  0.00000000000E+00 -0.16208371922E+04  0.35898035174E+04  0.32030573036E+04 0.  0.
        5    1    3    3  502    0 -0.20038798694E+03 -0.35778376227E+03  0.92463732116E+03  0.10115042420E+04  0.46999998093E+01 0.  1.
       -5    1    3    3    0  502  0.20038798694E+03  0.35778376227E+03 -0.25454745133E+04  0.25782992755E+04  0.46999998093E+01 0. -1.
</event>
<event>
 5   0  0.3427667E-08  0.3199934E+04  0.7818609E-02  0.8188835E-01
       -1   -1    0    0    0  501  0.00000000000E+00  0.00000000000E+00  0.27027913869E+04  0.27027913869E+04  0.50400001928E-02 0. -1.
        1   -1    0    0  501    0  0.00000000000E+00  0.00000000000E+00 -0.94713008003E+03  0.94713008005E+03  0.50400001928E-02 0.  1.
    10030    2    1    2    0    0  0.00000000000E+00  0.00000000000E+00  0.17556613068E+04  0.36499214669E+04  0.31999343884E+04 0.  0.
        2    1    3    3  502    0 -0.24261140850E+03 -0.15073405855E+04  0.33204591406E+03  0.15624309345E+04  0.25500000920E-02 0.  1.
       -2    1    3    3    0  502  0.24261140850E+03  0.15073405855E+04  0.14236153928E+04  0.20874905324E+04  0.25500000920E-02 0. -1.
</event>
<event>
 5   0  0.3427667E-08  0.3195358E+04  0.7818609E-02  0.8190044E-01
        1   -1    0    0  501    0  0.00000000000E+00  0.00000000000E+00  0.12892372670E+04  0.12892372670E+04  0.50400001928E-02 0.  1.
       -1   -1    0    0    0  501  0.00000000000E+00  0.00000000000E+00 -0.19799134495E+04  0.19799134495E+04  0.50400001928E-02 0. -1.
    10030    2    1    2    0    0  0.00000000000E+00  0.00000000000E+00 -0.69067618253E+03  0.32691507165E+04  0.31953580110E+04 0.  0.
        2    1    3    3  502    0  0.11168262029E+04 -0.60233890015E+03  0.64788795663E+03  0.14247356676E+04  0.25500000920E-02 0.  1.
       -2    1    3    3    0  502 -0.11168262029E+04  0.60233890015E+03 -0.13385641392E+04  0.18444150489E+04  0.25500000920E-02 0. -1.
</event>
<event>
 5   0  0.3270966E-08  0.3198533E+04  0.7818609E-02  0.8189205E-01
        1   -1    0    0  501    0  0.00000000000E+00  0.00000000000E+00  0.16198454834E+04  0.16198454834E+04  0.50400001928E-02 0.  1.
       -1   -1    0    0    0  501  0.00000000000E+00  0.00000000000E+00 -0.15789490553E+04  0.15789490553E+04  0.50400001928E-02 0. -1.
    10030    2    1    2    0    0  0.00000000000E+00  0.00000000000E+00  0.40896428115E+02  0.31987945387E+04  0.31985330986E+04 0.  0.
        3    1    3    3  502    0  0.12308718667E+04  0.85528149311E+03  0.57825854046E+03  0.16065288465E+04  0.10100000352E+00 0.  1.
       -3    1    3    3    0  502 -0.12308718667E+04 -0.85528149311E+03 -0.53736211234E+03  0.15922656922E+04  0.10100000352E+00 0. -1.
</event>
<event>
 5   0  0.9707721E-08  0.3199211E+04  0.7818609E-02  0.8189026E-01
        2   -1    0    0  501    0  0.00000000000E+00  0.00000000000E+00  0.15603683141E+04  0.15603683141E+04  0.25500000920E-02 0. -1.
       -2   -1    0    0    0  501  0.00000000000E+00  0.00000000000E+00 -0.16398292925E+04  0.16398292925E+04  0.25500000920E-02 0.  1.
    10030    2    1    2    0    0  0.00000000000E+00  0.00000000000E+00 -0.79460978391E+02  0.32001976066E+04  0.31992109455E+04 0.  0.
        3    1    3    3  502    0 -0.10443053390E+04 -0.11967391716E+04 -0.22947128154E+03  0.16048100714E+04  0.10100000352E+00 0. -1.
       -3    1    3    3    0  502  0.10443053390E+04  0.11967391716E+04  0.15001030314E+03  0.15953875351E+04  0.10100000352E+00 0.  1.
</event>
<event>
 5   0  0.3283581E-08  0.3200383E+04  0.7818609E-02  0.8188716E-01
        1   -1    0    0  501    0  0.00000000000E+00  0.00000000000E+00  0.12732589960E+04  0.12732589961E+04  0.50400001928E-02 0.  1.
       -1   -1    0    0    0  501  0.00000000000E+00  0.00000000000E+00 -0.20110704917E+04  0.20110704917E+04  0.50400001928E-02 0. -1.
    10030    2    1    2    0    0  0.00000000000E+00  0.00000000000E+00 -0.73781149561E+03  0.32843294877E+04  0.32003834740E+04 0.  0.
        5    1    3    3  502    0 -0.60065357396E+03  0.83978786226E+03 -0.16234957819E+04  0.19240033818E+04  0.46999998093E+01 0. -1.
       -5    1    3    3    0  502  0.60065357396E+03 -0.83978786226E+03  0.88568428624E+03  0.13603261059E+04  0.46999998093E+01 0.  1.
</event>
<event>
 5   0  0.3220147E-08  0.3179625E+04  0.7818609E-02  0.8194219E-01
       -1   -1    0    0    0  501  0.00000000000E+00  0.00000000000E+00  0.11557845622E+04  0.11557845622E+04  0.50400001928E-02 0.  1.
        1   -1    0    0  501    0  0.00000000000E+00  0.00000000000E+00 -0.21868300051E+04  0.21868300051E+04  0.50400001928E-02 0. -1.
    10030    2    1    2    0    0  0.00000000000E+00  0.00000000000E+00 -0.10310454429E+04  0.33426145673E+04  0.31796253616E+04 0.  0.
        4    1    3    3  502    0  0.13168437035E+04 -0.37477012783E+03 -0.13650119589E+04  0.19333363000E+04  0.12699999809E+01 0. -1.
       -4    1    3    3    0  502 -0.13168437035E+04  0.37477012783E+03  0.33396651599E+03  0.14092782673E+04  0.12699999809E+01 0.  1.
</event>
<event>
 5   0  0.9707721E-08  0.3198517E+04  0.7818609E-02  0.8189209E-01
       -2   -1    0    0    0  501  0.00000000000E+00  0.00000000000E+00  0.16583185785E+04  0.16583185785E+04  0.25500000920E-02 0.  1.
        2   -1    0    0  501    0  0.00000000000E+00  0.00000000000E+00 -0.15423018980E+04  0.15423018980E+04  0.25500000920E-02 0. -1.
    10030    2    1    2    0    0  0.00000000000E+00  0.00000000000E+00  0.11601668051E+03  0.32006204764E+04  0.31985170883E+04 0.  0.
        3    1    3    3  502    0 -0.31332749832E+03  0.61946075634E+03  0.14996924508E+04  0.16525686694E+04  0.10100000352E+00 0.  1.
       -3    1    3    3    0  502  0.31332749832E+03 -0.61946075634E+03 -0.13836757703E+04  0.15480518070E+04  0.10100000352E+00 0. -1.
</event>
<event>
 5   0  0.9157524E-08  0.3199695E+04  0.7818609E-02  0.8188898E-01
        2   -1    0    0  501    0  0.00000000000E+00  0.00000000000E+00  0.19974822253E+04  0.19974822253E+04  0.25500000920E-02 0.  1.
       -2   -1    0    0    0  501  0.00000000000E+00  0.00000000000E+00 -0.12813689028E+04  0.12813689028E+04  0.25500000920E-02 0. -1.
    10030    2    1    2    0    0  0.00000000000E+00  0.00000000000E+00  0.71611332250E+03  0.32788511281E+04  0.31996947401E+04 0.  0.
        5    1    3    3  502    0  0.10665906785E+03  0.31946239414E+03 -0.12446219835E+04  0.12893945671E+04  0.46999998093E+01 0. -1.
       -5    1    3    3    0  502 -0.10665906785E+03 -0.31946239414E+03  0.19607353060E+04  0.19894565610E+04  0.46999998093E+01 0.  1.
</event>
<event>
 5   0  0.9157524E-08  0.3201054E+04  0.7818609E-02  0.8188539E-01
        2   -1    0    0  501    0  0.00000000000E+00  0.00000000000E+00  0.13299446217E+04  0.13299446217E+04  0.25500000920E-02 0. -1.
       -2   -1    0    0    0  501  0.00000000000E+00  0.00000000000E+00 -0.19261610029E+04  0.19261610030E+04  0.25500000920E-02 0.  1.
    10030    2    1    2    0    0  0.00000000000E+00  0.00000000000E+00 -0.59621638125E+03  0.32561056247E+04  0.32010544928E+04 0.  0.
        5    1    3    3  502    0 -0.11982782109E+04 -0.12040982191E+03 -0.13704181213E+04  0.18244004804E+04  0.46999998093E+01 0.  1.
       -5    1    3    3    0  502  0.11982782109E+04  0.12040982191E+03  0.77420174001E+03  0.14317051443E+04  0.46999998093E+01 0. -1.
</event>
<event>
 5   0  0.9157524E-08  0.3202578E+04  0.7818609E-02  0.8188137E-01
       -2   -1    0    0    0  501  0.00000000000E+00  0.00000000000E+00  0.11025961148E+04  0.11025961148E+04  0.25500000920E-02 0.  1.
        2   -1    0    0  501    0  0.00000000000E+00  0.00000000000E+00 -0.23255358427E+04  0.23255358427E+04  0.25500000920E-02 0. -1.
    10030    2    1    2    0    0  0.00000000000E+00  0.00000000000E+00 -0.12229397279E+04  0.34281319575E+04  0.32025782020E+04 0.  0.
        5    1    3    3  502    0 -0.37655475752E+03  0.12150678416E+04  0.42961300735E+03  0.13426737397E+04  0.46999998093E+01 0.  1.
       -5    1    3    3    0  502  0.37655475752E+03 -0.12150678416E+04 -0.16525527352E+04  0.20854582178E+04  0.46999998093E+01 0. -1.
</event>
<event>
 5   0  0.9353994E-08  0.3199018E+04  0.7818609E-02  0.8189077E-01
        2   -1    0    0  501    0  0.00000000000E+00  0.00000000000E+00  0.11958687748E+04  0.11958687748E+04  0.25500000920E-02 0.  1.
       -2   -1    0    0    0  501  0.00000000000E+00  0.00000000000E+00 -0.21393897718E+04  0.21393897718E+04  0.25500000920E-02 0. -1.
    10030    2    1    2    0    0  0.00000000000E+00  0.00000000000E+00 -0.94352099704E+03  0.33352585465E+04  0.31990182401E+04 0.  0.
        2    1    3    3  502    0 -0.15660453209E+03 -0.17924332064E+03  0.11773016544E+04  0.12011212815E+04  0.25500000920E-02 0.  1.
       -2    1    3    3    0  502  0.15660453209E+03  0.17924332064E+03 -0.21208226514E+04  0.21341372651E+04  0.25500000920E-02 0. -1.
</event>
<event>
 5   0  0.9727083E-08  0.3200092E+04  0.7818609E-02  0.8188793E-01
       -2   -1    0    0    0  501  0.00000000000E+00  0.00000000000E+00  0.15050942374E+04  0.15050942374E+04  0.25500000920E-02 0. -1.
        2   -1    0    0  501    0  0.00000000000E+00  0.00000000000E+00 -0.17009876363E+04  0.17009876363E+04  0.25500000920E-02 0.  1.
    10030    2    1    2    0    0  0.00000000000E+00  0.00000000000E+00 -0.19589339892E+03  0.32060818737E+04  0.32000916795E+04 0.  0.
        4    1    3    3  502    0 -0.13759233146E+04 -0.32559323277E+03  0.65243404201E+03  0.15571922531E+04  0.12699999809E+01 0. -1.
       -4    1    3    3    0  502  0.13759233146E+04  0.32559323277E+03 -0.84832744093E+03  0.16488896206E+04  0.12699999809E+01 0.  1.
</event>
<event>
 5   0  0.9707721E-08  0.3198911E+04  0.7818609E-02  0.8189105E-01
        2   -1    0    0  501    0  0.00000000000E+00  0.00000000000E+00  0.19280925154E+04  0.19280925154E+04  0.25500000920E-02 0. -1.
       -2   -1    0    0    0  501  0.00000000000E+00  0.00000000000E+00 -0.13268331690E+04  0.13268331690E+04  0.25500000920E-02 0.  1.
    10030    2    1    2    0    0  0.00000000000E+00  0.00000000000E+00  0.60125934640E+03  0.32549256845E+04  0.31989105035E+04 0.  0.
        3    1    3    3  502    0  0.45982897243E+03 -0.12131683538E+04 -0.65118453724E+03  0.14516409509E+04  0.10100000352E+00 0.  1.
       -3    1    3    3    0  502 -0.45982897243E+03  0.12131683538E+04  0.12524438836E+04  0.18032847336E+04  0.10100000352E+00 0. -1.
</event>
<event>
 5   0  0.9157524E-08  0.3199582E+04  0.7818609E-02  0.8188928E-01
        2   -1    0    0  501    0  0.00000000000E+00  0.00000000000E+00  0.19878494200E+04  0.19878494200E+04  0.25500000920E-02 0.  1.
       -2   -1    0    0    0  501  0.00000000000E+00  0.00000000000E+00 -0.12874876644E+04  0.12874876644E+04  0.25500000920E-02 0. -1.
    10030    2    1    2    0    0  0.00000000000E+00  0.00000000000E+00  0.70036175560E+03  0.32753370844E+04  0.31995822271E+04 0.  0.
        5    1    3    3  502    0 -0.13687483264E+04 -0.38317397719E+03 -0.40137841430E+03  0.14769634387E+04  0.46999998093E+01 0. -1.
       -5    1    3    3    0  502  0.13687483264E+04  0.38317397719E+03  0.11017401699E+04  0.17983736457E+04  0.46999998093E+01 0.  1.
</event>
<event>
 5   0  0.9329929E-08  0.3198415E+04  0.7818609E-02  0.8189236E-01
       -2   -1    0    0    0  501  0.00000000000E+00  0.00000000000E+00  0.90911782895E+03  0.90911782896E+03  0.25500000920E-02 0. -1.
        2   -1    0    0  501    0  0.00000000000E+00  0.00000000000E+00 -0.28131277282E+04  0.28131277282E+04  0.25500000920E-02 0.  1.
    10030    2    1    2    0    0  0.00000000000E+00  0.00000000000E+00 -0.19040098992E+04  0.37222455571E+04  0.31984149655E+04 0.  0.
        1    1    3    3  502    0  0.36813736708E+03  0.50597187391E+03  0.76073966900E+03  0.98501649847E+03  0.50400001928E-02 0. -1.
       -1    1    3    3    0  502 -0.36813736708E+03 -0.50597187391E+03 -0.26647495682E+04  0.27372290587E+04  0.50400001928E-02 0.  1.
</event>
<event>
 5   0  0.9329929E-08  0.3200157E+04  0.7818609E-02  0.8188776E-01
        2   -1    0    0  501    0  0.00000000000E+00  0.00000000000E+00  0.29544720383E+04  0.29544720383E+04  0.25500000920E-02 0. -1.
       -2   -1    0    0    0  501  0.00000000000E+00  0.00000000000E+00 -0.86656827192E+03  0.86656827192E+03  0.25500000920E-02 0.  1.
    10030    2    1    2    0    0  0.00000000000E+00  0.00000000000E+00  0.20879037664E+04  0.38210403102E+04  0.32001573265E+04 0.  0.
        1    1    3    3  502    0 -0.73838000951E+03  0.10445781749E+04 -0.10373523755E+03  0.12833976786E+04  0.50400001928E-02 0.  1.
       -1    1    3    3    0  502  0.73838000951E+03 -0.10445781749E+04  0.21916390039E+04  0.25376426316E+04  0.50400001928E-02 0. -1.
</event>
<event>
 5   0  0.3427667E-08  0.3203060E+04  0.7818609E-02  0.8188010E-01
       -1   -1    0    0    0  501  0.00000000000E+00  0.00000000000E+00  0.17884964196E+04  0.17884964196E+04  0.50400001928E-02 0.  1.
        1   -1    0    0  501    0  0.00000000000E+00  0.00000000000E+00 -0.14341086004E+04  0.14341086004E+04  0.50400001928E-02 0. -1.
    10030    2    1    2    0    0  0.00000000000E+00  0.00000000000E+00  0.35438781919E+03  0.32226050200E+04  0.32030598478E+04 0.  0.
        2    1    3    3  502    0 -0.17056851562E+03  0.10988414245E+03  0.17755129278E+04  0.17870686333E+04  0.25500000920E-02 0.  1.
       -2    1    3    3    0  502  0.17056851562E+03 -0.10988414245E+03 -0.14211251086E+04  0.14355363867E+04  0.25500000920E-02 0. -1.
</event>
<event>
 5   0  0.9707721E-08  0.3199470E+04  0.7818609E-02  0.8188957E-01
        2   -1    0    0  501    0  0.00000000000E+00  0.00000000000E+00  0.20362692214E+04  0.20362692214E+04  0.25500000920E-02 0. -1.
       -2   -1    0    0    0  501  0.00000000000E+00  0.00000000000E+00 -0.12567848170E+04  0.12567848170E+04  0.25500000920E-02 0.  1.
    10030    2    1    2    0    0  0.00000000000E+00  0.00000000000E+00  0.77948440441E+03  0.32930540384E+04  0.31994701066E+04 0.  0.
        3    1    3    3  502    0 -0.92770070528E+03  0.50672303900E+03 -0.84611016294E+03  0.13539938164E+04  0.10100000352E+00 0.  1.
       -3    1    3    3    0  502  0.92770070528E+03 -0.50672303900E+03  0.16255945674E+04  0.19390602220E+04  0.10100000352E+00 0. -1.
</event>
<event>
 5   0  0.3220147E-08  0.3195247E+04  0.7818609E-02  0.8190074E-01
       -1   -1    0    0    0  501  0.00000000000E+00  0.00000000000E+00  0.11426910389E+04  0.11426910389E+04  0.50400001928E-02 0. -1.
        1   -1    0    0  501    0  0.00000000000E+00  0.00000000000E+00 -0.22336751010E+04  0.22336751010E+04  0.50400001928E-02 0.  1.
    10030    2    1    2    0    0  0.00000000000E+00  0.00000000000E+00 -0.10909840621E+04  0.33763661399E+04  0.31952467959E+04 0.  0.
        4    1    3    3  502    0  0.54616072870E+03 -0.10025205524E+04  0.63547225140E+03  0.13065854716E+04  0.12699999809E+01 0. -1.
       -4    1    3    3    0  502 -0.54616072870E+03  0.10025205524E+04 -0.17264563135E+04  0.20697806683E+04  0.12699999809E+01 0.  1.
</event>
<event>
 5   0  0.3343140E-08  0.3199568E+04  0.7818609E-02  0.8188931E-01
        1   -1    0    0  501    0  0.00000000000E+00  0.00000000000E+00  0.10367345437E+04  0.10367345437E+04  0.50400001928E-02 0. -1.
       -1   -1    0    0    0  501  0.00000000000E+00  0.00000000000E+00 -0.24686248803E+04  0.24686248803E+04  0.50400001928E-02 0.  1.
    10030    2    1    2    0    0  0.00000000000E+00  0.00000000000E+00 -0.14318903366E+04  0.35053594239E+04  0.31995679013E+04 0.  0.
        1    1    3    3  502    0  0.13621807755E+04 -0.55945619194E+02 -0.16329875436E+04  0.21272787064E+04  0.50400001928E-02 0.  1.
       -1    1    3    3    0  502 -0.13621807755E+04  0.55945619194E+02  0.20109720694E+03  0.13780807175E+04  0.50400001928E-02 0. -1.
</event>
<event>
 5   0  0.3283581E-08  0.3199254E+04  0.7818609E-02  0.8189014E-01
        1   -1    0    0  501    0  0.00000000000E+00  0.00000000000E+00  0.13366535114E+04  0.13366535114E+04  0.50400001928E-02 0. -1.
       -1   -1    0    0    0  501  0.00000000000E+00  0.00000000000E+00 -0.19143375888E+04  0.19143375888E+04  0.50400001928E-02 0.  1.
    10030    2    1    2    0    0  0.00000000000E+00  0.00000000000E+00 -0.57768407739E+03  0.32509911002E+04  0.31992537005E+04 0.  0.
        5    1    3    3  502    0 -0.69235898151E+03 -0.42496455927E+03  0.11114219777E+04  0.13766759743E+04  0.46999998093E+01 0. -1.
       -5    1    3    3    0  502  0.69235898151E+03  0.42496455927E+03 -0.16891060550E+04  0.18743151259E+04  0.46999998093E+01 0.  1.
</event>
<event>
 5   0  0.9727083E-08  0.3200351E+04  0.7818609E-02  0.8188725E-01
        2   -1    0    0  501    0  0.00000000000E+00  0.00000000000E+00  0.13884891137E+04  0.13884891137E+04  0.25500000920E-02 0.  1.
       -2   -1    0    0    0  501  0.00000000000E+00  0.00000000000E+00 -0.18441346761E+04  0.18441346761E+04  0.25500000920E-02 0. -1.
    10030    2    1    2    0    0  0.00000000000E+00  0.00000000000E+00 -0.45564556237E+03  0.32326237898E+04  0.32003505570E+04 0.  0.
        4    1    3    3  502    0  0.14439747314E+04  0.64843625011E+03 -0.46476606336E+03  0.16497095811E+04  0.12699999809E+01 0. -1.
       -4    1    3    3    0  502 -0.14439747314E+04 -0.64843625011E+03  0.91205009895E+01  0.15829142086E+04  0.12699999809E+01 0.  1.
</event>
<event>
 5   0  0.3427667E-08  0.3200122E+04  0.7818609E-02  0.8188785E-01
       -1   -1    0    0    0  501  0.00000000000E+00  0.00000000000E+00  0.10522832100E+04  0.10522832100E+04  0.50400001928E-02 0.  1.
        1   -1    0    0  501    0  0.00000000000E+00  0.00000000000E+00 -0.24329901935E+04  0.24329901935E+04  0.50400001928E-02 0. -1.
    10030    2    1    2    0    0  0.00000000000E+00  0.00000000000E+00 -0.13807069835E+04  0.34852734035E+04  0.32001217044E+04 0.  0.
        2    1    3    3  502    0 -0.90206965944E+03  0.52148659591E+03  0.63214509901E+03  0.12187228423E+04  0.25500000920E-02 0.  1.
       -2    1    3    3    0  502  0.90206965944E+03 -0.52148659591E+03 -0.20128520825E+04  0.22665505612E+04  0.25500000920E-02 0. -1.
</event>
<event>
 5   0  0.9353994E-08  0.3199358E+04  0.7818609E-02  0.8188987E-01
        2   -1    0    0  501    0  0.00000000000E+00  0.00000000000E+00  0.24234599186E+04  0.24234599186E+04  0.25500000920E-02 0.  1.
       -2   -1    0    0    0  501  0.00000000000E+00  0.00000000000E+00 -0.10559172942E+04  0.10559172942E+04  0.25500000920E-02 0. -1.
    10030    2    1    2    0    0  0.00000000000E+00  0.00000000000E+00  0.13675426244E+04  0.34793772128E+04  0.31993582105E+04 0.  0.
        2    1    3    3  502    0  0.28780516216E+03  0.83922727385E+03 -0.76383602867E+03  0.11707176035E+04  0.25500000920E-02 0. -1.
       -2    1    3    3    0  502 -0.28780516216E+03 -0.83922727385E+03  0.21313786531E+04  0.23086596093E+04  0.25500000920E-02 0.  1.
</event>
<event>
 5   0  0.9329929E-08  0.3202229E+04  0.7818609E-02  0.8188229E-01
        2   -1    0    0  501    0  0.00000000000E+00  0.00000000000E+00  0.17296158750E+04  0.17296158750E+04  0.25500000920E-02 0. -1.
       -2   -1    0    0    0  501  0.00000000000E+00  0.00000000000E+00 -0.14821599364E+04  0.14821599364E+04  0.25500000920E-02 0.  1.
    10030    2    1    2    0    0  0.00000000000E+00  0.00000000000E+00  0.24745593859E+03  0.32117758113E+04  0.32022288208E+04 0.  0.
        1    1    3    3  502    0  0.78553934275E+03  0.11286608578E+04  0.94630719627E+03  0.16692647186E+04  0.50400001928E-02 0. -1.
       -1    1    3    3    0  502 -0.78553934275E+03 -0.11286608578E+04 -0.69885125768E+03  0.15425110928E+04  0.50400001928E-02 0.  1.
</event>
<event>
 5   0  0.9157524E-08  0.3199618E+04  0.7818609E-02  0.8188918E-01
       -2   -1    0    0    0  501  0.00000000000E+00  0.00000000000E+00  0.99951051101E+03  0.99951051101E+03  0.25500000920E-02 0. -1.
        2   -1    0    0  501    0  0.00000000000E+00  0.00000000000E+00 -0.25606420891E+04  0.25606420891E+04  0.25500000920E-02 0.  1.
    10030    2    1    2    0    0  0.00000000000E+00  0.00000000000E+00 -0.15611315781E+04  0.35601526001E+04  0.31996179040E+04 0.  0.
        5    1    3    3  502    0  0.27641956882E+03 -0.10361883565E+03  0.96893532991E+03  0.10129177680E+04  0.46999998093E+01 0. -1.
       -5    1    3    3    0  502 -0.27641956882E+03  0.10361883565E+03 -0.25300669080E+04  0.25472348321E+04  0.46999998093E+01 0.  1.
</event>
<event>
 5   0  0.3427667E-08  0.3200351E+04  0.7818609E-02  0.8188725E-01
        1   -1    0    0  501    0  0.00000000000E+00  0.00000000000E+00  0.17034059202E+04  0.17034059202E+04  0.50400001928E-02 0. -1.
       -1   -1    0    0    0  501  0.00000000000E+00  0.00000000000E+00 -0.15032009745E+04  0.15032009745E+04  0.50400001928E-02 0.  1.
    10030    2    1    2    0    0  0.00000000000E+00  0.00000000000E+00  0.20020494578E+03  0.32066068947E+04  0.32003508803E+04 0.  0.
        2    1    3    3  502    0  0.10227195446E+04 -0.86220552609E+03 -0.77979857207E+03  0.15483667037E+04  0.25500000920E-02 0.  1.
       -2    1    3    3    0  502 -0.10227195446E+04  0.86220552609E+03  0.98000351785E+03  0.16582401910E+04  0.25500000920E-02 0. -1.
</event>
<event>
 5   0  0.3220147E-08  0.3199314E+04  0.7818609E-02  0.8188998E-01
       -1   -1    0    0    0  501  0.00000000000E+00  0.00000000000E+00  0.16631150758E+04  0.16631150758E+04  0.50400001928E-02 0.  1.
        1   -1    0    0  501    0  0.00000000000E+00  0.00000000000E+00 -0.15386204596E+04  0.15386204596E+04  0.50400001928E-02 0. -1.
    10030    2    1    2    0    0  0.00000000000E+00  0.00000000000E+00  0.12449461621E+03  0.32017355354E+04  0.31993142279E+04 0.  0.
        4    1    3    3  502    0  0.10636315360E+04 -0.55401594634E+03  0.11216586866E+04  0.16420613677E+04  0.12699999809E+01 0.  1.
       -4    1    3    3    0  502 -0.10636315360E+04  0.55401594634E+03 -0.99716407037E+03  0.15596741677E+04  0.12699999809E+01 0. -1.
</event>
<event>
 5   0  0.9727083E-08  0.3200691E+04  0.7818609E-02  0.8188635E-01
       -2   -1    0    0    0  501  0.00000000000E+00  0.00000000000E+00  0.20053128386E+04  0.20053128386E+04  0.25500000920E-02 0.  1.
        2   -1    0    0  501    0  0.00000000000E+00  0.00000000000E+00 -0.12771598529E+04  0.12771598529E+04  0.25500000920E-02 0. -1.
    10030    2    1    2    0    0  0.00000000000E+00  0.00000000000E+00  0.72815298566E+03  0.32824726915E+04  0.32006905817E+04 0.  0.
        4    1    3    3  502    0  0.89908442599E+03  0.12979365052E+04  0.63172666439E+03  0.17006093520E+04  0.12699999809E+01 0.  1.
       -4    1    3    3    0  502 -0.89908442599E+03 -0.12979365052E+04  0.96426321274E+02  0.15818633395E+04  0.12699999809E+01 0. -1.
</event>
<event>
 5   0  0.9707721E-08  0.3194600E+04  0.7818609E-02  0.8190245E-01
       -2   -1    0    0    0  501  0.00000000000E+00  0.00000000000E+00  0.11402990222E+04  0.11402990222E+04  0.25500000920E-02 0.  1.
        2   -1    0    0  501    0  0.00000000000E+00  0.00000000000E+00 -0.22374549845E+04  0.22374549845E+04  0.25500000920E-02 0. -1.
    10030    2    1    2    0    0  0.00000000000E+00  0.00000000000E+00 -0.10971559624E+04  0.33777540067E+04  0.31946002761E+04 0.  0.
        3    1    3    3  502    0  0.12372150705E+04  0.95865078156E+03 -0.88569171083E+03  0.17983776768E+04  0.10100000352E+00 0. -1.
       -3    1    3    3    0  502 -0.12372150705E+04 -0.95865078156E+03 -0.21146425154E+03  0.15793763299E+04  0.10100000352E+00 0.  1.
</event>
<event>
 5   0  0.3343140E-08  0.3200166E+04  0.7818609E-02  0.8188773E-01
        1   -1    0    0  501    0  0.00000000000E+00  0.00000000000E+00  0.15926601547E+04  0.15926601547E+04  0.50400001928E-02 0. -1.
       -1   -1    0    0    0  501  0.00000000000E+00  0.00000000000E+00 -0.16075401844E+04  0.16075401844E+04  0.50400001928E-02 0.  1.
    10030    2    1    2    0    0  0.00000000000E+00  0.00000000000E+00 -0.14880029704E+02  0.32002003391E+04  0.32001657449E+04 0.  0.
        1    1    3    3  502    0  0.42145850294E+03  0.21724406207E+03  0.15207921140E+04  0.15929943208E+04  0.50400001928E-02 0. -1.
       -1    1    3    3    0  502 -0.42145850294E+03 -0.21724406207E+03 -0.15356721437E+04  0.16072060183E+04  0.50400001928E-02 0.  1.
</event>
<event>
 5   0  0.3270966E-08  0.3200835E+04  0.7818609E-02  0.8188597E-01
        1   -1    0    0  501    0  0.00000000000E+00  0.00000000000E+00  0.13108264384E+04  0.13108264384E+04  0.50400001928E-02 0. -1.
       -1   -1    0    0    0  501  0.00000000000E+00  0.00000000000E+00 -0.19539853743E+04  0.19539853743E+04  0.50400001928E-02 0.  1.
    10030    2    1    2    0    0  0.00000000000E+00  0.00000000000E+00 -0.64315893590E+03  0.32648118127E+04  0.32008346967E+04 0.  0.
        3    1    3    3  502    0 -0.94864421825E+03 -0.33350896073E+03  0.94836928435E+03  0.13822294995E+04  0.10100000352E+00 0. -1.
       -3    1    3    3    0  502  0.94864421825E+03  0.33350896073E+03 -0.15915282202E+04  0.18825823131E+04  0.10100000352E+00 0.  1.
</event>
<event>
 5   0  0.3427667E-08  0.3198957E+04  0.7818609E-02  0.8189093E-01
        1   -1    0    0  501    0  0.00000000000E+00  0.00000000000E+00  0.18790413725E+04  0.18790413725E+04  0.50400001928E-02 0.  1.
       -1   -1    0    0    0  501  0.00000000000E+00  0.00000000000E+00 -0.13615090110E+04  0.13615090110E+04  0.50400001928E-02 0. -1.
    10030    2    1    2    0    0  0.00000000000E+00  0.00000000000E+00  0.51753236147E+03  0.32405503835E+04  0.31989571805E+04 0.  0.
        2    1    3    3  502    0  0.14569669156E+04  0.65830729719E+03  0.30639527237E+03  0.16278817997E+04  0.25500000920E-02 0.  1.
       -2    1    3    3    0  502 -0.14569669156E+04 -0.65830729719E+03  0.21113708910E+03  0.16126685838E+04  0.25500000920E-02 0. -1.
</event>
<event>
 5   0  0.3427667E-08  0.3199958E+04  0.7818609E-02  0.8188828E-01
        1   -1    0    0  501    0  0.00000000000E+00  0.00000000000E+00  0.15611986672E+04  0.15611986672E+04  0.50400001928E-02 0. -1.
       -1   -1    0    0    0  501  0.00000000000E+00  0.00000000000E+00 -0.16397230526E+04  0.16397230526E+04  0.50400001928E-02 0.  1.
    10030    2    1    2    0    0  0.00000000000E+00  0.00000000000E+00 -0.78524385338E+02  0.32009217198E+04  0.31999584024E+04 0.  0.
        2    1    3    3  502    0  0.36566398843E+03  0.75774355968E+03  0.13220471920E+04  0.15670654844E+04  0.25500000920E-02 0. -1.
       -2    1    3    3    0  502 -0.36566398843E+03 -0.75774355968E+03 -0.14005715773E+04  0.16338562354E+04  0.25500000920E-02 0.  1.
</event>
<event>
 5   0  0.9157524E-08  0.3199979E+04  0.7818609E-02  0.8188823E-01
        2   -1    0    0  501    0  0.00000000000E+00  0.00000000000E+00  0.16439100588E+04  0.16439100588E+04  0.25500000920E-02 0. -1.
       -2   -1    0    0    0  501  0.00000000000E+00  0.00000000000E+00 -0.15572423818E+04  0.15572423818E+04  0.25500000920E-02 0.  1.
    10030    2    1    2    0    0  0.00000000000E+00  0.00000000000E+00  0.86667677010E+02  0.32011524405E+04  0.31999790095E+04 0.  0.
        5    1    3    3  502    0  0.95610326122E+01  0.15980063195E+04  0.12228498642E+03  0.16027137357E+04  0.46999998093E+01 0. -1.
       -5    1    3    3    0  502 -0.95610326122E+01 -0.15980063195E+04 -0.35617309409E+02  0.15984387049E+04  0.46999998093E+01 0.  1.
</event>
<event>
 5   0  0.3283581E-08  0.3203165E+04  0.7818609E-02  0.8187982E-01
        1   -1    0    0  501    0  0.00000000000E+00  0.00000000000E+00  0.12162446956E+04  0.12162446956E+04  0.50400001928E-02 0. -1.
       -1   -1    0    0    0  501  0.00000000000E+00  0.00000000000E+00 -0.21090048353E+04  0.21090048353E+04  0.50400001928E-02 0.  1.
    10030    2    1    2    0    0  0.00000000000E+00  0.00000000000E+00 -0.89276013973E+03  0.33252495309E+04  0.32031646500E+04 0.  0.
        5    1    3    3  502    0  0.76249910086E+03 -0.14013830947E+04 -0.30043589641E+03  0.16234417990E+04  0.46999998093E+01 0. -1.
       -5    1    3    3    0  502 -0.76249910086E+03  0.14013830947E+04 -0.59232424333E+03  0.17018077318E+04  0.46999998093E+01 0.  1.
</event>
<event>
 5   0  0.3270966E-08  0.3200385E+04  0.7818609E-02  0.8188716E-01
       -1   -1    0    0    0  501  0.00000000000E+00  0.00000000000E+00  0.13795071163E+04  0.13795071163E+04  0.50400001928E-02 0.  1.
        1   -1    0    0  501    0  0.00000000000E+00  0.00000000000E+00 -0.18561813779E+04  0.18561813779E+04  0.50400001928E-02 0. -1.
    10030    2    1    2    0    0  0.00000000000E+00  0.00000000000E+00 -0.47667426160E+03  0.32356884943E+04  0.32003846144E+04 0.  0.
        3    1    3    3  502    0  0.27358843648E+03  0.10321835265E+04  0.96659904857E+03  0.14403357927E+04  0.10100000352E+00 0.  1.
       -3    1    3    3    0  502 -0.27358843648E+03 -0.10321835265E+04 -0.14432733102E+04  0.17953527015E+04  0.10100000352E+00 0. -1.
</event>
<event>
 5   0  0.3283581E-08  0.3200793E+04  0.7818609E-02  0.8188608E-01
       -1   -1    0    0    0  501  0.00000000000E+00  0.00000000000E+00  0.22422891746E+04  0.22422891746E+04  0.50400001928E-02 0. -1.
        1   -1    0    0  501    0  0.00000000000E+00  0.00000000000E+00 -0.11422566027E+04  0.11422566027E+04  0.50400001928E-02 0.  1.
    10030    2    1    2    0    0  0.00000000000E+00  0.00000000000E+00  0.11000325719E+04  0.33845457773E+04  0.32007934109E+04 0.  0.
        5    1    3    3  502    0 -0.69120345583E+03  0.74251355449E+03  0.18588806887E+04  0.21176751642E+04  0.46999998093E+01 0. -1.
       -5    1    3    3    0  502  0.69120345583E+03 -0.74251355449E+03 -0.75884811681E+03  0.12668706131E+04  0.46999998093E+01 0.  1.
</event>
<event>
 5   0  0.3343140E-08  0.3201158E+04  0.7818609E-02  0.8188511E-01
        1   -1    0    0  501    0  0.00000000000E+00  0.00000000000E+00  0.13277730150E+04  0.13277730150E+04  0.50400001928E-02 0. -1.
       -1   -1    0    0    0  501  0.00000000000E+00  0.00000000000E+00 -0.19294361675E+04  0.19294361675E+04  0.50400001928E-02 0.  1.
    10030    2    1    2    0    0  0.00000000000E+00  0.00000000000E+00 -0.60166315252E+03  0.32572091825E+04  0.32011580887E+04 0.  0.
        1    1    3    3  502    0  0.13876527965E+04 -0.27711173686E+03  0.46025071717E+03  0.14880194626E+04  0.50400001928E-02 0. -1.
       -1    1    3    3    0  502 -0.13876527965E+04  0.27711173686E+03 -0.10619138697E+04  0.17691897199E+04  0.50400001928E-02 0.  1.
</event>
<event>
 5   0  0.9353994E-08  0.3197862E+04  0.7818609E-02  0.8189382E-01
        2   -1    0    0  501    0  0.00000000000E+00  0.00000000000E+00  0.20677454320E+04  0.20677454320E+04  0.25500000920E-02 0.  1.
       -2   -1    0    0    0  501  0.00000000000E+00  0.00000000000E+00 -0.12364093372E+04  0.12364093372E+04  0.25500000920E-02 0. -1.
    10030    2    1    2    0    0  0.00000000000E+00  0.00000000000E+00  0.83133609477E+03  0.33041547692E+04  0.31978616350E+04 0.  0.
        2    1    3    3  502    0 -0.13803597038E+03  0.15572515366E+04  0.76221684210E+03  0.17392701894E+04  0.25500000920E-02 0.  1.
       -2    1    3    3    0  502  0.13803597038E+03 -0.15572515366E+04  0.69119252671E+02  0.15648845799E+04  0.25500000920E-02 0. -1.
</event>
<event>
 5   0  0.9329929E-08  0.3200257E+04  0.7818609E-02  0.8188749E-01
        2   -1    0    0  501    0  0.00000000000E+00  0.00000000000E+00  0.22093485014E+04  0.22093485014E+04  0.25500000920E-02 0. -1.
       -2   -1    0    0    0  501  0.00000000000E+00  0.00000000000E+00 -0.11588986888E+04  0.11588986888E+04  0.25500000920E-02 0.  1.
    10030    2    1    2    0    0  0.00000000000E+00  0.00000000000E+00  0.10504498127E+04  0.33682471902E+04  0.32002569155E+04 0.  0.
        1    1    3    3  502    0 -0.18871430403E+03 -0.14010693787E+04 -0.26365515485E+03  0.14380968442E+04  0.50400001928E-02 0.  1.
       -1    1    3    3    0  502  0.18871430403E+03  0.14010693787E+04  0.13141049675E+04  0.19301503460E+04  0.50400001928E-02 0. -1.
</event>
<event>
 5   0  0.3080500E-08  0.3200137E+04  0.7818609E-02  0.8188781E-01
       -3   -1    0    0    0  501  0.00000000000E+00  0.00000000000E+00  0.18407376914E+04  0.18407376942E+04  0.10100000352E+00 0.  1.
        3   -1    0    0  501    0  0.00000000000E+00  0.00000000000E+00 -0.13908661615E+04  0.13908661652E+04  0.10100000352E+00 0. -1.
    10030    2    1    2    0    0  0.00000000000E+00  0.00000000000E+00  0.44987152988E+03  0.32316038593E+04  0.32001373580E+04 0.  0.
        2    1    3    3  502    0  0.57799340776E+03 -0.13255079859E+04  0.91663218952E+03  0.17120929796E+04  0.25500000920E-02 0.  1.
       -2    1    3    3    0  502 -0.57799340776E+03  0.13255079859E+04 -0.46676065964E+03  0.15195108797E+04  0.25500000920E-02 0. -1.
</event>
<event>
 5   0  0.3427667E-08  0.3200621E+04  0.7818609E-02  0.8188653E-01
        1   -1    0    0  501    0  0.00000000000E+00  0.00000000000E+00  0.16610386402E+04  0.16610386402E+04  0.50400001928E-02 0. -1.
       -1   -1    0    0    0  501  0.00000000000E+00  0.00000000000E+00 -0.15418028758E+04  0.15418028758E+04  0.50400001928E-02 0.  1.
    10030    2    1    2    0    0  0.00000000000E+00  0.00000000000E+00  0.11923576443E+03  0.32028415160E+04  0.32006212848E+04 0.  0.
        2    1    3    3  502    0  0.27488098023E+03  0.10006624696E+04  0.12787031751E+04  0.16468050101E+04  0.25500000920E-02 0. -1.
       -2    1    3    3    0  502 -0.27488098023E+03 -0.10006624696E+04 -0.11594674107E+04  0.15560365059E+04  0.25500000920E-02 0.  1.
</event>
<event>
 5   0  0.3270966E-08  0.3199427E+04  0.7818609E-02  0.8188968E-01
        1   -1    0    0  501    0  0.00000000000E+00  0.00000000000E+00  0.22145633437E+04  0.22145633437E+04  0.50400001928E-02 0. -1.
       -1   -1    0    0    0  501  0.00000000000E+00  0.00000000000E+00 -0.11555703348E+04  0.11555703348E+04  0.50400001928E-02 0.  1.
    10030    2    1    2    0    0  0.00000000000E+00  0.00000000000E+00  0.10589930089E+04  0.33701336785E+04  0.31994272641E+04 0.  0.
        3    1    3    3  502    0  0.20047918079E+03 -0.50038309086E+03  0.21160148454E+04  0.21835965689E+04  0.10100000352E+00 0. -1.
       -3    1    3    3    0  502 -0.20047918079E+03  0.50038309086E+03 -0.10570218365E+04  0.11865371096E+04  0.10100000352E+00 0.  1.
</event>
<event>
 5   0  0.9353994E-08  0.3199186E+04  0.7818609E-02  0.8189032E-01
       -2   -1    0    0    0  501  0.00000000000E+00  0.00000000000E+00  0.11073110905E+04  0.11073110905E+04  0.25500000920E-02 0. -1.
        2   -1    0    0  501    0  0.00000000000E+00  0.00000000000E+00 -0.23107306897E+04  0.23107306897E+04  0.25500000920E-02 0.  1.
    10030    2    1    2    0    0  0.00000000000E+00  0.00000000000E+00 -0.12034195992E+04  0.34180417802E+04  0.31991859713E+04 0.  0.
        2    1    3    3  502    0  0.12400509212E+03  0.12518142212E+04  0.45395352844E+03  0.13373443511E+04  0.25500000920E-02 0. -1.
       -2    1    3    3    0  502 -0.12400509212E+03 -0.12518142212E+04 -0.16573731276E+04  0.20806974291E+04  0.25500000920E-02 0.  1.
</event>
<event>
 5   0  0.9329929E-08  0.3199197E+04  0.7818609E-02  0.8189029E-01
        2   -1    0    0  501    0  0.00000000000E+00  0.00000000000E+00  0.21423908459E+04  0.21423908459E+04  0.25500000920E-02 0. -1.
       -2   -1    0    0    0  501  0.00000000000E+00  0.00000000000E+00 -0.11943270540E+04  0.11943270540E+04  0.25500000920E-02 0.  1.
    10030    2    1    2    0    0  0.00000000000E+00  0.00000000000E+00  0.94806379189E+03  0.33367178998E+04  0.31991969914E+04 0.  0.
        1    1    3    3  502    0 -0.19791510944E+03 -0.10700250854E+04 -0.74879589323E+03  0.13209161077E+04  0.50400001928E-02 0.  1.
       -1    1    3    3    0  502  0.19791510944E+03  0.10700250854E+04  0.16968596851E+04  0.20158017921E+04  0.50400001928E-02 0. -1.
</event>
<event>
 5   0  0.3343140E-08  0.3200130E+04  0.7818609E-02  0.8188783E-01
        1   -1    0    0  501    0  0.00000000000E+00  0.00000000000E+00  0.22339787089E+04  0.22339787089E+04  0.50400001928E-02 0.  1.
       -1   -1    0    0    0  501  0.00000000000E+00  0.00000000000E+00 -0.11460308147E+04  0.11460308148E+04  0.50400001928E-02 0. -1.
    10030    2    1    2    0    0  0.00000000000E+00  0.00000000000E+00  0.10879478942E+04  0.33800095237E+04  0.32001302723E+04 0.  0.
        1    1    3    3  502    0  0.98727996666E+01 -0.41256380853E+03  0.21768014943E+04  0.22155746690E+04  0.50400001928E-02 0.  1.
       -1    1    3    3    0  502 -0.98727996666E+01  0.41256380853E+03 -0.10888536001E+04  0.11644348547E+04  0.50400001928E-02 0. -1.
</event>
<event>
 5   0  0.9353994E-08  0.3199993E+04  0.7818609E-02  0.8188819E-01
        2   -1    0    0  501    0  0.00000000000E+00  0.00000000000E+00  0.88050851065E+03  0.88050851066E+03  0.25500000920E-02 0. -1.
       -2   -1    0    0    0  501  0.00000000000E+00  0.00000000000E+00 -0.29073982288E+04  0.29073982288E+04  0.25500000920E-02 0.  1.
    10030    2    1    2    0    0  0.00000000000E+00  0.00000000000E+00 -0.20268897181E+04  0.37879067394E+04  0.31999930527E+04 0.  0.
        2    1    3    3  502    0 -0.22742199309E+02  0.34110587461E+03 -0.28636611687E+04  0.28839947493E+04  0.25500000920E-02 0.  1.
       -2    1    3    3    0  502  0.22742199309E+02 -0.34110587461E+03  0.83677145056E+03  0.90391199007E+03  0.25500000920E-02 0. -1.
</event>
<event>
 5   0  0.3220147E-08  0.3197008E+04  0.7818609E-02  0.8189608E-01
       -1   -1    0    0    0  501  0.00000000000E+00  0.00000000000E+00  0.97346561522E+03  0.97346561523E+03  0.50400001928E-02 0. -1.
        1   -1    0    0  501    0  0.00000000000E+00  0.00000000000E+00 -0.26248649325E+04  0.26248649325E+04  0.50400001928E-02 0.  1.
    10030    2    1    2    0    0  0.00000000000E+00  0.00000000000E+00 -0.16513993172E+04  0.35983305477E+04  0.31970084494E+04 0.  0.
        4    1    3    3  502    0 -0.54402846053E+03  0.14574608773E+04 -0.12393301586E+04  0.19889947284E+04  0.12699999809E+01 0.  1.
       -4    1    3    3    0  502  0.54402846053E+03 -0.14574608773E+04 -0.41206915869E+03  0.16093358193E+04  0.12699999809E+01 0. -1.
</event>
<event>
 5   0  0.3270966E-08  0.3198605E+04  0.7818609E-02  0.8189186E-01
        1   -1    0    0  501    0  0.00000000000E+00  0.00000000000E+00  0.18607058176E+04  0.18607058176E+04  0.50400001928E-02 0.  1.
       -1   -1    0    0    0  501  0.00000000000E+00  0.00000000000E+00 -0.13746229478E+04  0.13746229478E+04  0.50400001928E-02 0. -1.
    10030    2    1    2    0    0  0.00000000000E+00  0.00000000000E+00  0.48608286983E+03  0.32353287654E+04  0.31986052685E+04 0.  0.
        3    1    3    3  502    0  0.80285160030E+03  0.11514101121E+04 -0.53221311143E+03  0.15011884440E+04  0.10100000352E+00 0. -1.
       -3    1    3    3    0  502 -0.80285160030E+03 -0.11514101121E+04  0.10182959813E+04  0.17341403213E+04  0.10100000352E+00 0.  1.
</event>
<event>
 5   0  0.9157524E-08  0.3198749E+04  0.7818609E-02  0.8189148E-01
       -2   -1    0    0    0  501  0.00000000000E+00  0.00000000000E+00  0.85402539030E+03  0.85402539031E+03  0.25500000920E-02 0.  1.
        2   -1    0    0  501    0  0.00000000000E+00  0.00000000000E+00 -0.29952249324E+04  0.29952249324E+04  0.25500000920E-02 0. -1.
    10030    2    1    2    0    0  0.00000000000E+00  0.00000000000E+00 -0.21411995421E+04  0.38492503227E+04  0.31987485940E+04 0.  0.
        5    1    3    3  502    0  0.79230606594E+03  0.12714466588E+04 -0.17445364124E+04  0.22995118813E+04  0.46999998093E+01 0. -1.
       -5    1    3    3    0  502 -0.79230606594E+03 -0.12714466588E+04 -0.39666312973E+03  0.15497384414E+04  0.46999998093E+01 0.  1.
</event>
<event>
 5   0  0.9353994E-08  0.3199597E+04  0.7818609E-02  0.8188924E-01
       -2   -1    0    0    0  501  0.00000000000E+00  0.00000000000E+00  0.13331206155E+04  0.13331206155E+04  0.25500000920E-02 0. -1.
        2   -1    0    0  501    0  0.00000000000E+00  0.00000000000E+00 -0.19198231593E+04  0.19198231593E+04  0.25500000920E-02 0.  1.
    10030    2    1    2    0    0  0.00000000000E+00  0.00000000000E+00 -0.58670254375E+03  0.32529437748E+04  0.31995973695E+04 0.  0.
        2    1    3    3  502    0 -0.15370374743E+03 -0.34637014652E+03  0.12868339755E+04  0.13414688967E+04  0.25500000920E-02 0. -1.
       -2    1    3    3    0  502  0.15370374743E+03  0.34637014652E+03 -0.18735365193E+04  0.19114748780E+04  0.25500000920E-02 0.  1.
</event>
<event>
 5   0  0.3080500E-08  0.3203721E+04  0.7818609E-02  0.8187835E-01
        3   -1    0    0  501    0  0.00000000000E+00  0.00000000000E+00  0.14241034671E+04  0.14241034707E+04  0.10100000352E+00 0. -1.
       -3   -1    0    0    0  501  0.00000000000E+00  0.00000000000E+00 -0.18018049171E+04  0.18018049199E+04  0.10100000352E+00 0.  1.
    10030    2    1    2    0    0  0.00000000000E+00  0.00000000000E+00 -0.37770144997E+03  0.32259083907E+04  0.32037207369E+04 0.  0.
        5    1    3    3  502    0 -0.12360821336E+04  0.10168188719E+04 -0.12425905330E+03  0.16053915602E+04  0.46999998093E+01 0.  1.
       -5    1    3    3    0  502  0.12360821336E+04 -0.10168188719E+04 -0.25344239667E+03  0.16205168304E+04  0.46999998093E+01 0. -1.
</event>
<event>
 5   0  0.3283581E-08  0.3199104E+04  0.7818609E-02  0.8189054E-01
        1   -1    0    0  501    0  0.00000000000E+00  0.00000000000E+00  0.17353482427E+04  0.17353482427E+04  0.50400001928E-02 0.  1.
       -1   -1    0    0    0  501  0.00000000000E+00  0.00000000000E+00 -0.14743822602E+04  0.14743822602E+04  0.50400001928E-02 0. -1.
    10030    2    1    2    0    0  0.00000000000E+00  0.00000000000E+00  0.26096598249E+03  0.32097305029E+04  0.31991040398E+04 0.  0.
        5    1    3    3  502    0 -0.11444591291E+04 -0.83803456831E+03 -0.61119907875E+03  0.15445630579E+04  0.46999998093E+01 0. -1.
       -5    1    3    3    0  502  0.11444591291E+04  0.83803456831E+03  0.87216506124E+03  0.16651674450E+04  0.46999998093E+01 0.  1.
</event>
<event>
 5   0  0.3427667E-08  0.3177305E+04  0.7818609E-02  0.8194837E-01
       -1   -1    0    0    0  501  0.00000000000E+00  0.00000000000E+00  0.19611382983E+04  0.19611382983E+04  0.50400001928E-02 0.  1.
        1   -1    0    0  501    0  0.00000000000E+00  0.00000000000E+00 -0.12869138494E+04  0.12869138494E+04  0.50400001928E-02 0. -1.
    10030    2    1    2    0    0  0.00000000000E+00  0.00000000000E+00  0.67422444894E+03  0.32480521477E+04  0.31773045411E+04 0.  0.
        2    1    3    3  502    0 -0.12816065488E+04 -0.24635655357E+03  0.12631577220E+04  0.18162528260E+04  0.25500000920E-02 0.  1.
       -2    1    3    3    0  502  0.12816065488E+04  0.24635655357E+03 -0.58893327304E+03  0.14317993217E+04  0.25500000920E-02 0. -1.
</event>
<event>
 5   0  0.3343140E-08  0.3200323E+04  0.7818609E-02  0.8188732E-01
        1   -1    0    0  501    0  0.00000000000E+00  0.00000000000E+00  0.18836845134E+04  0.18836845134E+04  0.50400001928E-02 0. -1.
       -1   -1    0    0    0  501  0.00000000000E+00  0.00000000000E+00 -0.13593133182E+04  0.13593133182E+04  0.50400001928E-02 0.  1.
    10030    2    1    2    0    0  0.00000000000E+00  0.00000000000E+00  0.52437119523E+03  0.32429978316E+04  0.32003233876E+04 0.  0.
        1    1    3    3  502    0  0.15808346791E+04 -0.13656035676E+03  0.47190037016E+03  0.16554084007E+04  0.50400001928E-02 0.  1.
       -1    1    3    3    0  502 -0.15808346791E+04  0.13656035676E+03  0.52470825072E+02  0.15875894309E+04  0.50400001928E-02 0. -1.
</event>
<event>
 5   0  0.9353994E-08  0.3200052E+04  0.7818609E-02  0.8188803E-01
       -2   -1    0    0    0  501  0.00000000000E+00  0.00000000000E+00  0.17966802744E+04  0.17966802744E+04  0.25500000920E-02 0. -1.
        2   -1    0    0  501    0  0.00000000000E+00  0.00000000000E+00 -0.14248962921E+04  0.14248962921E+04  0.25500000920E-02 0.  1.
    10030    2    1    2    0    0  0.00000000000E+00  0.00000000000E+00  0.37178398233E+03  0.32215765665E+04  0.32000519127E+04 0.  0.
        2    1    3    3  502    0 -0.49724154713E+03 -0.54815127364E+03 -0.12422280471E+04  0.14459770040E+04  0.25500000920E-02 0.  1.
       -2    1    3    3    0  502  0.49724154713E+03  0.54815127364E+03  0.16140120295E+04  0.17755995625E+04  0.25500000920E-02 0. -1.
</event>
<event>
 5   0  0.3343140E-08  0.3200646E+04  0.7818609E-02  0.8188647E-01
        1   -1    0    0  501    0  0.00000000000E+00  0.00000000000E+00  0.14472510132E+04  0.14472510132E+04  0.50400001928E-02 0. -1.
       -1   -1    0    0    0  501  0.00000000000E+00  0.00000000000E+00 -0.17695852960E+04  0.17695852960E+04  0.50400001928E-02 0.  1.
    10030    2    1    2    0    0  0.00000000000E+00  0.00000000000E+00 -0.32233428277E+03  0.32168363092E+04  0.32006462551E+04 0.  0.
        1    1    3    3  502    0 -0.12002089795E+04 -0.59088756967E+03 -0.10438947504E+04  0.16968694600E+04  0.50400001928E-02 0.  1.
       -1    1    3    3    0  502  0.12002089795E+04  0.59088756967E+03  0.72156046760E+03  0.15199668492E+04  0.50400001928E-02 0. -1.
</event>
<event>
 5   0  0.9157524E-08  0.3200640E+04  0.7818609E-02  0.8188648E-01
        2   -1    0    0  501    0  0.00000000000E+00  0.00000000000E+00  0.18140818895E+04  0.18140818895E+04  0.25500000920E-02 0.  1.
       -2   -1    0    0    0  501  0.00000000000E+00  0.00000000000E+00 -0.14117468674E+04  0.14117468674E+04  0.25500000920E-02 0. -1.
    10030    2    1    2    0    0  0.00000000000E+00  0.00000000000E+00  0.40233502206E+03  0.32258287568E+04  0.32006402014E+04 0.  0.
        5    1    3    3  502    0 -0.10619192725E+04  0.20256304214E+02  0.14076342296E+04  0.17633885202E+04  0.46999998093E+01 0.  1.
       -5    1    3    3    0  502  0.10619192725E+04 -0.20256304214E+02 -0.10052992075E+04  0.14624402366E+04  0.46999998093E+01 0. -1.
</event>
<event>
 5   0  0.3270966E-08  0.3199671E+04  0.7818609E-02  0.8188904E-01
        1   -1    0    0  501    0  0.00000000000E+00  0.00000000000E+00  0.18139184418E+04  0.18139184418E+04  0.50400001928E-02 0.  1.
       -1   -1    0    0    0  501  0.00000000000E+00  0.00000000000E+00 -0.14110186992E+04  0.14110186992E+04  0.50400001928E-02 0. -1.
    10030    2    1    2    0    0  0.00000000000E+00  0.00000000000E+00  0.40289974258E+03  0.32249371411E+04  0.31996705082E+04 0.  0.
        3    1    3    3  502    0 -0.11411627767E+04  0.10862144893E+04  0.48178002855E+03  0.16474909425E+04  0.10100000352E+00 0. -1.
       -3    1    3    3    0  502  0.11411627767E+04 -0.10862144893E+04 -0.78880285973E+02  0.15774461985E+04  0.10100000352E+00 0.  1.
</event>
<event>
 5   0  0.3080500E-08  0.3199698E+04  0.7818609E-02  0.8188897E-01
        3   -1    0    0  501    0  0.00000000000E+00  0.00000000000E+00  0.16138982788E+04  0.16138982819E+04  0.10100000352E+00 0. -1.
       -3   -1    0    0    0  501  0.00000000000E+00  0.00000000000E+00 -0.15859215536E+04  0.15859215568E+04  0.10100000352E+00 0.  1.
    10030    2    1    2    0    0  0.00000000000E+00  0.00000000000E+00  0.27976725146E+02  0.31998198387E+04  0.31996975331E+04 0.  0.
        3    1    3    3  502    0  0.54096400931E+03  0.10233721007E+04  0.11183781428E+04  0.16095658409E+04  0.10100000352E+00 0. -1.
       -3    1    3    3    0  502 -0.54096400931E+03 -0.10233721007E+04 -0.10904014177E+04  0.15902539978E+04  0.10100000352E+00 0.  1.
</event>
<event>
 5   0  0.3283581E-08  0.3202062E+04  0.7818609E-02  0.8188273E-01
        1   -1    0    0  501    0  0.00000000000E+00  0.00000000000E+00  0.20188623563E+04  0.20188623563E+04  0.50400001928E-02 0.  1.
       -1   -1    0    0    0  501  0.00000000000E+00  0.00000000000E+00 -0.12696758298E+04  0.12696758298E+04  0.50400001928E-02 0. -1.
    10030    2    1    2    0    0  0.00000000000E+00  0.00000000000E+00  0.74918652652E+03  0.32885381861E+04  0.32020622963E+04 0.  0.
        5    1    3    3  502    0 -0.38466013560E+03  0.95179956956E+03 -0.88715945869E+03  0.13568197506E+04  0.46999998093E+01 0. -1.
       -5    1    3    3    0  502  0.38466013560E+03 -0.95179956956E+03  0.16363459852E+04  0.19317184354E+04  0.46999998093E+01 0.  1.
</event>
<event>
 5   0  0.9353994E-08  0.3197556E+04  0.7818609E-02  0.8189463E-01
       -2   -1    0    0    0  501  0.00000000000E+00  0.00000000000E+00  0.25361401713E+04  0.25361401713E+04  0.25500000920E-02 0. -1.
        2   -1    0    0  501    0  0.00000000000E+00  0.00000000000E+00 -0.10078664386E+04  0.10078664386E+04  0.25500000920E-02 0.  1.
    10030    2    1    2    0    0  0.00000000000E+00  0.00000000000E+00  0.15282737327E+04  0.35440066098E+04  0.31975556678E+04 0.  0.
        2    1    3    3  502    0  0.35890506340E+03  0.88136274108E+03  0.21880424888E+04  0.23860308168E+04  0.25500000920E-02 0. -1.
       -2    1    3    3    0  502 -0.35890506340E+03 -0.88136274108E+03 -0.65976875604E+03  0.11579757931E+04  0.25500000920E-02 0.  1.
</event>
<event>
 5   0  0.3080500E-08  0.3199855E+04  0.7818609E-02  0.8188856E-01
        3   -1    0    0  501    0  0.00000000000E+00  0.00000000000E+00  0.16418943673E+04  0.16418943704E+04  0.10100000352E+00 0. -1.
       -3   -1    0    0    0  501  0.00000000000E+00  0.00000000000E+00 -0.15590331548E+04  0.15590331581E+04  0.10100000352E+00 0.  1.
    10030    2    1    2    0    0  0.00000000000E+00  0.00000000000E+00  0.82861212493E+02  0.32009275284E+04  0.31998548501E+04 0.  0.
        5    1    3    3  502    0  0.14658454785E+03 -0.81455413232E+03 -0.13282472256E+04  0.15650074270E+04  0.46999998093E+01 0.  1.
       -5    1    3    3    0  502 -0.14658454785E+03  0.81455413232E+03  0.14111084381E+04  0.16359201014E+04  0.46999998093E+01 0. -1.
</event>
<event>
 5   0  0.3343140E-08  0.3202050E+04  0.7818609E-02  0.8188276E-01
       -1   -1    0    0    0  501  0.00000000000E+00  0.00000000000E+00  0.11605968100E+04  0.11605968100E+04  0.50400001928E-02 0.  1.
        1   -1    0    0  501    0  0.00000000000E+00  0.00000000000E+00 -0.22085889371E+04  0.22085889371E+04  0.50400001928E-02 0. -1.
    10030    2    1    2    0    0  0.00000000000E+00  0.00000000000E+00 -0.10479921270E+04  0.33691857471E+04  0.32020501402E+04 0.  0.
        1    1    3    3  502    0  0.26186881444E+03  0.14193159684E+04  0.20517544510E+03  0.14577825824E+04  0.50400001928E-02 0.  1.
       -1    1    3    3    0  502 -0.26186881444E+03 -0.14193159684E+04 -0.12531675721E+04  0.19114031647E+04  0.50400001928E-02 0. -1.
</event>
<event>
 5   0  0.9353994E-08  0.3198966E+04  0.7818609E-02  0.8189090E-01
        2   -1    0    0  501    0  0.00000000000E+00  0.00000000000E+00  0.23445551686E+04  0.23445551686E+04  0.25500000920E-02 0.  1.
       -2   -1    0    0    0  501  0.00000000000E+00  0.00000000000E+00 -0.10911859555E+04  0.10911859555E+04  0.25500000920E-02 0. -1.
    10030    2    1    2    0    0  0.00000000000E+00  0.00000000000E+00  0.12533692131E+04  0.34357411241E+04  0.31989658778E+04 0.  0.
        2    1    3    3  502    0  0.37757807710E+03 -0.13377887086E+04 -0.22314785314E+03  0.14078489967E+04  0.25500000920E-02 0. -1.
       -2    1    3    3    0  502 -0.37757807710E+03  0.13377887086E+04  0.14765170663E+04  0.20278921274E+04  0.25500000920E-02 0.  1.
</event>
<event>
 5   0  0.3427667E-08  0.3200900E+04  0.7818609E-02  0.8188580E-01
        1   -1    0    0  501    0  0.00000000000E+00  0.00000000000E+00  0.18638082694E+04  0.18638082695E+04  0.50400001928E-02 0. -1.
       -1   -1    0    0    0  501  0.00000000000E+00  0.00000000000E+00 -0.13743042267E+04  0.13743042267E+04  0.50400001928E-02 0.  1.
    10030    2    1    2    0    0  0.00000000000E+00  0.00000000000E+00  0.48950404274E+03  0.32381124962E+04  0.32008996126E+04 0.  0.
        2    1    3    3  502    0 -0.73925646047E+03 -0.11289648694E+04  0.11152075146E+04  0.17506426224E+04  0.25500000920E-02 0. -1.
       -2    1    3    3    0  502  0.73925646047E+03  0.11289648694E+04 -0.62570347190E+03  0.14874698738E+04  0.25500000920E-02 0.  1.
</event>
<event>
 5   0  0.3427667E-08  0.3216059E+04  0.7818609E-02  0.8184589E-01
        1   -1    0    0  501    0  0.00000000000E+00  0.00000000000E+00  0.19499691401E+04  0.19499691401E+04  0.50400001928E-02 0. -1.
       -1   -1    0    0    0  501  0.00000000000E+00  0.00000000000E+00 -0.13260515035E+04  0.13260515035E+04  0.50400001928E-02 0.  1.
    10030    2    1    2    0    0  0.00000000000E+00  0.00000000000E+00  0.62391763657E+03  0.32760206436E+04  0.32160593962E+04 0.  0.
        2    1    3    3  502    0  0.12181401383E+03  0.94564893039E+02  0.19424193689E+04  0.19485312873E+04  0.25500000920E-02 0. -1.
       -2    1    3    3    0  502 -0.12181401383E+03 -0.94564893039E+02 -0.13185017323E+04  0.13274893563E+04  0.25500000920E-02 0.  1.
</event>
<event>
 5   0  0.3220147E-08  0.3201621E+04  0.7818609E-02  0.8188389E-01
       -1   -1    0    0    0  501  0.00000000000E+00  0.00000000000E+00  0.11866766448E+04  0.11866766449E+04  0.50400001928E-02 0. -1.
        1   -1    0    0  501    0  0.00000000000E+00  0.00000000000E+00 -0.21594717096E+04  0.21594717096E+04  0.50400001928E-02 0.  1.
    10030    2    1    2    0    0  0.00000000000E+00  0.00000000000E+00 -0.97279506474E+03  0.33461483544E+04  0.32016212412E+04 0.  0.
        4    1    3    3  502    0  0.82215899236E+03 -0.68148860943E+03  0.76000627498E+03  0.13107186137E+04  0.12699999809E+01 0. -1.
       -4    1    3    3    0  502 -0.82215899236E+03  0.68148860943E+03 -0.17328013397E+04  0.20354297407E+04  0.12699999809E+01 0.  1.
</event>
<event>
 5   0  0.3220147E-08  0.3199694E+04  0.7818609E-02  0.8188898E-01
       -1   -1    0    0    0  501  0.00000000000E+00  0.00000000000E+00  0.13739565056E+04  0.13739565056E+04  0.50400001928E-02 0. -1.
        1   -1    0    0  501    0  0.00000000000E+00  0.00000000000E+00 -0.18628759217E+04  0.18628759217E+04  0.50400001928E-02 0.  1.
    10030    2    1    2    0    0  0.00000000000E+00  0.00000000000E+00 -0.48891941612E+03  0.32368324274E+04  0.31996940428E+04 0.  0.
        4    1    3    3  502    0  0.15971188828E+04 -0.84996675744E+02 -0.28358311361E+03  0.16243257543E+04  0.12699999809E+01 0. -1.
       -4    1    3    3    0  502 -0.15971188828E+04  0.84996675744E+02 -0.20533630251E+03  0.16125066731E+04  0.12699999809E+01 0.  1.
</event>
<event>
 5   0  0.3283581E-08  0.3209791E+04  0.7818609E-02  0.8186236E-01
        1   -1    0    0  501    0  0.00000000000E+00  0.00000000000E+00  0.18286023653E+04  0.18286023653E+04  0.50400001928E-02 0. -1.
       -1   -1    0    0    0  501  0.00000000000E+00  0.00000000000E+00 -0.14085564958E+04  0.14085564958E+04  0.50400001928E-02 0.  1.
    10030    2    1    2    0    0  0.00000000000E+00  0.00000000000E+00  0.42004586958E+03  0.32371588611E+04  0.32097911084E+04 0.  0.
        5    1    3    3  502    0 -0.74568078117E+03 -0.11698170074E+04  0.10238455673E+04  0.17241790783E+04  0.46999998093E+01 0.  1.
       -5    1    3    3    0  502  0.74568078117E+03  0.11698170074E+04 -0.60379969770E+03  0.15129797828E+04  0.46999998093E+01 0. -1.
</event>
<event>
 5   0  0.3270966E-08  0.3199231E+04  0.7818609E-02  0.8189020E-01
       -1   -1    0    0    0  501  0.00000000000E+00  0.00000000000E+00  0.19611808153E+04  0.19611808153E+04  0.50400001928E-02 0.  1.
        1   -1    0    0  501    0  0.00000000000E+00  0.00000000000E+00 -0.13047090906E+04  0.13047090906E+04  0.50400001928E-02 0. -1.
    10030    2    1    2    0    0  0.00000000000E+00  0.00000000000E+00  0.65647172470E+03  0.32658899058E+04  0.31992314314E+04 0.  0.
        3    1    3    3  502    0  0.11061031801E+04 -0.26815247406E+03 -0.81919464693E+03  0.14023016345E+04  0.10100000352E+00 0. -1.
       -3    1    3    3    0  502 -0.11061031801E+04  0.26815247406E+03  0.14756663716E+04  0.18635882713E+04  0.10100000352E+00 0.  1.
</event>
<event>
 5   0  0.9157524E-08  0.3199279E+04  0.7818609E-02  0.8189008E-01
       -2   -1    0    0    0  501  0.00000000000E+00  0.00000000000E+00  0.89558741689E+03  0.89558741689E+03  0.25500000920E-02 0. -1.
        2   -1    0    0  501    0  0.00000000000E+00  0.00000000000E+00 -0.28571718675E+04  0.28571718675E+04  0.25500000920E-02 0.  1.
    10030    2    1    2    0    0  0.00000000000E+00  0.00000000000E+00 -0.19615844506E+04  0.37527592844E+04  0.31992794016E+04 0.  0.
        5    1    3    3  502    0 -0.11126996184E+04 -0.33016831366E+03  0.31042263683E+03  0.12014557251E+04  0.46999998093E+01 0. -1.
       -5    1    3    3    0  502  0.11126996184E+04  0.33016831366E+03 -0.22720070874E+04  0.25513035592E+04  0.46999998093E+01 0.  1.
</event>
<event>
 5   0  0.3283581E-08  0.3199760E+04  0.7818609E-02  0.8188881E-01
       -1   -1    0    0    0  501  0.00000000000E+00  0.00000000000E+00  0.11697234461E+04  0.11697234461E+04  0.50400001928E-02 0. -1.
        1   -1    0    0  501    0  0.00000000000E+00  0.00000000000E+00 -0.21882230580E+04  0.21882230580E+04  0.50400001928E-02 0.  1.
    10030    2    1    2    0    0  0.00000000000E+00  0.00000000000E+00 -0.10184996119E+04  0.33579465041E+04  0.31997598761E+04 0.  0.
        5    1    3    3  502    0 -0.11818639440E+04  0.25762871696E+03 -0.16081155106E+04  0.20122704896E+04  0.46999998093E+01 0.  1.
       -5    1    3    3    0  502  0.11818639440E+04 -0.25762871696E+03  0.58961589872E+03  0.13456760145E+04  0.46999998093E+01 0. -1.
</event>
<event>
 5   0  0.9329929E-08  0.3199193E+04  0.7818609E-02  0.8189030E-01
        2   -1    0    0  501    0  0.00000000000E+00  0.00000000000E+00  0.30378635387E+04  0.30378635387E+04  0.25500000920E-02 0. -1.
       -2   -1    0    0    0  501  0.00000000000E+00  0.00000000000E+00 -0.84227257774E+03  0.84227257775E+03  0.25500000920E-02 0.  1.
    10030    2    1    2    0    0  0.00000000000E+00  0.00000000000E+00  0.21955909610E+04  0.38801361164E+04  0.31991931193E+04 0.  0.
        1    1    3    3  502    0 -0.93240899796E+03 -0.84386968262E+03 -0.10115071445E+03  0.12616394286E+04  0.50400001928E-02 0.  1.
       -1    1    3    3    0  502  0.93240899796E+03  0.84386968262E+03  0.22967416754E+04  0.26184966879E+04  0.50400001928E-02 0. -1.
</event>
<event>
 5   0  0.3270966E-08  0.3199578E+04  0.7818609E-02  0.8188929E-01
       -1   -1    0    0    0  501  0.00000000000E+00  0.00000000000E+00  0.12123331902E+04  0.12123331902E+04  0.50400001928E-02 0. -1.
        1   -1    0    0  501    0  0.00000000000E+00  0.00000000000E+00 -0.21110736440E+04  0.21110736440E+04  0.50400001928E-02 0.  1.
    10030    2    1    2    0    0  0.00000000000E+00  0.00000000000E+00 -0.89874045381E+03  0.33234068343E+04  0.31995778757E+04 0.  0.
        3    1    3    3  502    0 -0.62889034594E+03 -0.75089271979E+03  0.86448747144E+03  0.13064002229E+04  0.10100000352E+00 0. -1.
       -3    1    3    3    0  502  0.62889034594E+03  0.75089271979E+03 -0.17632279253E+04  0.20170066114E+04  0.10100000352E+00 0.  1.
</event>
<event>
 5   0  0.3220147E-08  0.3199742E+04  0.7818609E-02  0.8188885E-01
        1   -1    0    0  501    0  0.00000000000E+00  0.00000000000E+00  0.24507864485E+04  0.24507864486E+04  0.50400001928E-02 0. -1.
       -1   -1    0    0    0  501  0.00000000000E+00  0.00000000000E+00 -0.10443941981E+04  0.10443941981E+04  0.50400001928E-02 0.  1.
    10030    2    1    2    0    0  0.00000000000E+00  0.00000000000E+00  0.14063922504E+04  0.34951806467E+04  0.31997419569E+04 0.  0.
        4    1    3    3  502    0  0.12637361304E+04 -0.83416056763E+03  0.12673437721E+04  0.19745922895E+04  0.12699999809E+01 0. -1.
       -4    1    3    3    0  502 -0.12637361304E+04  0.83416056763E+03  0.13904847829E+03  0.15205883572E+04  0.12699999809E+01 0.  1.
</event>
<event>
 5   0  0.9329929E-08  0.3199750E+04  0.7818609E-02  0.8188883E-01
       -2   -1    0    0    0  501  0.00000000000E+00  0.00000000000E+00  0.21372295579E+04  0.21372295579E+04  0.25500000920E-02 0. -1.
        2   -1    0    0  501    0  0.00000000000E+00  0.00000000000E+00 -0.11976250225E+04  0.11976250225E+04  0.25500000920E-02 0.  1.
    10030    2    1    2    0    0  0.00000000000E+00  0.00000000000E+00  0.93960453539E+03  0.33348545805E+04  0.31997497386E+04 0.  0.
        1    1    3    3  502    0 -0.13651086022E+04  0.83429233711E+03  0.47591488574E+03  0.16691495373E+04  0.50400001928E-02 0.  1.
       -1    1    3    3    0  502  0.13651086022E+04 -0.83429233711E+03  0.46368964965E+03  0.16657050431E+04  0.50400001928E-02 0. -1.
</event>
<event>
 5   0  0.9707721E-08  0.3198316E+04  0.7818609E-02  0.8189262E-01
        2   -1    0    0  501    0  0.00000000000E+00  0.00000000000E+00  0.24717652070E+04  0.24717652070E+04  0.25500000920E-02 0.  1.
       -2   -1    0    0    0  501  0.00000000000E+00  0.00000000000E+00 -0.10346074755E+04  0.10346074756E+04  0.25500000920E-02 0. -1.
    10030    2    1    2    0    0  0.00000000000E+00  0.00000000000E+00  0.14371577315E+04  0.35063726826E+04  0.31983162827E+04 0.  0.
        3    1    3    3  502    0 -0.45761385863E+03 -0.14164514176E+04  0.77854498138E+02  0.14905725058E+04  0.10100000352E+00 0. -1.
       -3    1    3    3    0  502  0.45761385863E+03  0.14164514176E+04  0.13593032333E+04  0.20158001767E+04  0.10100000352E+00 0.  1.
</event>
<event>
 5   0  0.9329929E-08  0.3199570E+04  0.7818609E-02  0.8188931E-01
       -2   -1    0    0    0  501  0.00000000000E+00  0.00000000000E+00  0.26582843214E+04  0.26582843214E+04  0.25500000920E-02 0.  1.
        2   -1    0    0  501    0  0.00000000000E+00  0.00000000000E+00 -0.96276859685E+03  0.96276859685E+03  0.25500000920E-02 0. -1.
    10030    2    1    2    0    0  0.00000000000E+00  0.00000000000E+00  0.16955157246E+04  0.36210529183E+04  0.31995703875E+04 0.  0.
        1    1    3    3  502    0 -0.35745593218E+03 -0.50130678924E+02 -0.91608211172E+03  0.98462899808E+03  0.50400001928E-02 0. -1.
       -1    1    3    3    0  502  0.35745593218E+03  0.50130678924E+02  0.26115978363E+04  0.26364239202E+04  0.50400001928E-02 0.  1.
</event>
<event>
 5   0  0.9707721E-08  0.3199158E+04  0.7818609E-02  0.8189040E-01
       -2   -1    0    0    0  501  0.00000000000E+00  0.00000000000E+00  0.13257051138E+04  0.13257051138E+04  0.25500000920E-02 0. -1.
        2   -1    0    0  501    0  0.00000000000E+00  0.00000000000E+00 -0.19300314450E+04  0.19300314450E+04  0.25500000920E-02 0.  1.
    10030    2    1    2    0    0  0.00000000000E+00  0.00000000000E+00 -0.60432633117E+03  0.32557365587E+04  0.31991577369E+04 0.  0.
        3    1    3    3  502    0 -0.15152083964E+04 -0.43611950133E+03 -0.27961886582E+02  0.15769713318E+04  0.10100000352E+00 0. -1.
       -3    1    3    3    0  502  0.15152083964E+04  0.43611950133E+03 -0.57636444459E+03  0.16787652269E+04  0.10100000352E+00 0.  1.
</event>
<event>
 5   0  0.9353994E-08  0.3203622E+04  0.7818609E-02  0.8187861E-01
       -2   -1    0    0    0  501  0.00000000000E+00  0.00000000000E+00  0.11280226214E+04  0.11280226214E+04  0.25500000920E-02 0. -1.
        2   -1    0    0  501    0  0.00000000000E+00  0.00000000000E+00 -0.22745986481E+04  0.22745986481E+04  0.25500000920E-02 0.  1.
    10030    2    1    2    0    0  0.00000000000E+00  0.00000000000E+00 -0.11465760267E+04  0.34026212694E+04  0.32036221560E+04 0.  0.
        2    1    3    3  502    0 -0.11479139872E+04  0.41712931213E+03 -0.16740508050E+04  0.20722329702E+04  0.25500000920E-02 0.  1.
       -2    1    3    3    0  502  0.11479139872E+04 -0.41712931213E+03  0.52747477826E+03  0.13303882992E+04  0.25500000920E-02 0. -1.
</event>
<event>
 5   0  0.9329929E-08  0.3196579E+04  0.7818609E-02  0.8189721E-01
       -2   -1    0    0    0  501  0.00000000000E+00  0.00000000000E+00  0.11799792077E+04  0.11799792077E+04  0.25500000920E-02 0.  1.
        2   -1    0    0  501    0  0.00000000000E+00  0.00000000000E+00 -0.21648940723E+04  0.21648940723E+04  0.25500000920E-02 0. -1.
    10030    2    1    2    0    0  0.00000000000E+00  0.00000000000E+00 -0.98491486454E+03  0.33448732800E+04  0.31965794170E+04 0.  0.
        1    1    3    3  502    0  0.55856870285E+03 -0.14953535935E+04 -0.40842870311E+03  0.16476939555E+04  0.50400001928E-02 0.  1.
       -1    1    3    3    0  502 -0.55856870285E+03  0.14953535935E+04 -0.57648616143E+03  0.16971793246E+04  0.50400001928E-02 0. -1.
</event>
<event>
 5   0  0.3283581E-08  0.3200046E+04  0.7818609E-02  0.8188805E-01
        1   -1    0    0  501    0  0.00000000000E+00  0.00000000000E+00  0.16181789320E+04  0.16181789320E+04  0.50400001928E-02 0. -1.
       -1   -1    0    0    0  501  0.00000000000E+00  0.00000000000E+00 -0.15820707846E+04  0.15820707846E+04  0.50400001928E-02 0.  1.
    10030    2    1    2    0    0  0.00000000000E+00  0.00000000000E+00  0.36108147445E+02  0.32002497167E+04  0.32000460076E+04 0.  0.
        5    1    3    3  502    0  0.27736192946E+03  0.15603385169E+04  0.23821711784E+03  0.16026089394E+04  0.46999998093E+01 0. -1.
       -5    1    3    3    0  502 -0.27736192946E+03 -0.15603385169E+04 -0.20210897039E+03  0.15976407773E+04  0.46999998093E+01 0.  1.
</event>
<event>
 5   0  0.3283581E-08  0.3200479E+04  0.7818609E-02  0.8188691E-01
       -1   -1    0    0    0  501  0.00000000000E+00  0.00000000000E+00  0.14393926749E+04  0.14393926749E+04  0.50400001928E-02 0.  1.
        1   -1    0    0  501    0  0.00000000000E+00  0.00000000000E+00 -0.17790601419E+04  0.17790601419E+04  0.50400001928E-02 0. -1.
    10030    2    1    2    0    0  0.00000000000E+00  0.00000000000E+00 -0.33966746700E+03  0.32184528168E+04  0.32004787995E+04 0.  0.
        5    1    3    3  502    0  0.86681124899E+03 -0.12556494990E+04  0.31529303882E+03  0.15580273413E+04  0.46999998093E+01 0.  1.
       -5    1    3    3    0  502 -0.86681124899E+03  0.12556494990E+04 -0.65496050582E+03  0.16604254756E+04  0.46999998093E+01 0. -1.
</event>
<event>
 5   0  0.9353994E-08  0.3199031E+04  0.7818609E-02  0.8189073E-01
        2   -1    0    0  501    0  0.00000000000E+00  0.00000000000E+00  0.13695167494E+04  0.13695167494E+04  0.25500000920E-02 0.  1.
       -2   -1    0    0    0  501  0.00000000000E+00  0.00000000000E+00 -0.18681403523E+04  0.18681403523E+04  0.25500000920E-02 0. -1.
    10030    2    1    2    0    0  0.00000000000E+00  0.00000000000E+00 -0.49862360290E+03  0.32376571018E+04  0.31990307925E+04 0.  0.
        2    1    3    3  502    0 -0.21286745552E+03 -0.62135900595E+03 -0.17253624956E+04  0.18461514860E+04  0.25500000920E-02 0. -1.
       -2    1    3    3    0  502  0.21286745552E+03  0.62135900595E+03  0.12267388927E+04  0.13915056158E+04  0.25500000920E-02 0.  1.
</event>
<event>
 5   0  0.3270966E-08  0.3200359E+04  0.7818609E-02  0.8188722E-01
       -1   -1    0    0    0  501  0.00000000000E+00  0.00000000000E+00  0.25160952449E+04  0.25160952449E+04  0.50400001928E-02 0. -1.
        1   -1    0    0  501    0  0.00000000000E+00  0.00000000000E+00 -0.10176777867E+04  0.10176777867E+04  0.50400001928E-02 0.  1.
    10030    2    1    2    0    0  0.00000000000E+00  0.00000000000E+00  0.14984174582E+04  0.35337730317E+04  0.32003588799E+04 0.  0.
        3    1    3    3  502    0 -0.56814736955E+03  0.44858925488E+03  0.23249596141E+04  0.24350484534E+04  0.10100000352E+00 0. -1.
       -3    1    3    3    0  502  0.56814736955E+03 -0.44858925488E+03 -0.82654215590E+03  0.10987245782E+04  0.10100000352E+00 0.  1.
</event>
<event>
 5   0  0.3283581E-08  0.3200274E+04  0.7818609E-02  0.8188745E-01
       -1   -1    0    0    0  501  0.00000000000E+00  0.00000000000E+00  0.21661815110E+04  0.21661815110E+04  0.50400001928E-02 0. -1.
        1   -1    0    0  501    0  0.00000000000E+00  0.00000000000E+00 -0.11820058229E+04  0.11820058230E+04  0.50400001928E-02 0.  1.
    10030    2    1    2    0    0  0.00000000000E+00  0.00000000000E+00  0.98417568810E+03  0.33481873340E+04  0.32002744630E+04 0.  0.
        5    1    3    3  502    0 -0.12846958893E+02 -0.11814235489E+03  0.21615509712E+04  0.21648203970E+04  0.46999998093E+01 0. -1.
       -5    1    3    3    0  502  0.12846958893E+02  0.11814235489E+03 -0.11773752831E+04  0.11833669370E+04  0.46999998093E+01 0.  1.
</event>
<event>
 5   0  0.9157524E-08  0.3196433E+04  0.7818609E-02  0.8189760E-01
        2   -1    0    0  501    0  0.00000000000E+00  0.00000000000E+00  0.22503157459E+04  0.22503157459E+04  0.25500000920E-02 0. -1.
       -2   -1    0    0    0  501  0.00000000000E+00  0.00000000000E+00 -0.11350835200E+04  0.11350835200E+04  0.25500000920E-02 0.  1.
    10030    2    1    2    0    0  0.00000000000E+00  0.00000000000E+00  0.11152322259E+04  0.33853992659E+04  0.31964332109E+04 0.  0.
        5    1    3    3  502    0  0.10573300802E+04  0.96478992877E+03  0.13106389699E+04  0.19407635365E+04  0.46999998093E+01 0. -1.
       -5    1    3    3    0  502 -0.10573300802E+04 -0.96478992877E+03 -0.19540674394E+03  0.14446357294E+04  0.46999998093E+01 0.  1.
</event>
<event>
 5   0  0.9707721E-08  0.3200630E+04  0.7818609E-02  0.8188651E-01
       -2   -1    0    0    0  501  0.00000000000E+00  0.00000000000E+00  0.15453841695E+04  0.15453841695E+04  0.25500000920E-02 0.  1.
        2   -1    0    0  501    0  0.00000000000E+00  0.00000000000E+00 -0.16571987926E+04  0.16571987926E+04  0.25500000920E-02 0. -1.
    10030    2    1    2    0    0  0.00000000000E+00  0.00000000000E+00 -0.11181462316E+03  0.32025829621E+04  0.32006304253E+04 0.  0.
        3    1    3    3  502    0 -0.28819567492E+03 -0.29361052598E+03  0.14915628587E+04  0.15472632807E+04  0.10100000352E+00 0.  1.
       -3    1    3    3    0  502  0.28819567492E+03  0.29361052598E+03 -0.16033774819E+04  0.16553196814E+04  0.10100000352E+00 0. -1.
</event>
<event>
 5   0  0.3283581E-08  0.3201154E+04  0.7818609E-02  0.8188513E-01
       -1   -1    0    0    0  501  0.00000000000E+00  0.00000000000E+00  0.89446426527E+03  0.89446426528E+03  0.50400001928E-02 0.  1.
        1   -1    0    0  501    0  0.00000000000E+00  0.00000000000E+00 -0.28641122810E+04  0.28641122810E+04  0.50400001928E-02 0. -1.
    10030    2    1    2    0    0  0.00000000000E+00  0.00000000000E+00 -0.19696480158E+04  0.37585765463E+04  0.32011535965E+04 0.  0.
        5    1    3    3  502    0 -0.66784968060E+03 -0.11907710250E+04 -0.39738923685E+01  0.13652826490E+04  0.46999998093E+01 0. -1.
       -5    1    3    3    0  502  0.66784968060E+03  0.11907710250E+04 -0.19656741234E+04  0.23932938974E+04  0.46999998093E+01 0.  1.
</event>
<event>
 5   0  0.9353994E-08  0.3199064E+04  0.7818609E-02  0.8189065E-01
       -2   -1    0    0    0  501  0.00000000000E+00  0.00000000000E+00  0.91949952704E+03  0.91949952705E+03  0.25500000920E-02 0.  1.
        2   -1    0    0  501    0  0.00000000000E+00  0.00000000000E+00 -0.27824941117E+04  0.27824941117E+04  0.25500000920E-02 0. -1.
    10030    2    1    2    0    0  0.00000000000E+00  0.00000000000E+00 -0.18629945846E+04  0.37019936387E+04  0.31990636253E+04 0.  0.
        2    1    3    3  502    0 -0.13795759455E+03  0.14855422821E+04 -0.15989123669E+04  0.21868673775E+04  0.25500000920E-02 0. -1.
       -2    1    3    3    0  502  0.13795759455E+03 -0.14855422821E+04 -0.26408221771E+03  0.15151262612E+04  0.25500000920E-02 0.  1.
</event>
<event>
 5   0  0.3343140E-08  0.3201816E+04  0.7818609E-02  0.8188338E-01
       -1   -1    0    0    0  501  0.00000000000E+00  0.00000000000E+00  0.12913520319E+04  0.12913520320E+04  0.50400001928E-02 0. -1.
        1   -1    0    0  501    0  0.00000000000E+00  0.00000000000E+00 -0.19846695038E+04  0.19846695038E+04  0.50400001928E-02 0.  1.
    10030    2    1    2    0    0  0.00000000000E+00  0.00000000000E+00 -0.69331747188E+03  0.32760215358E+04  0.32018163573E+04 0.  0.
        1    1    3    3  502    0 -0.50769889102E+03 -0.20997477998E+03 -0.18851899696E+04  0.19636162542E+04  0.50400001928E-02 0.  1.
       -1    1    3    3    0  502  0.50769889102E+03  0.20997477998E+03  0.11918724978E+04  0.13124052816E+04  0.50400001928E-02 0. -1.
</event>
<event>
 5   0  0.9329929E-08  0.3207679E+04  0.7818609E-02  0.8186792E-01
       -2   -1    0    0    0  501  0.00000000000E+00  0.00000000000E+00  0.10264175141E+04  0.10264175141E+04  0.25500000920E-02 0.  1.
        2   -1    0    0  501    0  0.00000000000E+00  0.00000000000E+00 -0.25060956877E+04  0.25060956877E+04  0.25500000920E-02 0. -1.
    10030    2    1    2    0    0  0.00000000000E+00  0.00000000000E+00 -0.14796781735E+04  0.35325132018E+04  0.32076786036E+04 0.  0.
        1    1    3    3  502    0  0.80831822091E+03  0.13829211220E+04 -0.82829310729E+03  0.18033076963E+04  0.50400001928E-02 0.  1.
       -1    1    3    3    0  502 -0.80831822091E+03 -0.13829211220E+04 -0.65138506625E+03  0.17292055055E+04  0.50400001928E-02 0. -1.
</event>
<event>
 5   0  0.3427667E-08  0.3200009E+04  0.7818609E-02  0.8188815E-01
       -1   -1    0    0    0  501  0.00000000000E+00  0.00000000000E+00  0.17437328507E+04  0.17437328507E+04  0.50400001928E-02 0. -1.
        1   -1    0    0  501    0  0.00000000000E+00  0.00000000000E+00 -0.14681231208E+04  0.14681231208E+04  0.50400001928E-02 0.  1.
    10030    2    1    2    0    0  0.00000000000E+00  0.00000000000E+00  0.27560972991E+03  0.32118559714E+04  0.32000090716E+04 0.  0.
        2    1    3    3  502    0 -0.11103994440E+04 -0.15368227876E+03 -0.10080913056E+04  0.15075985037E+04  0.25500000920E-02 0.  1.
       -2    1    3    3    0  502  0.11103994440E+04  0.15368227876E+03  0.12837010355E+04  0.17042574678E+04  0.25500000920E-02 0. -1.
</event>
<event>
 5   0  0.3270966E-08  0.3200862E+04  0.7818609E-02  0.8188590E-01
        1   -1    0    0  501    0  0.00000000000E+00  0.00000000000E+00  0.25316151830E+04  0.25316151830E+04  0.50400001928E-02 0. -1.
       -1   -1    0    0    0  501  0.00000000000E+00  0.00000000000E+00 -0.10117567865E+04  0.10117567865E+04  0.50400001928E-02 0.  1.
    10030    2    1    2    0    0  0.00000000000E+00  0.00000000000E+00  0.15198583965E+04  0.35433719695E+04  0.32008616604E+04 0.  0.
        3    1    3    3  502    0  0.78700424652E+03 -0.11835255776E+04  0.15743651971E+04  0.21210219850E+04  0.10100000352E+00 0. -1.
       -3    1    3    3    0  502 -0.78700424652E+03  0.11835255776E+04 -0.54506800565E+02  0.14223499845E+04  0.10100000352E+00 0.  1.
</event>
<event>
 5   0  0.3283581E-08  0.3198663E+04  0.7818609E-02  0.8189170E-01
        1   -1    0    0  501    0  0.00000000000E+00  0.00000000000E+00  0.25359268350E+04  0.25359268350E+04  0.50400001928E-02 0.  1.
       -1   -1    0    0    0  501  0.00000000000E+00  0.00000000000E+00 -0.10086492071E+04  0.10086492071E+04  0.50400001928E-02 0. -1.
    10030    2    1    2    0    0  0.00000000000E+00  0.00000000000E+00  0.15272776279E+04  0.35445760422E+04  0.31986625902E+04 0.  0.
        5    1    3    3  502    0  0.49482288831E+03 -0.14341696242E+04  0.13244800139E+04  0.20139418063E+04  0.46999998093E+01 0.  1.
       -5    1    3    3    0  502 -0.49482288831E+03  0.14341696242E+04  0.20279761397E+03  0.15306342359E+04  0.46999998093E+01 0. -1.
</event>
<event>
 5   0  0.3427667E-08  0.3198839E+04  0.7818609E-02  0.8189124E-01
        1   -1    0    0  501    0  0.00000000000E+00  0.00000000000E+00  0.23259611122E+04  0.23259611122E+04  0.50400001928E-02 0.  1.
       -1   -1    0    0    0  501  0.00000000000E+00  0.00000000000E+00 -0.10998214582E+04  0.10998214582E+04  0.50400001928E-02 0. -1.
    10030    2    1    2    0    0  0.00000000000E+00  0.00000000000E+00  0.12261396540E+04  0.34257825703E+04  0.31988385030E+04 0.  0.
        2    1    3    3  502    0  0.92129155921E+03 -0.16616381523E+03  0.20018983804E+04  0.22099741347E+04  0.25500000920E-02 0.  1.
       -2    1    3    3    0  502 -0.92129155921E+03  0.16616381523E+03 -0.77575872642E+03  0.12158084357E+04  0.25500000920E-02 0. -1.
</event>
<event>
 5   0  0.9727083E-08  0.3201051E+04  0.7818609E-02  0.8188540E-01
       -2   -1    0    0    0  501  0.00000000000E+00  0.00000000000E+00  0.19060397350E+04  0.19060397350E+04  0.25500000920E-02 0. -1.
        2   -1    0    0  501    0  0.00000000000E+00  0.00000000000E+00 -0.13439814954E+04  0.13439814954E+04  0.25500000920E-02 0.  1.
    10030    2    1    2    0    0  0.00000000000E+00  0.00000000000E+00  0.56205823955E+03  0.32500212304E+04  0.32010511607E+04 0.  0.
        4    1    3    3  502    0 -0.14142820453E+04  0.24722626243E+03  0.99921601274E+03  0.17492137610E+04  0.12699999809E+01 0. -1.
       -4    1    3    3    0  502  0.14142820453E+04 -0.24722626243E+03 -0.43715777319E+03  0.15008074694E+04  0.12699999809E+01 0.  1.
</event>
<event>
 5   0  0.3220147E-08  0.3200072E+04  0.7818609E-02  0.8188798E-01
        1   -1    0    0  501    0  0.00000000000E+00  0.00000000000E+00  0.16201826338E+04  0.16201826338E+04  0.50400001928E-02 0. -1.
       -1   -1    0    0    0  501  0.00000000000E+00  0.00000000000E+00 -0.15801395842E+04  0.15801395842E+04  0.50400001928E-02 0.  1.
    10030    2    1    2    0    0  0.00000000000E+00  0.00000000000E+00  0.40043049568E+02  0.32003222180E+04  0.32000716950E+04 0.  0.
        4    1    3    3  502    0 -0.14069928289E+04 -0.15839223674E+03  0.76532893974E+03  0.16094865393E+04  0.12699999809E+01 0. -1.
       -4    1    3    3    0  502  0.14069928289E+04  0.15839223674E+03 -0.72528589017E+03  0.15908356787E+04  0.12699999809E+01 0.  1.
</event>
<event>
 5   0  0.3283581E-08  0.3200770E+04  0.7818609E-02  0.8188614E-01
        1   -1    0    0  501    0  0.00000000000E+00  0.00000000000E+00  0.15492533227E+04  0.15492533227E+04  0.50400001928E-02 0.  1.
       -1   -1    0    0    0  501  0.00000000000E+00  0.00000000000E+00 -0.16532040199E+04  0.16532040199E+04  0.50400001928E-02 0. -1.
    10030    2    1    2    0    0  0.00000000000E+00  0.00000000000E+00 -0.10395069718E+03  0.32024573426E+04  0.32007697955E+04 0.  0.
        5    1    3    3  502    0 -0.83563600567E+03 -0.13111393035E+04  0.32748167604E+03  0.15889116228E+04  0.46999998093E+01 0.  1.
       -5    1    3    3    0  502  0.83563600567E+03  0.13111393035E+04 -0.43143237322E+03  0.16135457198E+04  0.46999998093E+01 0. -1.
</event>
<event>
 5   0  0.3427667E-08  0.3194416E+04  0.7818609E-02  0.8190293E-01
        1   -1    0    0  501    0  0.00000000000E+00  0.00000000000E+00  0.19790081636E+04  0.19790081636E+04  0.50400001928E-02 0. -1.
       -1   -1    0    0    0  501  0.00000000000E+00  0.00000000000E+00 -0.12890669246E+04  0.12890669246E+04  0.50400001928E-02 0.  1.
    10030    2    1    2    0    0  0.00000000000E+00  0.00000000000E+00  0.68994123898E+03  0.32680750883E+04  0.31944163582E+04 0.  0.
        2    1    3    3  502    0 -0.33596267399E+02 -0.65252305456E+03  0.18360268034E+04  0.19488225852E+04  0.25500000920E-02 0. -1.
       -2    1    3    3    0  502  0.33596267399E+02  0.65252305456E+03 -0.11460855644E+04  0.13192525031E+04  0.25500000920E-02 0.  1.
</event>
<event>
 5   0  0.9329929E-08  0.3198213E+04  0.7818609E-02  0.8189289E-01
       -2   -1    0    0    0  501  0.00000000000E+00  0.00000000000E+00  0.12494026805E+04  0.12494026805E+04  0.25500000920E-02 0. -1.
        2   -1    0    0  501    0  0.00000000000E+00  0.00000000000E+00 -0.20466914809E+04  0.20466914809E+04  0.25500000920E-02 0.  1.
    10030    2    1    2    0    0  0.00000000000E+00  0.00000000000E+00 -0.79728880040E+03  0.32960941614E+04  0.31982131402E+04 0.  0.
        1    1    3    3  502    0  0.10621544364E+04  0.69859124988E+02 -0.16285190376E+04  0.19455401820E+04  0.50400001928E-02 0.  1.
       -1    1    3    3    0  502 -0.10621544364E+04 -0.69859124988E+02  0.83123023719E+03  0.13505539794E+04  0.50400001928E-02 0. -1.
</event>
<event>
 5   0  0.9707721E-08  0.3200754E+04  0.7818609E-02  0.8188618E-01
       -2   -1    0    0    0  501  0.00000000000E+00  0.00000000000E+00  0.12999223775E+04  0.12999223775E+04  0.25500000920E-02 0. -1.
        2   -1    0    0  501    0  0.00000000000E+00  0.00000000000E+00 -0.19702768226E+04  0.19702768226E+04  0.25500000920E-02 0.  1.
    10030    2    1    2    0    0  0.00000000000E+00  0.00000000000E+00 -0.67035444506E+03  0.32701992001E+04  0.32007542434E+04 0.  0.
        3    1    3    3  502    0  0.15415179529E+04  0.26109276523E+03 -0.68429238973E+03  0.17066643244E+04  0.10100000352E+00 0. -1.
       -3    1    3    3    0  502 -0.15415179529E+04 -0.26109276523E+03  0.13937944674E+02  0.15635348758E+04  0.10100000352E+00 0.  1.
</event>
<event>
 5   0  0.9707721E-08  0.3201258E+04  0.7818609E-02  0.8188485E-01
       -2   -1    0    0    0  501  0.00000000000E+00  0.00000000000E+00  0.14310882089E+04  0.14310882089E+04  0.25500000920E-02 0.  1.
        2   -1    0    0  501    0  0.00000000000E+00  0.00000000000E+00 -0.17902551675E+04  0.17902551675E+04  0.25500000920E-02 0. -1.
    10030    2    1    2    0    0  0.00000000000E+00  0.00000000000E+00 -0.35916695862E+03  0.32213433764E+04  0.32012579160E+04 0.  0.
        3    1    3    3  502    0  0.89132850060E+03  0.91405002959E+02 -0.15142505219E+04  0.17594817486E+04  0.10100000352E+00 0. -1.
       -3    1    3    3    0  502 -0.89132850060E+03 -0.91405002959E+02  0.11550835633E+04  0.14618616278E+04  0.10100000352E+00 0.  1.
</event>
<event>
 5   0  0.3220147E-08  0.3198790E+04  0.7818609E-02  0.8189137E-01
       -1   -1    0    0    0  501  0.00000000000E+00  0.00000000000E+00  0.11382627996E+04  0.11382627996E+04  0.50400001928E-02 0. -1.
        1   -1    0    0  501    0  0.00000000000E+00  0.00000000000E+00 -0.22473400900E+04  0.22473400900E+04  0.50400001928E-02 0.  1.
    10030    2    1    2    0    0  0.00000000000E+00  0.00000000000E+00 -0.11090772904E+04  0.33856028896E+04  0.31987895351E+04 0.  0.
        4    1    3    3  502    0 -0.48877510808E+03  0.78678096761E+03  0.82550321579E+03  0.12407185698E+04  0.12699999809E+01 0. -1.
       -4    1    3    3    0  502  0.48877510808E+03 -0.78678096761E+03 -0.19345805062E+04  0.21448843198E+04  0.12699999809E+01 0.  1.
</event>
<event>
 5   0  0.9329929E-08  0.3199873E+04  0.7818609E-02  0.8188851E-01
        2   -1    0    0  501    0  0.00000000000E+00  0.00000000000E+00  0.15791907637E+04  0.15791907637E+04  0.25500000920E-02 0.  1.
       -2   -1    0    0    0  501  0.00000000000E+00  0.00000000000E+00 -0.16209543899E+04  0.16209543899E+04  0.25500000920E-02 0. -1.
    10030    2    1    2    0    0  0.00000000000E+00  0.00000000000E+00 -0.41763626153E+02  0.32001451536E+04  0.31998726230E+04 0.  0.
        1    1    3    3  502    0 -0.10411165400E+04 -0.93675127880E+03 -0.79449122510E+03  0.16101685983E+04  0.50400001928E-02 0. -1.
       -1    1    3    3    0  502  0.10411165400E+04  0.93675127880E+03  0.75272759895E+03  0.15899765553E+04  0.50400001928E-02 0.  1.
</event>
<event>
 5   0  0.3427667E-08  0.3205917E+04  0.7818609E-02  0.8187256E-01
       -1   -1    0    0    0  501  0.00000000000E+00  0.00000000000E+00  0.10126190912E+04  0.10126190912E+04  0.50400001928E-02 0.  1.
        1   -1    0    0  501    0  0.00000000000E+00  0.00000000000E+00 -0.25374559432E+04  0.25374559432E+04  0.50400001928E-02 0. -1.
    10030    2    1    2    0    0  0.00000000000E+00  0.00000000000E+00 -0.15248368520E+04  0.35500750344E+04  0.32059172361E+04 0.  0.
        2    1    3    3  502    0  0.15557890675E+04 -0.36457183679E+03 -0.62198082580E+03  0.17147164180E+04  0.25500000920E-02 0. -1.
       -2    1    3    3    0  502 -0.15557890675E+04  0.36457183679E+03 -0.90285602620E+03  0.18353586164E+04  0.25500000920E-02 0.  1.
</event>
<event>
 5   0  0.3270966E-08  0.3200621E+04  0.7818609E-02  0.8188653E-01
       -1   -1    0    0    0  501  0.00000000000E+00  0.00000000000E+00  0.17493876435E+04  0.17493876435E+04  0.50400001928E-02 0.  1.
        1   -1    0    0  501    0  0.00000000000E+00  0.00000000000E+00 -0.14639373312E+04  0.14639373312E+04  0.50400001928E-02 0. -1.
    10030    2    1    2    0    0  0.00000000000E+00  0.00000000000E+00  0.28545031232E+03  0.32133249747E+04  0.32006211135E+04 0.  0.
        3    1    3    3  502    0 -0.15057800270E+04  0.33505073252E+01  0.68673302077E+03  0.16549885098E+04  0.10100000352E+00 0.  1.
       -3    1    3    3    0  502  0.15057800270E+04 -0.33505073252E+01 -0.40128270846E+03  0.15583364649E+04  0.10100000352E+00 0. -1.
</event>
<event>
 5   0  0.3283581E-08  0.3204223E+04  0.7818609E-02  0.8187703E-01
       -1   -1    0    0    0  501  0.00000000000E+00  0.00000000000E+00  0.15431958414E+04  0.15431958414E+04  0.50400001928E-02 0.  1.
        1   -1    0    0  501    0  0.00000000000E+00  0.00000000000E+00 -0.16632760642E+04  0.16632760642E+04  0.50400001928E-02 0. -1.
    10030    2    1    2    0    0  0.00000000000E+00  0.00000000000E+00 -0.12008022283E+03  0.32064719057E+04  0.32042226549E+04 0.  0.
        5    1    3    3  502    0 -0.72665511493E+03 -0.87166285417E+03 -0.11917251224E+04  0.16456167977E+04  0.46999998093E+01 0. -1.
       -5    1    3    3    0  502  0.72665511493E+03  0.87166285417E+03  0.10716448996E+04  0.15608551080E+04  0.46999998093E+01 0.  1.
</event>
<event>
 5   0  0.9353994E-08  0.3200065E+04  0.7818609E-02  0.8188800E-01
       -2   -1    0    0    0  501  0.00000000000E+00  0.00000000000E+00  0.98328735694E+03  0.98328735695E+03  0.25500000920E-02 0. -1.
        2   -1    0    0  501    0  0.00000000000E+00  0.00000000000E+00 -0.26036166722E+04  0.26036166722E+04  0.25500000920E-02 0.  1.
    10030    2    1    2    0    0  0.00000000000E+00  0.00000000000E+00 -0.16203293153E+04  0.35869040292E+04  0.32000645969E+04 0.  0.
        2    1    3    3  502    0  0.91261440065E+03 -0.49373482199E+03 -0.21753749453E+04  0.24101649884E+04  0.25500000920E-02 0.  1.
       -2    1    3    3    0  502 -0.91261440065E+03  0.49373482199E+03  0.55504562999E+03  0.11767390408E+04  0.25500000920E-02 0. -1.
</event>
<event>
 5   0  0.9329929E-08  0.3198005E+04  0.7818609E-02  0.8189344E-01
       -2   -1    0    0    0  501  0.00000000000E+00  0.00000000000E+00  0.18127230864E+04  0.18127230864E+04  0.25500000920E-02 0.  1.
        2   -1    0    0  501    0  0.00000000000E+00  0.00000000000E+00 -0.14104795653E+04  0.14104795653E+04  0.25500000920E-02 0. -1.
    10030    2    1    2    0    0  0.00000000000E+00  0.00000000000E+00  0.40224352114E+03  0.32232026517E+04  0.31980049224E+04 0.  0.
        1    1    3    3  502    0  0.87547653220E+03  0.10715706486E+04 -0.60649459144E+03  0.15108138544E+04  0.50400001928E-02 0. -1.
       -1    1    3    3    0  502 -0.87547653220E+03 -0.10715706486E+04  0.10087381126E+04  0.17123887973E+04  0.50400001928E-02 0.  1.
</event>
<event>
 5   0  0.9157524E-08  0.3201096E+04  0.7818609E-02  0.8188528E-01
        2   -1    0    0  501    0  0.00000000000E+00  0.00000000000E+00  0.18060163250E+04  0.18060163250E+04  0.25500000920E-02 0.  1.
       -2   -1    0    0    0  501  0.00000000000E+00  0.00000000000E+00 -0.14184556079E+04  0.14184556079E+04  0.25500000920E-02 0. -1.
    10030    2    1    2    0    0  0.00000000000E+00  0.00000000000E+00  0.38756071719E+03  0.32244719329E+04  0.32010960524E+04 0.  0.
        5    1    3    3  502    0  0.60127349478E+03  0.26669488987E+03  0.16635709692E+04  0.17888953125E+04  0.46999998093E+01 0.  1.
       -5    1    3    3    0  502 -0.60127349478E+03 -0.26669488987E+03 -0.12760102520E+04  0.14355766204E+04  0.46999998093E+01 0. -1.
</event>
<event>
 5   0  0.3427667E-08  0.3201685E+04  0.7818609E-02  0.8188372E-01
        1   -1    0    0  501    0  0.00000000000E+00  0.00000000000E+00  0.15740726250E+04  0.15740726250E+04  0.50400001928E-02 0. -1.
       -1   -1    0    0    0  501  0.00000000000E+00  0.00000000000E+00 -0.16280677520E+04  0.16280677520E+04  0.50400001928E-02 0.  1.
    10030    2    1    2    0    0  0.00000000000E+00  0.00000000000E+00 -0.53995126988E+02  0.32021403770E+04  0.32016851064E+04 0.  0.
        2    1    3    3  502    0 -0.14151658336E+04  0.37616570134E+03 -0.67400678807E+03  0.16119801866E+04  0.25500000920E-02 0.  1.
       -2    1    3    3    0  502  0.14151658336E+04 -0.37616570134E+03  0.62001166108E+03  0.15901601905E+04  0.25500000920E-02 0. -1.
</event>
<event>
 5   0  0.9727083E-08  0.3200687E+04  0.7818609E-02  0.8188636E-01
       -2   -1    0    0    0  501  0.00000000000E+00  0.00000000000E+00  0.10901709962E+04  0.10901709962E+04  0.25500000920E-02 0.  1.
        2   -1    0    0  501    0  0.00000000000E+00  0.00000000000E+00 -0.23492634873E+04  0.23492634873E+04  0.25500000920E-02 0. -1.
    10030    2    1    2    0    0  0.00000000000E+00  0.00000000000E+00 -0.12590924911E+04  0.34394344835E+04  0.32006867490E+04 0.  0.
        4    1    3    3  502    0  0.12086675607E+04 -0.56538717713E+03  0.31984731984E+03  0.13721675748E+04  0.12699999809E+01 0. -1.
       -4    1    3    3    0  502 -0.12086675607E+04  0.56538717713E+03 -0.15789398109E+04  0.20672669087E+04  0.12699999809E+01 0.  1.
</event>
<event>
 5   0  0.9329929E-08  0.3202980E+04  0.7818609E-02  0.8188031E-01
        2   -1    0    0  501    0  0.00000000000E+00  0.00000000000E+00  0.24557993036E+04  0.24557993036E+04  0.25500000920E-02 0. -1.
       -2   -1    0    0    0  501  0.00000000000E+00  0.00000000000E+00 -0.10443731356E+04  0.10443731356E+04  0.25500000920E-02 0.  1.
    10030    2    1    2    0    0  0.00000000000E+00  0.00000000000E+00  0.14114261680E+04  0.35001724392E+04  0.32029803740E+04 0.  0.
        1    1    3    3  502    0 -0.15917566333E+04  0.75668510040E+02  0.53170284035E+03  0.16799175020E+04  0.50400001928E-02 0. -1.
       -1    1    3    3    0  502  0.15917566333E+04 -0.75668510040E+02  0.87972332767E+03  0.18202549372E+04  0.50400001928E-02 0.  1.
</event>
<event>
 5   0  0.3343140E-08  0.3197819E+04  0.7818609E-02  0.8189393E-01
       -1   -1    0    0    0  501  0.00000000000E+00  0.00000000000E+00  0.16826550540E+04  0.16826550540E+04  0.50400001928E-02 0. -1.
        1   -1    0    0  501    0  0.00000000000E+00  0.00000000000E+00 -0.15193320226E+04  0.15193320226E+04  0.50400001928E-02 0.  1.
    10030    2    1    2    0    0  0.00000000000E+00  0.00000000000E+00  0.16332303145E+03  0.32019870766E+04  0.31978190734E+04 0.  0.
        1    1    3    3  502    0  0.14484475651E+04  0.11289831939E+03 -0.58686529450E+03  0.15668941423E+04  0.50400001928E-02 0.  1.
       -1    1    3    3    0  502 -0.14484475651E+04 -0.11289831939E+03  0.75018832596E+03  0.16350929343E+04  0.50400001928E-02 0. -1.
</event>
<event>
 5   0  0.3283581E-08  0.3199896E+04  0.7818609E-02  0.8188845E-01
       -1   -1    0    0    0  501  0.00000000000E+00  0.00000000000E+00  0.16788655779E+04  0.16788655779E+04  0.50400001928E-02 0.  1.
        1   -1    0    0  501    0  0.00000000000E+00  0.00000000000E+00 -0.15247405143E+04  0.15247405143E+04  0.50400001928E-02 0. -1.
    10030    2    1    2    0    0  0.00000000000E+00  0.00000000000E+00  0.15412506357E+03  0.32036060922E+04  0.31998964762E+04 0.  0.
        5    1    3    3  502    0  0.36923096978E+03  0.16133599390E+03  0.16272281293E+04  0.16763813071E+04  0.46999998093E+01 0.  1.
       -5    1    3    3    0  502 -0.36923096978E+03 -0.16133599390E+03 -0.14731030657E+04  0.15272247851E+04  0.46999998093E+01 0. -1.
</event>
<event>
 5   0  0.9157524E-08  0.3200127E+04  0.7818609E-02  0.8188784E-01
        2   -1    0    0  501    0  0.00000000000E+00  0.00000000000E+00  0.21476175373E+04  0.21476175373E+04  0.25500000920E-02 0. -1.
       -2   -1    0    0    0  501  0.00000000000E+00  0.00000000000E+00 -0.11921135298E+04  0.11921135298E+04  0.25500000920E-02 0.  1.
    10030    2    1    2    0    0  0.00000000000E+00  0.00000000000E+00  0.95550400756E+03  0.33397310671E+04  0.32001274494E+04 0.  0.
        5    1    3    3  502    0  0.12748190088E+04 -0.19687833310E+03 -0.51025622644E+03  0.13871943231E+04  0.46999998093E+01 0.  1.
       -5    1    3    3    0  502 -0.12748190088E+04  0.19687833310E+03  0.14657602340E+04  0.19525367440E+04  0.46999998093E+01 0. -1.
</event>
<event>
 5   0  0.9157524E-08  0.3199411E+04  0.7818609E-02  0.8188973E-01
        2   -1    0    0  501    0  0.00000000000E+00  0.00000000000E+00  0.17589463126E+04  0.17589463126E+04  0.25500000920E-02 0. -1.
       -2   -1    0    0    0  501  0.00000000000E+00  0.00000000000E+00 -0.14548809902E+04  0.14548809902E+04  0.25500000920E-02 0.  1.
    10030    2    1    2    0    0  0.00000000000E+00  0.00000000000E+00  0.30406532246E+03  0.32138273028E+04  0.31994109164E+04 0.  0.
        5    1    3    3  502    0  0.63559051303E+03 -0.57477065868E+03 -0.12048681845E+04  0.14785351001E+04  0.46999998093E+01 0.  1.
       -5    1    3    3    0  502 -0.63559051303E+03  0.57477065868E+03  0.15089335070E+04  0.17352922027E+04  0.46999998093E+01 0. -1.
</event>
<event>
 5   0  0.9157524E-08  0.3198401E+04  0.7818609E-02  0.8189240E-01
        2   -1    0    0  501    0  0.00000000000E+00  0.00000000000E+00  0.17724439496E+04  0.17724439496E+04  0.25500000920E-02 0.  1.
       -2   -1    0    0    0  501  0.00000000000E+00  0.00000000000E+00 -0.14428903794E+04  0.14428903794E+04  0.25500000920E-02 0. -1.
    10030    2    1    2    0    0  0.00000000000E+00  0.00000000000E+00  0.32955357020E+03  0.32153343290E+04  0.31984010523E+04 0.  0.
        5    1    3    3  502    0  0.92456194375E+03 -0.11118323376E+04 -0.52179895955E+03  0.15372970366E+04  0.46999998093E+01 0. -1.
       -5    1    3    3    0  502 -0.92456194375E+03  0.11118323376E+04  0.85135252975E+03  0.16780372924E+04  0.46999998093E+01 0.  1.
</event>
<event>
 5   0  0.9727083E-08  0.3200454E+04  0.7818609E-02  0.8188697E-01
        2   -1    0    0  501    0  0.00000000000E+00  0.00000000000E+00  0.15580242037E+04  0.15580242037E+04  0.25500000920E-02 0.  1.
       -2   -1    0    0    0  501  0.00000000000E+00  0.00000000000E+00 -0.16435729901E+04  0.16435729901E+04  0.25500000920E-02 0. -1.
    10030    2    1    2    0    0  0.00000000000E+00  0.00000000000E+00 -0.85548786350E+02  0.32015971938E+04  0.32004540298E+04 0.  0.
        4    1    3    3  502    0 -0.15213058932E+04 -0.43375522300E+03  0.19857859133E+03  0.15943494862E+04  0.12699999809E+01 0.  1.
       -4    1    3    3    0  502  0.15213058932E+04  0.43375522300E+03 -0.28412737768E+03  0.16072477077E+04  0.12699999809E+01 0. -1.
</event>
<event>
 5   0  0.9727083E-08  0.3198732E+04  0.7818609E-02  0.8189152E-01
        2   -1    0    0  501    0  0.00000000000E+00  0.00000000000E+00  0.20265302693E+04  0.20265302693E+04  0.25500000920E-02 0. -1.
       -2   -1    0    0    0  501  0.00000000000E+00  0.00000000000E+00 -0.12622418472E+04  0.12622418472E+04  0.25500000920E-02 0.  1.
    10030    2    1    2    0    0  0.00000000000E+00  0.00000000000E+00  0.76428842210E+03  0.32887721166E+04  0.31987318179E+04 0.  0.
        4    1    3    3  502    0  0.69792874342E+03  0.14282543164E+04  0.20125203843E+03  0.16023479394E+04  0.12699999809E+01 0. -1.
       -4    1    3    3    0  502 -0.69792874342E+03 -0.14282543164E+04  0.56303638367E+03  0.16864241772E+04  0.12699999809E+01 0.  1.
</event>
<event>
 5   0  0.3283581E-08  0.3206078E+04  0.7818609E-02  0.8187214E-01
       -1   -1    0    0    0  501  0.00000000000E+00  0.00000000000E+00  0.21109856705E+04  0.21109856705E+04  0.50400001928E-02 0.  1.
        1   -1    0    0  501    0  0.00000000000E+00  0.00000000000E+00 -0.12173151420E+04  0.12173151420E+04  0.50400001928E-02 0. -1.
    10030    2    1    2    0    0  0.00000000000E+00  0.00000000000E+00  0.89367052856E+03  0.33283008125E+04  0.32060784901E+04 0.  0.
        5    1    3    3  502    0 -0.85273298028E+03 -0.13208059998E+04  0.12180074479E+03  0.15768765127E+04  0.46999998093E+01 0. -1.
       -5    1    3    3    0  502  0.85273298028E+03  0.13208059998E+04  0.77186978378E+03  0.17514242998E+04  0.46999998093E+01 0.  1.
</event>
<event>
 5   0  0.9707721E-08  0.3197679E+04  0.7818609E-02  0.8189430E-01
        2   -1    0    0  501    0  0.00000000000E+00  0.00000000000E+00  0.11033252335E+04  0.11033252335E+04  0.25500000920E-02 0.  1.
       -2   -1    0    0    0  501  0.00000000000E+00  0.00000000000E+00 -0.23168938141E+04  0.23168938141E+04  0.25500000920E-02 0. -1.
    10030    2    1    2    0    0  0.00000000000E+00  0.00000000000E+00 -0.12135685806E+04  0.34202190475E+04  0.31976787883E+04 0.  0.
        3    1    3    3  502    0 -0.84944045646E+03 -0.95406278860E+03  0.42164190756E+03  0.13452013983E+04  0.10100000352E+00 0.  1.
       -3    1    3    3    0  502  0.84944045646E+03  0.95406278860E+03 -0.16352104882E+04  0.20750176492E+04  0.10100000352E+00 0. -1.
</event>
<event>
 5   0  0.9353994E-08  0.3201773E+04  0.7818609E-02  0.8188349E-01
       -2   -1    0    0    0  501  0.00000000000E+00  0.00000000000E+00  0.24909636934E+04  0.24909636934E+04  0.25500000920E-02 0.  1.
        2   -1    0    0  501    0  0.00000000000E+00  0.00000000000E+00 -0.10288537539E+04  0.10288537539E+04  0.25500000920E-02 0. -1.
    10030    2    1    2    0    0  0.00000000000E+00  0.00000000000E+00  0.14621099395E+04  0.35198174472E+04  0.32017728506E+04 0.  0.
        2    1    3    3  502    0  0.72523056464E+03  0.13654999193E+04  0.11873619029E+04  0.19494557420E+04  0.25500000920E-02 0.  1.
       -2    1    3    3    0  502 -0.72523056464E+03 -0.13654999193E+04  0.27474803657E+03  0.15703617052E+04  0.25500000920E-02 0. -1.
</event>
<event>
 5   0  0.3270966E-08  0.3200186E+04  0.7818609E-02  0.8188768E-01
        1   -1    0    0  501    0  0.00000000000E+00  0.00000000000E+00  0.13490412166E+04  0.13490412166E+04  0.50400001928E-02 0.  1.
       -1   -1    0    0    0  501  0.00000000000E+00  0.00000000000E+00 -0.18978648009E+04  0.18978648009E+04  0.50400001928E-02 0. -1.
    10030    2    1    2    0    0  0.00000000000E+00  0.00000000000E+00 -0.54882358434E+03  0.32469060175E+04  0.32001861445E+04 0.  0.
        3    1    3    3  502    0  0.12153589444E+04  0.18243113935E+03  0.76520299091E+03  0.14477272229E+04  0.10100000352E+00 0.  1.
       -3    1    3    3    0  502 -0.12153589444E+04 -0.18243113935E+03 -0.13140265752E+04  0.17991787946E+04  0.10100000352E+00 0. -1.
</event>
<event>
 5   0  0.9157524E-08  0.3201168E+04  0.7818609E-02  0.8188509E-01
       -2   -1    0    0    0  501  0.00000000000E+00  0.00000000000E+00  0.14251511661E+04  0.14251511661E+04  0.25500000920E-02 0. -1.
        2   -1    0    0  501    0  0.00000000000E+00  0.00000000000E+00 -0.17976125527E+04  0.17976125527E+04  0.25500000920E-02 0.  1.
    10030    2    1    2    0    0  0.00000000000E+00  0.00000000000E+00 -0.37246138657E+03  0.32227637187E+04  0.32011683027E+04 0.  0.
        5    1    3    3  502    0 -0.66068098068E+03 -0.72370349804E+03  0.10878507226E+04  0.14641336674E+04  0.46999998093E+01 0. -1.
       -5    1    3    3    0  502  0.66068098068E+03  0.72370349804E+03 -0.14603121092E+04  0.17586300513E+04  0.46999998093E+01 0.  1.
</event>
<event>
 5   0  0.9353994E-08  0.3201018E+04  0.7818609E-02  0.8188548E-01
       -2   -1    0    0    0  501  0.00000000000E+00  0.00000000000E+00  0.19907590172E+04  0.19907590172E+04  0.25500000920E-02 0.  1.
        2   -1    0    0  501    0  0.00000000000E+00  0.00000000000E+00 -0.12867603599E+04  0.12867603599E+04  0.25500000920E-02 0. -1.
    10030    2    1    2    0    0  0.00000000000E+00  0.00000000000E+00  0.70399865723E+03  0.32775193771E+04  0.32010184563E+04 0.  0.
        2    1    3    3  502    0  0.14195457824E+03 -0.15689309051E+04  0.62515553576E+02  0.15765796782E+04  0.25500000920E-02 0. -1.
       -2    1    3    3    0  502 -0.14195457824E+03  0.15689309051E+04  0.64148310366E+03  0.17009396989E+04  0.25500000920E-02 0.  1.
</event>
<event>
 5   0  0.3343140E-08  0.3199953E+04  0.7818609E-02  0.8188829E-01
        1   -1    0    0  501    0  0.00000000000E+00  0.00000000000E+00  0.91976835606E+03  0.91976835608E+03  0.50400001928E-02 0.  1.
       -1   -1    0    0    0  501  0.00000000000E+00  0.00000000000E+00 -0.27832284838E+04  0.27832284838E+04  0.50400001928E-02 0. -1.
    10030    2    1    2    0    0  0.00000000000E+00  0.00000000000E+00 -0.18634601277E+04  0.37029968399E+04  0.31999534291E+04 0.  0.
        1    1    3    3  502    0 -0.92773897977E+03  0.10066285015E+04 -0.18901326528E+04  0.23337956208E+04  0.50400001928E-02 0. -1.
       -1    1    3    3    0  502  0.92773897977E+03 -0.10066285015E+04  0.26672525065E+02  0.13692012190E+04  0.50400001928E-02 0.  1.
</event>
<event>
 5   0  0.9157524E-08  0.3201269E+04  0.7818609E-02  0.8188482E-01
       -2   -1    0    0    0  501  0.00000000000E+00  0.00000000000E+00  0.92255949814E+03  0.92255949815E+03  0.25500000920E-02 0.  1.
        2   -1    0    0  501    0  0.00000000000E+00  0.00000000000E+00 -0.27770903820E+04  0.27770903820E+04  0.25500000920E-02 0. -1.
    10030    2    1    2    0    0  0.00000000000E+00  0.00000000000E+00 -0.18545308839E+04  0.36996498802E+04  0.32012691915E+04 0.  0.
        5    1    3    3  502    0 -0.14679727149E+04 -0.37359276606E+03 -0.32954913181E+03  0.15502064916E+04  0.46999998093E+01 0.  1.
       -5    1    3    3    0  502  0.14679727149E+04  0.37359276606E+03 -0.15249817521E+04  0.21494433885E+04  0.46999998093E+01 0. -1.
</event>
<event>
 5   0  0.9157524E-08  0.3199627E+04  0.7818609E-02  0.8188916E-01
        2   -1    0    0  501    0  0.00000000000E+00  0.00000000000E+00  0.25058304247E+04  0.25058304247E+04  0.25500000920E-02 0. -1.
       -2   -1    0    0    0  501  0.00000000000E+00  0.00000000000E+00 -0.10213795498E+04  0.10213795498E+04  0.25500000920E-02 0.  1.
    10030    2    1    2    0    0  0.00000000000E+00  0.00000000000E+00  0.14844508749E+04  0.35272099745E+04  0.31996274477E+04 0.  0.
        5    1    3    3  502    0  0.11503379572E+04 -0.89546891579E+03  0.14686604136E+04  0.20693302046E+04  0.46999998093E+01 0. -1.
       -5    1    3    3    0  502 -0.11503379572E+04  0.89546891579E+03  0.15790461253E+02  0.14578797699E+04  0.46999998093E+01 0.  1.
</event>
<event>
 5   0  0.9707721E-08  0.3200501E+04  0.7818609E-02  0.8188685E-01
        2   -1    0    0  501    0  0.00000000000E+00  0.00000000000E+00  0.90443414196E+03  0.90443414196E+03  0.25500000920E-02 0.  1.
       -2   -1    0    0    0  501  0.00000000000E+00  0.00000000000E+00 -0.28313854083E+04  0.28313854083E+04  0.25500000920E-02 0. -1.
    10030    2    1    2    0    0  0.00000000000E+00  0.00000000000E+00 -0.19269512663E+04  0.37358195502E+04  0.32005009810E+04 0.  0.
        3    1    3    3  502    0  0.10121786618E+04  0.26623574161E+03 -0.23764951791E+04  0.25967511356E+04  0.10100000352E+00 0. -1.
       -3    1    3    3    0  502 -0.10121786618E+04 -0.26623574161E+03  0.44954391278E+03  0.11390684147E+04  0.10100000352E+00 0.  1.
</event>
<event>
 5   0  0.3427667E-08  0.3200794E+04  0.7818609E-02  0.8188608E-01
       -1   -1    0    0    0  501  0.00000000000E+00  0.00000000000E+00  0.22615851852E+04  0.22615851852E+04  0.50400001928E-02 0.  1.
        1   -1    0    0  501    0  0.00000000000E+00  0.00000000000E+00 -0.11325108534E+04  0.11325108534E+04  0.50400001928E-02 0. -1.
    10030    2    1    2    0    0  0.00000000000E+00  0.00000000000E+00  0.11290743317E+04  0.33940960386E+04  0.32007935067E+04 0.  0.
        2    1    3    3  502    0  0.15461076295E+04  0.16687823590E+03  0.96548964954E+03  0.18304282043E+04  0.25500000920E-02 0.  1.
       -2    1    3    3    0  502 -0.15461076295E+04 -0.16687823590E+03  0.16358468220E+03  0.15636678343E+04  0.25500000920E-02 0. -1.
</event>
<event>
 5   0  0.3283581E-08  0.3200166E+04  0.7818609E-02  0.8188773E-01
        1   -1    0    0  501    0  0.00000000000E+00  0.00000000000E+00  0.17812039029E+04  0.17812039029E+04  0.50400001928E-02 0.  1.
       -1   -1    0    0    0  501  0.00000000000E+00  0.00000000000E+00 -0.14373794214E+04  0.14373794214E+04  0.50400001928E-02 0. -1.
    10030    2    1    2    0    0  0.00000000000E+00  0.00000000000E+00  0.34382448154E+03  0.32185833243E+04  0.32001661427E+04 0.  0.
        5    1    3    3  502    0  0.36940542577E+03  0.12087102058E+04 -0.81496004188E+03  0.15038692397E+04  0.46999998093E+01 0. -1.
       -5    1    3    3    0  502 -0.36940542577E+03 -0.12087102058E+04  0.11587845234E+04  0.17147140846E+04  0.46999998093E+01 0.  1.
</event>
<event>
 5   0  0.9353994E-08  0.3200823E+04  0.7818609E-02  0.8188600E-01
        2   -1    0    0  501    0  0.00000000000E+00  0.00000000000E+00  0.14227931799E+04  0.14227931799E+04  0.25500000920E-02 0.  1.
       -2   -1    0    0    0  501  0.00000000000E+00  0.00000000000E+00 -0.18002038209E+04  0.18002038209E+04  0.25500000920E-02 0. -1.
    10030    2    1    2    0    0  0.00000000000E+00  0.00000000000E+00 -0.37741064101E+03  0.32229970007E+04  0.32008234682E+04 0.  0.
        2    1    3    3  502    0  0.15015631282E+04 -0.38133529491E+03 -0.59299550969E+03  0.16588405920E+04  0.25500000920E-02 0.  1.
       -2    1    3    3    0  502 -0.15015631282E+04  0.38133529491E+03  0.21558486868E+03  0.15641564087E+04  0.25500000920E-02 0. -1.
</event>
<event>
 5   0  0.9329929E-08  0.3196924E+04  0.7818609E-02  0.8189630E-01
        2   -1    0    0  501    0  0.00000000000E+00  0.00000000000E+00  0.23443448875E+04  0.23443448875E+04  0.25500000920E-02 0. -1.
       -2   -1    0    0    0  501  0.00000000000E+00  0.00000000000E+00 -0.10898914737E+04  0.10898914737E+04  0.25500000920E-02 0.  1.
    10030    2    1    2    0    0  0.00000000000E+00  0.00000000000E+00  0.12544534139E+04  0.34342363612E+04  0.31969244622E+04 0.  0.
        1    1    3    3  502    0 -0.37640719678E+03  0.11567108669E+04  0.17412305255E+04  0.21240400538E+04  0.50400001928E-02 0. -1.
       -1    1    3    3    0  502  0.37640719678E+03 -0.11567108669E+04 -0.48677711162E+03  0.13101963074E+04  0.50400001928E-02 0.  1.
</event>
<event>
 5   0  0.3220147E-08  0.3200605E+04  0.7818609E-02  0.8188657E-01
       -1   -1    0    0    0  501  0.00000000000E+00  0.00000000000E+00  0.14204500986E+04  0.14204500986E+04  0.50400001928E-02 0. -1.
        1   -1    0    0  501    0  0.00000000000E+00  0.00000000000E+00 -0.18029276114E+04  0.18029276114E+04  0.50400001928E-02 0.  1.
    10030    2    1    2    0    0  0.00000000000E+00  0.00000000000E+00 -0.38247751274E+03  0.32233777100E+04  0.32006053824E+04 0.  0.
        4    1    3    3  502    0 -0.47379333820E+03  0.12664984223E+04  0.67069443629E+03  0.15094141316E+04  0.12699999809E+01 0. -1.
       -4    1    3    3    0  502  0.47379333820E+03 -0.12664984223E+04 -0.10531719490E+04  0.17139635784E+04  0.12699999809E+01 0.  1.
</event>
<event>
 5   0  0.3270966E-08  0.3201021E+04  0.7818609E-02  0.8188547E-01
        1   -1    0    0  501    0  0.00000000000E+00  0.00000000000E+00  0.23754362997E+04  0.23754362997E+04  0.50400001928E-02 0.  1.
       -1   -1    0    0    0  501  0.00000000000E+00  0.00000000000E+00 -0.10783847956E+04  0.10783847956E+04  0.50400001928E-02 0. -1.
    10030    2    1    2    0    0  0.00000000000E+00  0.00000000000E+00  0.12970515041E+04  0.34538210953E+04  0.32010213299E+04 0.  0.
        3    1    3    3  502    0  0.28562456642E+03  0.10184297193E+04  0.19445778142E+04  0.22136312637E+04  0.10100000352E+00 0.  1.
       -3    1    3    3    0  502 -0.28562456642E+03 -0.10184297193E+04 -0.64752631004E+03  0.12401898316E+04  0.10100000352E+00 0. -1.
</event>
<event>
 5   0  0.9353994E-08  0.3210945E+04  0.7818609E-02  0.8185933E-01
        2   -1    0    0  501    0  0.00000000000E+00  0.00000000000E+00  0.13548876263E+04  0.13548876263E+04  0.25500000920E-02 0.  1.
       -2   -1    0    0    0  501  0.00000000000E+00  0.00000000000E+00 -0.19024025655E+04  0.19024025655E+04  0.25500000920E-02 0. -1.
    10030    2    1    2    0    0  0.00000000000E+00  0.00000000000E+00 -0.54751493923E+03  0.32572901917E+04  0.32109448430E+04 0.  0.
        2    1    3    3  502    0  0.59436601245E+03 -0.50188494003E+03  0.11509285038E+04  0.13891709292E+04  0.25500000920E-02 0.  1.
       -2    1    3    3    0  502 -0.59436601245E+03  0.50188494003E+03 -0.16984434430E+04  0.18681192625E+04  0.25500000920E-02 0. -1.
</event>
<event>
 5   0  0.3343140E-08  0.3198609E+04  0.7818609E-02  0.8189185E-01
        1   -1    0    0  501    0  0.00000000000E+00  0.00000000000E+00  0.18322424130E+04  0.18322424130E+04  0.50400001928E-02 0.  1.
       -1   -1    0    0    0  501  0.00000000000E+00  0.00000000000E+00 -0.13959802495E+04  0.13959802495E+04  0.50400001928E-02 0. -1.
    10030    2    1    2    0    0  0.00000000000E+00  0.00000000000E+00  0.43626216354E+03  0.32282226625E+04  0.31986085855E+04 0.  0.
        1    1    3    3  502    0  0.55315385607E+03 -0.63052006225E+03 -0.11561807822E+04  0.14283867608E+04  0.50400001928E-02 0. -1.
       -1    1    3    3    0  502 -0.55315385607E+03  0.63052006225E+03  0.15924429457E+04  0.17998359017E+04  0.50400001928E-02 0.  1.
</event>
<event>
 5   0  0.3343140E-08  0.3199666E+04  0.7818609E-02  0.8188905E-01
       -1   -1    0    0    0  501  0.00000000000E+00  0.00000000000E+00  0.23078664084E+04  0.23078664084E+04  0.50400001928E-02 0.  1.
        1   -1    0    0  501    0  0.00000000000E+00  0.00000000000E+00 -0.11090178660E+04  0.11090178660E+04  0.50400001928E-02 0. -1.
    10030    2    1    2    0    0  0.00000000000E+00  0.00000000000E+00  0.11988485424E+04  0.34168842744E+04  0.31996656571E+04 0.  0.
        1    1    3    3  502    0  0.42516309919E+03  0.13035408226E+04  0.14796922126E+04  0.20172930826E+04  0.50400001928E-02 0.  1.
       -1    1    3    3    0  502 -0.42516309919E+03 -0.13035408226E+04 -0.28084367017E+03  0.13995911918E+04  0.50400001928E-02 0. -1.
</event>
<event>
 5   0  0.3427667E-08  0.3198919E+04  0.7818609E-02  0.8189103E-01
       -1   -1    0    0    0  501  0.00000000000E+00  0.00000000000E+00  0.11869042775E+04  0.11869042776E+04  0.50400001928E-02 0. -1.
        1   -1    0    0  501    0  0.00000000000E+00  0.00000000000E+00 -0.21554150081E+04  0.21554150081E+04  0.50400001928E-02 0.  1.
    10030    2    1    2    0    0  0.00000000000E+00  0.00000000000E+00 -0.96851073059E+03  0.33423192857E+04  0.31989193757E+04 0.  0.
        2    1    3    3  502    0  0.91561243368E+03  0.65257524360E+03  0.70431157197E+03  0.13267461580E+04  0.25500000920E-02 0. -1.
       -2    1    3    3    0  502 -0.91561243368E+03 -0.65257524360E+03 -0.16728223026E+04  0.20155731277E+04  0.25500000920E-02 0.  1.
</event>
<event>
 5   0  0.9727083E-08  0.3199548E+04  0.7818609E-02  0.8188936E-01
        2   -1    0    0  501    0  0.00000000000E+00  0.00000000000E+00  0.14107001293E+04  0.14107001293E+04  0.25500000920E-02 0.  1.
       -2   -1    0    0    0  501  0.00000000000E+00  0.00000000000E+00 -0.18141895646E+04  0.18141895646E+04  0.25500000920E-02 0. -1.
    10030    2    1    2    0    0  0.00000000000E+00  0.00000000000E+00 -0.40348943523E+03  0.32248896939E+04  0.31995483765E+04 0.  0.
        4    1    3    3  502    0  0.24397933645E+03 -0.15106400118E+04 -0.67204152812E+03  0.16712871059E+04  0.12699999809E+01 0. -1.
       -4    1    3    3    0  502 -0.24397933645E+03  0.15106400118E+04  0.26855209289E+03  0.15536025880E+04  0.12699999809E+01 0.  1.
</event>
<event>
 5   0  0.9157524E-08  0.3202269E+04  0.7818609E-02  0.8188218E-01
        2   -1    0    0  501    0  0.00000000000E+00  0.00000000000E+00  0.17925483149E+04  0.17925483149E+04  0.25500000920E-02 0. -1.
       -2   -1    0    0    0  501  0.00000000000E+00  0.00000000000E+00 -0.14301602737E+04  0.14301602737E+04  0.25500000920E-02 0.  1.
    10030    2    1    2    0    0  0.00000000000E+00  0.00000000000E+00  0.36238804123E+03  0.32227085886E+04  0.32022688136E+04 0.  0.
        5    1    3    3  502    0 -0.83655408883E+03 -0.53077589955E+03  0.14470235015E+04  0.17536946436E+04  0.46999998093E+01 0. -1.
       -5    1    3    3    0  502  0.83655408883E+03  0.53077589955E+03 -0.10846354603E+04  0.14690139450E+04  0.46999998093E+01 0.  1.
</event>
<event>
 5   0  0.9727083E-08  0.3198642E+04  0.7818609E-02  0.8189176E-01
       -2   -1    0    0    0  501  0.00000000000E+00  0.00000000000E+00  0.13633072907E+04  0.13633072907E+04  0.25500000920E-02 0. -1.
        2   -1    0    0  501    0  0.00000000000E+00  0.00000000000E+00 -0.18761928243E+04  0.18761928243E+04  0.25500000920E-02 0.  1.
    10030    2    1    2    0    0  0.00000000000E+00  0.00000000000E+00 -0.51288553367E+03  0.32395001150E+04  0.31986418093E+04 0.  0.
        4    1    3    3  502    0  0.38863022802E+03  0.15160034712E+04 -0.59008330774E+03  0.16725728390E+04  0.12699999809E+01 0. -1.
       -4    1    3    3    0  502 -0.38863022802E+03 -0.15160034712E+04  0.77197774073E+02  0.15669272760E+04  0.12699999809E+01 0.  1.
</event>
<event>
 5   0  0.9329929E-08  0.3204060E+04  0.7818609E-02  0.8187746E-01
       -2   -1    0    0    0  501  0.00000000000E+00  0.00000000000E+00  0.10523740064E+04  0.10523740064E+04  0.25500000920E-02 0. -1.
        2   -1    0    0  501    0  0.00000000000E+00  0.00000000000E+00 -0.24387724362E+04  0.24387724362E+04  0.25500000920E-02 0.  1.
    10030    2    1    2    0    0  0.00000000000E+00  0.00000000000E+00 -0.13863984299E+04  0.34911464426E+04  0.32040603735E+04 0.  0.
        1    1    3    3  502    0  0.28329166094E+03 -0.48533360670E+03 -0.23278537103E+04  0.23947245712E+04  0.50400001928E-02 0.  1.
       -1    1    3    3    0  502 -0.28329166094E+03  0.48533360670E+03  0.94145528048E+03  0.10964218714E+04  0.50400001928E-02 0. -1.
</event>
<event>
 5   0  0.9157524E-08  0.3200173E+04  0.7818609E-02  0.8188772E-01
        2   -1    0    0  501    0  0.00000000000E+00  0.00000000000E+00  0.17197478194E+04  0.17197478194E+04  0.25500000920E-02 0.  1.
       -2   -1    0    0    0  501  0.00000000000E+00  0.00000000000E+00 -0.14887511089E+04  0.14887511089E+04  0.25500000920E-02 0. -1.
    10030    2    1    2    0    0  0.00000000000E+00  0.00000000000E+00  0.23099671051E+03  0.32084989283E+04  0.32001727911E+04 0.  0.
        5    1    3    3  502    0  0.12896419085E+04 -0.40575062488E+03  0.97355478406E+03  0.16660254588E+04  0.46999998093E+01 0.  1.
       -5    1    3    3    0  502 -0.12896419085E+04  0.40575062488E+03 -0.74255807355E+03  0.15424734696E+04  0.46999998093E+01 0. -1.
</event>
<event>
 5   0  0.9707721E-08  0.3199874E+04  0.7818609E-02  0.8188850E-01
        2   -1    0    0  501    0  0.00000000000E+00  0.00000000000E+00  0.20166114934E+04  0.20166114934E+04  0.25500000920E-02 0. -1.
       -2   -1    0    0    0  501  0.00000000000E+00  0.00000000000E+00 -0.12693562221E+04  0.12693562221E+04  0.25500000920E-02 0.  1.
    10030    2    1    2    0    0  0.00000000000E+00  0.00000000000E+00  0.74725527137E+03  0.32859677155E+04  0.31998739642E+04 0.  0.
        3    1    3    3  502    0 -0.67025796635E+03  0.62044153939E+03 -0.97533866663E+03  0.13362181596E+04  0.10100000352E+00 0.  1.
       -3    1    3    3    0  502  0.67025796635E+03 -0.62044153939E+03  0.17225939380E+04  0.19497495559E+04  0.10100000352E+00 0. -1.
</event>
<event>
 5   0  0.9727083E-08  0.3200302E+04  0.7818609E-02  0.8188737E-01
       -2   -1    0    0    0  501  0.00000000000E+00  0.00000000000E+00  0.16964088658E+04  0.16964088658E+04  0.25500000920E-02 0. -1.
        2   -1    0    0  501    0  0.00000000000E+00  0.00000000000E+00 -0.15093551012E+04  0.15093551012E+04  0.25500000920E-02 0.  1.
    10030    2    1    2    0    0  0.00000000000E+00  0.00000000000E+00  0.18705376459E+03  0.32057639670E+04  0.32003020953E+04 0.  0.
        4    1    3    3  502    0  0.13840612242E+04 -0.78655999187E+03  0.25560435082E+03  0.16123390742E+04  0.12699999809E+01 0.  1.
       -4    1    3    3    0  502 -0.13840612242E+04  0.78655999187E+03 -0.68550586234E+02  0.15934248928E+04  0.12699999809E+01 0. -1.
</event>
<event>
 5   0  0.3270966E-08  0.3201617E+04  0.7818609E-02  0.8188390E-01
        1   -1    0    0  501    0  0.00000000000E+00  0.00000000000E+00  0.22555888658E+04  0.22555888658E+04  0.50400001928E-02 0. -1.
       -1   -1    0    0    0  501  0.00000000000E+00  0.00000000000E+00 -0.11361057712E+04  0.11361057712E+04  0.50400001928E-02 0.  1.
    10030    2    1    2    0    0  0.00000000000E+00  0.00000000000E+00  0.11194830946E+04  0.33916946370E+04  0.32016167965E+04 0.  0.
        3    1    3    3  502    0  0.53100057105E+03 -0.12607241499E+04  0.14404850052E+04  0.19865507919E+04  0.10100000352E+00 0. -1.
       -3    1    3    3    0  502 -0.53100057105E+03  0.12607241499E+04 -0.32100191056E+03  0.14051438451E+04  0.10100000352E+00 0.  1.
</event>
<event>
 5   0  0.3427667E-08  0.3199399E+04  0.7818609E-02  0.8188976E-01
       -1   -1    0    0    0  501  0.00000000000E+00  0.00000000000E+00  0.19012089103E+04  0.19012089103E+04  0.50400001928E-02 0. -1.
        1   -1    0    0  501    0  0.00000000000E+00  0.00000000000E+00 -0.13460057042E+04  0.13460057042E+04  0.50400001928E-02 0.  1.
    10030    2    1    2    0    0  0.00000000000E+00  0.00000000000E+00  0.55520320609E+03  0.32472146145E+04  0.31993987173E+04 0.  0.
        2    1    3    3  502    0 -0.89530426985E+02 -0.11781107704E+04  0.13721801357E+04  0.18107564744E+04  0.25500000920E-02 0. -1.
       -2    1    3    3    0  502  0.89530426985E+02  0.11781107704E+04 -0.81697692963E+03  0.14364581401E+04  0.25500000920E-02 0.  1.
</event>
<event>
 5   0  0.3283581E-08  0.3200117E+04  0.7818609E-02  0.8188786E-01
        1   -1    0    0  501    0  0.00000000000E+00  0.00000000000E+00  0.21577521454E+04  0.21577521454E+04  0.50400001928E-02 0. -1.
       -1   -1    0    0    0  501  0.00000000000E+00  0.00000000000E+00 -0.11865069297E+04  0.11865069297E+04  0.50400001928E-02 0.  1.
    10030    2    1    2    0    0  0.00000000000E+00  0.00000000000E+00  0.97124521576E+03  0.33442590751E+04  0.32001174185E+04 0.  0.
        5    1    3    3  502    0  0.11168688424E+04  0.41212749381E+03  0.16028512214E+04  0.19965969073E+04  0.46999998093E+01 0. -1.
       -5    1    3    3    0  502 -0.11168688424E+04 -0.41212749381E+03 -0.63160600561E+03  0.13476621678E+04  0.46999998093E+01 0.  1.
</event>
<event>
 5   0  0.9727083E-08  0.3202638E+04  0.7818609E-02  0.8188121E-01
        2   -1    0    0  501    0  0.00000000000E+00  0.00000000000E+00  0.12764282009E+04  0.12764282010E+04  0.25500000920E-02 0.  1.
       -2   -1    0    0    0  501  0.00000000000E+00  0.00000000000E+00 -0.20089046098E+04  0.20089046098E+04  0.25500000920E-02 0. -1.
    10030    2    1    2    0    0  0.00000000000E+00  0.00000000000E+00 -0.73247640890E+03  0.32853328108E+04  0.32026379733E+04 0.  0.
        4    1    3    3  502    0  0.53208025294E+03  0.66118978281E+03  0.10267417384E+04  0.13320966687E+04  0.12699999809E+01 0.  1.
       -4    1    3    3    0  502 -0.53208025294E+03 -0.66118978281E+03 -0.17592181473E+04  0.19532361421E+04  0.12699999809E+01 0. -1.
</event>
<event>
 5   0  0.3343140E-08  0.3200133E+04  0.7818609E-02  0.8188782E-01
       -1   -1    0    0    0  501  0.00000000000E+00  0.00000000000E+00  0.16961488233E+04  0.16961488233E+04  0.50400001928E-02 0. -1.
        1   -1    0    0  501    0  0.00000000000E+00  0.00000000000E+00 -0.15094271515E+04  0.15094271515E+04  0.50400001928E-02 0.  1.
    10030    2    1    2    0    0  0.00000000000E+00  0.00000000000E+00  0.18672167178E+03  0.32055759748E+04  0.32001331765E+04 0.  0.
        1    1    3    3  502    0  0.14277181024E+04  0.49095942811E+03 -0.43743941524E+03  0.15718693908E+04  0.50400001928E-02 0.  1.
       -1    1    3    3    0  502 -0.14277181024E+04 -0.49095942811E+03  0.62416108702E+03  0.16337065839E+04  0.50400001928E-02 0. -1.
</event>
<event>
 5   0  0.3283581E-08  0.3199190E+04  0.7818609E-02  0.8189031E-01
       -1   -1    0    0    0  501  0.00000000000E+00  0.00000000000E+00  0.19169814611E+04  0.19169814611E+04  0.50400001928E-02 0.  1.
        1   -1    0    0  501    0  0.00000000000E+00  0.00000000000E+00 -0.13347570497E+04  0.13347570497E+04  0.50400001928E-02 0. -1.
    10030    2    1    2    0    0  0.00000000000E+00  0.00000000000E+00  0.58222441140E+03  0.32517385109E+04  0.31991902222E+04 0.  0.
        5    1    3    3  502    0  0.14315763482E+04 -0.16771627090E+03 -0.41392585876E+03  0.14996320532E+04  0.46999998093E+01 0. -1.
       -5    1    3    3    0  502 -0.14315763482E+04  0.16771627090E+03  0.99615027016E+03  0.17521064577E+04  0.46999998093E+01 0.  1.
</event>
<event>
 5   0  0.3343140E-08  0.3195509E+04  0.7818609E-02  0.8190004E-01
        1   -1    0    0  501    0  0.00000000000E+00  0.00000000000E+00  0.16047584907E+04  0.16047584907E+04  0.50400001928E-02 0. -1.
       -1   -1    0    0    0  501  0.00000000000E+00  0.00000000000E+00 -0.15907806515E+04  0.15907806515E+04  0.50400001928E-02 0.  1.
    10030    2    1    2    0    0  0.00000000000E+00  0.00000000000E+00  0.13977839187E+02  0.31955391422E+04  0.31955085713E+04 0.  0.
        1    1    3    3  502    0  0.10672254023E+04  0.66819904444E+03  0.99054229604E+03  0.16020718032E+04  0.50400001928E-02 0. -1.
       -1    1    3    3    0  502 -0.10672254023E+04 -0.66819904444E+03 -0.97656445685E+03  0.15934673391E+04  0.50400001928E-02 0.  1.
</event>
<event>
 5   0  0.3427667E-08  0.3198840E+04  0.7818609E-02  0.8189124E-01
       -1   -1    0    0    0  501  0.00000000000E+00  0.00000000000E+00  0.15111265190E+04  0.15111265190E+04  0.50400001928E-02 0.  1.
        1   -1    0    0  501    0  0.00000000000E+00  0.00000000000E+00 -0.16928725569E+04  0.16928725569E+04  0.50400001928E-02 0. -1.
    10030    2    1    2    0    0  0.00000000000E+00  0.00000000000E+00 -0.18174603789E+03  0.32039990759E+04  0.31988401735E+04 0.  0.
        2    1    3    3  502    0  0.52438337162E+03 -0.35323984425E+03 -0.15623878047E+04  0.16854708423E+04  0.25500000920E-02 0. -1.
       -2    1    3    3    0  502 -0.52438337162E+03  0.35323984425E+03  0.13806417668E+04  0.15185282336E+04  0.25500000920E-02 0.  1.
</event>
<event>
 5   0  0.9157524E-08  0.3196293E+04  0.7818609E-02  0.8189797E-01
       -2   -1    0    0    0  501  0.00000000000E+00  0.00000000000E+00  0.13111591259E+04  0.13111591259E+04  0.25500000920E-02 0. -1.
        2   -1    0    0  501    0  0.00000000000E+00  0.00000000000E+00 -0.19479493349E+04  0.19479493349E+04  0.25500000920E-02 0.  1.
    10030    2    1    2    0    0  0.00000000000E+00  0.00000000000E+00 -0.63679020903E+03  0.32591084608E+04  0.31962925693E+04 0.  0.
        5    1    3    3  502    0 -0.81647201577E+03  0.13701941560E+04 -0.42031386942E+03  0.16494679192E+04  0.46999998093E+01 0.  1.
       -5    1    3    3    0  502  0.81647201577E+03 -0.13701941560E+04 -0.21647633961E+03  0.16096405416E+04  0.46999998093E+01 0. -1.
</event>
<event>
 5   0  0.9727083E-08  0.3197935E+04  0.7818609E-02  0.8189363E-01
        2   -1    0    0  501    0  0.00000000000E+00  0.00000000000E+00  0.18527410317E+04  0.18527410317E+04  0.25500000920E-02 0. -1.
       -2   -1    0    0    0  501  0.00000000000E+00  0.00000000000E+00 -0.13799533929E+04  0.13799533929E+04  0.25500000920E-02 0.  1.
    10030    2    1    2    0    0  0.00000000000E+00  0.00000000000E+00  0.47278763884E+03  0.32326944245E+04  0.31979345039E+04 0.  0.
        4    1    3    3  502    0  0.12681996977E+04  0.93334163365E+03 -0.44543492696E+02  0.15752596021E+04  0.12699999809E+01 0. -1.
       -4    1    3    3    0  502 -0.12681996977E+04 -0.93334163365E+03  0.51733113153E+03  0.16574348225E+04  0.12699999809E+01 0.  1.
</event>
<event>
 5   0  0.3270966E-08  0.3198842E+04  0.7818609E-02  0.8189123E-01
        1   -1    0    0  501    0  0.00000000000E+00  0.00000000000E+00  0.17869456553E+04  0.17869456553E+04  0.50400001928E-02 0. -1.
       -1   -1    0    0    0  501  0.00000000000E+00  0.00000000000E+00 -0.14315751122E+04  0.14315751122E+04  0.50400001928E-02 0.  1.
    10030    2    1    2    0    0  0.00000000000E+00  0.00000000000E+00  0.35537054311E+03  0.32185207675E+04  0.31988416197E+04 0.  0.
        3    1    3    3  502    0  0.80671751258E+03 -0.10860510805E+04  0.10360731436E+04  0.17040386333E+04  0.10100000352E+00 0. -1.
       -3    1    3    3    0  502 -0.80671751258E+03  0.10860510805E+04 -0.68070260051E+03  0.15144821343E+04  0.10100000352E+00 0.  1.
</event>
<event>
 5   0  0.3427667E-08  0.3200126E+04  0.7818609E-02  0.8188784E-01
        1   -1    0    0  501    0  0.00000000000E+00  0.00000000000E+00  0.13353514643E+04  0.13353514643E+04  0.50400001928E-02 0.  1.
       -1   -1    0    0    0  501  0.00000000000E+00  0.00000000000E+00 -0.19172489264E+04  0.19172489264E+04  0.50400001928E-02 0. -1.
    10030    2    1    2    0    0  0.00000000000E+00  0.00000000000E+00 -0.58189746211E+03  0.32526003907E+04  0.32001257233E+04 0.  0.
        2    1    3    3  502    0  0.12775038635E+04 -0.68738184006E+03 -0.97706704528E+03  0.17490482916E+04  0.25500000920E-02 0. -1.
       -2    1    3    3    0  502 -0.12775038635E+04  0.68738184006E+03  0.39516958317E+03  0.15035520991E+04  0.25500000920E-02 0.  1.
</event>
<event>
 5   0  0.9727083E-08  0.3199635E+04  0.7818609E-02  0.8188914E-01
        2   -1    0    0  501    0  0.00000000000E+00  0.00000000000E+00  0.17573612319E+04  0.17573612319E+04  0.25500000920E-02 0.  1.
       -2   -1    0    0    0  501  0.00000000000E+00  0.00000000000E+00 -0.14563971334E+04  0.14563971334E+04  0.25500000920E-02 0. -1.
    10030    2    1    2    0    0  0.00000000000E+00  0.00000000000E+00  0.30096409850E+03  0.32137583653E+04  0.31996348919E+04 0.  0.
        4    1    3    3  502    0  0.15316450442E+04 -0.44909043399E+03  0.41395613033E+02  0.15966633863E+04  0.12699999809E+01 0.  1.
       -4    1    3    3    0  502 -0.15316450442E+04  0.44909043399E+03  0.25956848547E+03  0.16170949790E+04  0.12699999809E+01 0. -1.
</event>
<event>
 5   0  0.3343140E-08  0.3199178E+04  0.7818609E-02  0.8189034E-01
        1   -1    0    0  501    0  0.00000000000E+00  0.00000000000E+00  0.98985034941E+03  0.98985034942E+03  0.50400001928E-02 0.  1.
       -1   -1    0    0    0  501  0.00000000000E+00  0.00000000000E+00 -0.25849210359E+04  0.25849210359E+04  0.50400001928E-02 0. -1.
    10030    2    1    2    0    0  0.00000000000E+00  0.00000000000E+00 -0.15950706864E+04  0.35747713853E+04  0.31991780135E+04 0.  0.
        1    1    3    3  502    0 -0.39594057945E+03  0.49404125519E+03 -0.24389541849E+04  0.25197903128E+04  0.50400001928E-02 0. -1.
       -1    1    3    3    0  502  0.39594057945E+03 -0.49404125519E+03  0.84388349847E+03  0.10549810725E+04  0.50400001928E-02 0.  1.
</event>
<event>
 5   0  0.9329929E-08  0.3199616E+04  0.7818609E-02  0.8188919E-01
       -2   -1    0    0    0  501  0.00000000000E+00  0.00000000000E+00  0.22490020205E+04  0.22490020205E+04  0.25500000920E-02 0.  1.
        2   -1    0    0  501    0  0.00000000000E+00  0.00000000000E+00 -0.11380095439E+04  0.11380095439E+04  0.25500000920E-02 0. -1.
    10030    2    1    2    0    0  0.00000000000E+00  0.00000000000E+00  0.11109924766E+04  0.33870115644E+04  0.31996160792E+04 0.  0.
        1    1    3    3  502    0 -0.10000699831E+04  0.84931658269E+03 -0.41348808997E+03  0.13756638504E+04  0.50400001928E-02 0. -1.
       -1    1    3    3    0  502  0.10000699831E+04 -0.84931658269E+03  0.15244805666E+04  0.20113477140E+04  0.50400001928E-02 0.  1.
</event>
<event>
 5   0  0.3343140E-08  0.3202802E+04  0.7818609E-02  0.8188077E-01
        1   -1    0    0  501    0  0.00000000000E+00  0.00000000000E+00  0.33053654215E+04  0.33053654215E+04  0.50400001928E-02 0.  1.
       -1   -1    0    0    0  501  0.00000000000E+00  0.00000000000E+00 -0.77585547864E+03  0.77585547865E+03  0.50400001928E-02 0. -1.
    10030    2    1    2    0    0  0.00000000000E+00  0.00000000000E+00  0.25295099429E+04  0.40812209002E+04  0.32028024424E+04 0.  0.
        1    1    3    3  502    0  0.44117117694E+03  0.14716492873E+04  0.68907140043E+03  0.16838061132E+04  0.50400001928E-02 0.  1.
       -1    1    3    3    0  502 -0.44117117694E+03 -0.14716492873E+04  0.18404385424E+04  0.23974147869E+04  0.50400001928E-02 0. -1.
</event>
<event>
 5   0  0.3343140E-08  0.3198602E+04  0.7818609E-02  0.8189187E-01
        1   -1    0    0  501    0  0.00000000000E+00  0.00000000000E+00  0.29099275986E+04  0.29099275986E+04  0.50400001928E-02 0.  1.
       -1   -1    0    0    0  501  0.00000000000E+00  0.00000000000E+00 -0.87897835320E+03  0.87897835321E+03  0.50400001928E-02 0. -1.
    10030    2    1    2    0    0  0.00000000000E+00  0.00000000000E+00  0.20309492454E+04  0.37889059519E+04  0.31986017999E+04 0.  0.
        1    1    3    3  502    0  0.11552143751E+04  0.10073016693E+04  0.15564739292E+04  0.21844422623E+04  0.50400001928E-02 0. -1.
       -1    1    3    3    0  502 -0.11552143751E+04 -0.10073016693E+04  0.47447531627E+03  0.16044636895E+04  0.50400001928E-02 0.  1.
</event>
<event>
 5   0  0.9707721E-08  0.3195595E+04  0.7818609E-02  0.8189982E-01
       -2   -1    0    0    0  501  0.00000000000E+00  0.00000000000E+00  0.19005610352E+04  0.19005610352E+04  0.25500000920E-02 0. -1.
        2   -1    0    0  501    0  0.00000000000E+00  0.00000000000E+00 -0.13432646231E+04  0.13432646231E+04  0.25500000920E-02 0.  1.
    10030    2    1    2    0    0  0.00000000000E+00  0.00000000000E+00  0.55729641210E+03  0.32438256583E+04  0.31955947194E+04 0.  0.
        3    1    3    3  502    0  0.94561217955E+03 -0.69150803207E+03  0.13815973240E+04  0.18114019235E+04  0.10100000352E+00 0. -1.
       -3    1    3    3    0  502 -0.94561217955E+03  0.69150803207E+03 -0.82430091190E+03  0.14324237348E+04  0.10100000352E+00 0.  1.
</event>
<event>
 5   0  0.3283581E-08  0.3197196E+04  0.7818609E-02  0.8189558E-01
        1   -1    0    0  501    0  0.00000000000E+00  0.00000000000E+00  0.18903864659E+04  0.18903864659E+04  0.50400001928E-02 0.  1.
       -1   -1    0    0    0  501  0.00000000000E+00  0.00000000000E+00 -0.13518483969E+04  0.13518483969E+04  0.50400001928E-02 0. -1.
    10030    2    1    2    0    0  0.00000000000E+00  0.00000000000E+00  0.53853806896E+03  0.32422348628E+04  0.31971962176E+04 0.  0.
        5    1    3    3  502    0 -0.63828180269E+03  0.13986025646E+04  0.71362085139E+03  0.16949246599E+04  0.46999998093E+01 0.  1.
       -5    1    3    3    0  502  0.63828180269E+03 -0.13986025646E+04 -0.17508278243E+03  0.15473102029E+04  0.46999998093E+01 0. -1.
</event>
<event>
 5   0  0.9707721E-08  0.3200914E+04  0.7818609E-02  0.8188576E-01
        2   -1    0    0  501    0  0.00000000000E+00  0.00000000000E+00  0.22504925743E+04  0.22504925743E+04  0.25500000920E-02 0.  1.
       -2   -1    0    0    0  501  0.00000000000E+00  0.00000000000E+00 -0.11381787586E+04  0.11381787586E+04  0.25500000920E-02 0. -1.
    10030    2    1    2    0    0  0.00000000000E+00  0.00000000000E+00  0.11123138157E+04  0.33886713329E+04  0.32009141472E+04 0.  0.
        3    1    3    3  502    0  0.67332085054E+03  0.12033091939E+04 -0.30399737953E+03  0.14119944762E+04  0.10100000352E+00 0. -1.
       -3    1    3    3    0  502 -0.67332085054E+03 -0.12033091939E+04  0.14163111953E+04  0.19766768567E+04  0.10100000352E+00 0.  1.
</event>
<event>
 5   0  0.9727083E-08  0.3200214E+04  0.7818609E-02  0.8188761E-01
        2   -1    0    0  501    0  0.00000000000E+00  0.00000000000E+00  0.22568572398E+04  0.22568572398E+04  0.25500000920E-02 0.  1.
       -2   -1    0    0    0  501  0.00000000000E+00  0.00000000000E+00 -0.11344724694E+04  0.11344724694E+04  0.25500000920E-02 0. -1.
    10030    2    1    2    0    0  0.00000000000E+00  0.00000000000E+00  0.11223847705E+04  0.33913297092E+04  0.32002139965E+04 0.  0.
        4    1    3    3  502    0 -0.11977552867E+04 -0.24064368784E+03  0.16562544509E+04  0.20580834605E+04  0.12699999809E+01 0.  1.
       -4    1    3    3    0  502  0.11977552867E+04  0.24064368784E+03 -0.53386968042E+03  0.13332462488E+04  0.12699999809E+01 0. -1.
</event>
<event>
 5   0  0.9707721E-08  0.3199907E+04  0.7818609E-02  0.8188842E-01
        2   -1    0    0  501    0  0.00000000000E+00  0.00000000000E+00  0.13525499801E+04  0.13525499801E+04  0.25500000920E-02 0. -1.
       -2   -1    0    0    0  501  0.00000000000E+00  0.00000000000E+00 -0.18926109877E+04  0.18926109877E+04  0.25500000920E-02 0.  1.
    10030    2    1    2    0    0  0.00000000000E+00  0.00000000000E+00 -0.54006100754E+03  0.32451609678E+04  0.31999068448E+04 0.  0.
        3    1    3    3  502    0 -0.62557428630E+03 -0.10340449385E+04  0.79325253945E+03  0.14456284876E+04  0.10100000352E+00 0. -1.
       -3    1    3    3    0  502  0.62557428630E+03  0.10340449385E+04 -0.13333135470E+04  0.17995324802E+04  0.10100000352E+00 0.  1.
</event>
<event>
 5   0  0.9329929E-08  0.3199988E+04  0.7818609E-02  0.8188820E-01
        2   -1    0    0  501    0  0.00000000000E+00  0.00000000000E+00  0.17577269223E+04  0.17577269223E+04  0.25500000920E-02 0. -1.
       -2   -1    0    0    0  501  0.00000000000E+00  0.00000000000E+00 -0.14564158102E+04  0.14564158102E+04  0.25500000920E-02 0.  1.
    10030    2    1    2    0    0  0.00000000000E+00  0.00000000000E+00  0.30131111212E+03  0.32141427325E+04  0.31999882997E+04 0.  0.
        1    1    3    3  502    0  0.46930619441E+03 -0.10131014805E+04 -0.10004320845E+04  0.14991621892E+04  0.50400001928E-02 0.  1.
       -1    1    3    3    0  502 -0.46930619441E+03  0.10131014805E+04  0.13017431966E+04  0.17149805433E+04  0.50400001928E-02 0. -1.
</event>
<event>
 5   0  0.3427667E-08  0.3199431E+04  0.7818609E-02  0.8188967E-01
        1   -1    0    0  501    0  0.00000000000E+00  0.00000000000E+00  0.17439657748E+04  0.17439657748E+04  0.50400001928E-02 0. -1.
       -1   -1    0    0    0  501  0.00000000000E+00  0.00000000000E+00 -0.14673966753E+04  0.14673966753E+04  0.50400001928E-02 0.  1.
    10030    2    1    2    0    0  0.00000000000E+00  0.00000000000E+00  0.27656909953E+03  0.32113624502E+04  0.31994309368E+04 0.  0.
        2    1    3    3  502    0 -0.11485189789E+04 -0.11040347937E+04  0.28408778824E+03  0.16182380981E+04  0.25500000920E-02 0. -1.
       -2    1    3    3    0  502  0.11485189789E+04  0.11040347937E+04 -0.75186887169E+01  0.15931243521E+04  0.25500000920E-02 0.  1.
</event>
<event>
 5   0  0.3220147E-08  0.3199111E+04  0.7818609E-02  0.8189052E-01
       -1   -1    0    0    0  501  0.00000000000E+00  0.00000000000E+00  0.28299110004E+04  0.28299110004E+04  0.50400001928E-02 0. -1.
        1   -1    0    0  501    0  0.00000000000E+00  0.00000000000E+00 -0.90411953656E+03  0.90411953657E+03  0.50400001928E-02 0.  1.
    10030    2    1    2    0    0  0.00000000000E+00  0.00000000000E+00  0.19257914638E+04  0.37340305369E+04  0.31991110154E+04 0.  0.
        4    1    3    3  502    0 -0.15055118136E+04 -0.25602410716E+03  0.40744407533E+03  0.15805462511E+04  0.12699999809E+01 0.  1.
       -4    1    3    3    0  502  0.15055118136E+04  0.25602410716E+03  0.15183473885E+04  0.21534842858E+04  0.12699999809E+01 0. -1.
</event>
<event>
 5   0  0.9157524E-08  0.3199868E+04  0.7818609E-02  0.8188852E-01
       -2   -1    0    0    0  501  0.00000000000E+00  0.00000000000E+00  0.19489913772E+04  0.19489913772E+04  0.25500000920E-02 0. -1.
        2   -1    0    0  501    0  0.00000000000E+00  0.00000000000E+00 -0.13133916692E+04  0.13133916692E+04  0.25500000920E-02 0.  1.
    10030    2    1    2    0    0  0.00000000000E+00  0.00000000000E+00  0.63559970809E+03  0.32623830464E+04  0.31998681461E+04 0.  0.
        5    1    3    3  502    0  0.91578565434E+03 -0.11267867802E+04 -0.36723105443E+03  0.14977291311E+04  0.46999998093E+01 0.  1.
       -5    1    3    3    0  502 -0.91578565434E+03  0.11267867802E+04  0.10028307625E+04  0.17646539153E+04  0.46999998093E+01 0. -1.
</event>
<event>
 5   0  0.3343140E-08  0.3199086E+04  0.7818609E-02  0.8189059E-01
        1   -1    0    0  501    0  0.00000000000E+00  0.00000000000E+00  0.11451895259E+04  0.11451895259E+04  0.50400001928E-02 0.  1.
       -1   -1    0    0    0  501  0.00000000000E+00  0.00000000000E+00 -0.22341608818E+04  0.22341608818E+04  0.50400001928E-02 0. -1.
    10030    2    1    2    0    0  0.00000000000E+00  0.00000000000E+00 -0.10889713559E+04  0.33793504076E+04  0.31990858950E+04 0.  0.
        1    1    3    3  502    0  0.68364488425E+03 -0.52761044956E+03  0.87778290260E+03  0.12313593864E+04  0.50400001928E-02 0.  1.
       -1    1    3    3    0  502 -0.68364488425E+03  0.52761044956E+03 -0.19667542585E+04  0.21479910213E+04  0.50400001928E-02 0. -1.
</event>
<event>
 5   0  0.3220147E-08  0.3200560E+04  0.7818609E-02  0.8188669E-01
        1   -1    0    0  501    0  0.00000000000E+00  0.00000000000E+00  0.16472871575E+04  0.16472871575E+04  0.50400001928E-02 0.  1.
       -1   -1    0    0    0  501  0.00000000000E+00  0.00000000000E+00 -0.15546141016E+04  0.15546141016E+04  0.50400001928E-02 0. -1.
    10030    2    1    2    0    0  0.00000000000E+00  0.00000000000E+00  0.92673055896E+02  0.32019012592E+04  0.32005598539E+04 0.  0.
        4    1    3    3  502    0  0.88431644559E+03  0.13266205865E+04  0.18407674822E+03  0.16049372632E+04  0.12699999809E+01 0. -1.
       -4    1    3    3    0  502 -0.88431644559E+03 -0.13266205865E+04 -0.91403692327E+02  0.15969639960E+04  0.12699999809E+01 0.  1.
</event>
<event>
 5   0  0.3283581E-08  0.3199120E+04  0.7818609E-02  0.8189050E-01
        1   -1    0    0  501    0  0.00000000000E+00  0.00000000000E+00  0.18426039020E+04  0.18426039020E+04  0.50400001928E-02 0.  1.
       -1   -1    0    0    0  501  0.00000000000E+00  0.00000000000E+00 -0.13885739541E+04  0.13885739541E+04  0.50400001928E-02 0. -1.
    10030    2    1    2    0    0  0.00000000000E+00  0.00000000000E+00  0.45402994790E+03  0.32311778562E+04  0.31991197453E+04 0.  0.
        5    1    3    3  502    0 -0.47751876671E+03 -0.97552054215E+03  0.14130501548E+04  0.17822450254E+04  0.46999998093E+01 0.  1.
       -5    1    3    3    0  502  0.47751876671E+03  0.97552054215E+03 -0.95902020690E+03  0.14489328307E+04  0.46999998093E+01 0. -1.
</event>
<event>
 5   0  0.9727083E-08  0.3199912E+04  0.7818609E-02  0.8188840E-01
       -2   -1    0    0    0  501  0.00000000000E+00  0.00000000000E+00  0.15789299574E+04  0.15789299574E+04  0.25500000920E-02 0. -1.
        2   -1    0    0  501    0  0.00000000000E+00  0.00000000000E+00 -0.16212617366E+04  0.16212617366E+04  0.25500000920E-02 0.  1.
    10030    2    1    2    0    0  0.00000000000E+00  0.00000000000E+00 -0.42331779260E+02  0.32001916940E+04  0.31999117017E+04 0.  0.
        4    1    3    3  502    0  0.62369881296E+03 -0.24783471893E+03  0.14313505550E+04  0.15808821213E+04  0.12699999809E+01 0. -1.
       -4    1    3    3    0  502 -0.62369881296E+03  0.24783471893E+03 -0.14736823343E+04  0.16193095727E+04  0.12699999809E+01 0.  1.
</event>
<event>
 5   0  0.3343140E-08  0.3198593E+04  0.7818609E-02  0.8189189E-01
       -1   -1    0    0    0  501  0.00000000000E+00  0.00000000000E+00  0.14916809078E+04  0.14916809078E+04  0.50400001928E-02 0. -1.
        1   -1    0    0  501    0  0.00000000000E+00  0.00000000000E+00 -0.17146755484E+04  0.17146755484E+04  0.50400001928E-02 0.  1.
    10030    2    1    2    0    0  0.00000000000E+00  0.00000000000E+00 -0.22299464065E+03  0.32063564562E+04  0.31985926771E+04 0.  0.
        1    1    3    3  502    0  0.73603580262E+03  0.99158425048E+03 -0.11302123778E+04  0.16740274931E+04  0.50400001928E-02 0.  1.
       -1    1    3    3    0  502 -0.73603580262E+03 -0.99158425048E+03  0.90721773716E+03  0.15323289631E+04  0.50400001928E-02 0. -1.
</event>
<event>
 5   0  0.9353994E-08  0.3199422E+04  0.7818609E-02  0.8188970E-01
       -2   -1    0    0    0  501  0.00000000000E+00  0.00000000000E+00  0.15301442030E+04  0.15301442030E+04  0.25500000920E-02 0. -1.
        2   -1    0    0  501    0  0.00000000000E+00  0.00000000000E+00 -0.16724404030E+04  0.16724404030E+04  0.25500000920E-02 0.  1.
    10030    2    1    2    0    0  0.00000000000E+00  0.00000000000E+00 -0.14229619997E+03  0.32025846060E+04  0.31994218149E+04 0.  0.
        2    1    3    3  502    0 -0.70296807103E+03 -0.11833863041E+04  0.74483117827E+03  0.15650369765E+04  0.25500000920E-02 0. -1.
       -2    1    3    3    0  502  0.70296807103E+03  0.11833863041E+04 -0.88712737824E+03  0.16375476295E+04  0.25500000920E-02 0.  1.
</event>
<event>
 5   0  0.9157524E-08  0.3201709E+04  0.7818609E-02  0.8188366E-01
       -2   -1    0    0    0  501  0.00000000000E+00  0.00000000000E+00  0.12585498182E+04  0.12585498182E+04  0.25500000920E-02 0.  1.
        2   -1    0    0  501    0  0.00000000000E+00  0.00000000000E+00 -0.20362597848E+04  0.20362597848E+04  0.25500000920E-02 0. -1.
    10030    2    1    2    0    0  0.00000000000E+00  0.00000000000E+00 -0.77770996666E+03  0.32948096030E+04  0.32017085326E+04 0.  0.
        5    1    3    3  502    0  0.13386718357E+04  0.23159539001E+03  0.48254646669E+03  0.14417183812E+04  0.46999998093E+01 0.  1.
       -5    1    3    3    0  502 -0.13386718357E+04 -0.23159539001E+03 -0.12602564333E+04  0.18530912217E+04  0.46999998093E+01 0. -1.
</event>
<event>
 5   0  0.3270966E-08  0.3199888E+04  0.7818609E-02  0.8188847E-01
        1   -1    0    0  501    0  0.00000000000E+00  0.00000000000E+00  0.17588678824E+04  0.17588678824E+04  0.50400001928E-02 0. -1.
       -1   -1    0    0    0  501  0.00000000000E+00  0.00000000000E+00 -0.14553794794E+04  0.14553794794E+04  0.50400001928E-02 0.  1.
    10030    2    1    2    0    0  0.00000000000E+00  0.00000000000E+00  0.30348840296E+03  0.32142473618E+04  0.31998876375E+04 0.  0.
        3    1    3    3  502    0  0.45680355732E+03  0.26911791824E+03 -0.13645750434E+04  0.14639532108E+04  0.10100000352E+00 0.  1.
       -3    1    3    3    0  502 -0.45680355732E+03 -0.26911791824E+03  0.16680634464E+04  0.17502941511E+04  0.10100000352E+00 0. -1.
</event>
<event>
 5   0  0.3283581E-08  0.3195984E+04  0.7818609E-02  0.8189878E-01
       -1   -1    0    0    0  501  0.00000000000E+00  0.00000000000E+00  0.14645077538E+04  0.14645077538E+04  0.50400001928E-02 0. -1.
        1   -1    0    0  501    0  0.00000000000E+00  0.00000000000E+00 -0.17436433661E+04  0.17436433662E+04  0.50400001928E-02 0.  1.
    10030    2    1    2    0    0  0.00000000000E+00  0.00000000000E+00 -0.27913561233E+03  0.32081511200E+04  0.31959844991E+04 0.  0.
        5    1    3    3  502    0 -0.17254770582E+03 -0.15509388757E+04  0.20579577620E+03  0.15740260793E+04  0.46999998093E+01 0. -1.
       -5    1    3    3    0  502  0.17254770582E+03  0.15509388757E+04 -0.48493138852E+03  0.16341250406E+04  0.46999998093E+01 0.  1.
</event>
<event>
 5   0  0.9353994E-08  0.3200907E+04  0.7818609E-02  0.8188578E-01
        2   -1    0    0  501    0  0.00000000000E+00  0.00000000000E+00  0.18861555290E+04  0.18861555290E+04  0.25500000920E-02 0. -1.
       -2   -1    0    0    0  501  0.00000000000E+00  0.00000000000E+00 -0.13580279040E+04  0.13580279040E+04  0.25500000920E-02 0.  1.
    10030    2    1    2    0    0  0.00000000000E+00  0.00000000000E+00  0.52812762508E+03  0.32441834330E+04  0.32009072712E+04 0.  0.
        2    1    3    3  502    0 -0.23865804296E+03  0.15025077857E+04  0.76773789317E+03  0.17040859075E+04  0.25500000920E-02 0. -1.
       -2    1    3    3    0  502  0.23865804296E+03 -0.15025077857E+04 -0.23961026809E+03  0.15400975255E+04  0.25500000920E-02 0.  1.
</event>
<event>
 5   0  0.3220147E-08  0.3200565E+04  0.7818609E-02  0.8188668E-01
        1   -1    0    0  501    0  0.00000000000E+00  0.00000000000E+00  0.20283260768E+04  0.20283260768E+04  0.50400001928E-02 0. -1.
       -1   -1    0    0    0  501  0.00000000000E+00  0.00000000000E+00 -0.12625700829E+04  0.12625700829E+04  0.50400001928E-02 0.  1.
    10030    2    1    2    0    0  0.00000000000E+00  0.00000000000E+00  0.76575599390E+03  0.32908961598E+04  0.32005648396E+04 0.  0.
        4    1    3    3  502    0 -0.13782859087E+04 -0.67406613798E+02 -0.45035526293E+03  0.14515636994E+04  0.12699999809E+01 0.  1.
       -4    1    3    3    0  502  0.13782859087E+04  0.67406613798E+02  0.12161112568E+04  0.18393324603E+04  0.12699999809E+01 0. -1.
</event>
<event>
 5   0  0.9707721E-08  0.3192699E+04  0.7818609E-02  0.8190748E-01
       -2   -1    0    0    0  501  0.00000000000E+00  0.00000000000E+00  0.11322002915E+04  0.11322002916E+04  0.25500000920E-02 0. -1.
        2   -1    0    0  501    0  0.00000000000E+00  0.00000000000E+00 -0.22507776733E+04  0.22507776733E+04  0.25500000920E-02 0.  1.
    10030    2    1    2    0    0  0.00000000000E+00  0.00000000000E+00 -0.11185773818E+04  0.33829779649E+04  0.31926986315E+04 0.  0.
        3    1    3    3  502    0  0.14965658489E+04  0.21811555305E+03 -0.17910292111E+02  0.15124829002E+04  0.10100000352E+00 0.  1.
       -3    1    3    3    0  502 -0.14965658489E+04 -0.21811555305E+03 -0.11006670897E+04  0.18704950647E+04  0.10100000352E+00 0. -1.
</event>
<event>
 5   0  0.9157524E-08  0.3201452E+04  0.7818609E-02  0.8188434E-01
        2   -1    0    0  501    0  0.00000000000E+00  0.00000000000E+00  0.24741097985E+04  0.24741097985E+04  0.25500000920E-02 0.  1.
       -2   -1    0    0    0  501  0.00000000000E+00  0.00000000000E+00 -0.10356551171E+04  0.10356551171E+04  0.25500000920E-02 0. -1.
    10030    2    1    2    0    0  0.00000000000E+00  0.00000000000E+00  0.14384546814E+04  0.35097649155E+04  0.32014524660E+04 0.  0.
        5    1    3    3  502    0 -0.11437800130E+04  0.10063348615E+04  0.18063093709E+03  0.15341421698E+04  0.46999998093E+01 0. -1.
       -5    1    3    3    0  502  0.11437800130E+04 -0.10063348615E+04  0.12578237443E+04  0.19756227457E+04  0.46999998093E+01 0.  1.
</event>
<event>
 5   0  0.9329929E-08  0.3199644E+04  0.7818609E-02  0.8188911E-01
       -2   -1    0    0    0  501  0.00000000000E+00  0.00000000000E+00  0.10714645341E+04  0.10714645341E+04  0.25500000920E-02 0. -1.
        2   -1    0    0  501    0  0.00000000000E+00  0.00000000000E+00 -0.23887209000E+04  0.23887209000E+04  0.25500000920E-02 0.  1.
    10030    2    1    2    0    0  0.00000000000E+00  0.00000000000E+00 -0.13172563659E+04  0.34601854342E+04  0.31996435591E+04 0.  0.
        1    1    3    3  502    0 -0.83975670064E+03  0.44701905363E+03  0.73234788572E+03  0.12005626915E+04  0.50400001928E-02 0. -1.
       -1    1    3    3    0  502  0.83975670064E+03 -0.44701905363E+03 -0.20496042516E+04  0.22596227426E+04  0.50400001928E-02 0.  1.
</event>
<event>
 5   0  0.3220147E-08  0.3200218E+04  0.7818609E-02  0.8188760E-01
       -1   -1    0    0    0  501  0.00000000000E+00  0.00000000000E+00  0.14687567033E+04  0.14687567033E+04  0.50400001928E-02 0. -1.
        1   -1    0    0  501    0  0.00000000000E+00  0.00000000000E+00 -0.17432086778E+04  0.17432086778E+04  0.50400001928E-02 0.  1.
    10030    2    1    2    0    0  0.00000000000E+00  0.00000000000E+00 -0.27445197450E+03  0.32119653812E+04  0.32002183868E+04 0.  0.
        4    1    3    3  502    0 -0.19907728982E+03 -0.38517551918E+03  0.14086731616E+04  0.14738906462E+04  0.12699999809E+01 0. -1.
       -4    1    3    3    0  502  0.19907728982E+03  0.38517551918E+03 -0.16831251360E+04  0.17380747350E+04  0.12699999809E+01 0.  1.
</event>
<event>
 5   0  0.9329929E-08  0.3200423E+04  0.7818609E-02  0.8188705E-01
       -2   -1    0    0    0  501  0.00000000000E+00  0.00000000000E+00  0.17658985432E+04  0.17658985432E+04  0.25500000920E-02 0.  1.
        2   -1    0    0  501    0  0.00000000000E+00  0.00000000000E+00 -0.14500703121E+04  0.14500703121E+04  0.25500000920E-02 0. -1.
    10030    2    1    2    0    0  0.00000000000E+00  0.00000000000E+00  0.31582823110E+03  0.32159688553E+04  0.32004231293E+04 0.  0.
        1    1    3    3  502    0 -0.11146640410E+04 -0.75403756220E+03  0.10279305840E+04  0.16934254797E+04  0.50400001928E-02 0.  1.
       -1    1    3    3    0  502  0.11146640410E+04  0.75403756220E+03 -0.71210235292E+03  0.15225433756E+04  0.50400001928E-02 0. -1.
</event>
<event>
 5   0  0.3343140E-08  0.3199622E+04  0.7818609E-02  0.8188917E-01
       -1   -1    0    0    0  501  0.00000000000E+00  0.00000000000E+00  0.17617945120E+04  0.17617945120E+04  0.50400001928E-02 0.  1.
        1   -1    0    0  501    0  0.00000000000E+00  0.00000000000E+00 -0.14527204019E+04  0.14527204019E+04  0.50400001928E-02 0. -1.
    10030    2    1    2    0    0  0.00000000000E+00  0.00000000000E+00  0.30907411013E+03  0.32145149139E+04  0.31996217474E+04 0.  0.
        1    1    3    3  502    0  0.18962549411E+03  0.48853159429E+03 -0.13640455405E+04  0.14612464485E+04  0.50400001928E-02 0. -1.
       -1    1    3    3    0  502 -0.18962549411E+03 -0.48853159429E+03  0.16731196506E+04  0.17532684654E+04  0.50400001928E-02 0.  1.
</event>
<event>
 5   0  0.9727083E-08  0.3200719E+04  0.7818609E-02  0.8188627E-01
       -2   -1    0    0    0  501  0.00000000000E+00  0.00000000000E+00  0.14741653173E+04  0.14741653173E+04  0.25500000920E-02 0. -1.
        2   -1    0    0  501    0  0.00000000000E+00  0.00000000000E+00 -0.17373568166E+04  0.17373568166E+04  0.25500000920E-02 0.  1.
    10030    2    1    2    0    0  0.00000000000E+00  0.00000000000E+00 -0.26319149928E+03  0.32115221338E+04  0.32007193958E+04 0.  0.
        4    1    3    3  502    0  0.79490019460E+02 -0.10334541501E+04 -0.13550566415E+04  0.17060264529E+04  0.12699999809E+01 0.  1.
       -4    1    3    3    0  502 -0.79490019460E+02  0.10334541501E+04  0.10918651422E+04  0.15054956809E+04  0.12699999809E+01 0. -1.
</event>
<event>
 5   0  0.3343140E-08  0.3199341E+04  0.7818609E-02  0.8188991E-01
       -1   -1    0    0    0  501  0.00000000000E+00  0.00000000000E+00  0.18115478121E+04  0.18115478121E+04  0.50400001928E-02 0.  1.
        1   -1    0    0  501    0  0.00000000000E+00  0.00000000000E+00 -0.14125740735E+04  0.14125740735E+04  0.50400001928E-02 0. -1.
    10030    2    1    2    0    0  0.00000000000E+00  0.00000000000E+00  0.39897373858E+03  0.32241218856E+04  0.31993408523E+04 0.  0.
        1    1    3    3  502    0 -0.96673325417E+03  0.32037885924E+02 -0.10844878392E+04  0.14531735906E+04  0.50400001928E-02 0. -1.
       -1    1    3    3    0  502  0.96673325417E+03 -0.32037885924E+02  0.14834615778E+04  0.17709482950E+04  0.50400001928E-02 0.  1.
</event>
<event>
 5   0  0.9157524E-08  0.3199447E+04  0.7818609E-02  0.8188963E-01
       -2   -1    0    0    0  501  0.00000000000E+00  0.00000000000E+00  0.19049284537E+04  0.19049284537E+04  0.25500000920E-02 0. -1.
        2   -1    0    0  501    0  0.00000000000E+00  0.00000000000E+00 -0.13434180771E+04  0.13434180771E+04  0.25500000920E-02 0.  1.
    10030    2    1    2    0    0  0.00000000000E+00  0.00000000000E+00  0.56151037669E+03  0.32483465308E+04  0.31994470274E+04 0.  0.
        5    1    3    3  502    0  0.31029708067E+03 -0.52465936639E+03 -0.12208839520E+04  0.13645993710E+04  0.46999998093E+01 0.  1.
       -5    1    3    3    0  502 -0.31029708067E+03  0.52465936639E+03  0.17823943287E+04  0.18837471598E+04  0.46999998093E+01 0. -1.
</event>
<event>
 5   0  0.9157524E-08  0.3199775E+04  0.7818609E-02  0.8188877E-01
        2   -1    0    0  501    0  0.00000000000E+00  0.00000000000E+00  0.17930084721E+04  0.17930084721E+04  0.25500000920E-02 0. -1.
       -2   -1    0    0    0  501  0.00000000000E+00  0.00000000000E+00 -0.14275671003E+04  0.14275671003E+04  0.25500000920E-02 0.  1.
    10030    2    1    2    0    0  0.00000000000E+00  0.00000000000E+00  0.36544137182E+03  0.32205755724E+04  0.31997749329E+04 0.  0.
        5    1    3    3  502    0 -0.86496208558E+03  0.12186053494E+04  0.75780120650E+03  0.16755426481E+04  0.46999998093E+01 0.  1.
       -5    1    3    3    0  502  0.86496208558E+03 -0.12186053494E+04 -0.39235983468E+03  0.15450329243E+04  0.46999998093E+01 0. -1.
</event>
<event>
 5   0  0.9353994E-08  0.3200248E+04  0.7818609E-02  0.8188752E-01
       -2   -1    0    0    0  501  0.00000000000E+00  0.00000000000E+00  0.90797217878E+03  0.90797217878E+03  0.25500000920E-02 0. -1.
        2   -1    0    0  501    0  0.00000000000E+00  0.00000000000E+00 -0.28199067897E+04  0.28199067897E+04  0.25500000920E-02 0.  1.
    10030    2    1    2    0    0  0.00000000000E+00  0.00000000000E+00 -0.19119346109E+04  0.37278789685E+04  0.32002480602E+04 0.  0.
        2    1    3    3  502    0  0.10347731582E+04 -0.43989901818E+03 -0.22821473498E+04  0.25441036067E+04  0.25500000920E-02 0.  1.
       -2    1    3    3    0  502 -0.10347731582E+04  0.43989901818E+03  0.37021273891E+03  0.11837753618E+04  0.25500000920E-02 0. -1.
</event>
<event>
 5   0  0.9353994E-08  0.3202766E+04  0.7818609E-02  0.8188087E-01
        2   -1    0    0  501    0  0.00000000000E+00  0.00000000000E+00  0.17216140530E+04  0.17216140530E+04  0.25500000920E-02 0.  1.
       -2   -1    0    0    0  501  0.00000000000E+00  0.00000000000E+00 -0.14895485161E+04  0.14895485161E+04  0.25500000920E-02 0. -1.
    10030    2    1    2    0    0  0.00000000000E+00  0.00000000000E+00  0.23206553693E+03  0.32111625691E+04  0.32027660907E+04 0.  0.
        2    1    3    3  502    0  0.18141982886E+03  0.15188341728E+04 -0.35919006456E+03  0.15712376973E+04  0.25500000920E-02 0. -1.
       -2    1    3    3    0  502 -0.18141982886E+03 -0.15188341728E+04  0.59125560149E+03  0.16399248718E+04  0.25500000920E-02 0.  1.
</event>
<event>
 5   0  0.9329929E-08  0.3201491E+04  0.7818609E-02  0.8188424E-01
        2   -1    0    0  501    0  0.00000000000E+00  0.00000000000E+00  0.27578726456E+04  0.27578726456E+04  0.25500000920E-02 0. -1.
       -2   -1    0    0    0  501  0.00000000000E+00  0.00000000000E+00 -0.92911682661E+03  0.92911682662E+03  0.25500000920E-02 0.  1.
    10030    2    1    2    0    0  0.00000000000E+00  0.00000000000E+00  0.18287558190E+04  0.36869894722E+04  0.32014908282E+04 0.  0.
        1    1    3    3  502    0  0.17083456773E+03  0.15493332251E+04  0.49474810777E+03  0.16353573255E+04  0.50400001928E-02 0.  1.
       -1    1    3    3    0  502 -0.17083456773E+03 -0.15493332251E+04  0.13340077112E+04  0.20516321468E+04  0.50400001928E-02 0. -1.
</event>
<event>
 5   0  0.3283581E-08  0.3198709E+04  0.7818609E-02  0.8189158E-01
        1   -1    0    0  501    0  0.00000000000E+00  0.00000000000E+00  0.13969552011E+04  0.13969552011E+04  0.50400001928E-02 0.  1.
       -1   -1    0    0    0  501  0.00000000000E+00  0.00000000000E+00 -0.18310790297E+04  0.18310790297E+04  0.50400001928E-02 0. -1.
    10030    2    1    2    0    0  0.00000000000E+00  0.00000000000E+00 -0.43412382855E+03  0.32280342308E+04  0.31987093486E+04 0.  0.
        5    1    3    3  502    0  0.30307056469E+03 -0.64925260304E+03  0.12259182760E+04  0.14199571892E+04  0.46999998093E+01 0.  1.
       -5    1    3    3    0  502 -0.30307056469E+03  0.64925260304E+03 -0.16600421045E+04  0.18080770416E+04  0.46999998093E+01 0. -1.
</event>
<event>
 5   0  0.3270966E-08  0.3199770E+04  0.7818609E-02  0.8188878E-01
        1   -1    0    0  501    0  0.00000000000E+00  0.00000000000E+00  0.21607492307E+04  0.21607492307E+04  0.50400001928E-02 0. -1.
       -1   -1    0    0    0  501  0.00000000000E+00  0.00000000000E+00 -0.11846035627E+04  0.11846035627E+04  0.50400001928E-02 0.  1.
    10030    2    1    2    0    0  0.00000000000E+00  0.00000000000E+00  0.97614566803E+03  0.33453527934E+04  0.31997695147E+04 0.  0.
        3    1    3    3  502    0  0.11110865701E+04 -0.82296381353E+03  0.13295840919E+04  0.19182222688E+04  0.10100000352E+00 0. -1.
       -3    1    3    3    0  502 -0.11110865701E+04  0.82296381353E+03 -0.35343842388E+03  0.14271305247E+04  0.10100000352E+00 0.  1.
</event>
<event>
 5   0  0.9707721E-08  0.3201129E+04  0.7818609E-02  0.8188519E-01
       -2   -1    0    0    0  501  0.00000000000E+00  0.00000000000E+00  0.17256971486E+04  0.17256971486E+04  0.25500000920E-02 0. -1.
        2   -1    0    0  501    0  0.00000000000E+00  0.00000000000E+00 -0.14845053777E+04  0.14845053777E+04  0.25500000920E-02 0.  1.
    10030    2    1    2    0    0  0.00000000000E+00  0.00000000000E+00  0.24119177088E+03  0.32102025264E+04  0.32011289868E+04 0.  0.
        3    1    3    3  502    0 -0.45161342218E+03 -0.42132150840E+03 -0.13601870069E+04  0.14938457754E+04  0.10100000352E+00 0.  1.
       -3    1    3    3    0  502  0.45161342218E+03  0.42132150840E+03  0.16013787778E+04  0.17163567510E+04  0.10100000352E+00 0. -1.
</event>
<event>
 5   0  0.3343140E-08  0.3200183E+04  0.7818609E-02  0.8188769E-01
       -1   -1    0    0    0  501  0.00000000000E+00  0.00000000000E+00  0.19092006071E+04  0.19092006071E+04  0.50400001928E-02 0. -1.
        1   -1    0    0  501    0  0.00000000000E+00  0.00000000000E+00 -0.13410289465E+04  0.13410289465E+04  0.50400001928E-02 0.  1.
    10030    2    1    2    0    0  0.00000000000E+00  0.00000000000E+00  0.56817166059E+03  0.32502295537E+04  0.32001832941E+04 0.  0.
        1    1    3    3  502    0  0.65451323584E+03 -0.10704802619E+04 -0.72440680279E+03  0.14488204799E+04  0.50400001928E-02 0.  1.
       -1    1    3    3    0  502 -0.65451323584E+03  0.10704802619E+04  0.12925784634E+04  0.18014090738E+04  0.50400001928E-02 0. -1.
</event>
<event>
 5   0  0.9353994E-08  0.3200594E+04  0.7818609E-02  0.8188660E-01
        2   -1    0    0  501    0  0.00000000000E+00  0.00000000000E+00  0.15486242280E+04  0.15486242280E+04  0.25500000920E-02 0. -1.
       -2   -1    0    0    0  501  0.00000000000E+00  0.00000000000E+00 -0.16536938530E+04  0.16536938530E+04  0.25500000920E-02 0.  1.
    10030    2    1    2    0    0  0.00000000000E+00  0.00000000000E+00 -0.10506962503E+03  0.32023180810E+04  0.32005939239E+04 0.  0.
        2    1    3    3  502    0  0.12822616508E+04  0.95587750898E+03 -0.10782408781E+03  0.16029731087E+04  0.25500000920E-02 0. -1.
       -2    1    3    3    0  502 -0.12822616508E+04 -0.95587750898E+03  0.27544627778E+01  0.15993449723E+04  0.25500000920E-02 0.  1.
</event>
<event>
 5   0  0.3220147E-08  0.3202928E+04  0.7818609E-02  0.8188044E-01
       -1   -1    0    0    0  501  0.00000000000E+00  0.00000000000E+00  0.13568168016E+04  0.13568168016E+04  0.50400001928E-02 0.  1.
        1   -1    0    0  501    0  0.00000000000E+00  0.00000000000E+00 -0.18902236389E+04  0.18902236389E+04  0.50400001928E-02 0. -1.
    10030    2    1    2    0    0  0.00000000000E+00  0.00000000000E+00 -0.53340683732E+03  0.32470404405E+04  0.32029281553E+04 0.  0.
        4    1    3    3  502    0 -0.13133198372E+04 -0.50747085445E+03  0.50692516791E+03  0.14964325584E+04  0.12699999809E+01 0.  1.
       -4    1    3    3    0  502  0.13133198372E+04  0.50747085445E+03 -0.10403320052E+04  0.17506078821E+04  0.12699999809E+01 0. -1.
</event>
<event>
 5   0  0.3343140E-08  0.3200244E+04  0.7818609E-02  0.8188753E-01
        1   -1    0    0  501    0  0.00000000000E+00  0.00000000000E+00  0.16554740500E+04  0.16554740500E+04  0.50400001928E-02 0.  1.
       -1   -1    0    0    0  501  0.00000000000E+00  0.00000000000E+00 -0.15466207653E+04  0.15466207654E+04  0.50400001928E-02 0. -1.
    10030    2    1    2    0    0  0.00000000000E+00  0.00000000000E+00  0.10885328469E+03  0.32020948154E+04  0.32002440796E+04 0.  0.
        1    1    3    3  502    0 -0.34753585493E+03 -0.13667048614E+04  0.81099035876E+03  0.16267663356E+04  0.50400001928E-02 0.  1.
       -1    1    3    3    0  502  0.34753585493E+03  0.13667048614E+04 -0.70213707406E+03  0.15753284798E+04  0.50400001928E-02 0. -1.
</event>
<event>
 5   0  0.3427667E-08  0.3205952E+04  0.7818609E-02  0.8187247E-01
       -1   -1    0    0    0  501  0.00000000000E+00  0.00000000000E+00  0.11040239061E+04  0.11040239061E+04  0.50400001928E-02 0. -1.
        1   -1    0    0  501    0  0.00000000000E+00  0.00000000000E+00 -0.23274248003E+04  0.23274248003E+04  0.50400001928E-02 0.  1.
    10030    2    1    2    0    0  0.00000000000E+00  0.00000000000E+00 -0.12234008942E+04  0.34314487064E+04  0.32059523509E+04 0.  0.
        2    1    3    3  502    0  0.44068402165E+03 -0.14195247905E+04  0.30750942509E+02  0.14866736892E+04  0.25500000920E-02 0. -1.
       -2    1    3    3    0  502 -0.44068402165E+03  0.14195247905E+04 -0.12541518367E+04  0.19447750171E+04  0.25500000920E-02 0.  1.
</event>
<event>
 5   0  0.3270966E-08  0.3199943E+04  0.7818609E-02  0.8188832E-01
        1   -1    0    0  501    0  0.00000000000E+00  0.00000000000E+00  0.24522999618E+04  0.24522999618E+04  0.50400001928E-02 0.  1.
       -1   -1    0    0    0  501  0.00000000000E+00  0.00000000000E+00 -0.10438810073E+04  0.10438810074E+04  0.50400001928E-02 0. -1.
    10030    2    1    2    0    0  0.00000000000E+00  0.00000000000E+00  0.14084189545E+04  0.34961809692E+04  0.31999433461E+04 0.  0.
        3    1    3    3  502    0 -0.91236195602E+03 -0.61170375117E+03  0.19752296136E+04  0.22601145667E+04  0.10100000352E+00 0.  1.
       -3    1    3    3    0  502  0.91236195602E+03  0.61170375117E+03 -0.56681065908E+03  0.12360664025E+04  0.10100000352E+00 0. -1.
</event>
<event>
 5   0  0.9727083E-08  0.3200531E+04  0.7818609E-02  0.8188677E-01
        2   -1    0    0  501    0  0.00000000000E+00  0.00000000000E+00  0.25820553489E+04  0.25820553489E+04  0.25500000920E-02 0.  1.
       -2   -1    0    0    0  501  0.00000000000E+00  0.00000000000E+00 -0.99178700274E+03  0.99178700275E+03  0.25500000920E-02 0. -1.
    10030    2    1    2    0    0  0.00000000000E+00  0.00000000000E+00  0.15902683461E+04  0.35738423516E+04  0.32005305406E+04 0.  0.
        4    1    3    3  502    0 -0.70467147517E+03 -0.55882758154E+03  0.22731535079E+04  0.24446019384E+04  0.12699999809E+01 0.  1.
       -4    1    3    3    0  502  0.70467147517E+03  0.55882758154E+03 -0.68288516177E+03  0.11292404132E+04  0.12699999809E+01 0. -1.
</event>
<event>
 5   0  0.9727083E-08  0.3204340E+04  0.7818609E-02  0.8187672E-01
       -2   -1    0    0    0  501  0.00000000000E+00  0.00000000000E+00  0.11408300866E+04  0.11408300866E+04  0.25500000920E-02 0. -1.
        2   -1    0    0  501    0  0.00000000000E+00  0.00000000000E+00 -0.22500712189E+04  0.22500712189E+04  0.25500000920E-02 0.  1.
    10030    2    1    2    0    0  0.00000000000E+00  0.00000000000E+00 -0.11092411323E+04  0.33909013055E+04  0.32043401465E+04 0.  0.
        4    1    3    3  502    0  0.87259889979E+03  0.11422498410E+04 -0.13034823542E+04  0.19404204183E+04  0.12699999809E+01 0. -1.
       -4    1    3    3    0  502 -0.87259889979E+03 -0.11422498410E+04  0.19424122184E+03  0.14504808873E+04  0.12699999809E+01 0.  1.
</event>
<event>
 5   0  0.3427667E-08  0.3192927E+04  0.7818609E-02  0.8190688E-01
        1   -1    0    0  501    0  0.00000000000E+00  0.00000000000E+00  0.14001023773E+04  0.14001023773E+04  0.50400001928E-02 0.  1.
       -1   -1    0    0    0  501  0.00000000000E+00  0.00000000000E+00 -0.18203642412E+04  0.18203642412E+04  0.50400001928E-02 0. -1.
    10030    2    1    2    0    0  0.00000000000E+00  0.00000000000E+00 -0.42026186392E+03  0.32204666185E+04  0.31929273726E+04 0.  0.
        2    1    3    3  502    0  0.13576160873E+04 -0.75104275021E+03 -0.58955317573E+03  0.16597468482E+04  0.25500000920E-02 0. -1.
       -2    1    3    3    0  502 -0.13576160873E+04  0.75104275021E+03  0.16929131181E+03  0.15607197703E+04  0.25500000920E-02 0.  1.
</event>
<event>
 5   0  0.9727083E-08  0.3201851E+04  0.7818609E-02  0.8188329E-01
       -2   -1    0    0    0  501  0.00000000000E+00  0.00000000000E+00  0.18452495244E+04  0.18452495244E+04  0.25500000920E-02 0. -1.
        2   -1    0    0  501    0  0.00000000000E+00  0.00000000000E+00 -0.13889514483E+04  0.13889514483E+04  0.25500000920E-02 0.  1.
    10030    2    1    2    0    0  0.00000000000E+00  0.00000000000E+00  0.45629807611E+03  0.32342009726E+04  0.32018507144E+04 0.  0.
        4    1    3    3  502    0 -0.15224672087E+04  0.45556095672E+03  0.42380222165E+03  0.16447042661E+04  0.12699999809E+01 0.  1.
       -4    1    3    3    0  502  0.15224672087E+04 -0.45556095672E+03  0.32495854464E+02  0.15894967066E+04  0.12699999809E+01 0. -1.
</event>
<event>
 5   0  0.9329929E-08  0.3200380E+04  0.7818609E-02  0.8188717E-01
       -2   -1    0    0    0  501  0.00000000000E+00  0.00000000000E+00  0.15104962670E+04  0.15104962670E+04  0.25500000920E-02 0. -1.
        2   -1    0    0  501    0  0.00000000000E+00  0.00000000000E+00 -0.16952095808E+04  0.16952095808E+04  0.25500000920E-02 0.  1.
    10030    2    1    2    0    0  0.00000000000E+00  0.00000000000E+00 -0.18471331374E+03  0.32057058478E+04  0.32003798172E+04 0.  0.
        1    1    3    3  502    0 -0.80917889018E+03 -0.20803649796E+03  0.12746702380E+04  0.15240846027E+04  0.50400001928E-02 0. -1.
       -1    1    3    3    0  502  0.80917889018E+03  0.20803649796E+03 -0.14593835517E+04  0.16816212450E+04  0.50400001928E-02 0.  1.
</event>
<event>
 5   0  0.9727083E-08  0.3199942E+04  0.7818609E-02  0.8188833E-01
       -2   -1    0    0    0  501  0.00000000000E+00  0.00000000000E+00  0.96901807806E+03  0.96901807806E+03  0.25500000920E-02 0. -1.
        2   -1    0    0  501    0  0.00000000000E+00  0.00000000000E+00 -0.26417530773E+04  0.26417530773E+04  0.25500000920E-02 0.  1.
    10030    2    1    2    0    0  0.00000000000E+00  0.00000000000E+00 -0.16727349992E+04  0.36107711554E+04  0.31999415555E+04 0.  0.
        4    1    3    3  502    0 -0.10152867054E+04 -0.10099790774E+04 -0.31297037567E+02  0.14324265945E+04  0.12699999809E+01 0. -1.
       -4    1    3    3    0  502  0.10152867054E+04  0.10099790774E+04 -0.16414379617E+04  0.21783445609E+04  0.12699999809E+01 0.  1.
</event>
<event>
 5   0  0.3283581E-08  0.3199614E+04  0.7818609E-02  0.8188919E-01
       -1   -1    0    0    0  501  0.00000000000E+00  0.00000000000E+00  0.16057032282E+04  0.16057032282E+04  0.50400001928E-02 0. -1.
        1   -1    0    0  501    0  0.00000000000E+00  0.00000000000E+00 -0.15939323606E+04  0.15939323606E+04  0.50400001928E-02 0.  1.
    10030    2    1    2    0    0  0.00000000000E+00  0.00000000000E+00  0.11770867650E+02  0.31996355888E+04  0.31996139373E+04 0.  0.
        5    1    3    3  502    0  0.49477995025E+03  0.95994194071E+03  0.11861749626E+04  0.16041598613E+04  0.46999998093E+01 0. -1.
       -5    1    3    3    0  502 -0.49477995025E+03 -0.95994194071E+03 -0.11744040950E+04  0.15954757275E+04  0.46999998093E+01 0.  1.
</event>
<event>
 5   0  0.9157524E-08  0.3200254E+04  0.7818609E-02  0.8188750E-01
       -2   -1    0    0    0  501  0.00000000000E+00  0.00000000000E+00  0.21008732199E+04  0.21008732199E+04  0.25500000920E-02 0. -1.
        2   -1    0    0  501    0  0.00000000000E+00  0.00000000000E+00 -0.12187344762E+04  0.12187344762E+04  0.25500000920E-02 0.  1.
    10030    2    1    2    0    0  0.00000000000E+00  0.00000000000E+00  0.88213874378E+03  0.33196076961E+04  0.32002541294E+04 0.  0.
        5    1    3    3  502    0 -0.10172143085E+04  0.58289861220E+03  0.15706683175E+04  0.19599787742E+04  0.46999998093E+01 0. -1.
       -5    1    3    3    0  502  0.10172143085E+04 -0.58289861220E+03 -0.68852957372E+03  0.13596289220E+04  0.46999998093E+01 0.  1.
</event>
<event>
 5   0  0.3283581E-08  0.3212660E+04  0.7818609E-02  0.8185482E-01
       -1   -1    0    0    0  501  0.00000000000E+00  0.00000000000E+00  0.11175592114E+04  0.11175592114E+04  0.50400001928E-02 0.  1.
        1   -1    0    0  501    0  0.00000000000E+00  0.00000000000E+00 -0.23088671703E+04  0.23088671703E+04  0.50400001928E-02 0. -1.
    10030    2    1    2    0    0  0.00000000000E+00  0.00000000000E+00 -0.11913079589E+04  0.34264263817E+04  0.32126598165E+04 0.  0.
        5    1    3    3  502    0  0.10502639614E+04 -0.11203502177E+04 -0.93094955620E+02  0.15384822910E+04  0.46999998093E+01 0.  1.
       -5    1    3    3    0  502 -0.10502639614E+04  0.11203502177E+04 -0.10982130033E+04  0.18879440907E+04  0.46999998093E+01 0. -1.
</event>
<event>
 5   0  0.3270966E-08  0.3200527E+04  0.7818609E-02  0.8188678E-01
       -1   -1    0    0    0  501  0.00000000000E+00  0.00000000000E+00  0.16180106616E+04  0.16180106616E+04  0.50400001928E-02 0.  1.
        1   -1    0    0  501    0  0.00000000000E+00  0.00000000000E+00 -0.15827108813E+04  0.15827108813E+04  0.50400001928E-02 0. -1.
    10030    2    1    2    0    0  0.00000000000E+00  0.00000000000E+00  0.35299780280E+02  0.32007215429E+04  0.32005268818E+04 0.  0.
        3    1    3    3  502    0 -0.15516974256E+04  0.14622698924E+03  0.38057117282E+03  0.16043633194E+04  0.10100000352E+00 0.  1.
       -3    1    3    3    0  502  0.15516974256E+04 -0.14622698924E+03 -0.34527139254E+03  0.15963582235E+04  0.10100000352E+00 0. -1.
</event>
<event>
 5   0  0.9707721E-08  0.3220403E+04  0.7818609E-02  0.8183449E-01
        2   -1    0    0  501    0  0.00000000000E+00  0.00000000000E+00  0.16288896761E+04  0.16288896761E+04  0.25500000920E-02 0. -1.
       -2   -1    0    0    0  501  0.00000000000E+00  0.00000000000E+00 -0.15917281833E+04  0.15917281833E+04  0.25500000920E-02 0.  1.
    10030    2    1    2    0    0  0.00000000000E+00  0.00000000000E+00  0.37161492769E+02  0.32206178594E+04  0.32204034561E+04 0.  0.
        3    1    3    3  502    0  0.48287560767E+02  0.33466326664E+03  0.15929848954E+04  0.16284753844E+04  0.10100000352E+00 0. -1.
       -3    1    3    3    0  502 -0.48287560767E+02 -0.33466326664E+03 -0.15558234026E+04  0.15921424750E+04  0.10100000352E+00 0.  1.
</event>
<event>
 5   0  0.3343140E-08  0.3201063E+04  0.7818609E-02  0.8188537E-01
       -1   -1    0    0    0  501  0.00000000000E+00  0.00000000000E+00  0.14749296973E+04  0.14749296973E+04  0.50400001928E-02 0.  1.
        1   -1    0    0  501    0  0.00000000000E+00  0.00000000000E+00 -0.17368291672E+04  0.17368291672E+04  0.50400001928E-02 0. -1.
    10030    2    1    2    0    0  0.00000000000E+00  0.00000000000E+00 -0.26189946986E+03  0.32117588645E+04  0.32010628972E+04 0.  0.
        1    1    3    3  502    0  0.79024858093E+02 -0.68942685454E+03  0.13161407759E+04  0.14878779715E+04  0.50400001928E-02 0.  1.
       -1    1    3    3    0  502 -0.79024858093E+02  0.68942685454E+03 -0.15780402458E+04  0.17238808930E+04  0.50400001928E-02 0. -1.
</event>
<event>
 5   0  0.3220147E-08  0.3198658E+04  0.7818609E-02  0.8189172E-01
        1   -1    0    0  501    0  0.00000000000E+00  0.00000000000E+00  0.99434965488E+03  0.99434965490E+03  0.50400001928E-02 0. -1.
       -1   -1    0    0    0  501  0.00000000000E+00  0.00000000000E+00 -0.25723879739E+04  0.25723879739E+04  0.50400001928E-02 0.  1.
    10030    2    1    2    0    0  0.00000000000E+00  0.00000000000E+00 -0.15780383190E+04  0.35667376288E+04  0.31986579023E+04 0.  0.
        4    1    3    3  502    0  0.81545521625E+03 -0.12391431568E+02 -0.23230983714E+04  0.24620943144E+04  0.12699999809E+01 0.  1.
       -4    1    3    3    0  502 -0.81545521625E+03  0.12391431568E+02  0.74506005239E+03  0.11046433143E+04  0.12699999809E+01 0. -1.
</event>
<event>
 5   0  0.3283581E-08  0.3200335E+04  0.7818609E-02  0.8188729E-01
       -1   -1    0    0    0  501  0.00000000000E+00  0.00000000000E+00  0.11524174920E+04  0.11524174920E+04  0.50400001928E-02 0.  1.
        1   -1    0    0  501    0  0.00000000000E+00  0.00000000000E+00 -0.22218819383E+04  0.22218819383E+04  0.50400001928E-02 0. -1.
    10030    2    1    2    0    0  0.00000000000E+00  0.00000000000E+00 -0.10694644464E+04  0.33742994303E+04  0.32003347393E+04 0.  0.
        5    1    3    3  502    0  0.66204396848E+03 -0.69683897230E+03  0.81411584931E+03  0.12596402167E+04  0.46999998093E+01 0.  1.
       -5    1    3    3    0  502 -0.66204396848E+03  0.69683897230E+03 -0.18835802957E+04  0.21146592136E+04  0.46999998093E+01 0. -1.
</event>
<event>
 5   0  0.3343140E-08  0.3199000E+04  0.7818609E-02  0.8189081E-01
        1   -1    0    0  501    0  0.00000000000E+00  0.00000000000E+00  0.16234231627E+04  0.16234231628E+04  0.50400001928E-02 0. -1.
       -1   -1    0    0    0  501  0.00000000000E+00  0.00000000000E+00 -0.15759293938E+04  0.15759293939E+04  0.50400001928E-02 0.  1.
    10030    2    1    2    0    0  0.00000000000E+00  0.00000000000E+00  0.47493768903E+02  0.31993525566E+04  0.31990000193E+04 0.  0.
        1    1    3    3  502    0 -0.70949753976E+03 -0.34510321370E+02 -0.14095274287E+04  0.15783995988E+04  0.50400001928E-02 0.  1.
       -1    1    3    3    0  502  0.70949753976E+03  0.34510321370E+02  0.14570211976E+04  0.16209529578E+04  0.50400001928E-02 0. -1.
</event>
<event>
 5   0  0.3343140E-08  0.3198233E+04  0.7818609E-02  0.8189284E-01
        1   -1    0    0  501    0  0.00000000000E+00  0.00000000000E+00  0.22509578645E+04  0.22509578645E+04  0.50400001928E-02 0. -1.
       -1   -1    0    0    0  501  0.00000000000E+00  0.00000000000E+00 -0.11360379132E+04  0.11360379132E+04  0.50400001928E-02 0.  1.
    10030    2    1    2    0    0  0.00000000000E+00  0.00000000000E+00  0.11149199513E+04  0.33869957776E+04  0.31982329340E+04 0.  0.
        1    1    3    3  502    0 -0.35715712211E+03 -0.12930056421E+04  0.14793246152E+04  0.19969542101E+04  0.50400001928E-02 0. -1.
       -1    1    3    3    0  502  0.35715712211E+03  0.12930056421E+04 -0.36440466390E+03  0.13900415675E+04  0.50400001928E-02 0.  1.
</event>
<event>
 5   0  0.9727083E-08  0.3199207E+04  0.7818609E-02  0.8189027E-01
       -2   -1    0    0    0  501  0.00000000000E+00  0.00000000000E+00  0.10143166783E+04  0.10143166783E+04  0.25500000920E-02 0. -1.
        2   -1    0    0  501    0  0.00000000000E+00  0.00000000000E+00 -0.25226164876E+04  0.25226164876E+04  0.25500000920E-02 0.  1.
    10030    2    1    2    0    0  0.00000000000E+00  0.00000000000E+00 -0.15082998093E+04  0.35369331659E+04  0.31992073871E+04 0.  0.
        4    1    3    3  502    0 -0.62240115523E+03  0.11964301602E+04  0.19683050624E+03  0.13629277998E+04  0.12699999809E+01 0. -1.
       -4    1    3    3    0  502  0.62240115523E+03 -0.11964301602E+04 -0.17051303155E+04  0.21740053662E+04  0.12699999809E+01 0.  1.
</event>
<event>
 5   0  0.3220147E-08  0.3201102E+04  0.7818609E-02  0.8188526E-01
        1   -1    0    0  501    0  0.00000000000E+00  0.00000000000E+00  0.21167333519E+04  0.21167333520E+04  0.50400001928E-02 0. -1.
       -1   -1    0    0    0  501  0.00000000000E+00  0.00000000000E+00 -0.12102441037E+04  0.12102441037E+04  0.50400001928E-02 0.  1.
    10030    2    1    2    0    0  0.00000000000E+00  0.00000000000E+00  0.90648924829E+03  0.33269774556E+04  0.32011023465E+04 0.  0.
        4    1    3    3  502    0 -0.15841987193E+04  0.11978681493E+03  0.25136983458E+03  0.16084846502E+04  0.12699999809E+01 0.  1.
       -4    1    3    3    0  502  0.15841987193E+04 -0.11978681493E+03  0.65511941371E+03  0.17184928054E+04  0.12699999809E+01 0. -1.
</event>
<event>
 5   0  0.3343140E-08  0.3189729E+04  0.7818609E-02  0.8191535E-01
        1   -1    0    0  501    0  0.00000000000E+00  0.00000000000E+00  0.13278286093E+04  0.13278286093E+04  0.50400001928E-02 0. -1.
       -1   -1    0    0    0  501  0.00000000000E+00  0.00000000000E+00 -0.19156029785E+04  0.19156029785E+04  0.50400001928E-02 0.  1.
    10030    2    1    2    0    0  0.00000000000E+00  0.00000000000E+00 -0.58777436926E+03  0.32434315878E+04  0.31897287903E+04 0.  0.
        1    1    3    3  502    0 -0.10102167771E+03 -0.15266957873E+04 -0.75156177899E+03  0.17046555411E+04  0.50400001928E-02 0. -1.
       -1    1    3    3    0  502  0.10102167771E+03  0.15266957873E+04  0.16378740973E+03  0.15387760467E+04  0.50400001928E-02 0.  1.
</event>
<event>
 5   0  0.3270966E-08  0.3198827E+04  0.7818609E-02  0.8189127E-01
       -1   -1    0    0    0  501  0.00000000000E+00  0.00000000000E+00  0.11990596355E+04  0.11990596355E+04  0.50400001928E-02 0.  1.
        1   -1    0    0  501    0  0.00000000000E+00  0.00000000000E+00 -0.21334416388E+04  0.21334416388E+04  0.50400001928E-02 0. -1.
    10030    2    1    2    0    0  0.00000000000E+00  0.00000000000E+00 -0.93438200333E+03  0.33325012743E+04  0.31988271312E+04 0.  0.
        3    1    3    3  502    0 -0.11430160338E+04 -0.63587294591E+03  0.49176592694E+03  0.13973738919E+04  0.10100000352E+00 0. -1.
       -3    1    3    3    0  502  0.11430160338E+04  0.63587294591E+03 -0.14261479303E+04  0.19351273824E+04  0.10100000352E+00 0.  1.
</event>
<event>
 5   0  0.3270966E-08  0.3204117E+04  0.7818609E-02  0.8187731E-01
        1   -1    0    0  501    0  0.00000000000E+00  0.00000000000E+00  0.13947332007E+04  0.13947332007E+04  0.50400001928E-02 0. -1.
       -1   -1    0    0    0  501  0.00000000000E+00  0.00000000000E+00 -0.18402026190E+04  0.18402026190E+04  0.50400001928E-02 0.  1.
    10030    2    1    2    0    0  0.00000000000E+00  0.00000000000E+00 -0.44546941829E+03  0.32349358197E+04  0.32041171569E+04 0.  0.
        3    1    3    3  502    0 -0.41246533230E+03  0.54512505037E+03 -0.16855679291E+04  0.18189085256E+04  0.10100000352E+00 0.  1.
       -3    1    3    3    0  502  0.41246533230E+03 -0.54512505037E+03  0.12400985108E+04  0.14160272941E+04  0.10100000352E+00 0. -1.
</event>
<event>
 5   0  0.9727083E-08  0.3199450E+04  0.7818609E-02  0.8188962E-01
        2   -1    0    0  501    0  0.00000000000E+00  0.00000000000E+00  0.25525172175E+04  0.25525172176E+04  0.25500000920E-02 0.  1.
       -2   -1    0    0    0  501  0.00000000000E+00  0.00000000000E+00 -0.10025868314E+04  0.10025868314E+04  0.25500000920E-02 0. -1.
    10030    2    1    2    0    0  0.00000000000E+00  0.00000000000E+00  0.15499303862E+04  0.35551040489E+04  0.31994500460E+04 0.  0.
        4    1    3    3  502    0  0.12959591170E+03  0.15930133107E+04  0.85058970076E+03  0.18105222894E+04  0.12699999809E+01 0.  1.
       -4    1    3    3    0  502 -0.12959591170E+03 -0.15930133107E+04  0.69934068540E+03  0.17445817595E+04  0.12699999809E+01 0. -1.
</event>
<event>
 5   0  0.3427667E-08  0.3204982E+04  0.7818609E-02  0.8187503E-01
        1   -1    0    0  501    0  0.00000000000E+00  0.00000000000E+00  0.19498972782E+04  0.19498972782E+04  0.50400001928E-02 0. -1.
       -1   -1    0    0    0  501  0.00000000000E+00  0.00000000000E+00 -0.13169809858E+04  0.13169809858E+04  0.50400001928E-02 0.  1.
    10030    2    1    2    0    0  0.00000000000E+00  0.00000000000E+00  0.63291629238E+03  0.32668782641E+04  0.32049821465E+04 0.  0.
        2    1    3    3  502    0  0.84279382993E+02 -0.10157749690E+04  0.15768971959E+04  0.18776332359E+04  0.25500000920E-02 0. -1.
       -2    1    3    3    0  502 -0.84279382993E+02  0.10157749690E+04 -0.94398090357E+03  0.13892450282E+04  0.25500000920E-02 0.  1.
</event>
<event>
 5   0  0.3220147E-08  0.3199154E+04  0.7818609E-02  0.8189041E-01
       -1   -1    0    0    0  501  0.00000000000E+00  0.00000000000E+00  0.20160075737E+04  0.20160075737E+04  0.50400001928E-02 0.  1.
        1   -1    0    0  501    0  0.00000000000E+00  0.00000000000E+00 -0.12691648296E+04  0.12691648296E+04  0.50400001928E-02 0. -1.
    10030    2    1    2    0    0  0.00000000000E+00  0.00000000000E+00  0.74684274405E+03  0.32851724033E+04  0.31991535811E+04 0.  0.
        4    1    3    3  502    0  0.91352065317E+03  0.12784967907E+04  0.66091331106E+02  0.15727185713E+04  0.12699999809E+01 0.  1.
       -4    1    3    3    0  502 -0.91352065317E+03 -0.12784967907E+04  0.68075141294E+03  0.17124538320E+04  0.12699999809E+01 0. -1.
</event>
<event>
 5   0  0.9727083E-08  0.3197931E+04  0.7818609E-02  0.8189364E-01
       -2   -1    0    0    0  501  0.00000000000E+00  0.00000000000E+00  0.22234826343E+04  0.22234826343E+04  0.25500000920E-02 0.  1.
        2   -1    0    0  501    0  0.00000000000E+00  0.00000000000E+00 -0.11498585391E+04  0.11498585391E+04  0.25500000920E-02 0. -1.
    10030    2    1    2    0    0  0.00000000000E+00  0.00000000000E+00  0.10736240952E+04  0.33733411733E+04  0.31979308895E+04 0.  0.
        4    1    3    3  502    0  0.10313482267E+04 -0.87692028105E+02 -0.74877409326E+03  0.12775105918E+04  0.12699999809E+01 0. -1.
       -4    1    3    3    0  502 -0.10313482267E+04  0.87692028105E+02  0.18223981885E+04  0.20958305816E+04  0.12699999809E+01 0.  1.
</event>
<event>
 5   0  0.9157524E-08  0.3199082E+04  0.7818609E-02  0.8189060E-01
       -2   -1    0    0    0  501  0.00000000000E+00  0.00000000000E+00  0.10730771815E+04  0.10730771815E+04  0.25500000920E-02 0. -1.
        2   -1    0    0  501    0  0.00000000000E+00  0.00000000000E+00 -0.23842937153E+04  0.23842937153E+04  0.25500000920E-02 0.  1.
    10030    2    1    2    0    0  0.00000000000E+00  0.00000000000E+00 -0.13112165338E+04  0.34573708969E+04  0.31990818558E+04 0.  0.
        5    1    3    3  502    0  0.12961929422E+04  0.92934778137E+03 -0.52455051921E+03  0.16789814708E+04  0.46999998093E+01 0. -1.
       -5    1    3    3    0  502 -0.12961929422E+04 -0.92934778137E+03 -0.78666601459E+03  0.17783894260E+04  0.46999998093E+01 0.  1.
</event>
<event>
 5   0  0.3220147E-08  0.3199966E+04  0.7818609E-02  0.8188826E-01
        1   -1    0    0  501    0  0.00000000000E+00  0.00000000000E+00  0.25449241677E+04  0.25449241677E+04  0.50400001928E-02 0.  1.
       -1   -1    0    0    0  501  0.00000000000E+00  0.00000000000E+00 -0.10059024419E+04  0.10059024419E+04  0.50400001928E-02 0. -1.
    10030    2    1    2    0    0  0.00000000000E+00  0.00000000000E+00  0.15390217257E+04  0.35508266096E+04  0.31999658966E+04 0.  0.
        4    1    3    3  502    0  0.39157651797E+03  0.10862768614E+04 -0.45945017838E+03  0.12427492380E+04  0.12699999809E+01 0. -1.
       -4    1    3    3    0  502 -0.39157651797E+03 -0.10862768614E+04  0.19984719041E+04  0.23080773717E+04  0.12699999809E+01 0.  1.
</event>
<event>
 5   0  0.9727083E-08  0.3199903E+04  0.7818609E-02  0.8188843E-01
        2   -1    0    0  501    0  0.00000000000E+00  0.00000000000E+00  0.16568121444E+04  0.16568121444E+04  0.25500000920E-02 0.  1.
       -2   -1    0    0    0  501  0.00000000000E+00  0.00000000000E+00 -0.15450423197E+04  0.15450423197E+04  0.25500000920E-02 0. -1.
    10030    2    1    2    0    0  0.00000000000E+00  0.00000000000E+00  0.11176982472E+03  0.32018544641E+04  0.31999030478E+04 0.  0.
        4    1    3    3  502    0  0.43559903429E+03 -0.15116975855E+04 -0.23561242720E+03  0.15907516894E+04  0.12699999809E+01 0. -1.
       -4    1    3    3    0  502 -0.43559903429E+03  0.15116975855E+04  0.34738225191E+03  0.16111027746E+04  0.12699999809E+01 0.  1.
</event>
<event>
 5   0  0.9707721E-08  0.3202692E+04  0.7818609E-02  0.8188107E-01
        2   -1    0    0  501    0  0.00000000000E+00  0.00000000000E+00  0.22129087298E+04  0.22129087298E+04  0.25500000920E-02 0.  1.
       -2   -1    0    0    0  501  0.00000000000E+00  0.00000000000E+00 -0.11587954338E+04  0.11587954338E+04  0.25500000920E-02 0. -1.
    10030    2    1    2    0    0  0.00000000000E+00  0.00000000000E+00  0.10541132961E+04  0.33717041636E+04  0.32026917001E+04 0.  0.
        3    1    3    3  502    0 -0.94294823888E+03  0.34584933156E+03  0.18400897369E+04  0.20963524015E+04  0.10100000352E+00 0.  1.
       -3    1    3    3    0  502  0.94294823888E+03 -0.34584933156E+03 -0.78597644081E+03  0.12753517621E+04  0.10100000352E+00 0. -1.
</event>
<event>
 5   0  0.3283581E-08  0.3195620E+04  0.7818609E-02  0.8189975E-01
       -1   -1    0    0    0  501  0.00000000000E+00  0.00000000000E+00  0.82963483138E+03  0.82963483139E+03  0.50400001928E-02 0. -1.
        1   -1    0    0  501    0  0.00000000000E+00  0.00000000000E+00 -0.30772541269E+04  0.30772541269E+04  0.50400001928E-02 0.  1.
    10030    2    1    2    0    0  0.00000000000E+00  0.00000000000E+00 -0.22476192955E+04  0.39068889583E+04  0.31956202582E+04 0.  0.
        5    1    3    3  502    0 -0.45304745791E+03  0.50295408457E+03 -0.28932791037E+04  0.29714139516E+04  0.46999998093E+01 0.  1.
       -5    1    3    3    0  502  0.45304745791E+03 -0.50295408457E+03  0.64565980812E+03  0.93547500668E+03  0.46999998093E+01 0. -1.
</event>
<event>
 5   0  0.9353994E-08  0.3199656E+04  0.7818609E-02  0.8188908E-01
        2   -1    0    0  501    0  0.00000000000E+00  0.00000000000E+00  0.16363067791E+04  0.16363067791E+04  0.25500000920E-02 0.  1.
       -2   -1    0    0    0  501  0.00000000000E+00  0.00000000000E+00 -0.15641628000E+04  0.15641628000E+04  0.25500000920E-02 0. -1.
    10030    2    1    2    0    0  0.00000000000E+00  0.00000000000E+00  0.72143979023E+02  0.32004695791E+04  0.31996563524E+04 0.  0.
        2    1    3    3  502    0  0.24948477128E+03 -0.69775916624E+03  0.14542968365E+04  0.16322039682E+04  0.25500000920E-02 0.  1.
       -2    1    3    3    0  502 -0.24948477128E+03  0.69775916624E+03 -0.13821528574E+04  0.15682656109E+04  0.25500000920E-02 0. -1.
</event>
<event>
 5   0  0.3080500E-08  0.3201228E+04  0.7818609E-02  0.8188493E-01
        3   -1    0    0  501    0  0.00000000000E+00  0.00000000000E+00  0.24267969387E+04  0.24267969408E+04  0.10100000352E+00 0.  1.
       -3   -1    0    0    0  501  0.00000000000E+00  0.00000000000E+00 -0.10556982610E+04  0.10556982659E+04  0.10100000352E+00 0. -1.
    10030    2    1    2    0    0  0.00000000000E+00  0.00000000000E+00  0.13710986776E+04  0.34824952066E+04  0.32012280894E+04 0.  0.
        4    1    3    3  502    0 -0.82286949657E+03 -0.13739986485E+03 -0.80047638455E+03  0.11561820732E+04  0.12699999809E+01 0. -1.
       -4    1    3    3    0  502  0.82286949657E+03  0.13739986485E+03  0.21715750622E+04  0.23263131335E+04  0.12699999809E+01 0.  1.
</event>
<event>
 5   0  0.9353994E-08  0.3198418E+04  0.7818609E-02  0.8189235E-01
       -2   -1    0    0    0  501  0.00000000000E+00  0.00000000000E+00  0.14512095154E+04  0.14512095154E+04  0.25500000920E-02 0. -1.
        2   -1    0    0  501    0  0.00000000000E+00  0.00000000000E+00 -0.17623017077E+04  0.17623017077E+04  0.25500000920E-02 0.  1.
    10030    2    1    2    0    0  0.00000000000E+00  0.00000000000E+00 -0.31109219227E+03  0.32135112231E+04  0.31984177383E+04 0.  0.
        2    1    3    3  502    0 -0.91916859342E+03  0.46565310853E+03  0.10732402038E+04  0.14877998036E+04  0.25500000920E-02 0. -1.
       -2    1    3    3    0  502  0.91916859342E+03 -0.46565310853E+03 -0.13843323960E+04  0.17257114195E+04  0.25500000920E-02 0.  1.
</event>
<event>
 5   0  0.3270966E-08  0.3201015E+04  0.7818609E-02  0.8188549E-01
        1   -1    0    0  501    0  0.00000000000E+00  0.00000000000E+00  0.18770005119E+04  0.18770005119E+04  0.50400001928E-02 0.  1.
       -1   -1    0    0    0  501  0.00000000000E+00  0.00000000000E+00 -0.13647432058E+04  0.13647432058E+04  0.50400001928E-02 0. -1.
    10030    2    1    2    0    0  0.00000000000E+00  0.00000000000E+00  0.51225730617E+03  0.32417437177E+04  0.32010146491E+04 0.  0.
        3    1    3    3  502    0 -0.22724300691E+03  0.15736887419E+04  0.70802839794E+02  0.15915868474E+04  0.10100000352E+00 0. -1.
       -3    1    3    3    0  502  0.22724300691E+03 -0.15736887419E+04  0.44145446638E+03  0.16501568703E+04  0.10100000352E+00 0.  1.
</event>
<event>
 5   0  0.9707721E-08  0.3199936E+04  0.7818609E-02  0.8188834E-01
       -2   -1    0    0    0  501  0.00000000000E+00  0.00000000000E+00  0.12979853773E+04  0.12979853773E+04  0.25500000920E-02 0.  1.
        2   -1    0    0  501    0  0.00000000000E+00  0.00000000000E+00 -0.19722079353E+04  0.19722079353E+04  0.25500000920E-02 0. -1.
    10030    2    1    2    0    0  0.00000000000E+00  0.00000000000E+00 -0.67422255801E+03  0.32701933125E+04  0.31999356624E+04 0.  0.
        3    1    3    3  502    0 -0.62364300202E+03 -0.14725152252E+04 -0.38987200961E+03  0.16459744458E+04  0.10100000352E+00 0. -1.
       -3    1    3    3    0  502  0.62364300202E+03  0.14725152252E+04 -0.28435054840E+03  0.16242188667E+04  0.10100000352E+00 0.  1.
</event>
<event>
 5   0  0.3220147E-08  0.3200492E+04  0.7818609E-02  0.8188687E-01
       -1   -1    0    0    0  501  0.00000000000E+00  0.00000000000E+00  0.18034197042E+04  0.18034197043E+04  0.50400001928E-02 0. -1.
        1   -1    0    0  501    0  0.00000000000E+00  0.00000000000E+00 -0.14199617551E+04  0.14199617551E+04  0.50400001928E-02 0.  1.
    10030    2    1    2    0    0  0.00000000000E+00  0.00000000000E+00  0.38345794913E+03  0.32233814594E+04  0.32004918425E+04 0.  0.
        4    1    3    3  502    0 -0.88521856872E+03 -0.66675131461E+02 -0.11492316324E+04  0.14521681877E+04  0.12699999809E+01 0.  1.
       -4    1    3    3    0  502  0.88521856872E+03  0.66675131461E+02  0.15326895815E+04  0.17712132717E+04  0.12699999809E+01 0. -1.
</event>
<event>
 5   0  0.3343140E-08  0.3201287E+04  0.7818609E-02  0.8188477E-01
       -1   -1    0    0    0  501  0.00000000000E+00  0.00000000000E+00  0.17056891373E+04  0.17056891373E+04  0.50400001928E-02 0. -1.
        1   -1    0    0  501    0  0.00000000000E+00  0.00000000000E+00 -0.15020674093E+04  0.15020674093E+04  0.50400001928E-02 0.  1.
    10030    2    1    2    0    0  0.00000000000E+00  0.00000000000E+00  0.20362172803E+03  0.32077565466E+04  0.32012872808E+04 0.  0.
        1    1    3    3  502    0  0.14910925100E+04 -0.57356449631E+03  0.29862128748E+01  0.15976050896E+04  0.50400001928E-02 0. -1.
       -1    1    3    3    0  502 -0.14910925100E+04  0.57356449631E+03  0.20063551516E+03  0.16101514571E+04  0.50400001928E-02 0.  1.
</event>
<event>
 5   0  0.9353994E-08  0.3200537E+04  0.7818609E-02  0.8188675E-01
        2   -1    0    0  501    0  0.00000000000E+00  0.00000000000E+00  0.18935960266E+04  0.18935960266E+04  0.25500000920E-02 0.  1.
       -2   -1    0    0    0  501  0.00000000000E+00  0.00000000000E+00 -0.13523786268E+04  0.13523786268E+04  0.25500000920E-02 0. -1.
    10030    2    1    2    0    0  0.00000000000E+00  0.00000000000E+00  0.54121739975E+03  0.32459746534E+04  0.32005367013E+04 0.  0.
        2    1    3    3  502    0 -0.11783196109E+04 -0.18151042708E+03  0.13532256881E+04  0.18034974088E+04  0.25500000920E-02 0.  1.
       -2    1    3    3    0  502  0.11783196109E+04  0.18151042708E+03 -0.81200828836E+03  0.14424772445E+04  0.25500000920E-02 0. -1.
</event>
<event>
 5   0  0.3270966E-08  0.3201563E+04  0.7818609E-02  0.8188404E-01
       -1   -1    0    0    0  501  0.00000000000E+00  0.00000000000E+00  0.12054448574E+04  0.12054448574E+04  0.50400001928E-02 0. -1.
        1   -1    0    0  501    0  0.00000000000E+00  0.00000000000E+00 -0.21257725393E+04  0.21257725393E+04  0.50400001928E-02 0.  1.
    10030    2    1    2    0    0  0.00000000000E+00  0.00000000000E+00 -0.92032768183E+03  0.33312173967E+04  0.32015631029E+04 0.  0.
        3    1    3    3  502    0  0.12977734055E+03 -0.14868139059E+04  0.14210682809E+03  0.14992171656E+04  0.10100000352E+00 0. -1.
       -3    1    3    3    0  502 -0.12977734055E+03  0.14868139059E+04 -0.10624345099E+04  0.18320002311E+04  0.10100000352E+00 0.  1.
</event>
<event>
 5   0  0.9727083E-08  0.3200556E+04  0.7818609E-02  0.8188670E-01
       -2   -1    0    0    0  501  0.00000000000E+00  0.00000000000E+00  0.25906845829E+04  0.25906845829E+04  0.25500000920E-02 0.  1.
        2   -1    0    0  501    0  0.00000000000E+00  0.00000000000E+00 -0.98849901609E+03  0.98849901609E+03  0.25500000920E-02 0. -1.
    10030    2    1    2    0    0  0.00000000000E+00  0.00000000000E+00  0.16021855668E+04  0.35791835989E+04  0.32005556775E+04 0.  0.
        4    1    3    3  502    0  0.63052215022E+03 -0.15409508829E+03 -0.83468109203E+03  0.10573540639E+04  0.12699999809E+01 0. -1.
       -4    1    3    3    0  502 -0.63052215022E+03  0.15409508829E+03  0.24368666588E+04  0.25218295350E+04  0.12699999809E+01 0.  1.
</event>
<event>
 5   0  0.9707721E-08  0.3198090E+04  0.7818609E-02  0.8189322E-01
       -2   -1    0    0    0  501  0.00000000000E+00  0.00000000000E+00  0.14593261522E+04  0.14593261522E+04  0.25500000920E-02 0. -1.
        2   -1    0    0  501    0  0.00000000000E+00  0.00000000000E+00 -0.17521407218E+04  0.17521407218E+04  0.25500000920E-02 0.  1.
    10030    2    1    2    0    0  0.00000000000E+00  0.00000000000E+00 -0.29281456957E+03  0.32114668740E+04  0.31980899160E+04 0.  0.
        3    1    3    3  502    0 -0.64951868805E+02  0.11611734748E+04  0.95563572391E+03  0.15052515507E+04  0.10100000352E+00 0. -1.
       -3    1    3    3    0  502  0.64951868805E+02 -0.11611734748E+04 -0.12484502935E+04  0.17062153233E+04  0.10100000352E+00 0.  1.
</event>
<event>
 5   0  0.9157524E-08  0.3199993E+04  0.7818609E-02  0.8188819E-01
       -2   -1    0    0    0  501  0.00000000000E+00  0.00000000000E+00  0.10946662147E+04  0.10946662147E+04  0.25500000920E-02 0.  1.
        2   -1    0    0  501    0  0.00000000000E+00  0.00000000000E+00 -0.23386026857E+04  0.23386026857E+04  0.25500000920E-02 0. -1.
    10030    2    1    2    0    0  0.00000000000E+00  0.00000000000E+00 -0.12439364709E+04  0.34332689004E+04  0.31999933436E+04 0.  0.
        5    1    3    3  502    0  0.65942117943E+03 -0.42838271442E+03 -0.21169667998E+04  0.22582999276E+04  0.46999998093E+01 0. -1.
       -5    1    3    3    0  502 -0.65942117943E+03  0.42838271442E+03  0.87303032884E+03  0.11749689728E+04  0.46999998093E+01 0.  1.
</event>
<event>
 5   0  0.3220147E-08  0.3203264E+04  0.7818609E-02  0.8187956E-01
       -1   -1    0    0    0  501  0.00000000000E+00  0.00000000000E+00  0.10644956102E+04  0.10644956103E+04  0.50400001928E-02 0. -1.
        1   -1    0    0  501    0  0.00000000000E+00  0.00000000000E+00 -0.24098031987E+04  0.24098031987E+04  0.50400001928E-02 0.  1.
    10030    2    1    2    0    0  0.00000000000E+00  0.00000000000E+00 -0.13453075885E+04  0.34742988090E+04  0.32032639146E+04 0.  0.
        4    1    3    3  502    0  0.60116294054E+03 -0.44338948620E+03  0.86399016616E+03  0.11421347283E+04  0.12699999809E+01 0. -1.
       -4    1    3    3    0  502 -0.60116294054E+03  0.44338948620E+03 -0.22092977546E+04  0.23321640806E+04  0.12699999809E+01 0.  1.
</event>
<event>
 5   0  0.3270966E-08  0.3198479E+04  0.7818609E-02  0.8189219E-01
        1   -1    0    0  501    0  0.00000000000E+00  0.00000000000E+00  0.14752121983E+04  0.14752121983E+04  0.50400001928E-02 0. -1.
       -1   -1    0    0    0  501  0.00000000000E+00  0.00000000000E+00 -0.17336940566E+04  0.17336940566E+04  0.50400001928E-02 0.  1.
    10030    2    1    2    0    0  0.00000000000E+00  0.00000000000E+00 -0.25848185824E+03  0.32089062549E+04  0.31984787762E+04 0.  0.
        3    1    3    3  502    0  0.64451040434E+03  0.14623937754E+04 -0.69234611244E+02  0.15996195351E+04  0.10100000352E+00 0. -1.
       -3    1    3    3    0  502 -0.64451040434E+03 -0.14623937754E+04 -0.18924724699E+03  0.16092867197E+04  0.10100000352E+00 0.  1.
</event>
<event>
 5   0  0.3283581E-08  0.3199826E+04  0.7818609E-02  0.8188863E-01
        1   -1    0    0  501    0  0.00000000000E+00  0.00000000000E+00  0.16189542436E+04  0.16189542436E+04  0.50400001928E-02 0.  1.
       -1   -1    0    0    0  501  0.00000000000E+00  0.00000000000E+00 -0.15810952806E+04  0.15810952806E+04  0.50400001928E-02 0. -1.
    10030    2    1    2    0    0  0.00000000000E+00  0.00000000000E+00  0.37858962966E+02  0.32000495242E+04  0.31998255666E+04 0.  0.
        5    1    3    3  502    0 -0.92302660016E+03 -0.85865560376E+03  0.10041031314E+04  0.16116800982E+04  0.46999998093E+01 0.  1.
       -5    1    3    3    0  502  0.92302660016E+03  0.85865560376E+03 -0.96624416843E+03  0.15883694260E+04  0.46999998093E+01 0. -1.
</event>
<event>
 5   0  0.9727083E-08  0.3199760E+04  0.7818609E-02  0.8188881E-01
        2   -1    0    0  501    0  0.00000000000E+00  0.00000000000E+00  0.24815433491E+04  0.24815433491E+04  0.25500000920E-02 0.  1.
       -2   -1    0    0    0  501  0.00000000000E+00  0.00000000000E+00 -0.10314614802E+04  0.10314614802E+04  0.25500000920E-02 0. -1.
    10030    2    1    2    0    0  0.00000000000E+00  0.00000000000E+00  0.14500818689E+04  0.35130048292E+04  0.31997602260E+04 0.  0.
        4    1    3    3  502    0  0.91264231520E+03 -0.13848153111E+03 -0.70960396427E+03  0.11643163354E+04  0.12699999809E+01 0. -1.
       -4    1    3    3    0  502 -0.91264231520E+03  0.13848153111E+03  0.21596858332E+04  0.23486884938E+04  0.12699999809E+01 0.  1.
</event>
<event>
 5   0  0.9329929E-08  0.3199904E+04  0.7818609E-02  0.8188843E-01
       -2   -1    0    0    0  501  0.00000000000E+00  0.00000000000E+00  0.12304459369E+04  0.12304459369E+04  0.25500000920E-02 0. -1.
        2   -1    0    0  501    0  0.00000000000E+00  0.00000000000E+00 -0.20804211052E+04  0.20804211052E+04  0.25500000920E-02 0.  1.
    10030    2    1    2    0    0  0.00000000000E+00  0.00000000000E+00 -0.84997516830E+03  0.33108670421E+04  0.31999035585E+04 0.  0.
        1    1    3    3  502    0  0.15581892464E+04 -0.30789215638E+03 -0.22570976670E+03  0.16042743551E+04  0.50400001928E-02 0.  1.
       -1    1    3    3    0  502 -0.15581892464E+04  0.30789215638E+03 -0.62426540160E+03  0.17065926870E+04  0.50400001928E-02 0. -1.
</event>
<event>
 5   0  0.9157524E-08  0.3200141E+04  0.7818609E-02  0.8188780E-01
        2   -1    0    0  501    0  0.00000000000E+00  0.00000000000E+00  0.12536008299E+04  0.12536008299E+04  0.25500000920E-02 0.  1.
       -2   -1    0    0    0  501  0.00000000000E+00  0.00000000000E+00 -0.20422979489E+04  0.20422979489E+04  0.25500000920E-02 0. -1.
    10030    2    1    2    0    0  0.00000000000E+00  0.00000000000E+00 -0.78869711901E+03  0.32958987788E+04  0.32001414991E+04 0.  0.
        5    1    3    3  502    0 -0.51208185965E+03  0.14410403120E+04 -0.87893715670E+03  0.17639097559E+04  0.46999998093E+01 0. -1.
       -5    1    3    3    0  502  0.51208185965E+03 -0.14410403120E+04  0.90240037689E+02  0.15319890228E+04  0.46999998093E+01 0.  1.
</event>
<event>
 5   0  0.9727083E-08  0.3198724E+04  0.7818609E-02  0.8189154E-01
        2   -1    0    0  501    0  0.00000000000E+00  0.00000000000E+00  0.80827966606E+03  0.80827966607E+03  0.25500000920E-02 0.  1.
       -2   -1    0    0    0  501  0.00000000000E+00  0.00000000000E+00 -0.31646958903E+04  0.31646958903E+04  0.25500000920E-02 0. -1.
    10030    2    1    2    0    0  0.00000000000E+00  0.00000000000E+00 -0.23564162242E+04  0.39729755564E+04  0.31987243316E+04 0.  0.
        4    1    3    3  502    0 -0.35677516721E+03  0.87104542956E+03 -0.27842268221E+04  0.29390354319E+04  0.12699999809E+01 0. -1.
       -4    1    3    3    0  502  0.35677516721E+03 -0.87104542956E+03  0.42781059790E+03  0.10339401244E+04  0.12699999809E+01 0.  1.
</event>
<event>
 5   0  0.9353994E-08  0.3198921E+04  0.7818609E-02  0.8189102E-01
       -2   -1    0    0    0  501  0.00000000000E+00  0.00000000000E+00  0.12336793423E+04  0.12336793423E+04  0.25500000920E-02 0. -1.
        2   -1    0    0  501    0  0.00000000000E+00  0.00000000000E+00 -0.20736943149E+04  0.20736943149E+04  0.25500000920E-02 0.  1.
    10030    2    1    2    0    0  0.00000000000E+00  0.00000000000E+00 -0.84001497259E+03  0.33073736572E+04  0.31989209671E+04 0.  0.
        2    1    3    3  502    0 -0.10505329579E+04  0.10457638786E+04  0.20122299022E+03  0.14959051698E+04  0.25500000920E-02 0. -1.
       -2    1    3    3    0  502  0.10505329579E+04 -0.10457638786E+04 -0.10412379628E+04  0.18114684873E+04  0.25500000920E-02 0.  1.
</event>
<event>
 5   0  0.9157524E-08  0.3198026E+04  0.7818609E-02  0.8189339E-01
       -2   -1    0    0    0  501  0.00000000000E+00  0.00000000000E+00  0.14237138200E+04  0.14237138200E+04  0.25500000920E-02 0. -1.
        2   -1    0    0  501    0  0.00000000000E+00  0.00000000000E+00 -0.17958959005E+04  0.17958959005E+04  0.25500000920E-02 0.  1.
    10030    2    1    2    0    0  0.00000000000E+00  0.00000000000E+00 -0.37218208056E+03  0.32196097205E+04  0.31980255239E+04 0.  0.
        5    1    3    3  502    0  0.59904343186E+03 -0.14553053506E+04 -0.47093707669E+03  0.16427326371E+04  0.46999998093E+01 0.  1.
       -5    1    3    3    0  502 -0.59904343186E+03  0.14553053506E+04  0.98754996124E+02  0.15768770834E+04  0.46999998093E+01 0. -1.
</event>
<event>
 5   0  0.9157524E-08  0.3197670E+04  0.7818609E-02  0.8189433E-01
        2   -1    0    0  501    0  0.00000000000E+00  0.00000000000E+00  0.15630445700E+04  0.15630445700E+04  0.25500000920E-02 0.  1.
       -2   -1    0    0    0  501  0.00000000000E+00  0.00000000000E+00 -0.16354447915E+04  0.16354447915E+04  0.25500000920E-02 0. -1.
    10030    2    1    2    0    0  0.00000000000E+00  0.00000000000E+00 -0.72400221432E+02  0.31984893615E+04  0.31976698397E+04 0.  0.
        5    1    3    3  502    0  0.57983958099E+03  0.51257350833E+03  0.13631957814E+04  0.15675682982E+04  0.46999998093E+01 0.  1.
       -5    1    3    3    0  502 -0.57983958099E+03 -0.51257350833E+03 -0.14355960029E+04  0.16309210632E+04  0.46999998093E+01 0. -1.
</event>
<event>
 5   0  0.3427667E-08  0.3193826E+04  0.7818609E-02  0.8190450E-01
        1   -1    0    0  501    0  0.00000000000E+00  0.00000000000E+00  0.19014110578E+04  0.19014110578E+04  0.50400001928E-02 0.  1.
       -1   -1    0    0    0  501  0.00000000000E+00  0.00000000000E+00 -0.13411783403E+04  0.13411783403E+04  0.50400001928E-02 0. -1.
    10030    2    1    2    0    0  0.00000000000E+00  0.00000000000E+00  0.56023271748E+03  0.32425893981E+04  0.31938261235E+04 0.  0.
        2    1    3    3  502    0 -0.18862027978E+03 -0.66364029290E+03  0.17422909366E+04  0.18739193569E+04  0.25500000920E-02 0.  1.
       -2    1    3    3    0  502  0.18862027978E+03  0.66364029290E+03 -0.11820582192E+04  0.13686700412E+04  0.25500000920E-02 0. -1.
</event>
<event>
 5   0  0.3427667E-08  0.3196898E+04  0.7818609E-02  0.8189637E-01
       -1   -1    0    0    0  501  0.00000000000E+00  0.00000000000E+00  0.10773681327E+04  0.10773681327E+04  0.50400001928E-02 0. -1.
        1   -1    0    0  501    0  0.00000000000E+00  0.00000000000E+00 -0.23715561182E+04  0.23715561182E+04  0.50400001928E-02 0.  1.
    10030    2    1    2    0    0  0.00000000000E+00  0.00000000000E+00 -0.12941879855E+04  0.34489242508E+04  0.31968978629E+04 0.  0.
        2    1    3    3  502    0 -0.60702631530E+03 -0.14547521402E+04 -0.36114327257E+03  0.16171608455E+04  0.25500000920E-02 0.  1.
       -2    1    3    3    0  502  0.60702631530E+03  0.14547521402E+04 -0.93304471293E+03  0.18317634053E+04  0.25500000920E-02 0. -1.
</event>
<event>
 5   0  0.3427667E-08  0.3199312E+04  0.7818609E-02  0.8188999E-01
       -1   -1    0    0    0  501  0.00000000000E+00  0.00000000000E+00  0.12265068138E+04  0.12265068138E+04  0.50400001928E-02 0. -1.
        1   -1    0    0  501    0  0.00000000000E+00  0.00000000000E+00 -0.20863304965E+04  0.20863304965E+04  0.50400001928E-02 0.  1.
    10030    2    1    2    0    0  0.00000000000E+00  0.00000000000E+00 -0.85982368268E+03  0.33128373102E+04  0.31993115320E+04 0.  0.
        2    1    3    3  502    0 -0.55752130920E+03  0.72656074606E+03  0.92818355492E+03  0.13039345227E+04  0.25500000920E-02 0. -1.
       -2    1    3    3    0  502  0.55752130920E+03 -0.72656074606E+03 -0.17880072376E+04  0.20089027875E+04  0.25500000920E-02 0.  1.
</event>
<event>
 5   0  0.3283581E-08  0.3202096E+04  0.7818609E-02  0.8188264E-01
        1   -1    0    0  501    0  0.00000000000E+00  0.00000000000E+00  0.28519446329E+04  0.28519446329E+04  0.50400001928E-02 0. -1.
       -1   -1    0    0    0  501  0.00000000000E+00  0.00000000000E+00 -0.89880915522E+03  0.89880915523E+03  0.50400001928E-02 0.  1.
    10030    2    1    2    0    0  0.00000000000E+00  0.00000000000E+00  0.19531354777E+04  0.37507537882E+04  0.32020955303E+04 0.  0.
        5    1    3    3  502    0  0.10360533660E+04 -0.12020932461E+04  0.12247629795E+04  0.20046199629E+04  0.46999998093E+01 0. -1.
       -5    1    3    3    0  502 -0.10360533660E+04  0.12020932461E+04  0.72837249819E+03  0.17461338253E+04  0.46999998093E+01 0.  1.
</event>
<event>
 5   0  0.9707721E-08  0.3201469E+04  0.7818609E-02  0.8188429E-01
       -2   -1    0    0    0  501  0.00000000000E+00  0.00000000000E+00  0.26425594893E+04  0.26425594893E+04  0.25500000920E-02 0.  1.
        2   -1    0    0  501    0  0.00000000000E+00  0.00000000000E+00 -0.96964767059E+03  0.96964767059E+03  0.25500000920E-02 0. -1.
    10030    2    1    2    0    0  0.00000000000E+00  0.00000000000E+00  0.16729118187E+04  0.36122071599E+04  0.32014694459E+04 0.  0.
        3    1    3    3  502    0 -0.14081656808E+04  0.56610167262E+03  0.14106136278E+04  0.20720117050E+04  0.10100000352E+00 0.  1.
       -3    1    3    3    0  502  0.14081656808E+04 -0.56610167262E+03  0.26229819088E+03  0.15401954549E+04  0.10100000352E+00 0. -1.
</event>
<event>
 5   0  0.3270966E-08  0.3204356E+04  0.7818609E-02  0.8187668E-01
       -1   -1    0    0    0  501  0.00000000000E+00  0.00000000000E+00  0.17074358739E+04  0.17074358739E+04  0.50400001928E-02 0. -1.
        1   -1    0    0  501    0  0.00000000000E+00  0.00000000000E+00 -0.15034086775E+04  0.15034086775E+04  0.50400001928E-02 0.  1.
    10030    2    1    2    0    0  0.00000000000E+00  0.00000000000E+00  0.20402719640E+03  0.32108445513E+04  0.32043557287E+04 0.  0.
        3    1    3    3  502    0  0.24659753597E+03 -0.13526227290E+04 -0.72219402883E+03  0.15530495218E+04  0.10100000352E+00 0.  1.
       -3    1    3    3    0  502 -0.24659753597E+03  0.13526227290E+04  0.92622122524E+03  0.16577950295E+04  0.10100000352E+00 0. -1.
</event>
<event>
 5   0  0.3427667E-08  0.3199934E+04  0.7818609E-02  0.8188835E-01
        1   -1    0    0  501    0  0.00000000000E+00  0.00000000000E+00  0.88645672666E+03  0.88645672667E+03  0.50400001928E-02 0.  1.
       -1   -1    0    0    0  501  0.00000000000E+00  0.00000000000E+00 -0.28877821407E+04  0.28877821407E+04  0.50400001928E-02 0. -1.
    10030    2    1    2    0    0  0.00000000000E+00  0.00000000000E+00 -0.20013254140E+04  0.37742388673E+04  0.31999336892E+04 0.  0.
        2    1    3    3  502    0  0.39783710293E+03 -0.19013486747E+03 -0.28147031615E+04  0.28490313293E+04  0.25500000920E-02 0. -1.
       -2    1    3    3    0  502 -0.39783710293E+03  0.19013486747E+03  0.81337774747E+03  0.92520753800E+03  0.25500000920E-02 0.  1.
</event>
<event>
 5   0  0.3283581E-08  0.3200543E+04  0.7818609E-02  0.8188674E-01
       -1   -1    0    0    0  501  0.00000000000E+00  0.00000000000E+00  0.14982908070E+04  0.14982908070E+04  0.50400001928E-02 0. -1.
        1   -1    0    0  501    0  0.00000000000E+00  0.00000000000E+00 -0.17091937874E+04  0.17091937875E+04  0.50400001928E-02 0.  1.
    10030    2    1    2    0    0  0.00000000000E+00  0.00000000000E+00 -0.21090298044E+03  0.32074845945E+04  0.32005432908E+04 0.  0.
        5    1    3    3  502    0  0.10274094971E+04  0.85261933344E+02  0.11211340745E+04  0.15230901401E+04  0.46999998093E+01 0. -1.
       -5    1    3    3    0  502 -0.10274094971E+04 -0.85261933344E+02 -0.13320370550E+04  0.16843944543E+04  0.46999998093E+01 0.  1.
</event>
<event>
 5   0  0.9353994E-08  0.3198914E+04  0.7818609E-02  0.8189104E-01
        2   -1    0    0  501    0  0.00000000000E+00  0.00000000000E+00  0.17990253355E+04  0.17990253355E+04  0.25500000920E-02 0.  1.
       -2   -1    0    0    0  501  0.00000000000E+00  0.00000000000E+00 -0.14220270600E+04  0.14220270600E+04  0.25500000920E-02 0. -1.
    10030    2    1    2    0    0  0.00000000000E+00  0.00000000000E+00  0.37699827551E+03  0.32210523955E+04  0.31989140087E+04 0.  0.
        2    1    3    3  502    0 -0.10072513631E+04 -0.34219431159E+03  0.13911731440E+04  0.17512895169E+04  0.25500000920E-02 0.  1.
       -2    1    3    3    0  502  0.10072513631E+04  0.34219431159E+03 -0.10141748685E+04  0.14697628786E+04  0.25500000920E-02 0. -1.
</event>
<event>
 5   0  0.9727083E-08  0.3200127E+04  0.7818609E-02  0.8188784E-01
        2   -1    0    0  501    0  0.00000000000E+00  0.00000000000E+00  0.15260002465E+04  0.15260002465E+04  0.25500000920E-02 0.  1.
       -2   -1    0    0    0  501  0.00000000000E+00  0.00000000000E+00 -0.16777208420E+04  0.16777208420E+04  0.25500000920E-02 0. -1.
    10030    2    1    2    0    0  0.00000000000E+00  0.00000000000E+00 -0.15172059544E+03  0.32037210885E+04  0.32001265090E+04 0.  0.
        4    1    3    3  502    0 -0.15467540080E+03 -0.44432084179E+03  0.14551891984E+04  0.15293536890E+04  0.12699999809E+01 0.  1.
       -4    1    3    3    0  502  0.15467540080E+03  0.44432084179E+03 -0.16069097938E+04  0.16743673995E+04  0.12699999809E+01 0. -1.
</event>
<event>
 5   0  0.3270966E-08  0.3199642E+04  0.7818609E-02  0.8188912E-01
        1   -1    0    0  501    0  0.00000000000E+00  0.00000000000E+00  0.22324288107E+04  0.22324288107E+04  0.50400001928E-02 0.  1.
       -1   -1    0    0    0  501  0.00000000000E+00  0.00000000000E+00 -0.11464765896E+04  0.11464765896E+04  0.50400001928E-02 0. -1.
    10030    2    1    2    0    0  0.00000000000E+00  0.00000000000E+00  0.10859522211E+04  0.33789054003E+04  0.31996420859E+04 0.  0.
        3    1    3    3  502    0 -0.15996120683E+04  0.43168767649E+01  0.51605356075E+03  0.16808000156E+04  0.10100000352E+00 0. -1.
       -3    1    3    3    0  502  0.15996120683E+04 -0.43168767649E+01  0.56989866037E+03  0.16981053848E+04  0.10100000352E+00 0.  1.
</event>
<event>
 5   0  0.9353994E-08  0.3199053E+04  0.7818609E-02  0.8189067E-01
        2   -1    0    0  501    0  0.00000000000E+00  0.00000000000E+00  0.11887200495E+04  0.11887200495E+04  0.25500000920E-02 0. -1.
       -2   -1    0    0    0  501  0.00000000000E+00  0.00000000000E+00 -0.21523019354E+04  0.21523019354E+04  0.25500000920E-02 0.  1.
    10030    2    1    2    0    0  0.00000000000E+00  0.00000000000E+00 -0.96358188585E+03  0.33410219849E+04  0.31990526493E+04 0.  0.
        2    1    3    3  502    0 -0.46322096947E+03  0.35619239528E+03  0.10732595389E+04  0.12220199371E+04  0.25500000920E-02 0. -1.
       -2    1    3    3    0  502  0.46322096947E+03 -0.35619239528E+03 -0.20368414247E+04  0.21190020478E+04  0.25500000920E-02 0.  1.
</event>
<event>
 5   0  0.3283581E-08  0.3203335E+04  0.7818609E-02  0.8187937E-01
        1   -1    0    0  501    0  0.00000000000E+00  0.00000000000E+00  0.16710082667E+04  0.16710082667E+04  0.50400001928E-02 0.  1.
       -1   -1    0    0    0  501  0.00000000000E+00  0.00000000000E+00 -0.15352043596E+04  0.15352043596E+04  0.50400001928E-02 0. -1.
    10030    2    1    2    0    0  0.00000000000E+00  0.00000000000E+00  0.13580390708E+03  0.32062126263E+04  0.32033352469E+04 0.  0.
        5    1    3    3  502    0 -0.12015260413E+04  0.38028806989E+03  0.10572397424E+04  0.16450111875E+04  0.46999998093E+01 0.  1.
       -5    1    3    3    0  502  0.12015260413E+04 -0.38028806989E+03 -0.92143583532E+03  0.15612014388E+04  0.46999998093E+01 0. -1.
</event>
<event>
 5   0  0.3220147E-08  0.3183609E+04  0.7818609E-02  0.8193159E-01
       -1   -1    0    0    0  501  0.00000000000E+00  0.00000000000E+00  0.12267488139E+04  0.12267488139E+04  0.50400001928E-02 0. -1.
        1   -1    0    0  501    0  0.00000000000E+00  0.00000000000E+00 -0.20654937711E+04  0.20654937711E+04  0.50400001928E-02 0.  1.
    10030    2    1    2    0    0  0.00000000000E+00  0.00000000000E+00 -0.83874495718E+03  0.32922425850E+04  0.31836092938E+04 0.  0.
        4    1    3    3  502    0  0.30689636116E+03  0.13528416174E+04  0.38795525330E+03  0.14404432337E+04  0.12699999809E+01 0. -1.
       -4    1    3    3    0  502 -0.30689636116E+03 -0.13528416174E+04 -0.12267002105E+04  0.18517993513E+04  0.12699999809E+01 0.  1.
</event>
<event>
 5   0  0.3427667E-08  0.3200505E+04  0.7818609E-02  0.8188684E-01
        1   -1    0    0  501    0  0.00000000000E+00  0.00000000000E+00  0.23472452890E+04  0.23472452890E+04  0.50400001928E-02 0.  1.
       -1   -1    0    0    0  501  0.00000000000E+00  0.00000000000E+00 -0.10909841698E+04  0.10909841698E+04  0.50400001928E-02 0. -1.
    10030    2    1    2    0    0  0.00000000000E+00  0.00000000000E+00  0.12562611192E+04  0.34382294588E+04  0.32005046183E+04 0.  0.
        2    1    3    3  502    0  0.56214155587E+03  0.13014964839E+04 -0.16923451674E+03  0.14277732831E+04  0.25500000920E-02 0.  1.
       -2    1    3    3    0  502 -0.56214155587E+03 -0.13014964839E+04  0.14254956359E+04  0.20104561757E+04  0.25500000920E-02 0. -1.
</event>
<event>
 5   0  0.3283581E-08  0.3197555E+04  0.7818609E-02  0.8189463E-01
        1   -1    0    0  501    0  0.00000000000E+00  0.00000000000E+00  0.20755395486E+04  0.20755395486E+04  0.50400001928E-02 0. -1.
       -1   -1    0    0    0  501  0.00000000000E+00  0.00000000000E+00 -0.12315300642E+04  0.12315300642E+04  0.50400001928E-02 0.  1.
    10030    2    1    2    0    0  0.00000000000E+00  0.00000000000E+00  0.84400948441E+03  0.33070696129E+04  0.31975549119E+04 0.  0.
        5    1    3    3  502    0  0.59162639991E+03 -0.26931377570E+03  0.19326873607E+04  0.20390817127E+04  0.46999998093E+01 0. -1.
       -5    1    3    3    0  502 -0.59162639991E+03  0.26931377570E+03 -0.10886778763E+04  0.12679879002E+04  0.46999998093E+01 0.  1.
</event>
<event>
 5   0  0.3343140E-08  0.3200720E+04  0.7818609E-02  0.8188627E-01
        1   -1    0    0  501    0  0.00000000000E+00  0.00000000000E+00  0.24108984950E+04  0.24108984950E+04  0.50400001928E-02 0.  1.
       -1   -1    0    0    0  501  0.00000000000E+00  0.00000000000E+00 -0.10623226932E+04  0.10623226932E+04  0.50400001928E-02 0. -1.
    10030    2    1    2    0    0  0.00000000000E+00  0.00000000000E+00  0.13485758018E+04  0.34732211882E+04  0.32007200329E+04 0.  0.
        1    1    3    3  502    0 -0.56181345134E+03  0.79890602571E+03  0.20500038315E+04  0.22707709927E+04  0.50400001928E-02 0.  1.
       -1    1    3    3    0  502  0.56181345134E+03 -0.79890602571E+03 -0.70142802968E+03  0.12024501956E+04  0.50400001928E-02 0. -1.
</event>
<event>
 5   0  0.9707721E-08  0.3199503E+04  0.7818609E-02  0.8188948E-01
        2   -1    0    0  501    0  0.00000000000E+00  0.00000000000E+00  0.20661075292E+04  0.20661075293E+04  0.25500000920E-02 0. -1.
       -2   -1    0    0    0  501  0.00000000000E+00  0.00000000000E+00 -0.12386603473E+04  0.12386603473E+04  0.25500000920E-02 0.  1.
    10030    2    1    2    0    0  0.00000000000E+00  0.00000000000E+00  0.82744718193E+03  0.33047678766E+04  0.31995033801E+04 0.  0.
        3    1    3    3  502    0  0.11516485358E+04 -0.10134146740E+04 -0.54969409083E+02  0.15350326699E+04  0.10100000352E+00 0.  1.
       -3    1    3    3    0  502 -0.11516485358E+04  0.10134146740E+04  0.88241659102E+03  0.17697352067E+04  0.10100000352E+00 0. -1.
</event>
<event>
 5   0  0.9707721E-08  0.3199873E+04  0.7818609E-02  0.8188851E-01
        2   -1    0    0  501    0  0.00000000000E+00  0.00000000000E+00  0.25103478518E+04  0.25103478518E+04  0.25500000920E-02 0. -1.
       -2   -1    0    0    0  501  0.00000000000E+00  0.00000000000E+00 -0.10196982746E+04  0.10196982746E+04  0.25500000920E-02 0.  1.
    10030    2    1    2    0    0  0.00000000000E+00  0.00000000000E+00  0.14906495772E+04  0.35300461263E+04  0.31998733556E+04 0.  0.
        3    1    3    3  502    0 -0.96289143149E+03 -0.92736710591E+03  0.17150143680E+04  0.21744985515E+04  0.10100000352E+00 0. -1.
       -3    1    3    3    0  502  0.96289143149E+03  0.92736710591E+03 -0.22436479079E+03  0.13555475748E+04  0.10100000352E+00 0.  1.
</event>
<event>
 5   0  0.3283581E-08  0.3200201E+04  0.7818609E-02  0.8188764E-01
       -1   -1    0    0    0  501  0.00000000000E+00  0.00000000000E+00  0.13862009725E+04  0.13862009725E+04  0.50400001928E-02 0. -1.
        1   -1    0    0  501    0  0.00000000000E+00  0.00000000000E+00 -0.18470063432E+04  0.18470063432E+04  0.50400001928E-02 0.  1.
    10030    2    1    2    0    0  0.00000000000E+00  0.00000000000E+00 -0.46080537073E+03  0.32332073157E+04  0.32002012369E+04 0.  0.
        5    1    3    3  502    0  0.72149744441E+03  0.64406739166E+03  0.10574674131E+04  0.14330529603E+04  0.46999998093E+01 0. -1.
       -5    1    3    3    0  502 -0.72149744441E+03 -0.64406739166E+03 -0.15182727838E+04  0.18001543554E+04  0.46999998093E+01 0.  1.
</event>
<event>
 5   0  0.3270966E-08  0.3199605E+04  0.7818609E-02  0.8188921E-01
       -1   -1    0    0    0  501  0.00000000000E+00  0.00000000000E+00  0.12529959712E+04  0.12529959712E+04  0.50400001928E-02 0.  1.
        1   -1    0    0  501    0  0.00000000000E+00  0.00000000000E+00 -0.20425992954E+04  0.20425992954E+04  0.50400001928E-02 0. -1.
    10030    2    1    2    0    0  0.00000000000E+00  0.00000000000E+00 -0.78960332414E+03  0.32955952666E+04  0.31996054057E+04 0.  0.
        3    1    3    3  502    0 -0.18005535946E+02 -0.69530406334E+03 -0.18787163663E+04  0.20033340049E+04  0.10100000352E+00 0. -1.
       -3    1    3    3    0  502  0.18005535946E+02  0.69530406334E+03  0.10891130422E+04  0.12922612618E+04  0.10100000352E+00 0.  1.
</event>
<event>
 5   0  0.3270966E-08  0.3198834E+04  0.7818609E-02  0.8189125E-01
        1   -1    0    0  501    0  0.00000000000E+00  0.00000000000E+00  0.22463272580E+04  0.22463272580E+04  0.50400001928E-02 0.  1.
       -1   -1    0    0    0  501  0.00000000000E+00  0.00000000000E+00 -0.11388078764E+04  0.11388078764E+04  0.50400001928E-02 0. -1.
    10030    2    1    2    0    0  0.00000000000E+00  0.00000000000E+00  0.11075193816E+04  0.33851351344E+04  0.31988342717E+04 0.  0.
        3    1    3    3  502    0 -0.50395921515E+03 -0.64381884114E+03 -0.90094830610E+03  0.12166287236E+04  0.10100000352E+00 0. -1.
       -3    1    3    3    0  502  0.50395921515E+03  0.64381884114E+03  0.20084676877E+04  0.21685064108E+04  0.10100000352E+00 0.  1.
</event>
<event>
 5   0  0.9353994E-08  0.3199777E+04  0.7818609E-02  0.8188876E-01
        2   -1    0    0  501    0  0.00000000000E+00  0.00000000000E+00  0.28005954421E+04  0.28005954421E+04  0.25500000920E-02 0.  1.
       -2   -1    0    0    0  501  0.00000000000E+00  0.00000000000E+00 -0.91396416070E+03  0.91396416070E+03  0.25500000920E-02 0. -1.
    10030    2    1    2    0    0  0.00000000000E+00  0.00000000000E+00  0.18866312814E+04  0.37145596028E+04  0.31997774065E+04 0.  0.
        2    1    3    3  502    0  0.11837640755E+04  0.19431603868E+03 -0.28556725556E+03  0.12331280415E+04  0.25500000920E-02 0. -1.
       -2    1    3    3    0  502 -0.11837640755E+04 -0.19431603868E+03  0.21721985370E+04  0.24814315613E+04  0.25500000920E-02 0.  1.
</event>
<event>
 5   0  0.9353994E-08  0.3189181E+04  0.7818609E-02  0.8191680E-01
       -2   -1    0    0    0  501  0.00000000000E+00  0.00000000000E+00  0.83646865290E+03  0.83646865290E+03  0.25500000920E-02 0. -1.
        2   -1    0    0  501    0  0.00000000000E+00  0.00000000000E+00 -0.30398260393E+04  0.30398260393E+04  0.25500000920E-02 0.  1.
    10030    2    1    2    0    0  0.00000000000E+00  0.00000000000E+00 -0.22033573864E+04  0.38762946922E+04  0.31891812066E+04 0.  0.
        2    1    3    3  502    0  0.64337193191E+03  0.82234074798E+03 -0.25665610675E+04  0.27708135018E+04  0.25500000920E-02 0.  1.
       -2    1    3    3    0  502 -0.64337193191E+03 -0.82234074798E+03  0.36320368102E+03  0.11054811905E+04  0.25500000920E-02 0. -1.
</event>
<event>
 5   0  0.3220147E-08  0.3200278E+04  0.7818609E-02  0.8188744E-01
        1   -1    0    0  501    0  0.00000000000E+00  0.00000000000E+00  0.16127090210E+04  0.16127090211E+04  0.50400001928E-02 0.  1.
       -1   -1    0    0    0  501  0.00000000000E+00  0.00000000000E+00 -0.15876667957E+04  0.15876667957E+04  0.50400001928E-02 0. -1.
    10030    2    1    2    0    0  0.00000000000E+00  0.00000000000E+00  0.25042225382E+02  0.32003758167E+04  0.32002778403E+04 0.  0.
        4    1    3    3  502    0  0.37210758762E+03  0.13224764666E+04  0.83293326518E+03  0.16066074501E+04  0.12699999809E+01 0.  1.
       -4    1    3    3    0  502 -0.37210758762E+03 -0.13224764666E+04 -0.80789103979E+03  0.15937683667E+04  0.12699999809E+01 0. -1.
</event>
<event>
 5   0  0.9329929E-08  0.3200110E+04  0.7818609E-02  0.8188788E-01
        2   -1    0    0  501    0  0.00000000000E+00  0.00000000000E+00  0.18145550013E+04  0.18145550013E+04  0.25500000920E-02 0. -1.
       -2   -1    0    0    0  501  0.00000000000E+00  0.00000000000E+00 -0.14109110036E+04  0.14109110036E+04  0.25500000920E-02 0.  1.
    10030    2    1    2    0    0  0.00000000000E+00  0.00000000000E+00  0.40364399767E+03  0.32254660049E+04  0.32001097593E+04 0.  0.
        1    1    3    3  502    0  0.35409059759E+03  0.74878805942E+03  0.15816512738E+04  0.17854087658E+04  0.50400001928E-02 0. -1.
       -1    1    3    3    0  502 -0.35409059759E+03 -0.74878805942E+03 -0.11780072761E+04  0.14400572391E+04  0.50400001928E-02 0.  1.
</event>
<event>
 5   0  0.9157524E-08  0.3198425E+04  0.7818609E-02  0.8189233E-01
       -2   -1    0    0    0  501  0.00000000000E+00  0.00000000000E+00  0.14468579235E+04  0.14468579235E+04  0.25500000920E-02 0.  1.
        2   -1    0    0  501    0  0.00000000000E+00  0.00000000000E+00 -0.17676096121E+04  0.17676096121E+04  0.25500000920E-02 0. -1.
    10030    2    1    2    0    0  0.00000000000E+00  0.00000000000E+00 -0.32075168863E+03  0.32144675356E+04  0.31984245952E+04 0.  0.
        5    1    3    3  502    0 -0.14648217618E+04 -0.35148140791E+03  0.37917441082E+03  0.15533954093E+04  0.46999998093E+01 0. -1.
       -5    1    3    3    0  502  0.14648217618E+04  0.35148140791E+03 -0.69992609945E+03  0.16610721262E+04  0.46999998093E+01 0.  1.
</event>
<event>
 5   0  0.9157524E-08  0.3196364E+04  0.7818609E-02  0.8189778E-01
        2   -1    0    0  501    0  0.00000000000E+00  0.00000000000E+00  0.16474767614E+04  0.16474767614E+04  0.25500000920E-02 0.  1.
       -2   -1    0    0    0  501  0.00000000000E+00  0.00000000000E+00 -0.15503619762E+04  0.15503619762E+04  0.25500000920E-02 0. -1.
    10030    2    1    2    0    0  0.00000000000E+00  0.00000000000E+00  0.97114785247E+02  0.31978387376E+04  0.31963637637E+04 0.  0.
        5    1    3    3  502    0 -0.14415282648E+04  0.91348442221E+02  0.73284301345E+03  0.16197003576E+04  0.46999998093E+01 0.  1.
       -5    1    3    3    0  502  0.14415282648E+04 -0.91348442221E+02 -0.63572822820E+03  0.15781383799E+04  0.46999998093E+01 0. -1.
</event>
<event>
 5   0  0.9353994E-08  0.3199097E+04  0.7818609E-02  0.8189056E-01
        2   -1    0    0  501    0  0.00000000000E+00  0.00000000000E+00  0.25197947556E+04  0.25197947556E+04  0.25500000920E-02 0.  1.
       -2   -1    0    0    0  501  0.00000000000E+00  0.00000000000E+00 -0.10153825679E+04  0.10153825679E+04  0.25500000920E-02 0. -1.
    10030    2    1    2    0    0  0.00000000000E+00  0.00000000000E+00  0.15044121877E+04  0.35351773235E+04  0.31990971661E+04 0.  0.
        2    1    3    3  502    0 -0.56498903377E+03  0.14052014927E+04  0.18361080916E+03  0.15256201273E+04  0.25500000920E-02 0.  1.
       -2    1    3    3    0  502  0.56498903377E+03 -0.14052014927E+04  0.13208013786E+04  0.20095571963E+04  0.25500000920E-02 0. -1.
</event>
<event>
 5   0  0.3283581E-08  0.3198473E+04  0.7818609E-02  0.8189221E-01
       -1   -1    0    0    0  501  0.00000000000E+00  0.00000000000E+00  0.15497774016E+04  0.15497774016E+04  0.50400001928E-02 0. -1.
        1   -1    0    0  501    0  0.00000000000E+00  0.00000000000E+00 -0.16502741413E+04  0.16502741413E+04  0.50400001928E-02 0.  1.
    10030    2    1    2    0    0  0.00000000000E+00  0.00000000000E+00 -0.10049673971E+03  0.32000515429E+04  0.31984731173E+04 0.  0.
        5    1    3    3  502    0 -0.71901759448E+03  0.89315213417E+02  0.13761381798E+04  0.15552304936E+04  0.46999998093E+01 0. -1.
       -5    1    3    3    0  502  0.71901759448E+03 -0.89315213417E+02 -0.14766349195E+04  0.16448210492E+04  0.46999998093E+01 0.  1.
</event>
<event>
 5   0  0.9707721E-08  0.3200920E+04  0.7818609E-02  0.8188574E-01
       -2   -1    0    0    0  501  0.00000000000E+00  0.00000000000E+00  0.17300768302E+04  0.17300768302E+04  0.25500000920E-02 0. -1.
        2   -1    0    0  501    0  0.00000000000E+00  0.00000000000E+00 -0.14805535708E+04  0.14805535708E+04  0.25500000920E-02 0.  1.
    10030    2    1    2    0    0  0.00000000000E+00  0.00000000000E+00  0.24952325936E+03  0.32106304010E+04  0.32009195108E+04 0.  0.
        3    1    3    3  502    0 -0.93051090880E+02 -0.60626533093E+03  0.16075072410E+04  0.17205509865E+04  0.10100000352E+00 0. -1.
       -3    1    3    3    0  502  0.93051090880E+02  0.60626533093E+03 -0.13579839816E+04  0.14900794145E+04  0.10100000352E+00 0.  1.
</event>
<event>
 5   0  0.3270966E-08  0.3199577E+04  0.7818609E-02  0.8188929E-01
       -1   -1    0    0    0  501  0.00000000000E+00  0.00000000000E+00  0.12858606567E+04  0.12858606567E+04  0.50400001928E-02 0.  1.
        1   -1    0    0  501    0  0.00000000000E+00  0.00000000000E+00 -0.19903579603E+04  0.19903579604E+04  0.50400001928E-02 0. -1.
    10030    2    1    2    0    0  0.00000000000E+00  0.00000000000E+00 -0.70449730362E+03  0.32762186171E+04  0.31995768433E+04 0.  0.
        3    1    3    3  502    0 -0.48129361847E+03 -0.16923441857E+03  0.12003296494E+04  0.13042527029E+04  0.10100000352E+00 0.  1.
       -3    1    3    3    0  502  0.48129361847E+03  0.16923441857E+03 -0.19048269530E+04  0.19719659142E+04  0.10100000352E+00 0. -1.
</event>
<event>
 5   0  0.9727083E-08  0.3199757E+04  0.7818609E-02  0.8188881E-01
       -2   -1    0    0    0  501  0.00000000000E+00  0.00000000000E+00  0.14469497559E+04  0.14469497559E+04  0.25500000920E-02 0. -1.
        2   -1    0    0  501    0  0.00000000000E+00  0.00000000000E+00 -0.17689704414E+04  0.17689704414E+04  0.25500000920E-02 0.  1.
    10030    2    1    2    0    0  0.00000000000E+00  0.00000000000E+00 -0.32202068556E+03  0.32159201973E+04  0.31997570835E+04 0.  0.
        4    1    3    3  502    0  0.11050419508E+04  0.13612074551E+03  0.99368964189E+03  0.14923361845E+04  0.12699999809E+01 0. -1.
       -4    1    3    3    0  502 -0.11050419508E+04 -0.13612074551E+03 -0.13157103275E+04  0.17235840128E+04  0.12699999809E+01 0.  1.
</event>
<event>
 5   0  0.3427667E-08  0.3200789E+04  0.7818609E-02  0.8188609E-01
        1   -1    0    0  501    0  0.00000000000E+00  0.00000000000E+00  0.14678227650E+04  0.14678227651E+04  0.50400001928E-02 0. -1.
       -1   -1    0    0    0  501  0.00000000000E+00  0.00000000000E+00 -0.17449399208E+04  0.17449399208E+04  0.50400001928E-02 0.  1.
    10030    2    1    2    0    0  0.00000000000E+00  0.00000000000E+00 -0.27711715574E+03  0.32127626858E+04  0.32007889898E+04 0.  0.
        2    1    3    3  502    0 -0.62585328050E+03 -0.89516654618E+03  0.10355381164E+04  0.15051095192E+04  0.25500000920E-02 0. -1.
       -2    1    3    3    0  502  0.62585328050E+03  0.89516654618E+03 -0.13126552722E+04  0.17076531667E+04  0.25500000920E-02 0.  1.
</event>
<event>
 5   0  0.3343140E-08  0.3200270E+04  0.7818609E-02  0.8188746E-01
        1   -1    0    0  501    0  0.00000000000E+00  0.00000000000E+00  0.14636141003E+04  0.14636141003E+04  0.50400001928E-02 0. -1.
       -1   -1    0    0    0  501  0.00000000000E+00  0.00000000000E+00 -0.17493901009E+04  0.17493901009E+04  0.50400001928E-02 0.  1.
    10030    2    1    2    0    0  0.00000000000E+00  0.00000000000E+00 -0.28577600053E+03  0.32130042012E+04  0.32002700003E+04 0.  0.
        1    1    3    3  502    0 -0.10448089615E+04  0.11630652313E+04  0.19918098507E+03  0.15760772706E+04  0.50400001928E-02 0. -1.
       -1    1    3    3    0  502  0.10448089615E+04 -0.11630652313E+04 -0.48495698560E+03  0.16369269306E+04  0.50400001928E-02 0.  1.
</event>
<event>
 5   0  0.9157524E-08  0.3199485E+04  0.7818609E-02  0.8188953E-01
        2   -1    0    0  501    0  0.00000000000E+00  0.00000000000E+00  0.25031070265E+04  0.25031070265E+04  0.25500000920E-02 0. -1.
       -2   -1    0    0    0  501  0.00000000000E+00  0.00000000000E+00 -0.10223997454E+04  0.10223997454E+04  0.25500000920E-02 0.  1.
    10030    2    1    2    0    0  0.00000000000E+00  0.00000000000E+00  0.14807072811E+04  0.35255067719E+04  0.31994849502E+04 0.  0.
        5    1    3    3  502    0 -0.27357986235E+03  0.12308514769E+04 -0.34450564368E+03  0.13071141984E+04  0.46999998093E+01 0.  1.
       -5    1    3    3    0  502  0.27357986235E+03 -0.12308514769E+04  0.18252129248E+04  0.22183925735E+04  0.46999998093E+01 0. -1.
</event>
<event>
 5   0  0.3283581E-08  0.3199360E+04  0.7818609E-02  0.8188986E-01
        1   -1    0    0  501    0  0.00000000000E+00  0.00000000000E+00  0.17877002625E+04  0.17877002625E+04  0.50400001928E-02 0.  1.
       -1   -1    0    0    0  501  0.00000000000E+00  0.00000000000E+00 -0.14314346628E+04  0.14314346628E+04  0.50400001928E-02 0. -1.
    10030    2    1    2    0    0  0.00000000000E+00  0.00000000000E+00  0.35626559968E+03  0.32191349253E+04  0.31993600125E+04 0.  0.
        5    1    3    3  502    0 -0.30695987899E+03  0.28976054880E+03 -0.13743780729E+04  0.14377491854E+04  0.46999998093E+01 0. -1.
       -5    1    3    3    0  502  0.30695987899E+03 -0.28976054880E+03  0.17306436725E+04  0.17813857399E+04  0.46999998093E+01 0.  1.
</event>
<event>
 5   0  0.9707721E-08  0.3196941E+04  0.7818609E-02  0.8189625E-01
        2   -1    0    0  501    0  0.00000000000E+00  0.00000000000E+00  0.10727440744E+04  0.10727440744E+04  0.25500000920E-02 0. -1.
       -2   -1    0    0    0  501  0.00000000000E+00  0.00000000000E+00 -0.23818436190E+04  0.23818436190E+04  0.25500000920E-02 0.  1.
    10030    2    1    2    0    0  0.00000000000E+00  0.00000000000E+00 -0.13090995446E+04  0.34545876935E+04  0.31969414311E+04 0.  0.
        3    1    3    3  502    0 -0.64723030271E+03  0.14525979561E+04 -0.47977188581E+03  0.16610625995E+04  0.10100000352E+00 0. -1.
       -3    1    3    3    0  502  0.64723030271E+03 -0.14525979561E+04 -0.82932765884E+03  0.17935250940E+04  0.10100000352E+00 0.  1.
</event>
<event>
 5   0  0.9329929E-08  0.3200804E+04  0.7818609E-02  0.8188605E-01
       -2   -1    0    0    0  501  0.00000000000E+00  0.00000000000E+00  0.17881874823E+04  0.17881874823E+04  0.25500000920E-02 0. -1.
        2   -1    0    0  501    0  0.00000000000E+00  0.00000000000E+00 -0.14323365113E+04  0.14323365113E+04  0.25500000920E-02 0.  1.
    10030    2    1    2    0    0  0.00000000000E+00  0.00000000000E+00  0.35585097097E+03  0.32205239936E+04  0.32008037865E+04 0.  0.
        1    1    3    3  502    0  0.32686529994E+03  0.59616816775E+03  0.16356541268E+04  0.17713333484E+04  0.50400001928E-02 0. -1.
       -1    1    3    3    0  502 -0.32686529994E+03 -0.59616816775E+03 -0.12798031558E+04  0.14491906452E+04  0.50400001928E-02 0.  1.
</event>
<event>
 5   0  0.3427667E-08  0.3200520E+04  0.7818609E-02  0.8188680E-01
        1   -1    0    0  501    0  0.00000000000E+00  0.00000000000E+00  0.27611434690E+04  0.27611434690E+04  0.50400001928E-02 0. -1.
       -1   -1    0    0    0  501  0.00000000000E+00  0.00000000000E+00 -0.92745349012E+03  0.92745349014E+03  0.50400001928E-02 0.  1.
    10030    2    1    2    0    0  0.00000000000E+00  0.00000000000E+00  0.18336899789E+04  0.36885969591E+04  0.32005200497E+04 0.  0.
        2    1    3    3  502    0  0.79328475826E+03  0.10767356203E+03  0.25137689464E+04  0.26381676632E+04  0.25500000920E-02 0. -1.
       -2    1    3    3    0  502 -0.79328475826E+03 -0.10767356203E+03 -0.68007896750E+03  0.10504292959E+04  0.25500000920E-02 0.  1.
</event>
<event>
 5   0  0.3427667E-08  0.3204040E+04  0.7818609E-02  0.8187751E-01
       -1   -1    0    0    0  501  0.00000000000E+00  0.00000000000E+00  0.98932569586E+03  0.98932569588E+03  0.50400001928E-02 0. -1.
        1   -1    0    0  501    0  0.00000000000E+00  0.00000000000E+00 -0.25941594826E+04  0.25941594826E+04  0.50400001928E-02 0.  1.
    10030    2    1    2    0    0  0.00000000000E+00  0.00000000000E+00 -0.16048337867E+04  0.35834851785E+04  0.32040403464E+04 0.  0.
        2    1    3    3  502    0  0.12941442050E+04  0.79005438307E+03 -0.13808431561E+04  0.20507859404E+04  0.25500000920E-02 0.  1.
       -2    1    3    3    0  502 -0.12941442050E+04 -0.79005438307E+03 -0.22399063060E+03  0.15326992380E+04  0.25500000920E-02 0. -1.
</event>
<event>
 5   0  0.9707721E-08  0.3200598E+04  0.7818609E-02  0.8188659E-01
       -2   -1    0    0    0  501  0.00000000000E+00  0.00000000000E+00  0.84468736328E+03  0.84468736328E+03  0.25500000920E-02 0. -1.
        2   -1    0    0  501    0  0.00000000000E+00  0.00000000000E+00 -0.30318401861E+04  0.30318401861E+04  0.25500000920E-02 0.  1.
    10030    2    1    2    0    0  0.00000000000E+00  0.00000000000E+00 -0.21871528228E+04  0.38765275494E+04  0.32005981270E+04 0.  0.
        3    1    3    3  502    0  0.13646223261E+04  0.13244162633E+03 -0.20932451839E+04  0.25022810169E+04  0.10100000352E+00 0.  1.
       -3    1    3    3    0  502 -0.13646223261E+04 -0.13244162633E+03 -0.93907638885E+02  0.13742465325E+04  0.10100000352E+00 0. -1.
</event>
<event>
 5   0  0.9707721E-08  0.3201084E+04  0.7818609E-02  0.8188531E-01
        2   -1    0    0  501    0  0.00000000000E+00  0.00000000000E+00  0.19830036642E+04  0.19830036642E+04  0.25500000920E-02 0.  1.
       -2   -1    0    0    0  501  0.00000000000E+00  0.00000000000E+00 -0.12918457851E+04  0.12918457851E+04  0.25500000920E-02 0. -1.
    10030    2    1    2    0    0  0.00000000000E+00  0.00000000000E+00  0.69115787919E+03  0.32748494493E+04  0.32010841447E+04 0.  0.
        3    1    3    3  502    0 -0.14340001992E+03  0.70814432028E+02  0.19748085255E+04  0.19812740779E+04  0.10100000352E+00 0.  1.
       -3    1    3    3    0  502  0.14340001992E+03 -0.70814432028E+02 -0.12836506463E+04  0.12935753714E+04  0.10100000352E+00 0. -1.
</event>
<event>
 5   0  0.3220147E-08  0.3199617E+04  0.7818609E-02  0.8188918E-01
       -1   -1    0    0    0  501  0.00000000000E+00  0.00000000000E+00  0.12875580910E+04  0.12875580910E+04  0.50400001928E-02 0. -1.
        1   -1    0    0  501    0  0.00000000000E+00  0.00000000000E+00 -0.19877843005E+04  0.19877843005E+04  0.50400001928E-02 0.  1.
    10030    2    1    2    0    0  0.00000000000E+00  0.00000000000E+00 -0.70022620948E+03  0.32753423915E+04  0.31996173266E+04 0.  0.
        4    1    3    3  502    0  0.89714212509E+03  0.12834807612E+04 -0.68527498591E+03  0.17093245088E+04  0.12699999809E+01 0.  1.
       -4    1    3    3    0  502 -0.89714212509E+03 -0.12834807612E+04 -0.14951223569E+02  0.15660178827E+04  0.12699999809E+01 0. -1.
</event>
<event>
 5   0  0.3220147E-08  0.3201320E+04  0.7818609E-02  0.8188469E-01
        1   -1    0    0  501    0  0.00000000000E+00  0.00000000000E+00  0.10714627063E+04  0.10714627063E+04  0.50400001928E-02 0. -1.
       -1   -1    0    0    0  501  0.00000000000E+00  0.00000000000E+00 -0.23912288563E+04  0.23912288563E+04  0.50400001928E-02 0.  1.
    10030    2    1    2    0    0  0.00000000000E+00  0.00000000000E+00 -0.13197661499E+04  0.34626915626E+04  0.32013200664E+04 0.  0.
        4    1    3    3  502    0 -0.12624517460E+04  0.18454657174E+03 -0.17053750414E+04  0.21298233478E+04  0.12699999809E+01 0.  1.
       -4    1    3    3    0  502  0.12624517460E+04 -0.18454657174E+03  0.38560889145E+03  0.13328682148E+04  0.12699999809E+01 0. -1.
</event>
<event>
 5   0  0.3343140E-08  0.3201248E+04  0.7818609E-02  0.8188488E-01
       -1   -1    0    0    0  501  0.00000000000E+00  0.00000000000E+00  0.11098348232E+04  0.11098348232E+04  0.50400001928E-02 0.  1.
        1   -1    0    0  501    0  0.00000000000E+00  0.00000000000E+00 -0.23084494628E+04  0.23084494628E+04  0.50400001928E-02 0. -1.
    10030    2    1    2    0    0  0.00000000000E+00  0.00000000000E+00 -0.11986146396E+04  0.34182842861E+04  0.32012482575E+04 0.  0.
        1    1    3    3  502    0 -0.84679433504E+03  0.12506025937E+04 -0.11652702243E+04  0.19075959187E+04  0.50400001928E-02 0. -1.
       -1    1    3    3    0  502  0.84679433504E+03 -0.12506025937E+04 -0.33344415244E+02  0.15106883674E+04  0.50400001928E-02 0.  1.
</event>
<event>
 5   0  0.3343140E-08  0.3200248E+04  0.7818609E-02  0.8188752E-01
        1   -1    0    0  501    0  0.00000000000E+00  0.00000000000E+00  0.14846789201E+04  0.14846789202E+04  0.50400001928E-02 0. -1.
       -1   -1    0    0    0  501  0.00000000000E+00  0.00000000000E+00 -0.17245461341E+04  0.17245461341E+04  0.50400001928E-02 0.  1.
    10030    2    1    2    0    0  0.00000000000E+00  0.00000000000E+00 -0.23986721397E+03  0.32092250543E+04  0.32002482980E+04 0.  0.
        1    1    3    3  502    0 -0.74364990097E+03 -0.11046657088E+04 -0.10096063662E+04  0.16711093675E+04  0.50400001928E-02 0.  1.
       -1    1    3    3    0  502  0.74364990097E+03  0.11046657088E+04  0.76973915224E+03  0.15381156868E+04  0.50400001928E-02 0. -1.
</event>
<event>
 5   0  0.3427667E-08  0.3201295E+04  0.7818609E-02  0.8188475E-01
       -1   -1    0    0    0  501  0.00000000000E+00  0.00000000000E+00  0.20497223618E+04  0.20497223618E+04  0.50400001928E-02 0. -1.
        1   -1    0    0  501    0  0.00000000000E+00  0.00000000000E+00 -0.12499607389E+04  0.12499607389E+04  0.50400001928E-02 0.  1.
    10030    2    1    2    0    0  0.00000000000E+00  0.00000000000E+00  0.79976162294E+03  0.32996831007E+04  0.32012950366E+04 0.  0.
        2    1    3    3  502    0  0.13931338082E+04 -0.58953271069E+03  0.93912490936E+03  0.17805409908E+04  0.25500000920E-02 0. -1.
       -2    1    3    3    0  502 -0.13931338082E+04  0.58953271069E+03 -0.13936328642E+03  0.15191421099E+04  0.25500000920E-02 0.  1.
</event>
<event>
 5   0  0.3283581E-08  0.3185720E+04  0.7818609E-02  0.8192599E-01
        1   -1    0    0  501    0  0.00000000000E+00  0.00000000000E+00  0.22247100519E+04  0.22247100519E+04  0.50400001928E-02 0.  1.
       -1   -1    0    0    0  501  0.00000000000E+00  0.00000000000E+00 -0.11404644833E+04  0.11404644833E+04  0.50400001928E-02 0. -1.
    10030    2    1    2    0    0  0.00000000000E+00  0.00000000000E+00  0.10842455686E+04  0.33651745352E+04  0.31857198872E+04 0.  0.
        5    1    3    3  502    0 -0.92350211995E+03  0.12628178207E+04  0.22590080811E+03  0.15807018311E+04  0.46999998093E+01 0. -1.
       -5    1    3    3    0  502  0.92350211995E+03 -0.12628178207E+04  0.85834476045E+03  0.17844727041E+04  0.46999998093E+01 0.  1.
</event>
<event>
 5   0  0.3427667E-08  0.3199631E+04  0.7818609E-02  0.8188915E-01
        1   -1    0    0  501    0  0.00000000000E+00  0.00000000000E+00  0.16395944555E+04  0.16395944555E+04  0.50400001928E-02 0.  1.
       -1   -1    0    0    0  501  0.00000000000E+00  0.00000000000E+00 -0.15610021210E+04  0.15610021210E+04  0.50400001928E-02 0. -1.
    10030    2    1    2    0    0  0.00000000000E+00  0.00000000000E+00  0.78592334449E+02  0.32005965765E+04  0.31996314930E+04 0.  0.
        2    1    3    3  502    0 -0.13122246547E+04 -0.37279132714E+03  0.87531347459E+03  0.16208271335E+04  0.25500000920E-02 0.  1.
       -2    1    3    3    0  502  0.13122246547E+04  0.37279132714E+03 -0.79672114014E+03  0.15797694430E+04  0.25500000920E-02 0. -1.
</event>
<event>
 5   0  0.9329929E-08  0.3195638E+04  0.7818609E-02  0.8189970E-01
       -2   -1    0    0    0  501  0.00000000000E+00  0.00000000000E+00  0.99030584858E+03  0.99030584858E+03  0.25500000920E-02 0.  1.
        2   -1    0    0  501    0  0.00000000000E+00  0.00000000000E+00 -0.25780165359E+04  0.25780165359E+04  0.25500000920E-02 0. -1.
    10030    2    1    2    0    0  0.00000000000E+00  0.00000000000E+00 -0.15877106874E+04  0.35683223845E+04  0.31956375597E+04 0.  0.
        1    1    3    3  502    0 -0.11809805586E+04 -0.10181232272E+04 -0.40425972774E+03  0.16108121905E+04  0.50400001928E-02 0. -1.
       -1    1    3    3    0  502  0.11809805586E+04  0.10181232272E+04 -0.11834509596E+04  0.19575101940E+04  0.50400001928E-02 0.  1.
</event>
<event>
 5   0  0.9329929E-08  0.3199534E+04  0.7818609E-02  0.8188940E-01
        2   -1    0    0  501    0  0.00000000000E+00  0.00000000000E+00  0.24161382522E+04  0.24161382522E+04  0.25500000920E-02 0.  1.
       -2   -1    0    0    0  501  0.00000000000E+00  0.00000000000E+00 -0.10592333626E+04  0.10592333626E+04  0.25500000920E-02 0. -1.
    10030    2    1    2    0    0  0.00000000000E+00  0.00000000000E+00  0.13569048896E+04  0.34753716149E+04  0.31995338695E+04 0.  0.
        1    1    3    3  502    0  0.36001808173E+03  0.15544130070E+04  0.55252010443E+03  0.16885174803E+04  0.50400001928E-02 0.  1.
       -1    1    3    3    0  502 -0.36001808173E+03 -0.15544130070E+04  0.80438478517E+03  0.17868541346E+04  0.50400001928E-02 0. -1.
</event>
<event>
 5   0  0.9353994E-08  0.3199474E+04  0.7818609E-02  0.8188956E-01
       -2   -1    0    0    0  501  0.00000000000E+00  0.00000000000E+00  0.16286013878E+04  0.16286013878E+04  0.25500000920E-02 0. -1.
        2   -1    0    0  501    0  0.00000000000E+00  0.00000000000E+00 -0.15713840471E+04  0.15713840471E+04  0.25500000920E-02 0.  1.
    10030    2    1    2    0    0  0.00000000000E+00  0.00000000000E+00  0.57217340677E+02  0.31999854350E+04  0.31994738567E+04 0.  0.
        2    1    3    3  502    0  0.19350359189E+03  0.15285762448E+04 -0.40177311789E+03  0.15922972758E+04  0.25500000920E-02 0. -1.
       -2    1    3    3    0  502 -0.19350359189E+03 -0.15285762448E+04  0.45899045857E+03  0.16076881592E+04  0.25500000920E-02 0.  1.
</event>
<event>
 5   0  0.3220147E-08  0.3193559E+04  0.7818609E-02  0.8190520E-01
       -1   -1    0    0    0  501  0.00000000000E+00  0.00000000000E+00  0.10853325468E+04  0.10853325468E+04  0.50400001928E-02 0.  1.
        1   -1    0    0  501    0  0.00000000000E+00  0.00000000000E+00 -0.23492389974E+04  0.23492389974E+04  0.50400001928E-02 0. -1.
    10030    2    1    2    0    0  0.00000000000E+00  0.00000000000E+00 -0.12639064506E+04  0.34345715442E+04  0.31935594838E+04 0.  0.
        4    1    3    3  502    0 -0.13543203819E+04  0.22595482988E+03 -0.15086178818E+04  0.20398943130E+04  0.12699999809E+01 0.  1.
       -4    1    3    3    0  502  0.13543203819E+04 -0.22595482988E+03  0.24471143115E+03  0.13946772313E+04  0.12699999809E+01 0. -1.
</event>
<event>
 5   0  0.3220147E-08  0.3191182E+04  0.7818609E-02  0.8191150E-01
       -1   -1    0    0    0  501  0.00000000000E+00  0.00000000000E+00  0.15753206633E+04  0.15753206633E+04  0.50400001928E-02 0.  1.
        1   -1    0    0  501    0  0.00000000000E+00  0.00000000000E+00 -0.16161226471E+04  0.16161226471E+04  0.50400001928E-02 0. -1.
    10030    2    1    2    0    0  0.00000000000E+00  0.00000000000E+00 -0.40801983787E+02  0.31914433103E+04  0.31911824770E+04 0.  0.
        4    1    3    3  502    0 -0.88087215370E+03 -0.12097692562E+04  0.53320760454E+03  0.15886438766E+04  0.12699999809E+01 0.  1.
       -4    1    3    3    0  502  0.88087215370E+03  0.12097692562E+04 -0.57400958833E+03  0.16027994337E+04  0.12699999809E+01 0. -1.
</event>
<event>
 5   0  0.3343140E-08  0.3200766E+04  0.7818609E-02  0.8188615E-01
        1   -1    0    0  501    0  0.00000000000E+00  0.00000000000E+00  0.18798585937E+04  0.18798585937E+04  0.50400001928E-02 0.  1.
       -1   -1    0    0    0  501  0.00000000000E+00  0.00000000000E+00 -0.13624562791E+04  0.13624562791E+04  0.50400001928E-02 0. -1.
    10030    2    1    2    0    0  0.00000000000E+00  0.00000000000E+00  0.51740231459E+03  0.32423148727E+04  0.32007656239E+04 0.  0.
        1    1    3    3  502    0  0.10267977190E+04  0.34627584322E+03 -0.93429836473E+03  0.14307808881E+04  0.50400001928E-02 0. -1.
       -1    1    3    3    0  502 -0.10267977190E+04 -0.34627584322E+03  0.14517006793E+04  0.18115339847E+04  0.50400001928E-02 0.  1.
</event>
<event>
 5   0  0.3427667E-08  0.3198770E+04  0.7818609E-02  0.8189142E-01
        1   -1    0    0  501    0  0.00000000000E+00  0.00000000000E+00  0.18873463917E+04  0.18873463917E+04  0.50400001928E-02 0. -1.
       -1   -1    0    0    0  501  0.00000000000E+00  0.00000000000E+00 -0.13553594802E+04  0.13553594802E+04  0.50400001928E-02 0.  1.
    10030    2    1    2    0    0  0.00000000000E+00  0.00000000000E+00  0.53198691152E+03  0.32427058719E+04  0.31987702790E+04 0.  0.
        2    1    3    3  502    0  0.15530009986E+04  0.37023356962E+03  0.36295141674E+03  0.16372595178E+04  0.25500000920E-02 0.  1.
       -2    1    3    3    0  502 -0.15530009986E+04 -0.37023356962E+03  0.16903549478E+03  0.16054463542E+04  0.25500000920E-02 0. -1.
</event>
<event>
 5   0  0.3427667E-08  0.3200382E+04  0.7818609E-02  0.8188716E-01
        1   -1    0    0  501    0  0.00000000000E+00  0.00000000000E+00  0.19949124544E+04  0.19949124544E+04  0.50400001928E-02 0. -1.
       -1   -1    0    0    0  501  0.00000000000E+00  0.00000000000E+00 -0.12835704085E+04  0.12835704085E+04  0.50400001928E-02 0.  1.
    10030    2    1    2    0    0  0.00000000000E+00  0.00000000000E+00  0.71134204583E+03  0.32784828629E+04  0.32003815985E+04 0.  0.
        2    1    3    3  502    0 -0.89368776296E+02 -0.97971588507E+03 -0.93718193079E+03  0.13587273329E+04  0.25500000920E-02 0.  1.
       -2    1    3    3    0  502  0.89368776296E+02  0.97971588507E+03  0.16485239766E+04  0.19197555300E+04  0.25500000920E-02 0. -1.
</event>
<event>
 5   0  0.9707721E-08  0.3198887E+04  0.7818609E-02  0.8189111E-01
        2   -1    0    0  501    0  0.00000000000E+00  0.00000000000E+00  0.27554242658E+04  0.27554242658E+04  0.25500000920E-02 0.  1.
       -2   -1    0    0    0  501  0.00000000000E+00  0.00000000000E+00 -0.92843031348E+03  0.92843031348E+03  0.25500000920E-02 0. -1.
    10030    2    1    2    0    0  0.00000000000E+00  0.00000000000E+00  0.18269939523E+04  0.36838545793E+04  0.31988869407E+04 0.  0.
        3    1    3    3  502    0  0.10675666824E+04  0.44414141738E+03  0.21861426588E+04  0.24730911740E+04  0.10100000352E+00 0.  1.
       -3    1    3    3    0  502 -0.10675666824E+04 -0.44414141738E+03 -0.35914870645E+03  0.12107634053E+04  0.10100000352E+00 0. -1.
</event>
<event>
 5   0  0.9329929E-08  0.3200559E+04  0.7818609E-02  0.8188670E-01
       -2   -1    0    0    0  501  0.00000000000E+00  0.00000000000E+00  0.18617578082E+04  0.18617578082E+04  0.25500000920E-02 0.  1.
        2   -1    0    0  501    0  0.00000000000E+00  0.00000000000E+00 -0.13755248403E+04  0.13755248403E+04  0.25500000920E-02 0. -1.
    10030    2    1    2    0    0  0.00000000000E+00  0.00000000000E+00  0.48623296795E+03  0.32372826485E+04  0.32005587711E+04 0.  0.
        1    1    3    3  502    0 -0.12383700541E+04  0.33837181494E+02 -0.78151675687E+03  0.14647435909E+04  0.50400001928E-02 0. -1.
       -1    1    3    3    0  502  0.12383700541E+04 -0.33837181494E+02  0.12677497248E+04  0.17725390576E+04  0.50400001928E-02 0.  1.
</event>
<event>
 5   0  0.9707721E-08  0.3200688E+04  0.7818609E-02  0.8188635E-01
        2   -1    0    0  501    0  0.00000000000E+00  0.00000000000E+00  0.22655561569E+04  0.22655561569E+04  0.25500000920E-02 0. -1.
       -2   -1    0    0    0  501  0.00000000000E+00  0.00000000000E+00 -0.11304514418E+04  0.11304514418E+04  0.25500000920E-02 0.  1.
    10030    2    1    2    0    0  0.00000000000E+00  0.00000000000E+00  0.11351047151E+04  0.33960075987E+04  0.32006881910E+04 0.  0.
        3    1    3    3  502    0  0.58187064690E+03  0.10177670303E+04  0.17233764369E+04  0.20843343137E+04  0.10100000352E+00 0. -1.
       -3    1    3    3    0  502 -0.58187064690E+03 -0.10177670303E+04 -0.58827172181E+03  0.13116732850E+04  0.10100000352E+00 0.  1.
</event>
<event>
 5   0  0.3343140E-08  0.3201191E+04  0.7818609E-02  0.8188503E-01
       -1   -1    0    0    0  501  0.00000000000E+00  0.00000000000E+00  0.11053525605E+04  0.11053525605E+04  0.50400001928E-02 0. -1.
        1   -1    0    0  501    0  0.00000000000E+00  0.00000000000E+00 -0.23177277077E+04  0.23177277077E+04  0.50400001928E-02 0.  1.
    10030    2    1    2    0    0  0.00000000000E+00  0.00000000000E+00 -0.12123751472E+04  0.34230802682E+04  0.32011911885E+04 0.  0.
        1    1    3    3  502    0 -0.78034880523E+03  0.44112227904E+03  0.81176266490E+03  0.12093352501E+04  0.50400001928E-02 0. -1.
       -1    1    3    3    0  502  0.78034880523E+03 -0.44112227904E+03 -0.20241378121E+04  0.22137450182E+04  0.50400001928E-02 0.  1.
</event>
<event>
 5   0  0.9353994E-08  0.3200396E+04  0.7818609E-02  0.8188713E-01
       -2   -1    0    0    0  501  0.00000000000E+00  0.00000000000E+00  0.11412622834E+04  0.11412622834E+04  0.25500000920E-02 0.  1.
        2   -1    0    0  501    0  0.00000000000E+00  0.00000000000E+00 -0.22436857440E+04  0.22436857440E+04  0.25500000920E-02 0. -1.
    10030    2    1    2    0    0  0.00000000000E+00  0.00000000000E+00 -0.11024234606E+04  0.33849480274E+04  0.32003961726E+04 0.  0.
        2    1    3    3  502    0 -0.12287070774E+04  0.81597113452E+03  0.10514092122E+03  0.14787104476E+04  0.25500000920E-02 0.  1.
       -2    1    3    3    0  502  0.12287070774E+04 -0.81597113452E+03 -0.12075643819E+04  0.19062375798E+04  0.25500000920E-02 0. -1.
</event>
<event>
 5   0  0.9353994E-08  0.3202013E+04  0.7818609E-02  0.8188286E-01
        2   -1    0    0  501    0  0.00000000000E+00  0.00000000000E+00  0.22999580041E+04  0.22999580041E+04  0.25500000920E-02 0.  1.
       -2   -1    0    0    0  501  0.00000000000E+00  0.00000000000E+00 -0.11144645429E+04  0.11144645429E+04  0.25500000920E-02 0. -1.
    10030    2    1    2    0    0  0.00000000000E+00  0.00000000000E+00  0.11854934612E+04  0.34144225470E+04  0.32020128954E+04 0.  0.
        2    1    3    3  502    0  0.12483071732E+04 -0.12050994231E+03  0.16539673699E+04  0.20756689296E+04  0.25500000920E-02 0.  1.
       -2    1    3    3    0  502 -0.12483071732E+04  0.12050994231E+03 -0.46847390862E+03  0.13387536173E+04  0.25500000920E-02 0. -1.
</event>
<event>
 5   0  0.3343140E-08  0.3200196E+04  0.7818609E-02  0.8188765E-01
        1   -1    0    0  501    0  0.00000000000E+00  0.00000000000E+00  0.19234537021E+04  0.19234537021E+04  0.50400001928E-02 0. -1.
       -1   -1    0    0    0  501  0.00000000000E+00  0.00000000000E+00 -0.13311022342E+04  0.13311022342E+04  0.50400001928E-02 0.  1.
    10030    2    1    2    0    0  0.00000000000E+00  0.00000000000E+00  0.59235146793E+03  0.32545559363E+04  0.32001959442E+04 0.  0.
        1    1    3    3  502    0 -0.77097981622E+03  0.11091664366E+04 -0.57609602234E+03  0.14685185351E+04  0.50400001928E-02 0.  1.
       -1    1    3    3    0  502  0.77097981622E+03 -0.11091664366E+04  0.11684474903E+04  0.17860374012E+04  0.50400001928E-02 0. -1.
</event>
<event>
 5   0  0.3220147E-08  0.3199568E+04  0.7818609E-02  0.8188931E-01
       -1   -1    0    0    0  501  0.00000000000E+00  0.00000000000E+00  0.13452755925E+04  0.13452755925E+04  0.50400001928E-02 0.  1.
        1   -1    0    0  501    0  0.00000000000E+00  0.00000000000E+00 -0.19024420522E+04  0.19024420523E+04  0.50400001928E-02 0. -1.
    10030    2    1    2    0    0  0.00000000000E+00  0.00000000000E+00 -0.55716645973E+03  0.32477176448E+04  0.31995680078E+04 0.  0.
        4    1    3    3  502    0 -0.12393143915E+04 -0.13022321142E+03 -0.12968997880E+04  0.17985574550E+04  0.12699999809E+01 0. -1.
       -4    1    3    3    0  502  0.12393143915E+04  0.13022321142E+03  0.73973332831E+03  0.14491601898E+04  0.12699999809E+01 0.  1.
</event>
<event>
 5   0  0.3283581E-08  0.3200378E+04  0.7818609E-02  0.8188717E-01
        1   -1    0    0  501    0  0.00000000000E+00  0.00000000000E+00  0.11883109452E+04  0.11883109452E+04  0.50400001928E-02 0. -1.
       -1   -1    0    0    0  501  0.00000000000E+00  0.00000000000E+00 -0.21548267140E+04  0.21548267140E+04  0.50400001928E-02 0.  1.
    10030    2    1    2    0    0  0.00000000000E+00  0.00000000000E+00 -0.96651576884E+03  0.33431376592E+04  0.32003775835E+04 0.  0.
        5    1    3    3  502    0 -0.11164628292E+04  0.11212468883E+04 -0.73243174366E+03  0.17436060858E+04  0.46999998093E+01 0.  1.
       -5    1    3    3    0  502  0.11164628292E+04 -0.11212468883E+04 -0.23408402518E+03  0.15995315734E+04  0.46999998093E+01 0. -1.
</event>
<event>
 5   0  0.9727083E-08  0.3179810E+04  0.7818609E-02  0.8194170E-01
        2   -1    0    0  501    0  0.00000000000E+00  0.00000000000E+00  0.14516847928E+04  0.14516847928E+04  0.25500000920E-02 0. -1.
       -2   -1    0    0    0  501  0.00000000000E+00  0.00000000000E+00 -0.17412859420E+04  0.17412859420E+04  0.25500000920E-02 0.  1.
    10030    2    1    2    0    0  0.00000000000E+00  0.00000000000E+00 -0.28960114918E+03  0.31929707347E+04  0.31798102596E+04 0.  0.
        4    1    3    3  502    0 -0.79529655082E+02 -0.45961873281E+03  0.13814316662E+04  0.14580567228E+04  0.12699999809E+01 0. -1.
       -4    1    3    3    0  502  0.79529655082E+02  0.45961873281E+03 -0.16710328154E+04  0.17349140119E+04  0.12699999809E+01 0.  1.
</event>
<event>
 5   0  0.3283581E-08  0.3200049E+04  0.7818609E-02  0.8188804E-01
        1   -1    0    0  501    0  0.00000000000E+00  0.00000000000E+00  0.19787496494E+04  0.19787496494E+04  0.50400001928E-02 0.  1.
       -1   -1    0    0    0  501  0.00000000000E+00  0.00000000000E+00 -0.12937862141E+04  0.12937862141E+04  0.50400001928E-02 0. -1.
    10030    2    1    2    0    0  0.00000000000E+00  0.00000000000E+00  0.68496343529E+03  0.32725358635E+04  0.32000493856E+04 0.  0.
        5    1    3    3  502    0  0.15851639930E+04  0.14108670877E+03  0.17318240918E+03  0.16008324649E+04  0.46999998093E+01 0.  1.
       -5    1    3    3    0  502 -0.15851639930E+04 -0.14108670877E+03  0.51178102612E+03  0.16717033985E+04  0.46999998093E+01 0. -1.
</event>
<event>
 5   0  0.9329929E-08  0.3198463E+04  0.7818609E-02  0.8189223E-01
        2   -1    0    0  501    0  0.00000000000E+00  0.00000000000E+00  0.18217603136E+04  0.18217603136E+04  0.25500000920E-02 0.  1.
       -2   -1    0    0    0  501  0.00000000000E+00  0.00000000000E+00 -0.14038846950E+04  0.14038846950E+04  0.25500000920E-02 0. -1.
    10030    2    1    2    0    0  0.00000000000E+00  0.00000000000E+00  0.41787561858E+03  0.32256450086E+04  0.31984630198E+04 0.  0.
        1    1    3    3  502    0 -0.54790912158E+03 -0.11125795613E+04  0.12272235151E+04  0.17447393048E+04  0.50400001928E-02 0.  1.
       -1    1    3    3    0  502  0.54790912158E+03  0.11125795613E+04 -0.80934789655E+03  0.14809057038E+04  0.50400001928E-02 0. -1.
</event>
<event>
 5   0  0.3283581E-08  0.3200171E+04  0.7818609E-02  0.8188772E-01
       -1   -1    0    0    0  501  0.00000000000E+00  0.00000000000E+00  0.17072313819E+04  0.17072313819E+04  0.50400001928E-02 0.  1.
        1   -1    0    0  501    0  0.00000000000E+00  0.00000000000E+00 -0.14996645373E+04  0.14996645373E+04  0.50400001928E-02 0. -1.
    10030    2    1    2    0    0  0.00000000000E+00  0.00000000000E+00  0.20756684465E+03  0.32068959192E+04  0.32001714706E+04 0.  0.
        5    1    3    3  502    0  0.91279117897E+03  0.13064930272E+04  0.24599887320E+03  0.16126528771E+04  0.46999998093E+01 0.  1.
       -5    1    3    3    0  502 -0.91279117897E+03 -0.13064930272E+04 -0.38432028547E+02  0.15942430421E+04  0.46999998093E+01 0. -1.
</event>
<event>
 5   0  0.3270966E-08  0.3200468E+04  0.7818609E-02  0.8188693E-01
       -1   -1    0    0    0  501  0.00000000000E+00  0.00000000000E+00  0.13329688737E+04  0.13329688737E+04  0.50400001928E-02 0.  1.
        1   -1    0    0  501    0  0.00000000000E+00  0.00000000000E+00 -0.19210872550E+04  0.19210872550E+04  0.50400001928E-02 0. -1.
    10030    2    1    2    0    0  0.00000000000E+00  0.00000000000E+00 -0.58811838123E+03  0.32540561287E+04  0.32004684124E+04 0.  0.
        3    1    3    3  502    0 -0.88066621658E+03 -0.10591924997E+04  0.53400211061E+03  0.14773692838E+04  0.10100000352E+00 0.  1.
       -3    1    3    3    0  502  0.88066621658E+03  0.10591924997E+04 -0.11221204918E+04  0.17766868449E+04  0.10100000352E+00 0. -1.
</event>
<event>
 5   0  0.3270966E-08  0.3202173E+04  0.7818609E-02  0.8188244E-01
       -1   -1    0    0    0  501  0.00000000000E+00  0.00000000000E+00  0.12517791486E+04  0.12517791486E+04  0.50400001928E-02 0. -1.
        1   -1    0    0  501    0  0.00000000000E+00  0.00000000000E+00 -0.20478671428E+04  0.20478671428E+04  0.50400001928E-02 0.  1.
    10030    2    1    2    0    0  0.00000000000E+00  0.00000000000E+00 -0.79608799417E+03  0.32996462914E+04  0.32021726302E+04 0.  0.
        3    1    3    3  502    0 -0.13900805553E+04 -0.39936039342E+03  0.30963993589E+03  0.14790840322E+04  0.10100000352E+00 0. -1.
       -3    1    3    3    0  502  0.13900805553E+04  0.39936039342E+03 -0.11057279301E+04  0.18205622592E+04  0.10100000352E+00 0.  1.
</event>
<event>
 5   0  0.3283581E-08  0.3199708E+04  0.7818609E-02  0.8188894E-01
       -1   -1    0    0    0  501  0.00000000000E+00  0.00000000000E+00  0.97787262000E+03  0.97787262002E+03  0.50400001928E-02 0.  1.
        1   -1    0    0  501    0  0.00000000000E+00  0.00000000000E+00 -0.26174508873E+04  0.26174508873E+04  0.50400001928E-02 0. -1.
    10030    2    1    2    0    0  0.00000000000E+00  0.00000000000E+00 -0.16395782673E+04  0.35953235074E+04  0.31997084598E+04 0.  0.
        5    1    3    3  502    0 -0.15134031274E+04 -0.43604007013E+03 -0.50398505095E+03  0.16536453641E+04  0.46999998093E+01 0. -1.
       -5    1    3    3    0  502  0.15134031274E+04  0.43604007013E+03 -0.11355932164E+04  0.19416781432E+04  0.46999998093E+01 0.  1.
</event>
<event>
 5   0  0.9727083E-08  0.3197603E+04  0.7818609E-02  0.8189451E-01
       -2   -1    0    0    0  501  0.00000000000E+00  0.00000000000E+00  0.17055831562E+04  0.17055831562E+04  0.25500000920E-02 0.  1.
        2   -1    0    0  501    0  0.00000000000E+00  0.00000000000E+00 -0.14987051261E+04  0.14987051261E+04  0.25500000920E-02 0. -1.
    10030    2    1    2    0    0  0.00000000000E+00  0.00000000000E+00  0.20687803010E+03  0.32042882823E+04  0.31976029892E+04 0.  0.
        4    1    3    3  502    0  0.10779179816E+04 -0.10049157389E+04 -0.51785867713E+03  0.15620313825E+04  0.12699999809E+01 0. -1.
       -4    1    3    3    0  502 -0.10779179816E+04  0.10049157389E+04  0.72473670723E+03  0.16422568999E+04  0.12699999809E+01 0.  1.
</event>
<event>
 5   0  0.9707721E-08  0.3199277E+04  0.7818609E-02  0.8189008E-01
        2   -1    0    0  501    0  0.00000000000E+00  0.00000000000E+00  0.15571431130E+04  0.15571431130E+04  0.25500000920E-02 0. -1.
       -2   -1    0    0    0  501  0.00000000000E+00  0.00000000000E+00 -0.16432939733E+04  0.16432939733E+04  0.25500000920E-02 0.  1.
    10030    2    1    2    0    0  0.00000000000E+00  0.00000000000E+00 -0.86150860206E+02  0.32004370863E+04  0.31992773516E+04 0.  0.
        3    1    3    3  502    0  0.34002139720E+03  0.87478090226E+03 -0.13389166486E+04  0.16351006023E+04  0.10100000352E+00 0. -1.
       -3    1    3    3    0  502 -0.34002139720E+03 -0.87478090226E+03  0.12527657884E+04  0.15653364840E+04  0.10100000352E+00 0.  1.
</event>
<event>
 5   0  0.9353994E-08  0.3198612E+04  0.7818609E-02  0.8189184E-01
        2   -1    0    0  501    0  0.00000000000E+00  0.00000000000E+00  0.14125902341E+04  0.14125902341E+04  0.25500000920E-02 0.  1.
       -2   -1    0    0    0  501  0.00000000000E+00  0.00000000000E+00 -0.18107017901E+04  0.18107017901E+04  0.25500000920E-02 0. -1.
    10030    2    1    2    0    0  0.00000000000E+00  0.00000000000E+00 -0.39811155596E+03  0.32232920242E+04  0.31986119900E+04 0.  0.
        2    1    3    3  502    0 -0.79528221612E+03  0.84851948957E+03  0.90728614891E+03  0.14750007741E+04  0.25500000920E-02 0.  1.
       -2    1    3    3    0  502  0.79528221612E+03 -0.84851948957E+03 -0.13053977049E+04  0.17482912501E+04  0.25500000920E-02 0. -1.
</event>
<event>
 5   0  0.9329929E-08  0.3202244E+04  0.7818609E-02  0.8188225E-01
       -2   -1    0    0    0  501  0.00000000000E+00  0.00000000000E+00  0.17977407483E+04  0.17977407483E+04  0.25500000920E-02 0.  1.
        2   -1    0    0  501    0  0.00000000000E+00  0.00000000000E+00 -0.14260071288E+04  0.14260071288E+04  0.25500000920E-02 0. -1.
    10030    2    1    2    0    0  0.00000000000E+00  0.00000000000E+00  0.37173361954E+03  0.32237478771E+04  0.32022436651E+04 0.  0.
        1    1    3    3  502    0  0.53679143118E+00 -0.14407803522E+04 -0.51720896257E+03  0.15308015620E+04  0.50400001928E-02 0. -1.
       -1    1    3    3    0  502 -0.53679143118E+00  0.14407803522E+04  0.88894258211E+03  0.16929463150E+04  0.50400001928E-02 0.  1.
</event>
<event>
 5   0  0.9157524E-08  0.3200221E+04  0.7818609E-02  0.8188759E-01
        2   -1    0    0  501    0  0.00000000000E+00  0.00000000000E+00  0.23089496607E+04  0.23089496607E+04  0.25500000920E-02 0.  1.
       -2   -1    0    0    0  501  0.00000000000E+00  0.00000000000E+00 -0.11088822037E+04  0.11088822037E+04  0.25500000920E-02 0. -1.
    10030    2    1    2    0    0  0.00000000000E+00  0.00000000000E+00  0.12000674570E+04  0.34178318643E+04  0.32002207348E+04 0.  0.
        5    1    3    3  502    0  0.11562495084E+04 -0.10477134608E+04  0.22136124277E+03  0.15759566337E+04  0.46999998093E+01 0. -1.
       -5    1    3    3    0  502 -0.11562495084E+04  0.10477134608E+04  0.97870621424E+03  0.18418752306E+04  0.46999998093E+01 0.  1.
</event>
<event>
 5   0  0.9707721E-08  0.3204755E+04  0.7818609E-02  0.8187562E-01
        2   -1    0    0  501    0  0.00000000000E+00  0.00000000000E+00  0.13527798332E+04  0.13527798332E+04  0.25500000920E-02 0.  1.
       -2   -1    0    0    0  501  0.00000000000E+00  0.00000000000E+00 -0.18980278755E+04  0.18980278755E+04  0.25500000920E-02 0. -1.
    10030    2    1    2    0    0  0.00000000000E+00  0.00000000000E+00 -0.54524804232E+03  0.32508077086E+04  0.32047551125E+04 0.  0.
        3    1    3    3  502    0  0.13515410549E+04  0.30915684791E+03 -0.10875191239E+04  0.17620837195E+04  0.10100000352E+00 0. -1.
       -3    1    3    3    0  502 -0.13515410549E+04 -0.30915684791E+03  0.54227108160E+03  0.14887239891E+04  0.10100000352E+00 0.  1.
</event>
<event>
 5   0  0.3343140E-08  0.3202310E+04  0.7818609E-02  0.8188207E-01
        1   -1    0    0  501    0  0.00000000000E+00  0.00000000000E+00  0.23542738683E+04  0.23542738683E+04  0.50400001928E-02 0.  1.
       -1   -1    0    0    0  501  0.00000000000E+00  0.00000000000E+00 -0.10889545261E+04  0.10889545262E+04  0.50400001928E-02 0. -1.
    10030    2    1    2    0    0  0.00000000000E+00  0.00000000000E+00  0.12653193422E+04  0.34432283945E+04  0.32023099067E+04 0.  0.
        1    1    3    3  502    0  0.17957781965E+03  0.11600722719E+03  0.23388582898E+04  0.23486089436E+04  0.50400001928E-02 0.  1.
       -1    1    3    3    0  502 -0.17957781965E+03 -0.11600722719E+03 -0.10735389477E+04  0.10946194509E+04  0.50400001928E-02 0. -1.
</event>
<event>
 5   0  0.3270966E-08  0.3200577E+04  0.7818609E-02  0.8188665E-01
       -1   -1    0    0    0  501  0.00000000000E+00  0.00000000000E+00  0.75252329293E+03  0.75252329295E+03  0.50400001928E-02 0. -1.
        1   -1    0    0  501    0  0.00000000000E+00  0.00000000000E+00 -0.34031144684E+04  0.34031144684E+04  0.50400001928E-02 0.  1.
    10030    2    1    2    0    0  0.00000000000E+00  0.00000000000E+00 -0.26505911755E+04  0.41556377614E+04  0.32005767643E+04 0.  0.
        3    1    3    3  502    0 -0.10383598246E+04  0.59256811603E+03 -0.27064903004E+04  0.29587865509E+04  0.10100000352E+00 0.  1.
       -3    1    3    3    0  502  0.10383598246E+04 -0.59256811603E+03  0.55899124933E+02  0.11968512104E+04  0.10100000352E+00 0. -1.
</event>
<event>
 5   0  0.3283581E-08  0.3199612E+04  0.7818609E-02  0.8188920E-01
        1   -1    0    0  501    0  0.00000000000E+00  0.00000000000E+00  0.21398012072E+04  0.21398012072E+04  0.50400001928E-02 0. -1.
       -1   -1    0    0    0  501  0.00000000000E+00  0.00000000000E+00 -0.11960829663E+04  0.11960829663E+04  0.50400001928E-02 0.  1.
    10030    2    1    2    0    0  0.00000000000E+00  0.00000000000E+00  0.94371824091E+03  0.33358841734E+04  0.31996123360E+04 0.  0.
        5    1    3    3  502    0 -0.14864894614E+04 -0.57001425747E+03  0.63601496647E+03  0.17143816087E+04  0.46999998093E+01 0.  1.
       -5    1    3    3    0  502  0.14864894614E+04  0.57001425747E+03  0.30770327444E+03  0.16215025648E+04  0.46999998093E+01 0. -1.
</event>
<event>
 5   0  0.3270966E-08  0.3203735E+04  0.7818609E-02  0.8187831E-01
        1   -1    0    0  501    0  0.00000000000E+00  0.00000000000E+00  0.14575432130E+04  0.14575432130E+04  0.50400001928E-02 0. -1.
       -1   -1    0    0    0  501  0.00000000000E+00  0.00000000000E+00 -0.17604825269E+04  0.17604825269E+04  0.50400001928E-02 0.  1.
    10030    2    1    2    0    0  0.00000000000E+00  0.00000000000E+00 -0.30293931390E+03  0.32180257398E+04  0.32037349195E+04 0.  0.
        3    1    3    3  502    0 -0.65332190919E+03  0.98308445245E+02  0.13143152987E+04  0.14710264383E+04  0.10100000352E+00 0. -1.
       -3    1    3    3    0  502  0.65332190919E+03 -0.98308445245E+02 -0.16172546126E+04  0.17469993016E+04  0.10100000352E+00 0.  1.
</event>
<event>
 5   0  0.9353994E-08  0.3199188E+04  0.7818609E-02  0.8189032E-01
       -2   -1    0    0    0  501  0.00000000000E+00  0.00000000000E+00  0.14077795885E+04  0.14077795885E+04  0.25500000920E-02 0.  1.
        2   -1    0    0  501    0  0.00000000000E+00  0.00000000000E+00 -0.18175442879E+04  0.18175442879E+04  0.25500000920E-02 0. -1.
    10030    2    1    2    0    0  0.00000000000E+00  0.00000000000E+00 -0.40976469940E+03  0.32253238764E+04  0.31991884906E+04 0.  0.
        2    1    3    3  502    0 -0.51653513908E+03 -0.12208581096E+04 -0.11074043830E+04  0.17273238090E+04  0.25500000920E-02 0. -1.
       -2    1    3    3    0  502  0.51653513908E+03  0.12208581096E+04  0.69763968365E+03  0.14980000673E+04  0.25500000920E-02 0.  1.
</event>
<event>
 5   0  0.9707721E-08  0.3204343E+04  0.7818609E-02  0.8187671E-01
       -2   -1    0    0    0  501  0.00000000000E+00  0.00000000000E+00  0.87420454023E+03  0.87420454024E+03  0.25500000920E-02 0.  1.
        2   -1    0    0  501    0  0.00000000000E+00  0.00000000000E+00 -0.29363313230E+04  0.29363313230E+04  0.25500000920E-02 0. -1.
    10030    2    1    2    0    0  0.00000000000E+00  0.00000000000E+00 -0.20621267827E+04  0.38105358632E+04  0.32043434112E+04 0.  0.
        3    1    3    3  502    0  0.75203620446E+03 -0.40008411953E+03  0.58259881210E+03  0.10320112119E+04  0.10100000352E+00 0.  1.
       -3    1    3    3    0  502 -0.75203620446E+03  0.40008411953E+03 -0.26447255948E+04  0.27785246513E+04  0.10100000352E+00 0. -1.
</event>
<event>
 5   0  0.3270966E-08  0.3203548E+04  0.7818609E-02  0.8187881E-01
        1   -1    0    0  501    0  0.00000000000E+00  0.00000000000E+00  0.25540084945E+04  0.25540084946E+04  0.50400001928E-02 0. -1.
       -1   -1    0    0    0  501  0.00000000000E+00  0.00000000000E+00 -0.10045701572E+04  0.10045701572E+04  0.50400001928E-02 0.  1.
    10030    2    1    2    0    0  0.00000000000E+00  0.00000000000E+00  0.15494383373E+04  0.35585786518E+04  0.32035484794E+04 0.  0.
        3    1    3    3  502    0  0.61014914579E+03 -0.10813036412E+04  0.18988934875E+04  0.22687653100E+04  0.10100000352E+00 0. -1.
       -3    1    3    3    0  502 -0.61014914579E+03  0.10813036412E+04 -0.34945515021E+03  0.12898133418E+04  0.10100000352E+00 0.  1.
</event>
<event>
 5   0  0.3427667E-08  0.3200816E+04  0.7818609E-02  0.8188602E-01
       -1   -1    0    0    0  501  0.00000000000E+00  0.00000000000E+00  0.14616770869E+04  0.14616770869E+04  0.50400001928E-02 0. -1.
        1   -1    0    0  501    0  0.00000000000E+00  0.00000000000E+00 -0.17523064676E+04  0.17523064676E+04  0.50400001928E-02 0.  1.
    10030    2    1    2    0    0  0.00000000000E+00  0.00000000000E+00 -0.29062938075E+03  0.32139835545E+04  0.32008162789E+04 0.  0.
        2    1    3    3  502    0  0.26757699655E+03  0.53745853624E+03  0.13443133457E+04  0.14722898827E+04  0.25500000920E-02 0. -1.
       -2    1    3    3    0  502 -0.26757699655E+03 -0.53745853624E+03 -0.16349427265E+04  0.17416936717E+04  0.25500000920E-02 0.  1.
</event>
<event>
 5   0  0.9353994E-08  0.3200107E+04  0.7818609E-02  0.8188789E-01
       -2   -1    0    0    0  501  0.00000000000E+00  0.00000000000E+00  0.21496803106E+04  0.21496803106E+04  0.25500000920E-02 0.  1.
        2   -1    0    0  501    0  0.00000000000E+00  0.00000000000E+00 -0.11909545534E+04  0.11909545534E+04  0.25500000920E-02 0. -1.
    10030    2    1    2    0    0  0.00000000000E+00  0.00000000000E+00  0.95872575721E+03  0.33406348640E+04  0.32001072197E+04 0.  0.
        2    1    3    3  502    0 -0.13993320277E+03  0.13200457592E+04  0.14119401397E+04  0.19379569309E+04  0.25500000920E-02 0.  1.
       -2    1    3    3    0  502  0.13993320277E+03 -0.13200457592E+04 -0.45321438253E+03  0.14026779332E+04  0.25500000920E-02 0. -1.
</event>
<event>
 5   0  0.3220147E-08  0.3206881E+04  0.7818609E-02  0.8187002E-01
       -1   -1    0    0    0  501  0.00000000000E+00  0.00000000000E+00  0.14517604262E+04  0.14517604262E+04  0.50400001928E-02 0.  1.
        1   -1    0    0  501    0  0.00000000000E+00  0.00000000000E+00 -0.17709685022E+04  0.17709685022E+04  0.50400001928E-02 0. -1.
    10030    2    1    2    0    0  0.00000000000E+00  0.00000000000E+00 -0.31920807606E+03  0.32227289284E+04  0.32068813433E+04 0.  0.
        4    1    3    3  502    0 -0.58051809064E+03 -0.10825287115E+04 -0.11953039952E+04  0.17139495088E+04  0.12699999809E+01 0. -1.
       -4    1    3    3    0  502  0.58051809064E+03  0.10825287115E+04  0.87609591914E+03  0.15087794196E+04  0.12699999809E+01 0.  1.
</event>
<event>
 5   0  0.9329929E-08  0.3196836E+04  0.7818609E-02  0.8189653E-01
       -2   -1    0    0    0  501  0.00000000000E+00  0.00000000000E+00  0.12881407641E+04  0.12881407641E+04  0.25500000920E-02 0. -1.
        2   -1    0    0  501    0  0.00000000000E+00  0.00000000000E+00 -0.19834327974E+04  0.19834327974E+04  0.25500000920E-02 0.  1.
    10030    2    1    2    0    0  0.00000000000E+00  0.00000000000E+00 -0.69529203328E+03  0.32715735615E+04  0.31968363356E+04 0.  0.
        1    1    3    3  502    0 -0.73322793244E+03 -0.94029858043E+03  0.74173835819E+03  0.14042650794E+04  0.50400001928E-02 0. -1.
       -1    1    3    3    0  502  0.73322793244E+03  0.94029858043E+03 -0.14370303915E+04  0.18673084821E+04  0.50400001928E-02 0.  1.
</event>
<event>
 5   0  0.3220147E-08  0.3199545E+04  0.7818609E-02  0.8188937E-01
       -1   -1    0    0    0  501  0.00000000000E+00  0.00000000000E+00  0.15203706959E+04  0.15203706959E+04  0.50400001928E-02 0. -1.
        1   -1    0    0  501    0  0.00000000000E+00  0.00000000000E+00 -0.16833209943E+04  0.16833209943E+04  0.50400001928E-02 0.  1.
    10030    2    1    2    0    0  0.00000000000E+00  0.00000000000E+00 -0.16295029845E+03  0.32036916902E+04  0.31995449123E+04 0.  0.
        4    1    3    3  502    0  0.93553847301E+03 -0.11852505129E+04 -0.61057204057E+03  0.16287574535E+04  0.12699999809E+01 0.  1.
       -4    1    3    3    0  502 -0.93553847301E+03  0.11852505129E+04  0.44762174212E+03  0.15749342366E+04  0.12699999809E+01 0. -1.
</event>
<event>
 5   0  0.3270966E-08  0.3201174E+04  0.7818609E-02  0.8188507E-01
       -1   -1    0    0    0  501  0.00000000000E+00  0.00000000000E+00  0.16725386985E+04  0.16725386985E+04  0.50400001928E-02 0. -1.
        1   -1    0    0  501    0  0.00000000000E+00  0.00000000000E+00 -0.15317307245E+04  0.15317307245E+04  0.50400001928E-02 0.  1.
    10030    2    1    2    0    0  0.00000000000E+00  0.00000000000E+00  0.14080797407E+03  0.32042694230E+04  0.32011741048E+04 0.  0.
        3    1    3    3  502    0 -0.85138805839E+03 -0.58826660814E+03  0.12926332542E+04  0.16558441860E+04  0.10100000352E+00 0. -1.
       -3    1    3    3    0  502  0.85138805839E+03  0.58826660814E+03 -0.11518252802E+04  0.15484252370E+04  0.10100000352E+00 0.  1.
</event>
<event>
 5   0  0.3427667E-08  0.3200351E+04  0.7818609E-02  0.8188724E-01
        1   -1    0    0  501    0  0.00000000000E+00  0.00000000000E+00  0.84533875455E+03  0.84533875456E+03  0.50400001928E-02 0.  1.
       -1   -1    0    0    0  501  0.00000000000E+00  0.00000000000E+00 -0.30290368221E+04  0.30290368221E+04  0.50400001928E-02 0. -1.
    10030    2    1    2    0    0  0.00000000000E+00  0.00000000000E+00 -0.21836980675E+04  0.38743755766E+04  0.32003513649E+04 0.  0.
        2    1    3    3  502    0  0.24517146505E+03  0.44640276111E+03 -0.29282991617E+04  0.29722584768E+04  0.25500000920E-02 0. -1.
       -2    1    3    3    0  502 -0.24517146505E+03 -0.44640276111E+03  0.74460109417E+03  0.90211709986E+03  0.25500000920E-02 0.  1.
</event>
<event>
 5   0  0.9329929E-08  0.3200161E+04  0.7818609E-02  0.8188775E-01
        2   -1    0    0  501    0  0.00000000000E+00  0.00000000000E+00  0.12266760992E+04  0.12266760992E+04  0.25500000920E-02 0.  1.
       -2   -1    0    0    0  501  0.00000000000E+00  0.00000000000E+00 -0.20871509322E+04  0.20871509322E+04  0.25500000920E-02 0. -1.
    10030    2    1    2    0    0  0.00000000000E+00  0.00000000000E+00 -0.86047483305E+03  0.33138270314E+04  0.32001613484E+04 0.  0.
        1    1    3    3  502    0  0.66238290632E+03 -0.51874144193E+03  0.97913910012E+03  0.12909520423E+04  0.50400001928E-02 0.  1.
       -1    1    3    3    0  502 -0.66238290632E+03  0.51874144193E+03 -0.18396139332E+04  0.20228749890E+04  0.50400001928E-02 0. -1.
</event>
<event>
 5   0  0.9157524E-08  0.3201434E+04  0.7818609E-02  0.8188439E-01
       -2   -1    0    0    0  501  0.00000000000E+00  0.00000000000E+00  0.10340569349E+04  0.10340569349E+04  0.25500000920E-02 0.  1.
        2   -1    0    0  501    0  0.00000000000E+00  0.00000000000E+00 -0.24779045094E+04  0.24779045094E+04  0.25500000920E-02 0. -1.
    10030    2    1    2    0    0  0.00000000000E+00  0.00000000000E+00 -0.14438475745E+04  0.35119614443E+04  0.32014336426E+04 0.  0.
        5    1    3    3  502    0  0.97114356169E+03  0.66473886915E+02 -0.21159010300E+04  0.23290766097E+04  0.46999998093E+01 0. -1.
       -5    1    3    3    0  502 -0.97114356169E+03 -0.66473886915E+02  0.67205345547E+03  0.11828848347E+04  0.46999998093E+01 0.  1.
</event>
<event>
 5   0  0.3283581E-08  0.3200428E+04  0.7818609E-02  0.8188704E-01
        1   -1    0    0  501    0  0.00000000000E+00  0.00000000000E+00  0.13496136772E+04  0.13496136772E+04  0.50400001928E-02 0.  1.
       -1   -1    0    0    0  501  0.00000000000E+00  0.00000000000E+00 -0.18973468470E+04  0.18973468470E+04  0.50400001928E-02 0. -1.
    10030    2    1    2    0    0  0.00000000000E+00  0.00000000000E+00 -0.54773316979E+03  0.32469605243E+04  0.32004282558E+04 0.  0.
        5    1    3    3  502    0 -0.42128696245E+03 -0.13553704080E+04  0.47589897069E+03  0.14970015257E+04  0.46999998093E+01 0. -1.
       -5    1    3    3    0  502  0.42128696245E+03  0.13553704080E+04 -0.10236321405E+04  0.17499589986E+04  0.46999998093E+01 0.  1.
</event>
<event>
 5   0  0.9727083E-08  0.3199424E+04  0.7818609E-02  0.8188969E-01
        2   -1    0    0  501    0  0.00000000000E+00  0.00000000000E+00  0.24013753628E+04  0.24013753628E+04  0.25500000920E-02 0.  1.
       -2   -1    0    0    0  501  0.00000000000E+00  0.00000000000E+00 -0.10656723030E+04  0.10656723030E+04  0.25500000920E-02 0. -1.
    10030    2    1    2    0    0  0.00000000000E+00  0.00000000000E+00  0.13357030598E+04  0.34670476659E+04  0.31994244566E+04 0.  0.
        4    1    3    3  502    0 -0.13443463442E+04 -0.46159114723E+03 -0.12753681693E+03  0.14270952081E+04  0.12699999809E+01 0. -1.
       -4    1    3    3    0  502  0.13443463442E+04  0.46159114723E+03  0.14632398767E+04  0.20399524578E+04  0.12699999809E+01 0.  1.
</event>
<event>
 5   0  0.3343140E-08  0.3197081E+04  0.7818609E-02  0.8189589E-01
        1   -1    0    0  501    0  0.00000000000E+00  0.00000000000E+00  0.20043718135E+04  0.20043718135E+04  0.50400001928E-02 0.  1.
       -1   -1    0    0    0  501  0.00000000000E+00  0.00000000000E+00 -0.12748787104E+04  0.12748787104E+04  0.50400001928E-02 0. -1.
    10030    2    1    2    0    0  0.00000000000E+00  0.00000000000E+00  0.72949310313E+03  0.32792505239E+04  0.31970805137E+04 0.  0.
        1    1    3    3  502    0 -0.20478081416E+03  0.15776669330E+04  0.20464896039E+03  0.16040103897E+04  0.50400001928E-02 0. -1.
       -1    1    3    3    0  502  0.20478081416E+03 -0.15776669330E+04  0.52484414274E+03  0.16752401343E+04  0.50400001928E-02 0.  1.
</event>
<event>
 5   0  0.3283581E-08  0.3199101E+04  0.7818609E-02  0.8189055E-01
       -1   -1    0    0    0  501  0.00000000000E+00  0.00000000000E+00  0.10082577989E+04  0.10082577989E+04  0.50400001928E-02 0.  1.
        1   -1    0    0  501    0  0.00000000000E+00  0.00000000000E+00 -0.25376072228E+04  0.25376072228E+04  0.50400001928E-02 0. -1.
    10030    2    1    2    0    0  0.00000000000E+00  0.00000000000E+00 -0.15293494240E+04  0.35458650217E+04  0.31991012944E+04 0.  0.
        5    1    3    3  502    0  0.93574315864E+02 -0.19278676054E+03 -0.25216165324E+04  0.25307103576E+04  0.46999998093E+01 0. -1.
       -5    1    3    3    0  502 -0.93574315864E+02  0.19278676054E+03  0.99226710842E+03  0.10151546641E+04  0.46999998093E+01 0.  1.
</event>
<event>
 5   0  0.3427667E-08  0.3200100E+04  0.7818609E-02  0.8188791E-01
       -1   -1    0    0    0  501  0.00000000000E+00  0.00000000000E+00  0.26596991699E+04  0.26596991699E+04  0.50400001928E-02 0. -1.
        1   -1    0    0  501    0  0.00000000000E+00  0.00000000000E+00 -0.96257517479E+03  0.96257517480E+03  0.50400001928E-02 0.  1.
    10030    2    1    2    0    0  0.00000000000E+00  0.00000000000E+00  0.16971239951E+04  0.36222743447E+04  0.32001002443E+04 0.  0.
        2    1    3    3  502    0 -0.11257050331E+04 -0.10354574792E+04  0.31670599945E+03  0.15619496480E+04  0.25500000920E-02 0.  1.
       -2    1    3    3    0  502  0.11257050331E+04  0.10354574792E+04  0.13804179956E+04  0.20603246966E+04  0.25500000920E-02 0. -1.
</event>
<event>
 5   0  0.3427667E-08  0.3200114E+04  0.7818609E-02  0.8188787E-01
       -1   -1    0    0    0  501  0.00000000000E+00  0.00000000000E+00  0.13355974235E+04  0.13355974235E+04  0.50400001928E-02 0.  1.
        1   -1    0    0  501    0  0.00000000000E+00  0.00000000000E+00 -0.19168817507E+04  0.19168817507E+04  0.50400001928E-02 0. -1.
    10030    2    1    2    0    0  0.00000000000E+00  0.00000000000E+00 -0.58128432719E+03  0.32524791743E+04  0.32001139527E+04 0.  0.
        2    1    3    3  502    0 -0.55674634257E+03  0.98236717302E+02  0.12307034693E+04  0.13543441113E+04  0.25500000920E-02 0.  1.
       -2    1    3    3    0  502  0.55674634257E+03 -0.98236717302E+02 -0.18119877965E+04  0.18981350629E+04  0.25500000920E-02 0. -1.
</event>
<event>
 5   0  0.3283581E-08  0.3200805E+04  0.7818609E-02  0.8188605E-01
        1   -1    0    0  501    0  0.00000000000E+00  0.00000000000E+00  0.10496309351E+04  0.10496309351E+04  0.50400001928E-02 0. -1.
       -1   -1    0    0    0  501  0.00000000000E+00  0.00000000000E+00 -0.24401798302E+04  0.24401798302E+04  0.50400001928E-02 0.  1.
    10030    2    1    2    0    0  0.00000000000E+00  0.00000000000E+00 -0.13905488951E+04  0.34898107654E+04  0.32008050469E+04 0.  0.
        5    1    3    3  502    0 -0.13139867853E+04 -0.49977540590E+03  0.13858794445E+03  0.14126448374E+04  0.46999998093E+01 0. -1.
       -5    1    3    3    0  502  0.13139867853E+04  0.49977540590E+03 -0.15291368395E+04  0.20771659280E+04  0.46999998093E+01 0.  1.
</event>
<event>
 5   0  0.3283581E-08  0.3198717E+04  0.7818609E-02  0.8189156E-01
        1   -1    0    0  501    0  0.00000000000E+00  0.00000000000E+00  0.20989567501E+04  0.20989567501E+04  0.50400001928E-02 0.  1.
       -1   -1    0    0    0  501  0.00000000000E+00  0.00000000000E+00 -0.12186760213E+04  0.12186760213E+04  0.50400001928E-02 0. -1.
    10030    2    1    2    0    0  0.00000000000E+00  0.00000000000E+00  0.88028072878E+03  0.33176327715E+04  0.31987174062E+04 0.  0.
        5    1    3    3  502    0 -0.77662120579E+03 -0.80681201403E+03  0.16244481844E+04  0.19730535008E+04  0.46999998093E+01 0.  1.
       -5    1    3    3    0  502  0.77662120579E+03  0.80681201403E+03 -0.74416745557E+03  0.13445792707E+04  0.46999998093E+01 0. -1.
</event>
<event>
 5   0  0.3427667E-08  0.3200491E+04  0.7818609E-02  0.8188687E-01
       -1   -1    0    0    0  501  0.00000000000E+00  0.00000000000E+00  0.12672329729E+04  0.12672329729E+04  0.50400001928E-02 0. -1.
        1   -1    0    0  501    0  0.00000000000E+00  0.00000000000E+00 -0.20207698007E+04  0.20207698007E+04  0.50400001928E-02 0.  1.
    10030    2    1    2    0    0  0.00000000000E+00  0.00000000000E+00 -0.75353682774E+03  0.32880027736E+04  0.32004912886E+04 0.  0.
        2    1    3    3  502    0  0.50822276576E+03  0.14819785418E+04 -0.41918616599E+02  0.15672612891E+04  0.25500000920E-02 0. -1.
       -2    1    3    3    0  502 -0.50822276576E+03 -0.14819785418E+04 -0.71161821114E+03  0.17207414845E+04  0.25500000920E-02 0.  1.
</event>
<event>
 5   0  0.3427667E-08  0.3195614E+04  0.7818609E-02  0.8189976E-01
       -1   -1    0    0    0  501  0.00000000000E+00  0.00000000000E+00  0.13825572162E+04  0.13825572163E+04  0.50400001928E-02 0. -1.
        1   -1    0    0  501    0  0.00000000000E+00  0.00000000000E+00 -0.18465688956E+04  0.18465688956E+04  0.50400001928E-02 0.  1.
    10030    2    1    2    0    0  0.00000000000E+00  0.00000000000E+00 -0.46401167939E+03  0.32291261119E+04  0.31956139642E+04 0.  0.
        2    1    3    3  502    0 -0.24066995545E+03 -0.70565887923E+03  0.11960058491E+04  0.14093638538E+04  0.25500000920E-02 0. -1.
       -2    1    3    3    0  502  0.24066995545E+03  0.70565887923E+03 -0.16600175285E+04  0.18197622581E+04  0.25500000920E-02 0.  1.
</event>
<event>
 5   0  0.3427667E-08  0.3199507E+04  0.7818609E-02  0.8188947E-01
       -1   -1    0    0    0  501  0.00000000000E+00  0.00000000000E+00  0.12181515659E+04  0.12181515659E+04  0.50400001928E-02 0.  1.
        1   -1    0    0  501    0  0.00000000000E+00  0.00000000000E+00 -0.21008970367E+04  0.21008970367E+04  0.50400001928E-02 0. -1.
    10030    2    1    2    0    0  0.00000000000E+00  0.00000000000E+00 -0.88274547079E+03  0.33190486027E+04  0.31995068465E+04 0.  0.
        2    1    3    3  502    0 -0.87707831202E+03 -0.27914480076E+03  0.91595693966E+03  0.12985242780E+04  0.25500000920E-02 0.  1.
       -2    1    3    3    0  502  0.87707831202E+03  0.27914480076E+03 -0.17987024104E+04  0.20205243247E+04  0.25500000920E-02 0. -1.
</event>
<event>
 5   0  0.9329929E-08  0.3200938E+04  0.7818609E-02  0.8188570E-01
       -2   -1    0    0    0  501  0.00000000000E+00  0.00000000000E+00  0.10569838170E+04  0.10569838170E+04  0.25500000920E-02 0. -1.
        2   -1    0    0  501    0  0.00000000000E+00  0.00000000000E+00 -0.24234057577E+04  0.24234057577E+04  0.25500000920E-02 0.  1.
    10030    2    1    2    0    0  0.00000000000E+00  0.00000000000E+00 -0.13664219407E+04  0.34803895747E+04  0.32009377800E+04 0.  0.
        1    1    3    3  502    0  0.53756010764E+03 -0.68784494582E+03 -0.21417376565E+04  0.23128211622E+04  0.50400001928E-02 0.  1.
       -1    1    3    3    0  502 -0.53756010764E+03  0.68784494582E+03  0.77531571577E+03  0.11675684125E+04  0.50400001928E-02 0. -1.
</event>
<event>
 5   0  0.3283581E-08  0.3198573E+04  0.7818609E-02  0.8189194E-01
        1   -1    0    0  501    0  0.00000000000E+00  0.00000000000E+00  0.19257418839E+04  0.19257418839E+04  0.50400001928E-02 0. -1.
       -1   -1    0    0    0  501  0.00000000000E+00  0.00000000000E+00 -0.13281722417E+04  0.13281722417E+04  0.50400001928E-02 0.  1.
    10030    2    1    2    0    0  0.00000000000E+00  0.00000000000E+00  0.59756964221E+03  0.32539141256E+04  0.31985727536E+04 0.  0.
        5    1    3    3  502    0 -0.13695417941E+04 -0.77580042038E+03  0.10718033354E+02  0.15740546319E+04  0.46999998093E+01 0.  1.
       -5    1    3    3    0  502  0.13695417941E+04  0.77580042038E+03  0.58685160886E+03  0.16798594938E+04  0.46999998093E+01 0. -1.
</event>
<event>
 5   0  0.3427667E-08  0.3217242E+04  0.7818609E-02  0.8184278E-01
       -1   -1    0    0    0  501  0.00000000000E+00  0.00000000000E+00  0.15437721974E+04  0.15437721974E+04  0.50400001928E-02 0. -1.
        1   -1    0    0  501    0  0.00000000000E+00  0.00000000000E+00 -0.16761941768E+04  0.16761941768E+04  0.50400001928E-02 0.  1.
    10030    2    1    2    0    0  0.00000000000E+00  0.00000000000E+00 -0.13242197938E+03  0.32199663742E+04  0.32172422772E+04 0.  0.
        2    1    3    3  502    0 -0.11136239051E+04  0.16590278287E+03 -0.12160876267E+04  0.16572721717E+04  0.25500000920E-02 0.  1.
       -2    1    3    3    0  502  0.11136239051E+04 -0.16590278287E+03  0.10836656473E+04  0.15626942025E+04  0.25500000920E-02 0. -1.
</event>
<event>
 5   0  0.3343140E-08  0.3204476E+04  0.7818609E-02  0.8187636E-01
       -1   -1    0    0    0  501  0.00000000000E+00  0.00000000000E+00  0.20999450269E+04  0.20999450269E+04  0.50400001928E-02 0.  1.
        1   -1    0    0  501    0  0.00000000000E+00  0.00000000000E+00 -0.12224926127E+04  0.12224926127E+04  0.50400001928E-02 0. -1.
    10030    2    1    2    0    0  0.00000000000E+00  0.00000000000E+00  0.87745241414E+03  0.33224376396E+04  0.32044764206E+04 0.  0.
        1    1    3    3  502    0 -0.28425768676E+03 -0.12675872622E+04 -0.53366103780E+03  0.14044123337E+04  0.50400001928E-02 0. -1.
       -1    1    3    3    0  502  0.28425768676E+03  0.12675872622E+04  0.14111134519E+04  0.19180253059E+04  0.50400001928E-02 0.  1.
</event>
<event>
 5   0  0.9157524E-08  0.3199991E+04  0.7818609E-02  0.8188820E-01
       -2   -1    0    0    0  501  0.00000000000E+00  0.00000000000E+00  0.12319357237E+04  0.12319357237E+04  0.25500000920E-02 0.  1.
        2   -1    0    0  501    0  0.00000000000E+00  0.00000000000E+00 -0.20780189125E+04  0.20780189125E+04  0.25500000920E-02 0. -1.
    10030    2    1    2    0    0  0.00000000000E+00  0.00000000000E+00 -0.84608318877E+03  0.33099546362E+04  0.31999910831E+04 0.  0.
        5    1    3    3  502    0 -0.56153515990E+03 -0.84980647690E+03 -0.16993268966E+04  0.19812185078E+04  0.46999998093E+01 0. -1.
       -5    1    3    3    0  502  0.56153515990E+03  0.84980647690E+03  0.85324370788E+03  0.13287361284E+04  0.46999998093E+01 0.  1.
</event>
<event>
 5   0  0.9157524E-08  0.3199313E+04  0.7818609E-02  0.8188999E-01
        2   -1    0    0  501    0  0.00000000000E+00  0.00000000000E+00  0.19163329876E+04  0.19163329876E+04  0.25500000920E-02 0.  1.
       -2   -1    0    0    0  501  0.00000000000E+00  0.00000000000E+00 -0.13353112959E+04  0.13353112959E+04  0.25500000920E-02 0. -1.
    10030    2    1    2    0    0  0.00000000000E+00  0.00000000000E+00  0.58102169176E+03  0.32516442835E+04  0.31993131044E+04 0.  0.
        5    1    3    3  502    0  0.80112432134E+03  0.45012673837E+03 -0.10402823233E+04  0.13880286960E+04  0.46999998093E+01 0. -1.
       -5    1    3    3    0  502 -0.80112432134E+03 -0.45012673837E+03  0.16213040150E+04  0.18636155875E+04  0.46999998093E+01 0.  1.
</event>
<event>
 5   0  0.9727083E-08  0.3200064E+04  0.7818609E-02  0.8188800E-01
       -2   -1    0    0    0  501  0.00000000000E+00  0.00000000000E+00  0.95547986319E+03  0.95547986319E+03  0.25500000920E-02 0.  1.
        2   -1    0    0  501    0  0.00000000000E+00  0.00000000000E+00 -0.26793883646E+04  0.26793883646E+04  0.25500000920E-02 0. -1.
    10030    2    1    2    0    0  0.00000000000E+00  0.00000000000E+00 -0.17239085014E+04  0.36348682278E+04  0.32000635169E+04 0.  0.
        4    1    3    3  502    0 -0.34378079889E+03 -0.65770534473E+03  0.74815972965E+03  0.10538055571E+04  0.12699999809E+01 0.  1.
       -4    1    3    3    0  502  0.34378079889E+03  0.65770534473E+03 -0.24720682310E+04  0.25810626707E+04  0.12699999809E+01 0. -1.
</event>
<event>
 5   0  0.3283581E-08  0.3199388E+04  0.7818609E-02  0.8188979E-01
       -1   -1    0    0    0  501  0.00000000000E+00  0.00000000000E+00  0.10330652850E+04  0.10330652850E+04  0.50400001928E-02 0. -1.
        1   -1    0    0  501    0  0.00000000000E+00  0.00000000000E+00 -0.24771151292E+04  0.24771151293E+04  0.50400001928E-02 0.  1.
    10030    2    1    2    0    0  0.00000000000E+00  0.00000000000E+00 -0.14440498443E+04  0.35101804142E+04  0.31993884709E+04 0.  0.
        5    1    3    3  502    0 -0.78768283575E+02  0.13720428593E+04 -0.16202702550E+04  0.21246185162E+04  0.46999998093E+01 0. -1.
       -5    1    3    3    0  502  0.78768283575E+02 -0.13720428593E+04  0.17622041074E+03  0.13855618980E+04  0.46999998093E+01 0.  1.
</event>
<event>
 5   0  0.9353994E-08  0.3195402E+04  0.7818609E-02  0.8190033E-01
       -2   -1    0    0    0  501  0.00000000000E+00  0.00000000000E+00  0.90650999066E+03  0.90650999066E+03  0.25500000920E-02 0. -1.
        2   -1    0    0  501    0  0.00000000000E+00  0.00000000000E+00 -0.28159077156E+04  0.28159077156E+04  0.25500000920E-02 0.  1.
    10030    2    1    2    0    0  0.00000000000E+00  0.00000000000E+00 -0.19093977249E+04  0.37224177062E+04  0.31954019947E+04 0.  0.
        2    1    3    3  502    0 -0.42016250864E+03 -0.83765929350E+03 -0.24621187805E+04  0.26344332436E+04  0.25500000920E-02 0.  1.
       -2    1    3    3    0  502  0.42016250864E+03  0.83765929350E+03  0.55272105559E+03  0.10879844626E+04  0.25500000920E-02 0. -1.
</event>
<event>
 5   0  0.3427667E-08  0.3201293E+04  0.7818609E-02  0.8188476E-01
        1   -1    0    0  501    0  0.00000000000E+00  0.00000000000E+00  0.20103058248E+04  0.20103058248E+04  0.50400001928E-02 0.  1.
       -1   -1    0    0    0  501  0.00000000000E+00  0.00000000000E+00 -0.12744673152E+04  0.12744673152E+04  0.50400001928E-02 0. -1.
    10030    2    1    2    0    0  0.00000000000E+00  0.00000000000E+00  0.73583850964E+03  0.32847731400E+04  0.32012929059E+04 0.  0.
        2    1    3    3  502    0  0.12331825955E+04  0.93462064250E+01  0.14149414574E+04  0.18769352661E+04  0.25500000920E-02 0.  1.
       -2    1    3    3    0  502 -0.12331825955E+04 -0.93462064250E+01 -0.67910294777E+03  0.14078378739E+04  0.25500000920E-02 0. -1.
</event>
<event>
 5   0  0.9353994E-08  0.3200348E+04  0.7818609E-02  0.8188725E-01
       -2   -1    0    0    0  501  0.00000000000E+00  0.00000000000E+00  0.30053564807E+04  0.30053564807E+04  0.25500000920E-02 0. -1.
        2   -1    0    0  501    0  0.00000000000E+00  0.00000000000E+00 -0.85199759375E+03  0.85199759376E+03  0.25500000920E-02 0.  1.
    10030    2    1    2    0    0  0.00000000000E+00  0.00000000000E+00  0.21533588869E+04  0.38573540745E+04  0.32003477873E+04 0.  0.
        2    1    3    3  502    0 -0.71107366297E+03  0.22332359973E+03 -0.63001480062E+03  0.97591896865E+03  0.25500000920E-02 0.  1.
       -2    1    3    3    0  502  0.71107366297E+03 -0.22332359973E+03  0.27833736876E+04  0.28814351058E+04  0.25500000920E-02 0. -1.
</event>
<event>
 5   0  0.3283581E-08  0.3199975E+04  0.7818609E-02  0.8188824E-01
        1   -1    0    0  501    0  0.00000000000E+00  0.00000000000E+00  0.19095188930E+04  0.19095188930E+04  0.50400001928E-02 0.  1.
       -1   -1    0    0    0  501  0.00000000000E+00  0.00000000000E+00 -0.13406306583E+04  0.13406306583E+04  0.50400001928E-02 0. -1.
    10030    2    1    2    0    0  0.00000000000E+00  0.00000000000E+00  0.56888823474E+03  0.32501495513E+04  0.31999747315E+04 0.  0.
        5    1    3    3  502    0 -0.53578603831E+03  0.14941420585E+04  0.48861927078E+03  0.16608124673E+04  0.46999998093E+01 0.  1.
       -5    1    3    3    0  502  0.53578603831E+03 -0.14941420585E+04  0.80268963958E+02  0.15893370839E+04  0.46999998093E+01 0. -1.
</event>
<event>
 5   0  0.9727083E-08  0.3198643E+04  0.7818609E-02  0.8189176E-01
       -2   -1    0    0    0  501  0.00000000000E+00  0.00000000000E+00  0.20743825688E+04  0.20743825688E+04  0.25500000920E-02 0.  1.
        2   -1    0    0  501    0  0.00000000000E+00  0.00000000000E+00 -0.12330555488E+04  0.12330555488E+04  0.25500000920E-02 0. -1.
    10030    2    1    2    0    0  0.00000000000E+00  0.00000000000E+00  0.84132701999E+03  0.33074381176E+04  0.31986427977E+04 0.  0.
        4    1    3    3  502    0 -0.75777011210E+03  0.69645615198E+02  0.18751935134E+04  0.20237140065E+04  0.12699999809E+01 0.  1.
       -4    1    3    3    0  502  0.75777011210E+03 -0.69645615198E+02 -0.10338664934E+04  0.12837241112E+04  0.12699999809E+01 0. -1.
</event>
<event>
 5   0  0.3343140E-08  0.3200675E+04  0.7818609E-02  0.8188639E-01
        1   -1    0    0  501    0  0.00000000000E+00  0.00000000000E+00  0.23981771808E+04  0.23981771808E+04  0.50400001928E-02 0.  1.
       -1   -1    0    0    0  501  0.00000000000E+00  0.00000000000E+00 -0.10679278378E+04  0.10679278378E+04  0.50400001928E-02 0. -1.
    10030    2    1    2    0    0  0.00000000000E+00  0.00000000000E+00  0.13302493430E+04  0.34661050186E+04  0.32006750360E+04 0.  0.
        1    1    3    3  502    0  0.30435268345E+03  0.13565318388E+04  0.15234929046E+04  0.20624838947E+04  0.50400001928E-02 0.  1.
       -1    1    3    3    0  502 -0.30435268345E+03 -0.13565318388E+04 -0.19324356163E+03  0.14036211240E+04  0.50400001928E-02 0. -1.
</event>
<event>
 5   0  0.3283581E-08  0.3194391E+04  0.7818609E-02  0.8190300E-01
       -1   -1    0    0    0  501  0.00000000000E+00  0.00000000000E+00  0.13255639097E+04  0.13255639097E+04  0.50400001928E-02 0. -1.
        1   -1    0    0  501    0  0.00000000000E+00  0.00000000000E+00 -0.19244890327E+04  0.19244890327E+04  0.50400001928E-02 0.  1.
    10030    2    1    2    0    0  0.00000000000E+00  0.00000000000E+00 -0.59892512298E+03  0.32500529424E+04  0.31943908379E+04 0.  0.
        5    1    3    3  502    0 -0.13624545478E+04 -0.36324732809E+03  0.46379611546E+03  0.14843719018E+04  0.46999998093E+01 0. -1.
       -5    1    3    3    0  502  0.13624545478E+04  0.36324732809E+03 -0.10627212384E+04  0.17656810405E+04  0.46999998093E+01 0.  1.
</event>
<event>
 5   0  0.3343140E-08  0.3198641E+04  0.7818609E-02  0.8189176E-01
       -1   -1    0    0    0  501  0.00000000000E+00  0.00000000000E+00  0.20316913702E+04  0.20316913702E+04  0.50400001928E-02 0.  1.
        1   -1    0    0  501    0  0.00000000000E+00  0.00000000000E+00 -0.12589642599E+04  0.12589642599E+04  0.50400001928E-02 0. -1.
    10030    2    1    2    0    0  0.00000000000E+00  0.00000000000E+00  0.77272711029E+03  0.32906556301E+04  0.31986414755E+04 0.  0.
        1    1    3    3  502    0  0.10689543169E+04 -0.10423816376E+04 -0.20336655456E+03  0.15068446388E+04  0.50400001928E-02 0.  1.
       -1    1    3    3    0  502 -0.10689543169E+04  0.10423816376E+04  0.97609366484E+03  0.17838109913E+04  0.50400001928E-02 0. -1.
</event>
<event>
 5   0  0.9353994E-08  0.3199841E+04  0.7818609E-02  0.8188859E-01
       -2   -1    0    0    0  501  0.00000000000E+00  0.00000000000E+00  0.21986450725E+04  0.21986450725E+04  0.25500000920E-02 0. -1.
        2   -1    0    0  501    0  0.00000000000E+00  0.00000000000E+00 -0.11642380890E+04  0.11642380890E+04  0.25500000920E-02 0.  1.
    10030    2    1    2    0    0  0.00000000000E+00  0.00000000000E+00  0.10344069835E+04  0.33628831615E+04  0.31998414571E+04 0.  0.
        2    1    3    3  502    0  0.79215425939E+03 -0.32275105253E+03  0.19381564351E+04  0.21185199975E+04  0.25500000920E-02 0. -1.
       -2    1    3    3    0  502 -0.79215425939E+03  0.32275105253E+03 -0.90374945166E+03  0.12443631640E+04  0.25500000920E-02 0.  1.
</event>
<event>
 5   0  0.9707721E-08  0.3200291E+04  0.7818609E-02  0.8188740E-01
        2   -1    0    0  501    0  0.00000000000E+00  0.00000000000E+00  0.14744192587E+04  0.14744192587E+04  0.25500000920E-02 0. -1.
       -2   -1    0    0    0  501  0.00000000000E+00  0.00000000000E+00 -0.17365929660E+04  0.17365929660E+04  0.25500000920E-02 0.  1.
    10030    2    1    2    0    0  0.00000000000E+00  0.00000000000E+00 -0.26217370726E+03  0.32110122247E+04  0.32002913077E+04 0.  0.
        3    1    3    3  502    0  0.40687222526E+03  0.30118722627E+03  0.13919598671E+04  0.14811519283E+04  0.10100000352E+00 0. -1.
       -3    1    3    3    0  502 -0.40687222526E+03 -0.30118722627E+03 -0.16541335743E+04  0.17298602964E+04  0.10100000352E+00 0.  1.
</event>
<event>
 5   0  0.3283581E-08  0.3198835E+04  0.7818609E-02  0.8189125E-01
       -1   -1    0    0    0  501  0.00000000000E+00  0.00000000000E+00  0.20305662865E+04  0.20305662865E+04  0.50400001928E-02 0. -1.
        1   -1    0    0  501    0  0.00000000000E+00  0.00000000000E+00 -0.12598140284E+04  0.12598140284E+04  0.50400001928E-02 0.  1.
    10030    2    1    2    0    0  0.00000000000E+00  0.00000000000E+00  0.77075225804E+03  0.32903803149E+04  0.31988347212E+04 0.  0.
        5    1    3    3  502    0 -0.12525918945E+04 -0.41918539904E+03 -0.54232760430E+03  0.14278810081E+04  0.46999998093E+01 0.  1.
       -5    1    3    3    0  502  0.12525918945E+04  0.41918539904E+03  0.13130798623E+04  0.18624993068E+04  0.46999998093E+01 0. -1.
</event>
<event>
 5   0  0.9157524E-08  0.3201138E+04  0.7818609E-02  0.8188517E-01
       -2   -1    0    0    0  501  0.00000000000E+00  0.00000000000E+00  0.16028199710E+04  0.16028199710E+04  0.25500000920E-02 0.  1.
        2   -1    0    0  501    0  0.00000000000E+00  0.00000000000E+00 -0.15983208957E+04  0.15983208957E+04  0.25500000920E-02 0. -1.
    10030    2    1    2    0    0  0.00000000000E+00  0.00000000000E+00  0.44990752988E+01  0.32011408668E+04  0.32011377051E+04 0.  0.
        5    1    3    3  502    0 -0.11242716761E+04  0.88454813634E+03  0.72015438694E+03  0.16015794199E+04  0.46999998093E+01 0.  1.
       -5    1    3    3    0  502  0.11242716761E+04 -0.88454813634E+03 -0.71565531164E+03  0.15995614469E+04  0.46999998093E+01 0. -1.
</event>
<event>
 5   0  0.9157524E-08  0.3200806E+04  0.7818609E-02  0.8188604E-01
        2   -1    0    0  501    0  0.00000000000E+00  0.00000000000E+00  0.20219680735E+04  0.20219680735E+04  0.25500000920E-02 0. -1.
       -2   -1    0    0    0  501  0.00000000000E+00  0.00000000000E+00 -0.12667309013E+04  0.12667309013E+04  0.25500000920E-02 0.  1.
    10030    2    1    2    0    0  0.00000000000E+00  0.00000000000E+00  0.75523717217E+03  0.32886989748E+04  0.32008057987E+04 0.  0.
        5    1    3    3  502    0 -0.13737171459E+03 -0.11235705936E+04 -0.78481277955E+03  0.13774015593E+04  0.46999998093E+01 0.  1.
       -5    1    3    3    0  502  0.13737171459E+03  0.11235705936E+04  0.15400499517E+04  0.19112974155E+04  0.46999998093E+01 0. -1.
</event>
<event>
 5   0  0.9157524E-08  0.3201412E+04  0.7818609E-02  0.8188444E-01
        2   -1    0    0  501    0  0.00000000000E+00  0.00000000000E+00  0.13092603056E+04  0.13092603056E+04  0.25500000920E-02 0. -1.
       -2   -1    0    0    0  501  0.00000000000E+00  0.00000000000E+00 -0.19570280060E+04  0.19570280060E+04  0.25500000920E-02 0.  1.
    10030    2    1    2    0    0  0.00000000000E+00  0.00000000000E+00 -0.64776770040E+03  0.32662883117E+04  0.32014116170E+04 0.  0.
        5    1    3    3  502    0  0.75425271984E+03 -0.80011296145E+03 -0.15107108783E+04  0.18685147482E+04  0.46999998093E+01 0.  1.
       -5    1    3    3    0  502 -0.75425271984E+03  0.80011296145E+03  0.86294317788E+03  0.13977735635E+04  0.46999998093E+01 0. -1.
</event>
<event>
 5   0  0.3343140E-08  0.3200264E+04  0.7818609E-02  0.8188747E-01
       -1   -1    0    0    0  501  0.00000000000E+00  0.00000000000E+00  0.17650442748E+04  0.17650442748E+04  0.50400001928E-02 0.  1.
        1   -1    0    0  501    0  0.00000000000E+00  0.00000000000E+00 -0.14506277844E+04  0.14506277844E+04  0.50400001928E-02 0. -1.
    10030    2    1    2    0    0  0.00000000000E+00  0.00000000000E+00  0.31441649039E+03  0.32156720592E+04  0.32002639052E+04 0.  0.
        1    1    3    3  502    0 -0.25755850051E+03  0.10858593838E+04  0.13094617992E+04  0.17204991096E+04  0.50400001928E-02 0.  1.
       -1    1    3    3    0  502  0.25755850051E+03 -0.10858593838E+04 -0.99504530884E+03  0.14951729496E+04  0.50400001928E-02 0. -1.
</event>
<event>
 5   0  0.9727083E-08  0.3201222E+04  0.7818609E-02  0.8188494E-01
        2   -1    0    0  501    0  0.00000000000E+00  0.00000000000E+00  0.22300168791E+04  0.22300168791E+04  0.25500000920E-02 0.  1.
       -2   -1    0    0    0  501  0.00000000000E+00  0.00000000000E+00 -0.11488506182E+04  0.11488506182E+04  0.25500000920E-02 0. -1.
    10030    2    1    2    0    0  0.00000000000E+00  0.00000000000E+00  0.10811662609E+04  0.33788674973E+04  0.32012224354E+04 0.  0.
        4    1    3    3  502    0 -0.38009396418E+03 -0.15227551724E+04  0.87218251113E+03  0.17955385494E+04  0.12699999809E+01 0.  1.
       -4    1    3    3    0  502  0.38009396418E+03  0.15227551724E+04  0.20898374976E+03  0.15833289479E+04  0.12699999809E+01 0. -1.
</event>
<event>
 5   0  0.3343140E-08  0.3199809E+04  0.7818609E-02  0.8188868E-01
       -1   -1    0    0    0  501  0.00000000000E+00  0.00000000000E+00  0.13563748916E+04  0.13563748916E+04  0.50400001928E-02 0.  1.
        1   -1    0    0  501    0  0.00000000000E+00  0.00000000000E+00 -0.18871587611E+04  0.18871587611E+04  0.50400001928E-02 0. -1.
    10030    2    1    2    0    0  0.00000000000E+00  0.00000000000E+00 -0.53078386943E+03  0.32435336527E+04  0.31998092193E+04 0.  0.
        1    1    3    3  502    0 -0.81894276694E+03 -0.23853750141E+03 -0.16374489339E+04  0.18462953194E+04  0.50400001928E-02 0. -1.
       -1    1    3    3    0  502  0.81894276694E+03  0.23853750141E+03  0.11066650645E+04  0.13972383333E+04  0.50400001928E-02 0.  1.
</event>
<event>
 5   0  0.3270966E-08  0.3199825E+04  0.7818609E-02  0.8188864E-01
        1   -1    0    0  501    0  0.00000000000E+00  0.00000000000E+00  0.20467908774E+04  0.20467908774E+04  0.50400001928E-02 0.  1.
       -1   -1    0    0    0  501  0.00000000000E+00  0.00000000000E+00 -0.12506012792E+04  0.12506012793E+04  0.50400001928E-02 0. -1.
    10030    2    1    2    0    0  0.00000000000E+00  0.00000000000E+00  0.79618959815E+03  0.32973921567E+04  0.31998245512E+04 0.  0.
        3    1    3    3  502    0  0.46154540929E+03 -0.27432457569E+03 -0.11549900326E+04  0.12736876082E+04  0.10100000352E+00 0. -1.
       -3    1    3    3    0  502 -0.46154540929E+03  0.27432457569E+03  0.19511796308E+04  0.20237045485E+04  0.10100000352E+00 0.  1.
</event>
<event>
 5   0  0.3427667E-08  0.3199842E+04  0.7818609E-02  0.8188859E-01
        1   -1    0    0  501    0  0.00000000000E+00  0.00000000000E+00  0.28406650983E+04  0.28406650983E+04  0.50400001928E-02 0.  1.
       -1   -1    0    0    0  501  0.00000000000E+00  0.00000000000E+00 -0.90110814667E+03  0.90110814669E+03  0.50400001928E-02 0. -1.
    10030    2    1    2    0    0  0.00000000000E+00  0.00000000000E+00  0.19395569516E+04  0.37417732450E+04  0.31998415349E+04 0.  0.
        2    1    3    3  502    0 -0.12684609362E+04 -0.54616864611E+03  0.25231304198E+02  0.13812783772E+04  0.25500000920E-02 0. -1.
       -2    1    3    3    0  502  0.12684609362E+04  0.54616864611E+03  0.19143256474E+04  0.23604948678E+04  0.25500000920E-02 0.  1.
</event>
<event>
 5   0  0.9727083E-08  0.3202618E+04  0.7818609E-02  0.8188126E-01
        2   -1    0    0  501    0  0.00000000000E+00  0.00000000000E+00  0.13578762376E+04  0.13578762376E+04  0.25500000920E-02 0.  1.
       -2   -1    0    0    0  501  0.00000000000E+00  0.00000000000E+00 -0.18883826928E+04  0.18883826928E+04  0.25500000920E-02 0. -1.
    10030    2    1    2    0    0  0.00000000000E+00  0.00000000000E+00 -0.53050645519E+03  0.32462589303E+04  0.32026176705E+04 0.  0.
        4    1    3    3  502    0 -0.34632985581E+03 -0.39055786983E+03 -0.17997209404E+04  0.18738935121E+04  0.12699999809E+01 0. -1.
       -4    1    3    3    0  502  0.34632985581E+03  0.39055786983E+03  0.12692144852E+04  0.13723654182E+04  0.12699999809E+01 0.  1.
</event>
<event>
 5   0  0.3220147E-08  0.3199853E+04  0.7818609E-02  0.8188856E-01
       -1   -1    0    0    0  501  0.00000000000E+00  0.00000000000E+00  0.27341651523E+04  0.27341651523E+04  0.50400001928E-02 0. -1.
        1   -1    0    0  501    0  0.00000000000E+00  0.00000000000E+00 -0.93621423376E+03  0.93621423377E+03  0.50400001928E-02 0.  1.
    10030    2    1    2    0    0  0.00000000000E+00  0.00000000000E+00  0.17979509185E+04  0.36703793861E+04  0.31998527048E+04 0.  0.
        4    1    3    3  502    0 -0.75317838356E+02  0.49321769238E+03 -0.84469582731E+03  0.98104491356E+03  0.12699999809E+01 0.  1.
       -4    1    3    3    0  502  0.75317838356E+02 -0.49321769238E+03  0.26426467458E+04  0.26893344725E+04  0.12699999809E+01 0. -1.
</event>
<event>
 5   0  0.3270966E-08  0.3199964E+04  0.7818609E-02  0.8188827E-01
       -1   -1    0    0    0  501  0.00000000000E+00  0.00000000000E+00  0.16319668700E+04  0.16319668700E+04  0.50400001928E-02 0.  1.
        1   -1    0    0  501    0  0.00000000000E+00  0.00000000000E+00 -0.15686240953E+04  0.15686240953E+04  0.50400001928E-02 0. -1.
    10030    2    1    2    0    0  0.00000000000E+00  0.00000000000E+00  0.63342774621E+02  0.32005909653E+04  0.31999640967E+04 0.  0.
        3    1    3    3  502    0 -0.11159502750E+04  0.77367235313E+03 -0.81467912171E+03  0.15835453918E+04  0.10100000352E+00 0. -1.
       -3    1    3    3    0  502  0.11159502750E+04 -0.77367235313E+03  0.87802189633E+03  0.16170455735E+04  0.10100000352E+00 0.  1.
</event>
<event>
 5   0  0.9329929E-08  0.3200290E+04  0.7818609E-02  0.8188740E-01
        2   -1    0    0  501    0  0.00000000000E+00  0.00000000000E+00  0.22628022379E+04  0.22628022379E+04  0.25500000920E-02 0. -1.
       -2   -1    0    0    0  501  0.00000000000E+00  0.00000000000E+00 -0.11315459363E+04  0.11315459363E+04  0.25500000920E-02 0.  1.
    10030    2    1    2    0    0  0.00000000000E+00  0.00000000000E+00  0.11312563016E+04  0.33943481741E+04  0.32002904098E+04 0.  0.
        1    1    3    3  502    0 -0.15627706997E+04  0.11456871111E+03  0.90945541497E+03  0.18117636163E+04  0.50400001928E-02 0. -1.
       -1    1    3    3    0  502  0.15627706997E+04 -0.11456871111E+03  0.22180088662E+03  0.15825845579E+04  0.50400001928E-02 0.  1.
</event>
<event>
 5   0  0.9157524E-08  0.3199858E+04  0.7818609E-02  0.8188855E-01
       -2   -1    0    0    0  501  0.00000000000E+00  0.00000000000E+00  0.13047026900E+04  0.13047026900E+04  0.25500000920E-02 0.  1.
        2   -1    0    0  501    0  0.00000000000E+00  0.00000000000E+00 -0.19619587580E+04  0.19619587580E+04  0.25500000920E-02 0. -1.
    10030    2    1    2    0    0  0.00000000000E+00  0.00000000000E+00 -0.65725606802E+03  0.32666614481E+04  0.31998580402E+04 0.  0.
        5    1    3    3  502    0  0.32986877522E+02  0.14483498029E+04 -0.10217317104E+04  0.17727839867E+04  0.46999998093E+01 0. -1.
       -5    1    3    3    0  502 -0.32986877522E+02 -0.14483498029E+04  0.36447564238E+03  0.14938774613E+04  0.46999998093E+01 0.  1.
</event>
<event>
 5   0  0.3220147E-08  0.3200995E+04  0.7818609E-02  0.8188554E-01
       -1   -1    0    0    0  501  0.00000000000E+00  0.00000000000E+00  0.14321488185E+04  0.14321488185E+04  0.50400001928E-02 0.  1.
        1   -1    0    0  501    0  0.00000000000E+00  0.00000000000E+00 -0.17886360211E+04  0.17886360211E+04  0.50400001928E-02 0. -1.
    10030    2    1    2    0    0  0.00000000000E+00  0.00000000000E+00 -0.35648720262E+03  0.32207848396E+04  0.32009954479E+04 0.  0.
        4    1    3    3  502    0 -0.55908646044E+03 -0.14415592032E+04 -0.59422512881E+03  0.16564346420E+04  0.12699999809E+01 0. -1.
       -4    1    3    3    0  502  0.55908646044E+03  0.14415592032E+04  0.23773792619E+03  0.15643501977E+04  0.12699999809E+01 0.  1.
</event>
<event>
 5   0  0.9727083E-08  0.3199789E+04  0.7818609E-02  0.8188873E-01
       -2   -1    0    0    0  501  0.00000000000E+00  0.00000000000E+00  0.92844972128E+03  0.92844972128E+03  0.25500000920E-02 0. -1.
        2   -1    0    0  501    0  0.00000000000E+00  0.00000000000E+00 -0.27569208969E+04  0.27569208969E+04  0.25500000920E-02 0.  1.
    10030    2    1    2    0    0  0.00000000000E+00  0.00000000000E+00 -0.18284711756E+04  0.36853706181E+04  0.31997890170E+04 0.  0.
        4    1    3    3  502    0 -0.18743695106E+03  0.29603030561E+03  0.88371672753E+03  0.95064368713E+03  0.12699999809E+01 0. -1.
       -4    1    3    3    0  502  0.18743695106E+03 -0.29603030561E+03 -0.27121879031E+04  0.27347269310E+04  0.12699999809E+01 0.  1.
</event>
<event>
 5   0  0.9353994E-08  0.3200212E+04  0.7818609E-02  0.8188761E-01
        2   -1    0    0  501    0  0.00000000000E+00  0.00000000000E+00  0.17863765136E+04  0.17863765136E+04  0.25500000920E-02 0.  1.
       -2   -1    0    0    0  501  0.00000000000E+00  0.00000000000E+00 -0.14332581824E+04  0.14332581824E+04  0.25500000920E-02 0. -1.
    10030    2    1    2    0    0  0.00000000000E+00  0.00000000000E+00  0.35311833123E+03  0.32196346960E+04  0.32002117149E+04 0.  0.
        2    1    3    3  502    0 -0.34237530258E+03 -0.10500420489E+04  0.13413986746E+04  0.17375728925E+04  0.25500000920E-02 0.  1.
       -2    1    3    3    0  502  0.34237530258E+03  0.10500420489E+04 -0.98828034339E+03  0.14820618035E+04  0.25500000920E-02 0. -1.
</event>
<event>
 5   0  0.3343140E-08  0.3200971E+04  0.7818609E-02  0.8188561E-01
       -1   -1    0    0    0  501  0.00000000000E+00  0.00000000000E+00  0.11008171261E+04  0.11008171262E+04  0.50400001928E-02 0.  1.
        1   -1    0    0  501    0  0.00000000000E+00  0.00000000000E+00 -0.23269567802E+04  0.23269567802E+04  0.50400001928E-02 0. -1.
    10030    2    1    2    0    0  0.00000000000E+00  0.00000000000E+00 -0.12261396540E+04  0.34277739063E+04  0.32009710248E+04 0.  0.
        1    1    3    3  502    0  0.64072538729E+03 -0.12125022778E+04  0.27053955397E+03  0.13978134517E+04  0.50400001928E-02 0.  1.
       -1    1    3    3    0  502 -0.64072538729E+03  0.12125022778E+04 -0.14966792080E+04  0.20299604546E+04  0.50400001928E-02 0. -1.
</event>
<event>
 5   0  0.9353994E-08  0.3199985E+04  0.7818609E-02  0.8188821E-01
        2   -1    0    0  501    0  0.00000000000E+00  0.00000000000E+00  0.21501457513E+04  0.21501457513E+04  0.25500000920E-02 0.  1.
       -2   -1    0    0    0  501  0.00000000000E+00  0.00000000000E+00 -0.11906057413E+04  0.11906057413E+04  0.25500000920E-02 0. -1.
    10030    2    1    2    0    0  0.00000000000E+00  0.00000000000E+00  0.95954001006E+03  0.33407514926E+04  0.31999849225E+04 0.  0.
        2    1    3    3  502    0 -0.10947783084E+04 -0.11445765949E+04  0.24312548159E+03  0.16024060428E+04  0.25500000920E-02 0. -1.
       -2    1    3    3    0  502  0.10947783084E+04  0.11445765949E+04  0.71641452847E+03  0.17383454498E+04  0.25500000920E-02 0.  1.
</event>
<event>
 5   0  0.3427667E-08  0.3201342E+04  0.7818609E-02  0.8188463E-01
       -1   -1    0    0    0  501  0.00000000000E+00  0.00000000000E+00  0.13685166750E+04  0.13685166750E+04  0.50400001928E-02 0.  1.
        1   -1    0    0  501    0  0.00000000000E+00  0.00000000000E+00 -0.18722072959E+04  0.18722072959E+04  0.50400001928E-02 0. -1.
    10030    2    1    2    0    0  0.00000000000E+00  0.00000000000E+00 -0.50369062092E+03  0.32407239709E+04  0.32013415335E+04 0.  0.
        2    1    3    3  502    0 -0.14913422783E+04  0.47771797123E+03  0.83638690964E+02  0.15682192709E+04  0.25500000920E-02 0.  1.
       -2    1    3    3    0  502  0.14913422783E+04 -0.47771797123E+03 -0.58732931189E+03  0.16725047000E+04  0.25500000920E-02 0. -1.
</event>
<event>
 5   0  0.3220147E-08  0.3209412E+04  0.7818609E-02  0.8186336E-01
        1   -1    0    0  501    0  0.00000000000E+00  0.00000000000E+00  0.13739238158E+04  0.13739238158E+04  0.50400001928E-02 0.  1.
       -1   -1    0    0    0  501  0.00000000000E+00  0.00000000000E+00 -0.18742529789E+04  0.18742529789E+04  0.50400001928E-02 0. -1.
    10030    2    1    2    0    0  0.00000000000E+00  0.00000000000E+00 -0.50032916313E+03  0.32481767947E+04  0.32094116623E+04 0.  0.
        4    1    3    3  502    0 -0.13478614107E+04 -0.65096676047E+03  0.33526062271E+03  0.15339131018E+04  0.12699999809E+01 0. -1.
       -4    1    3    3    0  502  0.13478614107E+04  0.65096676047E+03 -0.83558978585E+03  0.17142636929E+04  0.12699999809E+01 0.  1.
</event>
<event>
 5   0  0.9329929E-08  0.3200372E+04  0.7818609E-02  0.8188719E-01
       -2   -1    0    0    0  501  0.00000000000E+00  0.00000000000E+00  0.16085052430E+04  0.16085052430E+04  0.25500000920E-02 0.  1.
        2   -1    0    0  501    0  0.00000000000E+00  0.00000000000E+00 -0.15919098040E+04  0.15919098040E+04  0.25500000920E-02 0. -1.
    10030    2    1    2    0    0  0.00000000000E+00  0.00000000000E+00  0.16595439037E+02  0.32004150470E+04  0.32003720197E+04 0.  0.
        1    1    3    3  502    0  0.10314359549E+04 -0.12132103743E+04 -0.14936138503E+03  0.15993899977E+04  0.50400001928E-02 0.  1.
       -1    1    3    3    0  502 -0.10314359549E+04  0.12132103743E+04  0.16595682407E+03  0.16010250494E+04  0.50400001928E-02 0. -1.
</event>
<event>
 5   0  0.9353994E-08  0.3199090E+04  0.7818609E-02  0.8189058E-01
        2   -1    0    0  501    0  0.00000000000E+00  0.00000000000E+00  0.20359890284E+04  0.20359890284E+04  0.25500000920E-02 0.  1.
       -2   -1    0    0    0  501  0.00000000000E+00  0.00000000000E+00 -0.12566591799E+04  0.12566591799E+04  0.25500000920E-02 0. -1.
    10030    2    1    2    0    0  0.00000000000E+00  0.00000000000E+00  0.77932984850E+03  0.32926482082E+04  0.31990900598E+04 0.  0.
        2    1    3    3  502    0 -0.46127341599E+03 -0.62333225708E+03 -0.10502591080E+04  0.13055115706E+04  0.25500000920E-02 0. -1.
       -2    1    3    3    0  502  0.46127341599E+03  0.62333225708E+03  0.18295889565E+04  0.19871366377E+04  0.25500000920E-02 0.  1.
</event>
<event>
 5   0  0.3343140E-08  0.3200498E+04  0.7818609E-02  0.8188686E-01
        1   -1    0    0  501    0  0.00000000000E+00  0.00000000000E+00  0.21845834846E+04  0.21845834846E+04  0.50400001928E-02 0. -1.
       -1   -1    0    0    0  501  0.00000000000E+00  0.00000000000E+00 -0.11722131010E+04  0.11722131010E+04  0.50400001928E-02 0.  1.
    10030    2    1    2    0    0  0.00000000000E+00  0.00000000000E+00  0.10123703836E+04  0.33567965856E+04  0.32004983243E+04 0.  0.
        1    1    3    3  502    0 -0.11450008096E+04  0.10499516527E+04  0.10354697969E+03  0.15569673419E+04  0.50400001928E-02 0.  1.
       -1    1    3    3    0  502  0.11450008096E+04 -0.10499516527E+04  0.90882340393E+03  0.17998292437E+04  0.50400001928E-02 0. -1.
</event>
<event>
 5   0  0.3427667E-08  0.3199367E+04  0.7818609E-02  0.8188984E-01
        1   -1    0    0  501    0  0.00000000000E+00  0.00000000000E+00  0.23202224475E+04  0.23202224475E+04  0.50400001928E-02 0.  1.
       -1   -1    0    0    0  501  0.00000000000E+00  0.00000000000E+00 -0.11029060503E+04  0.11029060503E+04  0.50400001928E-02 0. -1.
    10030    2    1    2    0    0  0.00000000000E+00  0.00000000000E+00  0.12173163972E+04  0.34231284978E+04  0.31993670470E+04 0.  0.
        2    1    3    3  502    0  0.12118236784E+03  0.26845907543E+03 -0.10736429470E+04  0.11133124535E+04  0.25500000920E-02 0. -1.
       -2    1    3    3    0  502 -0.12118236784E+03 -0.26845907543E+03  0.22909593442E+04  0.23098160443E+04  0.25500000920E-02 0.  1.
</event>
<event>
 5   0  0.9329929E-08  0.3201636E+04  0.7818609E-02  0.8188385E-01
        2   -1    0    0  501    0  0.00000000000E+00  0.00000000000E+00  0.24392646749E+04  0.24392646749E+04  0.25500000920E-02 0. -1.
       -2   -1    0    0    0  501  0.00000000000E+00  0.00000000000E+00 -0.10505697195E+04  0.10505697195E+04  0.25500000920E-02 0.  1.
    10030    2    1    2    0    0  0.00000000000E+00  0.00000000000E+00  0.13886949555E+04  0.34898343944E+04  0.32016355853E+04 0.  0.
        1    1    3    3  502    0 -0.13326577820E+04 -0.73110387056E+03  0.14702480984E+03  0.15271234162E+04  0.50400001928E-02 0.  1.
       -1    1    3    3    0  502  0.13326577820E+04  0.73110387056E+03  0.12416701456E+04  0.19627109782E+04  0.50400001928E-02 0. -1.
</event>
<event>
 5   0  0.3427667E-08  0.3201321E+04  0.7818609E-02  0.8188468E-01
        1   -1    0    0  501    0  0.00000000000E+00  0.00000000000E+00  0.13133496417E+04  0.13133496418E+04  0.50400001928E-02 0. -1.
       -1   -1    0    0    0  501  0.00000000000E+00  0.00000000000E+00 -0.19508238771E+04  0.19508238771E+04  0.50400001928E-02 0.  1.
    10030    2    1    2    0    0  0.00000000000E+00  0.00000000000E+00 -0.63747423536E+03  0.32641735189E+04  0.32013208775E+04 0.  0.
        2    1    3    3  502    0 -0.11386039710E+03 -0.56400437310E+03 -0.18417323967E+04  0.19295189411E+04  0.25500000920E-02 0.  1.
       -2    1    3    3    0  502  0.11386039710E+03  0.56400437310E+03  0.12042581613E+04  0.13346545778E+04  0.25500000920E-02 0. -1.
</event>
<event>
 5   0  0.3270966E-08  0.3200585E+04  0.7818609E-02  0.8188663E-01
       -1   -1    0    0    0  501  0.00000000000E+00  0.00000000000E+00  0.10917615397E+04  0.10917615397E+04  0.50400001928E-02 0.  1.
        1   -1    0    0  501    0  0.00000000000E+00  0.00000000000E+00 -0.23456911014E+04  0.23456911015E+04  0.50400001928E-02 0. -1.
    10030    2    1    2    0    0  0.00000000000E+00  0.00000000000E+00 -0.12539295617E+04  0.34374526412E+04  0.32005845270E+04 0.  0.
        3    1    3    3  502    0 -0.73809767185E+03  0.14099970252E+04 -0.80685878646E+03  0.17843488717E+04  0.10100000352E+00 0.  1.
       -3    1    3    3    0  502  0.73809767185E+03 -0.14099970252E+04 -0.44707077528E+03  0.16531037695E+04  0.10100000352E+00 0. -1.
</event>
<event>
 5   0  0.9727083E-08  0.3203306E+04  0.7818609E-02  0.8187945E-01
       -2   -1    0    0    0  501  0.00000000000E+00  0.00000000000E+00  0.12975348176E+04  0.12975348176E+04  0.25500000920E-02 0. -1.
        2   -1    0    0  501    0  0.00000000000E+00  0.00000000000E+00 -0.19770513440E+04  0.19770513440E+04  0.25500000920E-02 0.  1.
    10030    2    1    2    0    0  0.00000000000E+00  0.00000000000E+00 -0.67951652641E+03  0.32745861616E+04  0.32033063887E+04 0.  0.
        4    1    3    3  502    0  0.57231529477E+03  0.11613702129E+04  0.62407178699E+03  0.14372866020E+04  0.12699999809E+01 0. -1.
       -4    1    3    3    0  502 -0.57231529477E+03 -0.11613702129E+04 -0.13035883134E+04  0.18372995596E+04  0.12699999809E+01 0.  1.
</event>
<event>
 5   0  0.9727083E-08  0.3200936E+04  0.7818609E-02  0.8188570E-01
        2   -1    0    0  501    0  0.00000000000E+00  0.00000000000E+00  0.21098772103E+04  0.21098772103E+04  0.25500000920E-02 0. -1.
       -2   -1    0    0    0  501  0.00000000000E+00  0.00000000000E+00 -0.12140503345E+04  0.12140503345E+04  0.25500000920E-02 0.  1.
    10030    2    1    2    0    0  0.00000000000E+00  0.00000000000E+00  0.89582687581E+03  0.33239275449E+04  0.32009355714E+04 0.  0.
        4    1    3    3  502    0 -0.70756890789E+03  0.59187229044E+03 -0.91021183352E+03  0.12959374068E+04  0.12699999809E+01 0.  1.
       -4    1    3    3    0  502  0.70756890789E+03 -0.59187229044E+03  0.18060387093E+04  0.20279901381E+04  0.12699999809E+01 0. -1.
</event>
<event>
 5   0  0.9727083E-08  0.3202445E+04  0.7818609E-02  0.8188172E-01
        2   -1    0    0  501    0  0.00000000000E+00  0.00000000000E+00  0.22499999016E+04  0.22499999016E+04  0.25500000920E-02 0.  1.
       -2   -1    0    0    0  501  0.00000000000E+00  0.00000000000E+00 -0.11395171730E+04  0.11395171730E+04  0.25500000920E-02 0. -1.
    10030    2    1    2    0    0  0.00000000000E+00  0.00000000000E+00  0.11104827287E+04  0.33895170746E+04  0.32024450204E+04 0.  0.
        4    1    3    3  502    0  0.14479623760E+04  0.63663501494E+03  0.81881172308E+03  0.17811101693E+04  0.12699999809E+01 0.  1.
       -4    1    3    3    0  502 -0.14479623760E+04 -0.63663501494E+03  0.29167100558E+03  0.16084069053E+04  0.12699999809E+01 0. -1.
</event>
<event>
 5   0  0.9707721E-08  0.3199439E+04  0.7818609E-02  0.8188965E-01
       -2   -1    0    0    0  501  0.00000000000E+00  0.00000000000E+00  0.32001983064E+04  0.32001983064E+04  0.25500000920E-02 0. -1.
        2   -1    0    0  501    0  0.00000000000E+00  0.00000000000E+00 -0.79966977604E+03  0.79966977605E+03  0.25500000920E-02 0.  1.
    10030    2    1    2    0    0  0.00000000000E+00  0.00000000000E+00  0.24005285304E+04  0.39998680825E+04  0.31994386151E+04 0.  0.
        3    1    3    3  502    0  0.13493404792E+03  0.15801953349E+04  0.93839041916E+03  0.18427699484E+04  0.10100000352E+00 0.  1.
       -3    1    3    3    0  502 -0.13493404792E+03 -0.15801953349E+04  0.14621381112E+04  0.21570981341E+04  0.10100000352E+00 0. -1.
</event>
<event>
 5   0  0.3343140E-08  0.3200354E+04  0.7818609E-02  0.8188724E-01
        1   -1    0    0  501    0  0.00000000000E+00  0.00000000000E+00  0.12025342305E+04  0.12025342305E+04  0.50400001928E-02 0.  1.
       -1   -1    0    0    0  501  0.00000000000E+00  0.00000000000E+00 -0.21293079157E+04  0.21293079157E+04  0.50400001928E-02 0. -1.
    10030    2    1    2    0    0  0.00000000000E+00  0.00000000000E+00 -0.92677368518E+03  0.33318421462E+04  0.32003535154E+04 0.  0.
        1    1    3    3  502    0  0.22100528041E+03  0.15969245553E+03 -0.21049450910E+04  0.21225312366E+04  0.50400001928E-02 0. -1.
       -1    1    3    3    0  502 -0.22100528041E+03 -0.15969245553E+03  0.11781714058E+04  0.12093109095E+04  0.50400001928E-02 0.  1.
</event>
<event>
 5   0  0.9353994E-08  0.3201640E+04  0.7818609E-02  0.8188384E-01
       -2   -1    0    0    0  501  0.00000000000E+00  0.00000000000E+00  0.15980172435E+04  0.15980172435E+04  0.25500000920E-02 0. -1.
        2   -1    0    0  501    0  0.00000000000E+00  0.00000000000E+00 -0.16036279041E+04  0.16036279041E+04  0.25500000920E-02 0.  1.
    10030    2    1    2    0    0  0.00000000000E+00  0.00000000000E+00 -0.56106606037E+01  0.32016451475E+04  0.32016402314E+04 0.  0.
        2    1    3    3  502    0  0.15313948259E+04 -0.43900844309E+03 -0.16005224693E+03  0.16010981381E+04  0.25500000920E-02 0.  1.
       -2    1    3    3    0  502 -0.15313948259E+04  0.43900844309E+03  0.15444158632E+03  0.16005470095E+04  0.25500000920E-02 0. -1.
</event>
<event>
 5   0  0.9329929E-08  0.3199046E+04  0.7818609E-02  0.8189069E-01
        2   -1    0    0  501    0  0.00000000000E+00  0.00000000000E+00  0.16156666802E+04  0.16156666802E+04  0.25500000920E-02 0.  1.
       -2   -1    0    0    0  501  0.00000000000E+00  0.00000000000E+00 -0.15835409603E+04  0.15835409603E+04  0.25500000920E-02 0. -1.
    10030    2    1    2    0    0  0.00000000000E+00  0.00000000000E+00  0.32125719962E+02  0.31992076405E+04  0.31990463368E+04 0.  0.
        1    1    3    3  502    0 -0.97542774119E+03  0.77473593347E+03  0.10195073549E+04  0.16096801830E+04  0.50400001928E-02 0.  1.
       -1    1    3    3    0  502  0.97542774119E+03 -0.77473593347E+03 -0.98738163498E+03  0.15895274575E+04  0.50400001928E-02 0. -1.
</event>
<event>
 5   0  0.3427667E-08  0.3208445E+04  0.7818609E-02  0.8186590E-01
        1   -1    0    0  501    0  0.00000000000E+00  0.00000000000E+00  0.14363832809E+04  0.14363832809E+04  0.50400001928E-02 0.  1.
       -1   -1    0    0    0  501  0.00000000000E+00  0.00000000000E+00 -0.17916737888E+04  0.17916737888E+04  0.50400001928E-02 0. -1.
    10030    2    1    2    0    0  0.00000000000E+00  0.00000000000E+00 -0.35529050785E+03  0.32280570697E+04  0.32084452777E+04 0.  0.
        2    1    3    3  502    0  0.42585909214E+03 -0.11550599519E+04 -0.12125291322E+04  0.17279312357E+04  0.25500000920E-02 0. -1.
       -2    1    3    3    0  502 -0.42585909214E+03  0.11550599519E+04  0.85723862432E+03  0.15001258340E+04  0.25500000920E-02 0.  1.
</event>
<event>
 5   0  0.3427667E-08  0.3206141E+04  0.7818609E-02  0.8187197E-01
       -1   -1    0    0    0  501  0.00000000000E+00  0.00000000000E+00  0.14308585667E+04  0.14308585667E+04  0.50400001928E-02 0. -1.
        1   -1    0    0  501    0  0.00000000000E+00  0.00000000000E+00 -0.17960092995E+04  0.17960092995E+04  0.50400001928E-02 0.  1.
    10030    2    1    2    0    0  0.00000000000E+00  0.00000000000E+00 -0.36515073280E+03  0.32268678661E+04  0.32061411647E+04 0.  0.
        2    1    3    3  502    0  0.14180754313E+03 -0.15963455965E+04 -0.22032314763E+03  0.16177054529E+04  0.25500000920E-02 0. -1.
       -2    1    3    3    0  502 -0.14180754313E+03  0.15963455965E+04 -0.14482758517E+03  0.16091624133E+04  0.25500000920E-02 0.  1.
</event>
<event>
 5   0  0.9329929E-08  0.3200612E+04  0.7818609E-02  0.8188656E-01
       -2   -1    0    0    0  501  0.00000000000E+00  0.00000000000E+00  0.10814154099E+04  0.10814154099E+04  0.25500000920E-02 0.  1.
        2   -1    0    0  501    0  0.00000000000E+00  0.00000000000E+00 -0.23681735927E+04  0.23681735927E+04  0.25500000920E-02 0. -1.
    10030    2    1    2    0    0  0.00000000000E+00  0.00000000000E+00 -0.12867581827E+04  0.34495890026E+04  0.32006120768E+04 0.  0.
        1    1    3    3  502    0 -0.90960984477E+03 -0.49293254156E+03  0.67249965456E+03  0.12339482751E+04  0.50400001928E-02 0.  1.
       -1    1    3    3    0  502  0.90960984477E+03  0.49293254156E+03 -0.19592578373E+04  0.22156407275E+04  0.50400001928E-02 0. -1.
</event>
<event>
 5   0  0.9727083E-08  0.3200588E+04  0.7818609E-02  0.8188662E-01
        2   -1    0    0  501    0  0.00000000000E+00  0.00000000000E+00  0.15662409312E+04  0.15662409312E+04  0.25500000920E-02 0. -1.
       -2   -1    0    0    0  501  0.00000000000E+00  0.00000000000E+00 -0.16350879492E+04  0.16350879492E+04  0.25500000920E-02 0.  1.
    10030    2    1    2    0    0  0.00000000000E+00  0.00000000000E+00 -0.68847018001E+02  0.32013288804E+04  0.32005884910E+04 0.  0.
        4    1    3    3  502    0 -0.15724808263E+04  0.14879631275E+03  0.22274249642E+03  0.15951338892E+04  0.12699999809E+01 0.  1.
       -4    1    3    3    0  502  0.15724808263E+04 -0.14879631275E+03 -0.29158951443E+03  0.16061949912E+04  0.12699999809E+01 0. -1.
</event>
<event>
 5   0  0.9727083E-08  0.3199940E+04  0.7818609E-02  0.8188833E-01
        2   -1    0    0  501    0  0.00000000000E+00  0.00000000000E+00  0.13095999774E+04  0.13095999774E+04  0.25500000920E-02 0.  1.
       -2   -1    0    0    0  501  0.00000000000E+00  0.00000000000E+00 -0.19547222914E+04  0.19547222914E+04  0.25500000920E-02 0. -1.
    10030    2    1    2    0    0  0.00000000000E+00  0.00000000000E+00 -0.64512231396E+03  0.32643222688E+04  0.31999401673E+04 0.  0.
        4    1    3    3  502    0  0.10444478801E+04  0.97089207520E+03  0.41757062271E+03  0.14858901823E+04  0.12699999809E+01 0.  1.
       -4    1    3    3    0  502 -0.10444478801E+04 -0.97089207520E+03 -0.10626929367E+04  0.17784320865E+04  0.12699999809E+01 0. -1.
</event>
<event>
 5   0  0.3270966E-08  0.3199813E+04  0.7818609E-02  0.8188867E-01
        1   -1    0    0  501    0  0.00000000000E+00  0.00000000000E+00  0.20130977959E+04  0.20130977959E+04  0.50400001928E-02 0.  1.
       -1   -1    0    0    0  501  0.00000000000E+00  0.00000000000E+00 -0.12715231338E+04  0.12715231338E+04  0.50400001928E-02 0. -1.
    10030    2    1    2    0    0  0.00000000000E+00  0.00000000000E+00  0.74157466215E+03  0.32846209297E+04  0.31998127558E+04 0.  0.
        3    1    3    3  502    0 -0.34923057138E+03  0.14680068448E+03 -0.12248200985E+04  0.12820673605E+04  0.10100000352E+00 0. -1.
       -3    1    3    3    0  502  0.34923057138E+03 -0.14680068448E+03  0.19663947606E+04  0.20025535693E+04  0.10100000352E+00 0.  1.
</event>
<event>
 5   0  0.3283581E-08  0.3199163E+04  0.7818609E-02  0.8189038E-01
       -1   -1    0    0    0  501  0.00000000000E+00  0.00000000000E+00  0.18731822707E+04  0.18731822707E+04  0.50400001928E-02 0.  1.
        1   -1    0    0  501    0  0.00000000000E+00  0.00000000000E+00 -0.13659431177E+04  0.13659431177E+04  0.50400001928E-02 0. -1.
    10030    2    1    2    0    0  0.00000000000E+00  0.00000000000E+00  0.50723915297E+03  0.32391253885E+04  0.31991626598E+04 0.  0.
        5    1    3    3  502    0  0.40779334192E+03  0.14547445233E+04  0.78559822872E+03  0.17028692565E+04  0.46999998093E+01 0.  1.
       -5    1    3    3    0  502 -0.40779334192E+03 -0.14547445233E+04 -0.27835907576E+03  0.15362561319E+04  0.46999998093E+01 0. -1.
</event>
<event>
 5   0  0.9353994E-08  0.3200481E+04  0.7818609E-02  0.8188690E-01
        2   -1    0    0  501    0  0.00000000000E+00  0.00000000000E+00  0.24260690704E+04  0.24260690704E+04  0.25500000920E-02 0. -1.
       -2   -1    0    0    0  501  0.00000000000E+00  0.00000000000E+00 -0.10555218479E+04  0.10555218479E+04  0.25500000920E-02 0.  1.
    10030    2    1    2    0    0  0.00000000000E+00  0.00000000000E+00  0.13705472225E+04  0.34815909183E+04  0.32004805316E+04 0.  0.
        2    1    3    3  502    0 -0.10303983021E+04 -0.43279261696E+03  0.19311823534E+04  0.22312542196E+04  0.25500000920E-02 0. -1.
       -2    1    3    3    0  502  0.10303983021E+04  0.43279261696E+03 -0.56063513089E+03  0.12503366987E+04  0.25500000920E-02 0.  1.
</event>
<event>
 5   0  0.3427667E-08  0.3199881E+04  0.7818609E-02  0.8188849E-01
        1   -1    0    0  501    0  0.00000000000E+00  0.00000000000E+00  0.20143891438E+04  0.20143891438E+04  0.50400001928E-02 0. -1.
       -1   -1    0    0    0  501  0.00000000000E+00  0.00000000000E+00 -0.12707621775E+04  0.12707621775E+04  0.50400001928E-02 0.  1.
    10030    2    1    2    0    0  0.00000000000E+00  0.00000000000E+00  0.74362696631E+03  0.32851513213E+04  0.31998809570E+04 0.  0.
        2    1    3    3  502    0 -0.11689427109E+04  0.14534141912E+02  0.14932454817E+04  0.18964230465E+04  0.25500000920E-02 0. -1.
       -2    1    3    3    0  502  0.11689427109E+04 -0.14534141912E+02 -0.74961851536E+03  0.13887282748E+04  0.25500000920E-02 0.  1.
</event>
<event>
 5   0  0.3427667E-08  0.3177326E+04  0.7818609E-02  0.8194831E-01
        1   -1    0    0  501    0  0.00000000000E+00  0.00000000000E+00  0.18956942393E+04  0.18956942393E+04  0.50400001928E-02 0. -1.
       -1   -1    0    0    0  501  0.00000000000E+00  0.00000000000E+00 -0.13313595253E+04  0.13313595253E+04  0.50400001928E-02 0.  1.
    10030    2    1    2    0    0  0.00000000000E+00  0.00000000000E+00  0.56433471405E+03  0.32270537646E+04  0.31773262864E+04 0.  0.
        2    1    3    3  502    0  0.11663733033E+04 -0.95316845636E+03 -0.23060430453E+03  0.15238553521E+04  0.25500000920E-02 0.  1.
       -2    1    3    3    0  502 -0.11663733033E+04  0.95316845636E+03  0.79493901858E+03  0.17031984125E+04  0.25500000920E-02 0. -1.
</event>
<event>
 5   0  0.3343140E-08  0.3198030E+04  0.7818609E-02  0.8189338E-01
        1   -1    0    0  501    0  0.00000000000E+00  0.00000000000E+00  0.23082047531E+04  0.23082047531E+04  0.50400001928E-02 0. -1.
       -1   -1    0    0    0  501  0.00000000000E+00  0.00000000000E+00 -0.11077217207E+04  0.11077217207E+04  0.50400001928E-02 0.  1.
    10030    2    1    2    0    0  0.00000000000E+00  0.00000000000E+00  0.12004830324E+04  0.34159264738E+04  0.31980297314E+04 0.  0.
        1    1    3    3  502    0 -0.41311506013E+03 -0.15418587389E+04  0.49972262462E+03  0.16726371768E+04  0.50400001928E-02 0. -1.
       -1    1    3    3    0  502  0.41311506013E+03  0.15418587389E+04  0.70076040781E+03  0.17432892969E+04  0.50400001928E-02 0.  1.
</event>
<event>
 5   0  0.9353994E-08  0.3199807E+04  0.7818609E-02  0.8188868E-01
        2   -1    0    0  501    0  0.00000000000E+00  0.00000000000E+00  0.19676350636E+04  0.19676350636E+04  0.25500000920E-02 0. -1.
       -2   -1    0    0    0  501  0.00000000000E+00  0.00000000000E+00 -0.13008974392E+04  0.13008974392E+04  0.25500000920E-02 0.  1.
    10030    2    1    2    0    0  0.00000000000E+00  0.00000000000E+00  0.66673762439E+03  0.32685325028E+04  0.31998071289E+04 0.  0.
        2    1    3    3  502    0 -0.40783673726E+03 -0.10454928614E+04 -0.83143201592E+03  0.13966622085E+04  0.25500000920E-02 0.  1.
       -2    1    3    3    0  502  0.40783673726E+03  0.10454928614E+04  0.14981696403E+04  0.18718702943E+04  0.25500000920E-02 0. -1.
</event>
<event>
 5   0  0.9727083E-08  0.3196607E+04  0.7818609E-02  0.8189714E-01
        2   -1    0    0  501    0  0.00000000000E+00  0.00000000000E+00  0.25035385909E+04  0.25035385909E+04  0.25500000920E-02 0. -1.
       -2   -1    0    0    0  501  0.00000000000E+00  0.00000000000E+00 -0.10203850427E+04  0.10203850427E+04  0.25500000920E-02 0.  1.
    10030    2    1    2    0    0  0.00000000000E+00  0.00000000000E+00  0.14831535482E+04  0.35239236336E+04  0.31966065332E+04 0.  0.
        4    1    3    3  502    0  0.67403060813E+03 -0.11215534155E+04 -0.27021086336E+03  0.13361193240E+04  0.12699999809E+01 0.  1.
       -4    1    3    3    0  502 -0.67403060813E+03  0.11215534155E+04  0.17533644116E+04  0.21878043096E+04  0.12699999809E+01 0. -1.
</event>
<event>
 5   0  0.3270966E-08  0.3199755E+04  0.7818609E-02  0.8188882E-01
        1   -1    0    0  501    0  0.00000000000E+00  0.00000000000E+00  0.20061212327E+04  0.20061212327E+04  0.50400001928E-02 0.  1.
       -1   -1    0    0    0  501  0.00000000000E+00  0.00000000000E+00 -0.12758992087E+04  0.12758992087E+04  0.50400001928E-02 0. -1.
    10030    2    1    2    0    0  0.00000000000E+00  0.00000000000E+00  0.73022202394E+03  0.32820204414E+04  0.31997552990E+04 0.  0.
        3    1    3    3  502    0 -0.74311920171E+03  0.12256338110E+04  0.10941620730E+04  0.18032179677E+04  0.10100000352E+00 0.  1.
       -3    1    3    3    0  502  0.74311920171E+03 -0.12256338110E+04 -0.36394004910E+03  0.14788024737E+04  0.10100000352E+00 0. -1.
</event>
<event>
 5   0  0.9329929E-08  0.3197829E+04  0.7818609E-02  0.8189391E-01
       -2   -1    0    0    0  501  0.00000000000E+00  0.00000000000E+00  0.86697427051E+03  0.86697427052E+03  0.25500000920E-02 0.  1.
        2   -1    0    0  501    0  0.00000000000E+00  0.00000000000E+00 -0.29487921111E+04  0.29487921111E+04  0.25500000920E-02 0. -1.
    10030    2    1    2    0    0  0.00000000000E+00  0.00000000000E+00 -0.20818178406E+04  0.38157663816E+04  0.31978285692E+04 0.  0.
        1    1    3    3  502    0 -0.75686048522E+03 -0.87682344512E+03 -0.23561078806E+04  0.26254335819E+04  0.50400001928E-02 0. -1.
       -1    1    3    3    0  502  0.75686048522E+03  0.87682344512E+03  0.27429004001E+03  0.11903327997E+04  0.50400001928E-02 0.  1.
</event>
<event>
 5   0  0.3427667E-08  0.3199101E+04  0.7818609E-02  0.8189055E-01
       -1   -1    0    0    0  501  0.00000000000E+00  0.00000000000E+00  0.13222613973E+04  0.13222613973E+04  0.50400001928E-02 0. -1.
        1   -1    0    0  501    0  0.00000000000E+00  0.00000000000E+00 -0.19349896786E+04  0.19349896786E+04  0.50400001928E-02 0.  1.
    10030    2    1    2    0    0  0.00000000000E+00  0.00000000000E+00 -0.61272828134E+03  0.32572510759E+04  0.31991012214E+04 0.  0.
        2    1    3    3  502    0 -0.47429994398E+03 -0.10146003267E+03  0.12455818717E+04  0.13366857425E+04  0.25500000920E-02 0. -1.
       -2    1    3    3    0  502  0.47429994398E+03  0.10146003267E+03 -0.18583101530E+04  0.19205653334E+04  0.25500000920E-02 0.  1.
</event>
<event>
 5   0  0.3343140E-08  0.3200639E+04  0.7818609E-02  0.8188648E-01
        1   -1    0    0  501    0  0.00000000000E+00  0.00000000000E+00  0.17232492147E+04  0.17232492147E+04  0.50400001928E-02 0. -1.
       -1   -1    0    0    0  501  0.00000000000E+00  0.00000000000E+00 -0.14861592430E+04  0.14861592430E+04  0.50400001928E-02 0.  1.
    10030    2    1    2    0    0  0.00000000000E+00  0.00000000000E+00  0.23708997170E+03  0.32094084578E+04  0.32006391540E+04 0.  0.
        1    1    3    3  502    0 -0.35271780994E+03 -0.15514397434E+04 -0.54111612398E+02  0.15919494959E+04  0.50400001928E-02 0.  1.
       -1    1    3    3    0  502  0.35271780994E+03  0.15514397434E+04  0.29120158410E+03  0.16174589619E+04  0.50400001928E-02 0. -1.
</event>
<event>
 5   0  0.3270966E-08  0.3201022E+04  0.7818609E-02  0.8188547E-01
       -1   -1    0    0    0  501  0.00000000000E+00  0.00000000000E+00  0.15148008740E+04  0.15148008740E+04  0.50400001928E-02 0.  1.
        1   -1    0    0  501    0  0.00000000000E+00  0.00000000000E+00 -0.16910705339E+04  0.16910705339E+04  0.50400001928E-02 0. -1.
    10030    2    1    2    0    0  0.00000000000E+00  0.00000000000E+00 -0.17626965990E+03  0.32058714079E+04  0.32010217885E+04 0.  0.
        3    1    3    3  502    0  0.47403395670E+03 -0.58765628803E+03 -0.15015088697E+04  0.16806477920E+04  0.10100000352E+00 0. -1.
       -3    1    3    3    0  502 -0.47403395670E+03  0.58765628803E+03  0.13252392098E+04  0.15252236158E+04  0.10100000352E+00 0.  1.
</event>
<event>
 5   0  0.3343140E-08  0.3199516E+04  0.7818609E-02  0.8188945E-01
        1   -1    0    0  501    0  0.00000000000E+00  0.00000000000E+00  0.12341639247E+04  0.12341639247E+04  0.50400001928E-02 0. -1.
       -1   -1    0    0    0  501  0.00000000000E+00  0.00000000000E+00 -0.20736519109E+04  0.20736519109E+04  0.50400001928E-02 0.  1.
    10030    2    1    2    0    0  0.00000000000E+00  0.00000000000E+00 -0.83948798613E+03  0.33078158356E+04  0.31995164515E+04 0.  0.
        1    1    3    3  502    0 -0.15779280850E+03  0.14940888085E+04 -0.98791550984E+03  0.17981037213E+04  0.50400001928E-02 0.  1.
       -1    1    3    3    0  502  0.15779280850E+03 -0.14940888085E+04  0.14842752371E+03  0.15097121143E+04  0.50400001928E-02 0. -1.
</event>
<event>
 5   0  0.3343140E-08  0.3195004E+04  0.7818609E-02  0.8190138E-01
        1   -1    0    0  501    0  0.00000000000E+00  0.00000000000E+00  0.25360628627E+04  0.25360628627E+04  0.50400001928E-02 0. -1.
       -1   -1    0    0    0  501  0.00000000000E+00  0.00000000000E+00 -0.10062889465E+04  0.10062889465E+04  0.50400001928E-02 0.  1.
    10030    2    1    2    0    0  0.00000000000E+00  0.00000000000E+00  0.15297739162E+04  0.35423518092E+04  0.31950036159E+04 0.  0.
        1    1    3    3  502    0  0.56141657986E+03 -0.10604263713E+04 -0.40443763917E+03  0.12662000115E+04  0.50400001928E-02 0.  1.
       -1    1    3    3    0  502 -0.56141657986E+03  0.10604263713E+04  0.19342115554E+04  0.22761517977E+04  0.50400001928E-02 0. -1.
</event>
<event>
 5   0  0.3427667E-08  0.3197890E+04  0.7818609E-02  0.8189375E-01
       -1   -1    0    0    0  501  0.00000000000E+00  0.00000000000E+00  0.11883088372E+04  0.11883088372E+04  0.50400001928E-02 0.  1.
        1   -1    0    0  501    0  0.00000000000E+00  0.00000000000E+00 -0.21514818285E+04  0.21514818285E+04  0.50400001928E-02 0. -1.
    10030    2    1    2    0    0  0.00000000000E+00  0.00000000000E+00 -0.96317299132E+03  0.33397906657E+04  0.31978898480E+04 0.  0.
        2    1    3    3  502    0  0.15620699461E+03  0.14692661392E+04  0.15666251780E+03  0.14858286433E+04  0.25500000920E-02 0.  1.
       -2    1    3    3    0  502 -0.15620699461E+03 -0.14692661392E+04 -0.11198355091E+04  0.18539620224E+04  0.25500000920E-02 0. -1.
</event>
<event>
 5   0  0.3343140E-08  0.3200180E+04  0.7818609E-02  0.8188770E-01
        1   -1    0    0  501    0  0.00000000000E+00  0.00000000000E+00  0.19033244557E+04  0.19033244558E+04  0.50400001928E-02 0.  1.
       -1   -1    0    0    0  501  0.00000000000E+00  0.00000000000E+00 -0.13451662005E+04  0.13451662005E+04  0.50400001928E-02 0. -1.
    10030    2    1    2    0    0  0.00000000000E+00  0.00000000000E+00  0.55815825525E+03  0.32484906563E+04  0.32001798240E+04 0.  0.
        1    1    3    3  502    0 -0.74700413369E+03 -0.12391233742E+04 -0.41449673985E+03  0.15050745695E+04  0.50400001928E-02 0. -1.
       -1    1    3    3    0  502  0.74700413369E+03  0.12391233742E+04  0.97265499509E+03  0.17434160868E+04  0.50400001928E-02 0.  1.
</event>
<event>
 5   0  0.9353994E-08  0.3200546E+04  0.7818609E-02  0.8188673E-01
        2   -1    0    0  501    0  0.00000000000E+00  0.00000000000E+00  0.10789178640E+04  0.10789178640E+04  0.25500000920E-02 0.  1.
       -2   -1    0    0    0  501  0.00000000000E+00  0.00000000000E+00 -0.23735574954E+04  0.23735574954E+04  0.25500000920E-02 0. -1.
    10030    2    1    2    0    0  0.00000000000E+00  0.00000000000E+00 -0.12946396314E+04  0.34524753594E+04  0.32005459428E+04 0.  0.
        2    1    3    3  502    0  0.60452700380E+01  0.72406638387E+03 -0.21867345895E+04  0.23035009960E+04  0.25500000920E-02 0. -1.
       -2    1    3    3    0  502 -0.60452700380E+01 -0.72406638387E+03  0.89209495810E+03  0.11489743634E+04  0.25500000920E-02 0.  1.
</event>
<event>
 5   0  0.3427667E-08  0.3197630E+04  0.7818609E-02  0.8189443E-01
        1   -1    0    0  501    0  0.00000000000E+00  0.00000000000E+00  0.20436485592E+04  0.20436485592E+04  0.50400001928E-02 0.  1.
       -1   -1    0    0    0  501  0.00000000000E+00  0.00000000000E+00 -0.12508065902E+04  0.12508065902E+04  0.50400001928E-02 0. -1.
    10030    2    1    2    0    0  0.00000000000E+00  0.00000000000E+00  0.79284196901E+03  0.32944551494E+04  0.31976298009E+04 0.  0.
        2    1    3    3  502    0 -0.19244222517E+03 -0.12953123901E+04  0.13414418867E+04  0.18746558440E+04  0.25500000920E-02 0.  1.
       -2    1    3    3    0  502  0.19244222517E+03  0.12953123901E+04 -0.54859991773E+03  0.14197993054E+04  0.25500000920E-02 0. -1.
</event>
<event>
 5   0  0.3283581E-08  0.3202585E+04  0.7818609E-02  0.8188135E-01
        1   -1    0    0  501    0  0.00000000000E+00  0.00000000000E+00  0.21429913368E+04  0.21429913368E+04  0.50400001928E-02 0. -1.
       -1   -1    0    0    0  501  0.00000000000E+00  0.00000000000E+00 -0.11965225723E+04  0.11965225723E+04  0.50400001928E-02 0.  1.
    10030    2    1    2    0    0  0.00000000000E+00  0.00000000000E+00  0.94646876451E+03  0.33395139091E+04  0.32025848977E+04 0.  0.
        5    1    3    3  502    0  0.12291422251E+04  0.20776115206E+03  0.15212740310E+04  0.19667872465E+04  0.46999998093E+01 0. -1.
       -5    1    3    3    0  502 -0.12291422251E+04 -0.20776115206E+03 -0.57480526645E+03  0.13727266626E+04  0.46999998093E+01 0.  1.
</event>
<event>
 5   0  0.9329929E-08  0.3200030E+04  0.7818609E-02  0.8188809E-01
        2   -1    0    0  501    0  0.00000000000E+00  0.00000000000E+00  0.29751792131E+04  0.29751792131E+04  0.25500000920E-02 0.  1.
       -2   -1    0    0    0  501  0.00000000000E+00  0.00000000000E+00 -0.86046865852E+03  0.86046865853E+03  0.25500000920E-02 0. -1.
    10030    2    1    2    0    0  0.00000000000E+00  0.00000000000E+00  0.21147105546E+04  0.38356478717E+04  0.32000302914E+04 0.  0.
        1    1    3    3  502    0  0.11327671442E+04 -0.95303032268E+03  0.32961862966E+03  0.15166003561E+04  0.50400001928E-02 0. -1.
       -1    1    3    3    0  502 -0.11327671442E+04  0.95303032268E+03  0.17850919249E+04  0.23190475156E+04  0.50400001928E-02 0.  1.
</event>
<event>
 5   0  0.9329929E-08  0.3199969E+04  0.7818609E-02  0.8188825E-01
       -2   -1    0    0    0  501  0.00000000000E+00  0.00000000000E+00  0.13324702900E+04  0.13324702900E+04  0.25500000920E-02 0. -1.
        2   -1    0    0  501    0  0.00000000000E+00  0.00000000000E+00 -0.19212062202E+04  0.19212062202E+04  0.25500000920E-02 0.  1.
    10030    2    1    2    0    0  0.00000000000E+00  0.00000000000E+00 -0.58873593020E+03  0.32536765103E+04  0.31999688808E+04 0.  0.
        1    1    3    3  502    0  0.12129633990E+04  0.58760732302E+03 -0.11710382453E+04  0.17854672065E+04  0.50400001928E-02 0. -1.
       -1    1    3    3    0  502 -0.12129633990E+04 -0.58760732302E+03  0.58230231512E+03  0.14682093038E+04  0.50400001928E-02 0.  1.
</event>
<event>
 5   0  0.9353994E-08  0.3200712E+04  0.7818609E-02  0.8188629E-01
        2   -1    0    0  501    0  0.00000000000E+00  0.00000000000E+00  0.17828104560E+04  0.17828104560E+04  0.25500000920E-02 0.  1.
       -2   -1    0    0    0  501  0.00000000000E+00  0.00000000000E+00 -0.14365737105E+04  0.14365737105E+04  0.25500000920E-02 0. -1.
    10030    2    1    2    0    0  0.00000000000E+00  0.00000000000E+00  0.34623674550E+03  0.32193841665E+04  0.32007115659E+04 0.  0.
        2    1    3    3  502    0 -0.89582987636E+03 -0.11970486421E+04  0.74715087857E+03  0.16714278490E+04  0.25500000920E-02 0.  1.
       -2    1    3    3    0  502  0.89582987636E+03  0.11970486421E+04 -0.40091413308E+03  0.15479563176E+04  0.25500000920E-02 0. -1.
</event>
<event>
 5   0  0.9157524E-08  0.3200483E+04  0.7818609E-02  0.8188690E-01
       -2   -1    0    0    0  501  0.00000000000E+00  0.00000000000E+00  0.13405824534E+04  0.13405824534E+04  0.25500000920E-02 0.  1.
        2   -1    0    0  501    0  0.00000000000E+00  0.00000000000E+00 -0.19101940969E+04  0.19101940969E+04  0.25500000920E-02 0. -1.
    10030    2    1    2    0    0  0.00000000000E+00  0.00000000000E+00 -0.56961164355E+03  0.32507765503E+04  0.32004828941E+04 0.  0.
        5    1    3    3  502    0  0.78470660782E+01 -0.79021939180E+03 -0.16981614860E+04  0.18730410530E+04  0.46999998093E+01 0. -1.
       -5    1    3    3    0  502 -0.78470660782E+01  0.79021939180E+03  0.11285498425E+04  0.13777354973E+04  0.46999998093E+01 0.  1.
</event>
<event>
 5   0  0.3220147E-08  0.3199630E+04  0.7818609E-02  0.8188915E-01
       -1   -1    0    0    0  501  0.00000000000E+00  0.00000000000E+00  0.14656379716E+04  0.14656379716E+04  0.50400001928E-02 0. -1.
        1   -1    0    0  501    0  0.00000000000E+00  0.00000000000E+00 -0.17462753357E+04  0.17462753357E+04  0.50400001928E-02 0.  1.
    10030    2    1    2    0    0  0.00000000000E+00  0.00000000000E+00 -0.28063736406E+03  0.32119133073E+04  0.31996296291E+04 0.  0.
        4    1    3    3  502    0 -0.11789442316E+04  0.49440668942E+03 -0.11058106592E+04  0.16903154447E+04  0.12699999809E+01 0. -1.
       -4    1    3    3    0  502  0.11789442316E+04 -0.49440668942E+03  0.82517329509E+03  0.15215978626E+04  0.12699999809E+01 0.  1.
</event>
<event>
 5   0  0.9329929E-08  0.3198224E+04  0.7818609E-02  0.8189286E-01
        2   -1    0    0  501    0  0.00000000000E+00  0.00000000000E+00  0.18631839409E+04  0.18631839409E+04  0.25500000920E-02 0.  1.
       -2   -1    0    0    0  501  0.00000000000E+00  0.00000000000E+00 -0.13724674108E+04  0.13724674108E+04  0.25500000920E-02 0. -1.
    10030    2    1    2    0    0  0.00000000000E+00  0.00000000000E+00  0.49071653008E+03  0.32356513517E+04  0.31982240317E+04 0.  0.
        1    1    3    3  502    0  0.10081086174E+04 -0.76006531135E+03  0.12382591175E+04  0.17684082968E+04  0.50400001928E-02 0.  1.
       -1    1    3    3    0  502 -0.10081086174E+04  0.76006531135E+03 -0.74754258746E+03  0.14672430549E+04  0.50400001928E-02 0. -1.
</event>
<event>
 5   0  0.3343140E-08  0.3200515E+04  0.7818609E-02  0.8188681E-01
        1   -1    0    0  501    0  0.00000000000E+00  0.00000000000E+00  0.17815935402E+04  0.17815935402E+04  0.50400001928E-02 0. -1.
       -1   -1    0    0    0  501  0.00000000000E+00  0.00000000000E+00 -0.14373783335E+04  0.14373783335E+04  0.50400001928E-02 0.  1.
    10030    2    1    2    0    0  0.00000000000E+00  0.00000000000E+00  0.34421520670E+03  0.32189718738E+04  0.32005149298E+04 0.  0.
        1    1    3    3  502    0 -0.12866400303E+04 -0.11803930789E+03 -0.77750256936E+03  0.15079410105E+04  0.50400001928E-02 0.  1.
       -1    1    3    3    0  502  0.12866400303E+04  0.11803930789E+03  0.11217177761E+04  0.17110308632E+04  0.50400001928E-02 0. -1.
</event>
<event>
 5   0  0.3427667E-08  0.3200200E+04  0.7818609E-02  0.8188764E-01
       -1   -1    0    0    0  501  0.00000000000E+00  0.00000000000E+00  0.13851941464E+04  0.13851941464E+04  0.50400001928E-02 0.  1.
        1   -1    0    0  501    0  0.00000000000E+00  0.00000000000E+00 -0.18483472767E+04  0.18483472767E+04  0.50400001928E-02 0. -1.
    10030    2    1    2    0    0  0.00000000000E+00  0.00000000000E+00 -0.46315313029E+03  0.32335414232E+04  0.32001998865E+04 0.  0.
        2    1    3    3  502    0 -0.69088657378E+03 -0.12056438758E+04 -0.10332011831E+04  0.17315906265E+04  0.25500000920E-02 0.  1.
       -2    1    3    3    0  502  0.69088657378E+03  0.12056438758E+04  0.57004805280E+03  0.15019507967E+04  0.25500000920E-02 0. -1.
</event>
<event>
 5   0  0.3343140E-08  0.3200120E+04  0.7818609E-02  0.8188785E-01
       -1   -1    0    0    0  501  0.00000000000E+00  0.00000000000E+00  0.10824588929E+04  0.10824588930E+04  0.50400001928E-02 0.  1.
        1   -1    0    0  501    0  0.00000000000E+00  0.00000000000E+00 -0.23651631766E+04  0.23651631766E+04  0.50400001928E-02 0. -1.
    10030    2    1    2    0    0  0.00000000000E+00  0.00000000000E+00 -0.12827042837E+04  0.34476220696E+04  0.32001199439E+04 0.  0.
        1    1    3    3  502    0 -0.36388569535E+03 -0.40189799301E+03  0.98048777931E+03  0.11203977336E+04  0.50400001928E-02 0.  1.
       -1    1    3    3    0  502  0.36388569535E+03  0.40189799301E+03 -0.22631920630E+04  0.23272243360E+04  0.50400001928E-02 0. -1.
</event>
<event>
 5   0  0.3283581E-08  0.3199989E+04  0.7818609E-02  0.8188820E-01
        1   -1    0    0  501    0  0.00000000000E+00  0.00000000000E+00  0.24316509605E+04  0.24316509605E+04  0.50400001928E-02 0. -1.
       -1   -1    0    0    0  501  0.00000000000E+00  0.00000000000E+00 -0.10527755615E+04  0.10527755615E+04  0.50400001928E-02 0.  1.
    10030    2    1    2    0    0  0.00000000000E+00  0.00000000000E+00  0.13788753990E+04  0.34844265220E+04  0.31999891908E+04 0.  0.
        5    1    3    3  502    0  0.81007219287E+03 -0.72374492215E+00 -0.81296714192E+03  0.11476737974E+04  0.46999998093E+01 0.  1.
       -5    1    3    3    0  502 -0.81007219287E+03  0.72374492215E+00  0.21918425409E+04  0.23367527245E+04  0.46999998093E+01 0. -1.
</event>
<event>
 5   0  0.3427667E-08  0.3200905E+04  0.7818609E-02  0.8188578E-01
        1   -1    0    0  501    0  0.00000000000E+00  0.00000000000E+00  0.17674155327E+04  0.17674155327E+04  0.50400001928E-02 0. -1.
       -1   -1    0    0    0  501  0.00000000000E+00  0.00000000000E+00 -0.14492618182E+04  0.14492618182E+04  0.50400001928E-02 0.  1.
    10030    2    1    2    0    0  0.00000000000E+00  0.00000000000E+00  0.31815371449E+03  0.32166773510E+04  0.32009047774E+04 0.  0.
        2    1    3    3  502    0  0.91317288477E+02  0.12907225340E+04 -0.78744770844E+03  0.15147202383E+04  0.25500000920E-02 0.  1.
       -2    1    3    3    0  502 -0.91317288477E+02 -0.12907225340E+04  0.11056014229E+04  0.17019571126E+04  0.25500000920E-02 0. -1.
</event>
<event>
 5   0  0.9329929E-08  0.3200439E+04  0.7818609E-02  0.8188701E-01
        2   -1    0    0  501    0  0.00000000000E+00  0.00000000000E+00  0.92637410180E+03  0.92637410181E+03  0.25500000920E-02 0.  1.
       -2   -1    0    0    0  501  0.00000000000E+00  0.00000000000E+00 -0.27642201664E+04  0.27642201664E+04  0.25500000920E-02 0. -1.
    10030    2    1    2    0    0  0.00000000000E+00  0.00000000000E+00 -0.18378460646E+04  0.36905942682E+04  0.32004387036E+04 0.  0.
        1    1    3    3  502    0  0.42397862855E+03 -0.13151673532E+04  0.11692513335E+02  0.13818682135E+04  0.50400001928E-02 0.  1.
       -1    1    3    3    0  502 -0.42397862855E+03  0.13151673532E+04 -0.18495385779E+04  0.23087260547E+04  0.50400001928E-02 0. -1.
</event>
<event>
 5   0  0.9707721E-08  0.3200651E+04  0.7818609E-02  0.8188645E-01
        2   -1    0    0  501    0  0.00000000000E+00  0.00000000000E+00  0.12008638941E+04  0.12008638941E+04  0.25500000920E-02 0. -1.
       -2   -1    0    0    0  501  0.00000000000E+00  0.00000000000E+00 -0.21326660812E+04  0.21326660812E+04  0.25500000920E-02 0.  1.
    10030    2    1    2    0    0  0.00000000000E+00  0.00000000000E+00 -0.93180218708E+03  0.33335299754E+04  0.32006509933E+04 0.  0.
        3    1    3    3  502    0  0.13030202874E+03  0.83201729066E+02 -0.21248702311E+04  0.21304869527E+04  0.10100000352E+00 0.  1.
       -3    1    3    3    0  502 -0.13030202874E+03 -0.83201729066E+02  0.11930680440E+04  0.12030430226E+04  0.10100000352E+00 0. -1.
</event>
<event>
 5   0  0.3343140E-08  0.3205037E+04  0.7818609E-02  0.8187488E-01
       -1   -1    0    0    0  501  0.00000000000E+00  0.00000000000E+00  0.21577083412E+04  0.21577083412E+04  0.50400001928E-02 0. -1.
        1   -1    0    0  501    0  0.00000000000E+00  0.00000000000E+00 -0.11901817182E+04  0.11901817183E+04  0.50400001928E-02 0.  1.
    10030    2    1    2    0    0  0.00000000000E+00  0.00000000000E+00  0.96752662294E+03  0.33478900595E+04  0.32050366744E+04 0.  0.
        1    1    3    3  502    0 -0.12385884819E+04  0.94059875389E+03  0.80231961619E+02  0.15573261094E+04  0.50400001928E-02 0.  1.
       -1    1    3    3    0  502  0.12385884819E+04 -0.94059875389E+03  0.88729466132E+03  0.17905639501E+04  0.50400001928E-02 0. -1.
</event>
<event>
 5   0  0.3427667E-08  0.3201033E+04  0.7818609E-02  0.8188544E-01
        1   -1    0    0  501    0  0.00000000000E+00  0.00000000000E+00  0.22237124045E+04  0.22237124045E+04  0.50400001928E-02 0. -1.
       -1   -1    0    0    0  501  0.00000000000E+00  0.00000000000E+00 -0.11519714515E+04  0.11519714515E+04  0.50400001928E-02 0.  1.
    10030    2    1    2    0    0  0.00000000000E+00  0.00000000000E+00  0.10717409529E+04  0.33756838560E+04  0.32010330872E+04 0.  0.
        2    1    3    3  502    0  0.83638530965E+03 -0.55497558261E+03  0.18505296276E+04  0.21052311479E+04  0.25500000920E-02 0. -1.
       -2    1    3    3    0  502 -0.83638530965E+03  0.55497558261E+03 -0.77878867470E+03  0.12704527080E+04  0.25500000920E-02 0.  1.
</event>
<event>
 5   0  0.3343140E-08  0.3199038E+04  0.7818609E-02  0.8189071E-01
        1   -1    0    0  501    0  0.00000000000E+00  0.00000000000E+00  0.11628321931E+04  0.11628321931E+04  0.50400001928E-02 0. -1.
       -1   -1    0    0    0  501  0.00000000000E+00  0.00000000000E+00 -0.22001976231E+04  0.22001976231E+04  0.50400001928E-02 0.  1.
    10030    2    1    2    0    0  0.00000000000E+00  0.00000000000E+00 -0.10373654300E+04  0.33630298162E+04  0.31990377474E+04 0.  0.
        1    1    3    3  502    0 -0.44650216806E+03  0.10604183888E+04  0.64940679023E+03  0.13212041949E+04  0.50400001928E-02 0. -1.
       -1    1    3    3    0  502  0.44650216806E+03 -0.10604183888E+04 -0.16867722202E+04  0.20418256214E+04  0.50400001928E-02 0.  1.
</event>
<event>
 5   0  0.3220147E-08  0.3200425E+04  0.7818609E-02  0.8188705E-01
        1   -1    0    0  501    0  0.00000000000E+00  0.00000000000E+00  0.19651681494E+04  0.19651681494E+04  0.50400001928E-02 0. -1.
       -1   -1    0    0    0  501  0.00000000000E+00  0.00000000000E+00 -0.13030335296E+04  0.13030335296E+04  0.50400001928E-02 0.  1.
    10030    2    1    2    0    0  0.00000000000E+00  0.00000000000E+00  0.66213461983E+03  0.32682016791E+04  0.32004249656E+04 0.  0.
        4    1    3    3  502    0 -0.13570357288E+04  0.27712007669E+03 -0.48736473450E+03  0.14682872687E+04  0.12699999809E+01 0.  1.
       -4    1    3    3    0  502  0.13570357288E+04 -0.27712007669E+03  0.11494993543E+04  0.17999144104E+04  0.12699999809E+01 0. -1.
</event>
<event>
 5   0  0.3270966E-08  0.3199080E+04  0.7818609E-02  0.8189060E-01
       -1   -1    0    0    0  501  0.00000000000E+00  0.00000000000E+00  0.14623594247E+04  0.14623594247E+04  0.50400001928E-02 0. -1.
        1   -1    0    0  501    0  0.00000000000E+00  0.00000000000E+00 -0.17495894585E+04  0.17495894585E+04  0.50400001928E-02 0.  1.
    10030    2    1    2    0    0  0.00000000000E+00  0.00000000000E+00 -0.28723003377E+03  0.32119488832E+04  0.31990802641E+04 0.  0.
        3    1    3    3  502    0  0.11736809758E+04 -0.10001630775E+04  0.28315412747E+03  0.15678104109E+04  0.10100000352E+00 0. -1.
       -3    1    3    3    0  502 -0.11736809758E+04  0.10001630775E+04 -0.57038416124E+03  0.16441384723E+04  0.10100000352E+00 0.  1.
</event>
<event>
 5   0  0.9329929E-08  0.3197296E+04  0.7818609E-02  0.8189532E-01
       -2   -1    0    0    0  501  0.00000000000E+00  0.00000000000E+00  0.12674691992E+04  0.12674691992E+04  0.25500000920E-02 0. -1.
        2   -1    0    0  501    0  0.00000000000E+00  0.00000000000E+00 -0.20163606798E+04  0.20163606798E+04  0.25500000920E-02 0.  1.
    10030    2    1    2    0    0  0.00000000000E+00  0.00000000000E+00 -0.74889148054E+03  0.32838298790E+04  0.31972957675E+04 0.  0.
        1    1    3    3  502    0  0.10094347754E+04 -0.69775154593E+03 -0.14268034354E+04  0.18819096230E+04  0.50400001928E-02 0. -1.
       -1    1    3    3    0  502 -0.10094347754E+04  0.69775154593E+03  0.67791195487E+03  0.14019202560E+04  0.50400001928E-02 0.  1.
</event>
<event>
 5   0  0.3283581E-08  0.3199189E+04  0.7818609E-02  0.8189031E-01
        1   -1    0    0  501    0  0.00000000000E+00  0.00000000000E+00  0.26549593239E+04  0.26549593239E+04  0.50400001928E-02 0.  1.
       -1   -1    0    0    0  501  0.00000000000E+00  0.00000000000E+00 -0.96374479286E+03  0.96374479287E+03  0.50400001928E-02 0. -1.
    10030    2    1    2    0    0  0.00000000000E+00  0.00000000000E+00  0.16912145311E+04  0.36187041168E+04  0.31991894122E+04 0.  0.
        5    1    3    3  502    0 -0.45434861450E+03  0.10969316473E+03 -0.88477112020E+03  0.10006534260E+04  0.46999998093E+01 0. -1.
       -5    1    3    3    0  502  0.45434861450E+03 -0.10969316473E+03  0.25759856513E+04  0.26180506908E+04  0.46999998093E+01 0.  1.
</event>
<event>
 5   0  0.9353994E-08  0.3198924E+04  0.7818609E-02  0.8189102E-01
       -2   -1    0    0    0  501  0.00000000000E+00  0.00000000000E+00  0.13449834378E+04  0.13449834378E+04  0.25500000920E-02 0. -1.
        2   -1    0    0  501    0  0.00000000000E+00  0.00000000000E+00 -0.19020888742E+04  0.19020888742E+04  0.25500000920E-02 0.  1.
    10030    2    1    2    0    0  0.00000000000E+00  0.00000000000E+00 -0.55710543643E+03  0.32470723121E+04  0.31989235896E+04 0.  0.
        2    1    3    3  502    0 -0.38885156566E+03 -0.10070743859E+04 -0.14765172471E+04  0.18290728634E+04  0.25500000920E-02 0.  1.
       -2    1    3    3    0  502  0.38885156566E+03  0.10070743859E+04  0.91941181062E+03  0.14179994486E+04  0.25500000920E-02 0. -1.
</event>
<event>
 5   0  0.3220147E-08  0.3200716E+04  0.7818609E-02  0.8188628E-01
       -1   -1    0    0    0  501  0.00000000000E+00  0.00000000000E+00  0.11365232960E+04  0.11365232960E+04  0.50400001928E-02 0. -1.
        1   -1    0    0  501    0  0.00000000000E+00  0.00000000000E+00 -0.22534913554E+04  0.22534913554E+04  0.50400001928E-02 0.  1.
    10030    2    1    2    0    0  0.00000000000E+00  0.00000000000E+00 -0.11169680593E+04  0.33900146514E+04  0.32007158092E+04 0.  0.
        4    1    3    3  502    0 -0.49118324984E+03 -0.95468657923E+02  0.10515412134E+04  0.11645238452E+04  0.12699999809E+01 0. -1.
       -4    1    3    3    0  502  0.49118324984E+03  0.95468657923E+02 -0.21685092728E+04  0.22254908062E+04  0.12699999809E+01 0.  1.
</event>
<event>
 5   0  0.9707721E-08  0.3187137E+04  0.7818609E-02  0.8192223E-01
        2   -1    0    0  501    0  0.00000000000E+00  0.00000000000E+00  0.34136844897E+04  0.34136844897E+04  0.25500000920E-02 0.  1.
       -2   -1    0    0    0  501  0.00000000000E+00  0.00000000000E+00 -0.74390584384E+03  0.74390584385E+03  0.25500000920E-02 0. -1.
    10030    2    1    2    0    0  0.00000000000E+00  0.00000000000E+00  0.26697786459E+04  0.41575903335E+04  0.31871365461E+04 0.  0.
        3    1    3    3  502    0 -0.11062826489E+04 -0.12807694343E+03  0.28217770107E+04  0.30335936628E+04  0.10100000352E+00 0.  1.
       -3    1    3    3    0  502  0.11062826489E+04  0.12807694343E+03 -0.15199836480E+03  0.11239966708E+04  0.10100000352E+00 0. -1.
</event>
<event>
 5   0  0.3343140E-08  0.3199982E+04  0.7818609E-02  0.8188822E-01
        1   -1    0    0  501    0  0.00000000000E+00  0.00000000000E+00  0.19183304969E+04  0.19183304970E+04  0.50400001928E-02 0.  1.
       -1   -1    0    0    0  501  0.00000000000E+00  0.00000000000E+00 -0.13344783438E+04  0.13344783439E+04  0.50400001928E-02 0. -1.
    10030    2    1    2    0    0  0.00000000000E+00  0.00000000000E+00  0.58385215310E+03  0.32528088408E+04  0.31999815653E+04 0.  0.
        1    1    3    3  502    0  0.11300011599E+03  0.13985186429E+04  0.10736120067E+04  0.17667105483E+04  0.50400001928E-02 0.  1.
       -1    1    3    3    0  502 -0.11300011599E+03 -0.13985186429E+04 -0.48975985359E+03  0.14860982925E+04  0.50400001928E-02 0. -1.
</event>
<event>
 5   0  0.9707721E-08  0.3200287E+04  0.7818609E-02  0.8188741E-01
       -2   -1    0    0    0  501  0.00000000000E+00  0.00000000000E+00  0.96775568587E+03  0.96775568587E+03  0.25500000920E-02 0.  1.
        2   -1    0    0  501    0  0.00000000000E+00  0.00000000000E+00 -0.26457696655E+04  0.26457696655E+04  0.25500000920E-02 0. -1.
    10030    2    1    2    0    0  0.00000000000E+00  0.00000000000E+00 -0.16780139796E+04  0.36135253514E+04  0.32002866355E+04 0.  0.
        3    1    3    3  502    0  0.66009374097E+03 -0.51870189547E+03 -0.23771409070E+04  0.25210264388E+04  0.10100000352E+00 0. -1.
       -3    1    3    3    0  502 -0.66009374097E+03  0.51870189547E+03  0.69912692736E+03  0.10924989126E+04  0.10100000352E+00 0.  1.
</event>
<event>
 5   0  0.3270966E-08  0.3200340E+04  0.7818609E-02  0.8188727E-01
       -1   -1    0    0    0  501  0.00000000000E+00  0.00000000000E+00  0.16489600123E+04  0.16489600123E+04  0.50400001928E-02 0. -1.
        1   -1    0    0  501    0  0.00000000000E+00  0.00000000000E+00 -0.15528240369E+04  0.15528240369E+04  0.50400001928E-02 0.  1.
    10030    2    1    2    0    0  0.00000000000E+00  0.00000000000E+00  0.96135975332E+02  0.32017840492E+04  0.32003404463E+04 0.  0.
        3    1    3    3  502    0  0.64522056730E+02  0.21423691071E+03  0.16332334497E+04  0.16484878104E+04  0.10100000352E+00 0. -1.
       -3    1    3    3    0  502 -0.64522056730E+02 -0.21423691071E+03 -0.15370974743E+04  0.15532962388E+04  0.10100000352E+00 0.  1.
</event>
<event>
 5   0  0.3283581E-08  0.3199149E+04  0.7818609E-02  0.8189042E-01
       -1   -1    0    0    0  501  0.00000000000E+00  0.00000000000E+00  0.15218778519E+04  0.15218778519E+04  0.50400001928E-02 0. -1.
        1   -1    0    0  501    0  0.00000000000E+00  0.00000000000E+00 -0.16812382265E+04  0.16812382265E+04  0.50400001928E-02 0.  1.
    10030    2    1    2    0    0  0.00000000000E+00  0.00000000000E+00 -0.15936037465E+03  0.32031160784E+04  0.31991493999E+04 0.  0.
        5    1    3    3  502    0 -0.14051860215E+04 -0.14840196259E+03  0.67094680270E+03  0.15642130928E+04  0.46999998093E+01 0. -1.
       -5    1    3    3    0  502  0.14051860215E+04  0.14840196259E+03 -0.83030717735E+03  0.16389029856E+04  0.46999998093E+01 0.  1.
</event>
<event>
 5   0  0.3270966E-08  0.3199935E+04  0.7818609E-02  0.8188834E-01
        1   -1    0    0  501    0  0.00000000000E+00  0.00000000000E+00  0.19668672732E+04  0.19668672732E+04  0.50400001928E-02 0.  1.
       -1   -1    0    0    0  501  0.00000000000E+00  0.00000000000E+00 -0.13015094179E+04  0.13015094179E+04  0.50400001928E-02 0. -1.
    10030    2    1    2    0    0  0.00000000000E+00  0.00000000000E+00  0.66535785523E+03  0.32683766911E+04  0.31999351743E+04 0.  0.
        3    1    3    3  502    0 -0.14929045860E+03 -0.15794573203E+04  0.12106854139E+03  0.15911098861E+04  0.10100000352E+00 0.  1.
       -3    1    3    3    0  502  0.14929045860E+03  0.15794573203E+04  0.54428931384E+03  0.16772668050E+04  0.10100000352E+00 0. -1.
</event>
<event>
 5   0  0.9157524E-08  0.3201841E+04  0.7818609E-02  0.8188331E-01
        2   -1    0    0  501    0  0.00000000000E+00  0.00000000000E+00  0.18289290954E+04  0.18289290954E+04  0.25500000920E-02 0.  1.
       -2   -1    0    0    0  501  0.00000000000E+00  0.00000000000E+00 -0.14013368750E+04  0.14013368750E+04  0.25500000920E-02 0. -1.
    10030    2    1    2    0    0  0.00000000000E+00  0.00000000000E+00  0.42759222047E+03  0.32302659704E+04  0.32018405851E+04 0.  0.
        5    1    3    3  502    0 -0.84910889101E+03  0.10896797636E+04 -0.60242021861E+03  0.15070899461E+04  0.46999998093E+01 0. -1.
       -5    1    3    3    0  502  0.84910889101E+03 -0.10896797636E+04  0.10300124391E+04  0.17231760243E+04  0.46999998093E+01 0.  1.
</event>
<event>
 5   0  0.9329929E-08  0.3197175E+04  0.7818609E-02  0.8189564E-01
        2   -1    0    0  501    0  0.00000000000E+00  0.00000000000E+00  0.21762189769E+04  0.21762189769E+04  0.25500000920E-02 0. -1.
       -2   -1    0    0    0  501  0.00000000000E+00  0.00000000000E+00 -0.11742761232E+04  0.11742761232E+04  0.25500000920E-02 0.  1.
    10030    2    1    2    0    0  0.00000000000E+00  0.00000000000E+00  0.10019428538E+04  0.33504951001E+04  0.31971749926E+04 0.  0.
        1    1    3    3  502    0 -0.24115836424E+03  0.13463370645E+04 -0.36617632760E+03  0.14159328906E+04  0.50400001928E-02 0.  1.
       -1    1    3    3    0  502  0.24115836424E+03 -0.13463370645E+04  0.13681191814E+04  0.19345622095E+04  0.50400001928E-02 0. -1.
</event>
<event>
 5   0  0.9329929E-08  0.3199762E+04  0.7818609E-02  0.8188880E-01
        2   -1    0    0  501    0  0.00000000000E+00  0.00000000000E+00  0.16398739223E+04  0.16398739223E+04  0.25500000920E-02 0. -1.
       -2   -1    0    0    0  501  0.00000000000E+00  0.00000000000E+00 -0.15608633596E+04  0.15608633596E+04  0.25500000920E-02 0.  1.
    10030    2    1    2    0    0  0.00000000000E+00  0.00000000000E+00  0.79010562702E+02  0.32007372819E+04  0.31997619410E+04 0.  0.
        1    1    3    3  502    0  0.64577545535E+03 -0.93923009237E+03  0.11625406940E+04  0.16280908975E+04  0.50400001928E-02 0. -1.
       -1    1    3    3    0  502 -0.64577545535E+03  0.93923009237E+03 -0.10835301313E+04  0.15726463845E+04  0.50400001928E-02 0.  1.
</event>
<event>
 5   0  0.3427667E-08  0.3190738E+04  0.7818609E-02  0.8191267E-01
        1   -1    0    0  501    0  0.00000000000E+00  0.00000000000E+00  0.25905006805E+04  0.25905006805E+04  0.50400001928E-02 0. -1.
       -1   -1    0    0    0  501  0.00000000000E+00  0.00000000000E+00 -0.98251389186E+03  0.98251389188E+03  0.50400001928E-02 0.  1.
    10030    2    1    2    0    0  0.00000000000E+00  0.00000000000E+00  0.16079867886E+04  0.35730145724E+04  0.31907384133E+04 0.  0.
        2    1    3    3  502    0 -0.17472748417E+03  0.11990275751E+04  0.19661179163E+04  0.23095056788E+04  0.25500000920E-02 0. -1.
       -2    1    3    3    0  502  0.17472748417E+03 -0.11990275751E+04 -0.35813112762E+03  0.12635088936E+04  0.25500000920E-02 0.  1.
</event>
<event>
 5   0  0.3080500E-08  0.3199806E+04  0.7818609E-02  0.8188868E-01
        4   -1    0    0  501    0  0.00000000000E+00  0.00000000000E+00  0.14934663844E+04  0.14934669244E+04  0.12699999809E+01 0.  1.
       -4   -1    0    0    0  501  0.00000000000E+00  0.00000000000E+00 -0.17139245366E+04  0.17139250071E+04  0.12699999809E+01 0. -1.
    10030    2    1    2    0    0  0.00000000000E+00  0.00000000000E+00 -0.22045815219E+03  0.32073919314E+04  0.31998064324E+04 0.  0.
        1    1    3    3  502    0  0.10261662111E+04 -0.11526766653E+04 -0.53314123968E+03  0.16327645785E+04  0.50400001928E-02 0. -1.
       -1    1    3    3    0  502 -0.10261662111E+04  0.11526766653E+04  0.31268308749E+03  0.15746273529E+04  0.50400001928E-02 0.  1.
</event>
<event>
 5   0  0.9353994E-08  0.3200565E+04  0.7818609E-02  0.8188668E-01
       -2   -1    0    0    0  501  0.00000000000E+00  0.00000000000E+00  0.11971046904E+04  0.11971046904E+04  0.25500000920E-02 0. -1.
        2   -1    0    0  501    0  0.00000000000E+00  0.00000000000E+00 -0.21392477542E+04  0.21392477542E+04  0.25500000920E-02 0.  1.
    10030    2    1    2    0    0  0.00000000000E+00  0.00000000000E+00 -0.94214306382E+03  0.33363524446E+04  0.32005646505E+04 0.  0.
        2    1    3    3  502    0 -0.14412855663E+04 -0.33492528193E+03 -0.11063740654E+04  0.18475774952E+04  0.25500000920E-02 0.  1.
       -2    1    3    3    0  502  0.14412855663E+04  0.33492528193E+03  0.16423100153E+03  0.14887749494E+04  0.25500000920E-02 0. -1.
</event>
<event>
 5   0  0.3283581E-08  0.3200525E+04  0.7818609E-02  0.8188678E-01
       -1   -1    0    0    0  501  0.00000000000E+00  0.00000000000E+00  0.15713136004E+04  0.15713136004E+04  0.50400001928E-02 0. -1.
        1   -1    0    0  501    0  0.00000000000E+00  0.00000000000E+00 -0.16297449755E+04  0.16297449755E+04  0.50400001928E-02 0.  1.
    10030    2    1    2    0    0  0.00000000000E+00  0.00000000000E+00 -0.58431375121E+02  0.32010585759E+04  0.32005252351E+04 0.  0.
        5    1    3    3  502    0  0.15086959414E+02 -0.37884821771E+03 -0.15841659765E+04  0.16289129871E+04  0.46999998093E+01 0.  1.
       -5    1    3    3    0  502 -0.15086959414E+02  0.37884821771E+03  0.15257346014E+04  0.15721455888E+04  0.46999998093E+01 0. -1.
</event>
<event>
 5   0  0.3220147E-08  0.3198680E+04  0.7818609E-02  0.8189166E-01
        1   -1    0    0  501    0  0.00000000000E+00  0.00000000000E+00  0.12980925083E+04  0.12980925083E+04  0.50400001928E-02 0. -1.
       -1   -1    0    0    0  501  0.00000000000E+00  0.00000000000E+00 -0.19704973306E+04  0.19704973306E+04  0.50400001928E-02 0.  1.
    10030    2    1    2    0    0  0.00000000000E+00  0.00000000000E+00 -0.67240482229E+03  0.32685898389E+04  0.31986796166E+04 0.  0.
        4    1    3    3  502    0  0.11943931171E+04 -0.89827783488E+03 -0.91821933113E+03  0.17540257523E+04  0.12699999809E+01 0.  1.
       -4    1    3    3    0  502 -0.11943931171E+04  0.89827783488E+03  0.24581450884E+03  0.15145640866E+04  0.12699999809E+01 0. -1.
</event>
<event>
 5   0  0.3270966E-08  0.3200073E+04  0.7818609E-02  0.8188798E-01
        1   -1    0    0  501    0  0.00000000000E+00  0.00000000000E+00  0.15797906158E+04  0.15797906158E+04  0.50400001928E-02 0. -1.
       -1   -1    0    0    0  501  0.00000000000E+00  0.00000000000E+00 -0.16205421799E+04  0.16205421799E+04  0.50400001928E-02 0.  1.
    10030    2    1    2    0    0  0.00000000000E+00  0.00000000000E+00 -0.40751564108E+02  0.32003327956E+04  0.32000733293E+04 0.  0.
        3    1    3    3  502    0  0.88413010043E+03 -0.55841936763E+02 -0.13528925223E+04  0.16171340524E+04  0.10100000352E+00 0.  1.
       -3    1    3    3    0  502 -0.88413010043E+03  0.55841936763E+02  0.13121409582E+04  0.15831987433E+04  0.10100000352E+00 0. -1.
</event>
<event>
 5   0  0.3283581E-08  0.3193997E+04  0.7818609E-02  0.8190404E-01
        1   -1    0    0  501    0  0.00000000000E+00  0.00000000000E+00  0.14888030592E+04  0.14888030592E+04  0.50400001928E-02 0. -1.
       -1   -1    0    0    0  501  0.00000000000E+00  0.00000000000E+00 -0.17130568459E+04  0.17130568460E+04  0.50400001928E-02 0.  1.
    10030    2    1    2    0    0  0.00000000000E+00  0.00000000000E+00 -0.22425378671E+03  0.32018599052E+04  0.31939970400E+04 0.  0.
        5    1    3    3  502    0 -0.74581008821E+03  0.14070829655E+04  0.76117964627E+01  0.15925436223E+04  0.46999998093E+01 0. -1.
       -5    1    3    3    0  502  0.74581008821E+03 -0.14070829655E+04 -0.23186558317E+03  0.16093162829E+04  0.46999998093E+01 0.  1.
</event>
<event>
 5   0  0.9353994E-08  0.3200252E+04  0.7818609E-02  0.8188751E-01
       -2   -1    0    0    0  501  0.00000000000E+00  0.00000000000E+00  0.97194107936E+03  0.97194107936E+03  0.25500000920E-02 0.  1.
        2   -1    0    0  501    0  0.00000000000E+00  0.00000000000E+00 -0.26343186335E+04  0.26343186335E+04  0.25500000920E-02 0. -1.
    10030    2    1    2    0    0  0.00000000000E+00  0.00000000000E+00 -0.16623775541E+04  0.36062597128E+04  0.32002515501E+04 0.  0.
        2    1    3    3  502    0 -0.12858491581E+04 -0.59557929962E+03 -0.16686263418E+04  0.21891634539E+04  0.25500000920E-02 0. -1.
       -2    1    3    3    0  502  0.12858491581E+04  0.59557929962E+03  0.62487876668E+01  0.14170962589E+04  0.25500000920E-02 0.  1.
</event>
<event>
 5   0  0.9353994E-08  0.3201792E+04  0.7818609E-02  0.8188344E-01
        2   -1    0    0  501    0  0.00000000000E+00  0.00000000000E+00  0.23479093209E+04  0.23479093209E+04  0.25500000920E-02 0. -1.
       -2   -1    0    0    0  501  0.00000000000E+00  0.00000000000E+00 -0.10915533386E+04  0.10915533387E+04  0.25500000920E-02 0.  1.
    10030    2    1    2    0    0  0.00000000000E+00  0.00000000000E+00  0.12563559822E+04  0.34394626595E+04  0.32017921594E+04 0.  0.
        2    1    3    3  502    0 -0.31141385117E+03  0.13947682495E+04  0.14031972633E+04  0.20028279048E+04  0.25500000920E-02 0. -1.
       -2    1    3    3    0  502  0.31141385117E+03 -0.13947682495E+04 -0.14684128113E+03  0.14366347547E+04  0.25500000920E-02 0.  1.
</event>
<event>
 5   0  0.3220147E-08  0.3200866E+04  0.7818609E-02  0.8188589E-01
       -1   -1    0    0    0  501  0.00000000000E+00  0.00000000000E+00  0.12882955038E+04  0.12882955038E+04  0.50400001928E-02 0.  1.
        1   -1    0    0  501    0  0.00000000000E+00  0.00000000000E+00 -0.19881971147E+04  0.19881971147E+04  0.50400001928E-02 0. -1.
    10030    2    1    2    0    0  0.00000000000E+00  0.00000000000E+00 -0.69990161088E+03  0.32764926185E+04  0.32008657601E+04 0.  0.
        4    1    3    3  502    0 -0.12541844408E+04 -0.55144956203E+03 -0.11967252044E+04  0.18191283789E+04  0.12699999809E+01 0. -1.
       -4    1    3    3    0  502  0.12541844408E+04  0.55144956203E+03  0.49682359354E+03  0.14573642396E+04  0.12699999809E+01 0.  1.
</event>
<event>
 5   0  0.3343140E-08  0.3201518E+04  0.7818609E-02  0.8188416E-01
       -1   -1    0    0    0  501  0.00000000000E+00  0.00000000000E+00  0.93665108374E+03  0.93665108375E+03  0.50400001928E-02 0.  1.
        1   -1    0    0  501    0  0.00000000000E+00  0.00000000000E+00 -0.27357346438E+04  0.27357346438E+04  0.50400001928E-02 0. -1.
    10030    2    1    2    0    0  0.00000000000E+00  0.00000000000E+00 -0.17990835600E+04  0.36723857275E+04  0.32015176520E+04 0.  0.
        1    1    3    3  502    0  0.56022044905E+02 -0.66382679093E+03  0.77008487308E+03  0.10182510445E+04  0.50400001928E-02 0.  1.
       -1    1    3    3    0  502 -0.56022044905E+02  0.66382679093E+03 -0.25691684331E+04  0.26541346830E+04  0.50400001928E-02 0. -1.
</event>
<event>
 5   0  0.3343140E-08  0.3199697E+04  0.7818609E-02  0.8188897E-01
        1   -1    0    0  501    0  0.00000000000E+00  0.00000000000E+00  0.17624282675E+04  0.17624282675E+04  0.50400001928E-02 0. -1.
       -1   -1    0    0    0  501  0.00000000000E+00  0.00000000000E+00 -0.14522664110E+04  0.14522664110E+04  0.50400001928E-02 0.  1.
    10030    2    1    2    0    0  0.00000000000E+00  0.00000000000E+00  0.31016185653E+03  0.32146946786E+04  0.31996970949E+04 0.  0.
        1    1    3    3  502    0  0.44999493528E+03  0.82167203096E+03 -0.11478689892E+04  0.14816354426E+04  0.50400001928E-02 0.  1.
       -1    1    3    3    0  502 -0.44999493528E+03 -0.82167203096E+03  0.14580308458E+04  0.17330592360E+04  0.50400001928E-02 0. -1.
</event>
<event>
 5   0  0.3283581E-08  0.3198652E+04  0.7818609E-02  0.8189173E-01
       -1   -1    0    0    0  501  0.00000000000E+00  0.00000000000E+00  0.10939345866E+04  0.10939345866E+04  0.50400001928E-02 0. -1.
        1   -1    0    0  501    0  0.00000000000E+00  0.00000000000E+00 -0.23382049865E+04  0.23382049865E+04  0.50400001928E-02 0.  1.
    10030    2    1    2    0    0  0.00000000000E+00  0.00000000000E+00 -0.12442703999E+04  0.34321395731E+04  0.31986517818E+04 0.  0.
        5    1    3    3  502    0 -0.65321502916E+03 -0.10464261327E+04 -0.17143392407E+04  0.21120318766E+04  0.46999998093E+01 0.  1.
       -5    1    3    3    0  502  0.65321502916E+03  0.10464261327E+04  0.47006884071E+03  0.13201076966E+04  0.46999998093E+01 0. -1.
</event>
<event>
 5   0  0.9329929E-08  0.3200616E+04  0.7818609E-02  0.8188654E-01
        2   -1    0    0  501    0  0.00000000000E+00  0.00000000000E+00  0.21184776346E+04  0.21184776346E+04  0.25500000920E-02 0. -1.
       -2   -1    0    0    0  501  0.00000000000E+00  0.00000000000E+00 -0.12088804048E+04  0.12088804048E+04  0.25500000920E-02 0.  1.
    10030    2    1    2    0    0  0.00000000000E+00  0.00000000000E+00  0.90959722981E+03  0.33273580393E+04  0.32006162534E+04 0.  0.
        1    1    3    3  502    0 -0.92798347127E+03  0.68350310523E+03  0.16090141781E+04  0.19792060133E+04  0.50400001928E-02 0. -1.
       -1    1    3    3    0  502  0.92798347127E+03 -0.68350310523E+03 -0.69941694826E+03  0.13481520261E+04  0.50400001928E-02 0.  1.
</event>
<event>
 5   0  0.9707721E-08  0.3199105E+04  0.7818609E-02  0.8189054E-01
       -2   -1    0    0    0  501  0.00000000000E+00  0.00000000000E+00  0.18865318241E+04  0.18865318241E+04  0.25500000920E-02 0. -1.
        2   -1    0    0  501    0  0.00000000000E+00  0.00000000000E+00 -0.13562286906E+04  0.13562286906E+04  0.25500000920E-02 0.  1.
    10030    2    1    2    0    0  0.00000000000E+00  0.00000000000E+00  0.53030313355E+03  0.32427605147E+04  0.31991052408E+04 0.  0.
        3    1    3    3  502    0 -0.11119305950E+04  0.19789706618E+03 -0.88300821630E+03  0.14336165517E+04  0.10100000352E+00 0.  1.
       -3    1    3    3    0  502  0.11119305950E+04 -0.19789706618E+03  0.14133113498E+04  0.18091439630E+04  0.10100000352E+00 0. -1.
</event>
<event>
 5   0  0.9329929E-08  0.3202305E+04  0.7818609E-02  0.8188209E-01
       -2   -1    0    0    0  501  0.00000000000E+00  0.00000000000E+00  0.13562018679E+04  0.13562018679E+04  0.25500000920E-02 0. -1.
        2   -1    0    0  501    0  0.00000000000E+00  0.00000000000E+00 -0.18903445732E+04  0.18903445732E+04  0.25500000920E-02 0.  1.
    10030    2    1    2    0    0  0.00000000000E+00  0.00000000000E+00 -0.53414270536E+03  0.32465464411E+04  0.32023046957E+04 0.  0.
        1    1    3    3  502    0 -0.14004557412E+04  0.77580050716E+03 -0.29076366349E+03  0.16271712319E+04  0.50400001928E-02 0. -1.
       -1    1    3    3    0  502  0.14004557412E+04 -0.77580050716E+03 -0.24337904187E+03  0.16193752092E+04  0.50400001928E-02 0.  1.
</event>
<event>
 5   0  0.9707721E-08  0.3199946E+04  0.7818609E-02  0.8188832E-01
       -2   -1    0    0    0  501  0.00000000000E+00  0.00000000000E+00  0.14249200912E+04  0.14249200912E+04  0.25500000920E-02 0. -1.
        2   -1    0    0  501    0  0.00000000000E+00  0.00000000000E+00 -0.17965308661E+04  0.17965308661E+04  0.25500000920E-02 0.  1.
    10030    2    1    2    0    0  0.00000000000E+00  0.00000000000E+00 -0.37161077490E+03  0.32214509574E+04  0.31999455781E+04 0.  0.
        3    1    3    3  502    0  0.11059690241E+03  0.10742173689E+04  0.10026955999E+04  0.14736258367E+04  0.10100000352E+00 0. -1.
       -3    1    3    3    0  502 -0.11059690241E+03 -0.10742173689E+04 -0.13743063748E+04  0.17478251206E+04  0.10100000352E+00 0.  1.
</event>
<event>
 5   0  0.9157524E-08  0.3196320E+04  0.7818609E-02  0.8189790E-01
        2   -1    0    0  501    0  0.00000000000E+00  0.00000000000E+00  0.13097652692E+04  0.13097652692E+04  0.25500000920E-02 0. -1.
       -2   -1    0    0    0  501  0.00000000000E+00  0.00000000000E+00 -0.19500556383E+04  0.19500556383E+04  0.25500000920E-02 0.  1.
    10030    2    1    2    0    0  0.00000000000E+00  0.00000000000E+00 -0.64029036912E+03  0.32598209074E+04  0.31963198513E+04 0.  0.
        5    1    3    3  502    0 -0.46857414375E+03 -0.14570230188E+04  0.14901050996E+03  0.15377594180E+04  0.46999998093E+01 0. -1.
       -5    1    3    3    0  502  0.46857414375E+03  0.14570230188E+04 -0.78930087908E+03  0.17220614894E+04  0.46999998093E+01 0.  1.
</event>
<event>
 5   0  0.3080500E-08  0.3199334E+04  0.7818609E-02  0.8188993E-01
       -4   -1    0    0    0  501  0.00000000000E+00  0.00000000000E+00  0.11917406111E+04  0.11917412878E+04  0.12699999809E+01 0. -1.
        4   -1    0    0  501    0  0.00000000000E+00  0.00000000000E+00 -0.21472225188E+04  0.21472228944E+04  0.12699999809E+01 0.  1.
    10030    2    1    2    0    0  0.00000000000E+00  0.00000000000E+00 -0.95548190767E+03  0.33389641822E+04  0.31993337016E+04 0.  0.
        2    1    3    3  502    0 -0.55266056296E+03 -0.61462463354E+03  0.95160770977E+03  0.12604580006E+04  0.25500000920E-02 0. -1.
       -2    1    3    3    0  502  0.55266056296E+03  0.61462463354E+03 -0.19070896174E+04  0.20785061816E+04  0.25500000920E-02 0.  1.
</event>
<event>
 5   0  0.3270966E-08  0.3199470E+04  0.7818609E-02  0.8188957E-01
        1   -1    0    0  501    0  0.00000000000E+00  0.00000000000E+00  0.25614641330E+04  0.25614641330E+04  0.50400001928E-02 0. -1.
       -1   -1    0    0    0  501  0.00000000000E+00  0.00000000000E+00 -0.99909705713E+03  0.99909705715E+03  0.50400001928E-02 0.  1.
    10030    2    1    2    0    0  0.00000000000E+00  0.00000000000E+00  0.15623670759E+04  0.35605611902E+04  0.31994695043E+04 0.  0.
        3    1    3    3  502    0 -0.12160576047E+04 -0.63523232826E+03 -0.13436611355E+03  0.13785392528E+04  0.10100000352E+00 0.  1.
       -3    1    3    3    0  502  0.12160576047E+04  0.63523232826E+03  0.16967331894E+04  0.21820219374E+04  0.10100000352E+00 0. -1.
</event>
<event>
 5   0  0.9329929E-08  0.3200562E+04  0.7818609E-02  0.8188669E-01
       -2   -1    0    0    0  501  0.00000000000E+00  0.00000000000E+00  0.15966903466E+04  0.15966903466E+04  0.25500000920E-02 0.  1.
        2   -1    0    0  501    0  0.00000000000E+00  0.00000000000E+00 -0.16038795076E+04  0.16038795076E+04  0.25500000920E-02 0. -1.
    10030    2    1    2    0    0  0.00000000000E+00  0.00000000000E+00 -0.71891610118E+01  0.32005698543E+04  0.32005617801E+04 0.  0.
        1    1    3    3  502    0 -0.13940898587E+04 -0.69080467040E+03  0.37084100492E+03  0.15994438651E+04  0.50400001928E-02 0. -1.
       -1    1    3    3    0  502  0.13940898587E+04  0.69080467040E+03 -0.37803016593E+03  0.16011259891E+04  0.50400001928E-02 0.  1.
</event>
<event>
 5   0  0.3270966E-08  0.3198772E+04  0.7818609E-02  0.8189142E-01
        1   -1    0    0  501    0  0.00000000000E+00  0.00000000000E+00  0.12282247013E+04  0.12282247013E+04  0.50400001928E-02 0. -1.
       -1   -1    0    0    0  501  0.00000000000E+00  0.00000000000E+00 -0.20827094144E+04  0.20827094144E+04  0.50400001928E-02 0.  1.
    10030    2    1    2    0    0  0.00000000000E+00  0.00000000000E+00 -0.85448471307E+03  0.33109341157E+04  0.31987717321E+04 0.  0.
        3    1    3    3  502    0  0.96572312259E+03  0.95521153206E+03 -0.13012343636E+04  0.18810266079E+04  0.10100000352E+00 0.  1.
       -3    1    3    3    0  502 -0.96572312259E+03 -0.95521153206E+03  0.44674965051E+03  0.14299075078E+04  0.10100000352E+00 0. -1.
</event>
<event>
 5   0  0.3427667E-08  0.3200371E+04  0.7818609E-02  0.8188719E-01
        1   -1    0    0  501    0  0.00000000000E+00  0.00000000000E+00  0.21734454521E+04  0.21734454522E+04  0.50400001928E-02 0. -1.
       -1   -1    0    0    0  501  0.00000000000E+00  0.00000000000E+00 -0.11781265763E+04  0.11781265763E+04  0.50400001928E-02 0.  1.
    10030    2    1    2    0    0  0.00000000000E+00  0.00000000000E+00  0.99531887586E+03  0.33515720285E+04  0.32003711343E+04 0.  0.
        2    1    3    3  502    0  0.82574660635E+03 -0.53463575235E+03  0.18193890059E+04  0.20683010420E+04  0.25500000920E-02 0. -1.
       -2    1    3    3    0  502 -0.82574660635E+03  0.53463575235E+03 -0.82407013000E+03  0.12832709865E+04  0.25500000920E-02 0.  1.
</event>
<event>
 5   0  0.3220147E-08  0.3199971E+04  0.7818609E-02  0.8188825E-01
        1   -1    0    0  501    0  0.00000000000E+00  0.00000000000E+00  0.20150417080E+04  0.20150417080E+04  0.50400001928E-02 0.  1.
       -1   -1    0    0    0  501  0.00000000000E+00  0.00000000000E+00 -0.12704223346E+04  0.12704223346E+04  0.50400001928E-02 0. -1.
    10030    2    1    2    0    0  0.00000000000E+00  0.00000000000E+00  0.74461937336E+03  0.32854640426E+04  0.31999712442E+04 0.  0.
        4    1    3    3  502    0 -0.56183225528E+03  0.11491151090E+04  0.13591502519E+04  0.18663901085E+04  0.12699999809E+01 0.  1.
       -4    1    3    3    0  502  0.56183225528E+03 -0.11491151090E+04 -0.61453087854E+03  0.14190739341E+04  0.12699999809E+01 0. -1.
</event>
<event>
 5   0  0.9727083E-08  0.3199216E+04  0.7818609E-02  0.8189024E-01
        2   -1    0    0  501    0  0.00000000000E+00  0.00000000000E+00  0.15015271758E+04  0.15015271758E+04  0.25500000920E-02 0.  1.
       -2   -1    0    0    0  501  0.00000000000E+00  0.00000000000E+00 -0.17040956610E+04  0.17040956610E+04  0.25500000920E-02 0. -1.
    10030    2    1    2    0    0  0.00000000000E+00  0.00000000000E+00 -0.20256848520E+03  0.32056228368E+04  0.31992161197E+04 0.  0.
        4    1    3    3  502    0  0.27554972046E+03  0.12847433014E+04 -0.10153892622E+04  0.16605751912E+04  0.12699999809E+01 0. -1.
       -4    1    3    3    0  502 -0.27554972046E+03 -0.12847433014E+04  0.81282077699E+03  0.15450476456E+04  0.12699999809E+01 0.  1.
</event>
<event>
 5   0  0.3283581E-08  0.3200085E+04  0.7818609E-02  0.8188795E-01
       -1   -1    0    0    0  501  0.00000000000E+00  0.00000000000E+00  0.10003264604E+04  0.10003264604E+04  0.50400001928E-02 0.  1.
        1   -1    0    0  501    0  0.00000000000E+00  0.00000000000E+00 -0.25593006164E+04  0.25593006164E+04  0.50400001928E-02 0. -1.
    10030    2    1    2    0    0  0.00000000000E+00  0.00000000000E+00 -0.15589741559E+04  0.35596270768E+04  0.32000850781E+04 0.  0.
        5    1    3    3  502    0  0.38325998446E+03 -0.17591878117E+03  0.93739012397E+03  0.10278900563E+04  0.46999998093E+01 0.  1.
       -5    1    3    3    0  502 -0.38325998446E+03  0.17591878117E+03 -0.24963642799E+04  0.25317370205E+04  0.46999998093E+01 0. -1.
</event>
<event>
 5   0  0.3283581E-08  0.3197867E+04  0.7818609E-02  0.8189381E-01
       -1   -1    0    0    0  501  0.00000000000E+00  0.00000000000E+00  0.11980178313E+04  0.11980178314E+04  0.50400001928E-02 0. -1.
        1   -1    0    0  501    0  0.00000000000E+00  0.00000000000E+00 -0.21340147087E+04  0.21340147087E+04  0.50400001928E-02 0.  1.
    10030    2    1    2    0    0  0.00000000000E+00  0.00000000000E+00 -0.93599687737E+03  0.33320325401E+04  0.31978665847E+04 0.  0.
        5    1    3    3  502    0  0.15058563943E+04  0.43348003307E+03 -0.13676631690E+03  0.15729702905E+04  0.46999998093E+01 0.  1.
       -5    1    3    3    0  502 -0.15058563943E+04 -0.43348003307E+03 -0.79923056047E+03  0.17590622496E+04  0.46999998093E+01 0. -1.
</event>
<event>
 5   0  0.3283581E-08  0.3200049E+04  0.7818609E-02  0.8188804E-01
        1   -1    0    0  501    0  0.00000000000E+00  0.00000000000E+00  0.18170328111E+04  0.18170328111E+04  0.50400001928E-02 0. -1.
       -1   -1    0    0    0  501  0.00000000000E+00  0.00000000000E+00 -0.14089336097E+04  0.14089336097E+04  0.50400001928E-02 0.  1.
    10030    2    1    2    0    0  0.00000000000E+00  0.00000000000E+00  0.40809920140E+03  0.32259664207E+04  0.32000491230E+04 0.  0.
        5    1    3    3  502    0  0.45878786814E+00  0.55480859953E+03 -0.13088527205E+04  0.14215942904E+04  0.46999998093E+01 0.  1.
       -5    1    3    3    0  502 -0.45878786814E+00 -0.55480859953E+03  0.17169519219E+04  0.18043721303E+04  0.46999998093E+01 0. -1.
</event>
<event>
 5   0  0.9157524E-08  0.3183073E+04  0.7818609E-02  0.8193302E-01
       -2   -1    0    0    0  501  0.00000000000E+00  0.00000000000E+00  0.12248531016E+04  0.12248531016E+04  0.25500000920E-02 0. -1.
        2   -1    0    0  501    0  0.00000000000E+00  0.00000000000E+00 -0.20679933393E+04  0.20679933393E+04  0.25500000920E-02 0.  1.
    10030    2    1    2    0    0  0.00000000000E+00  0.00000000000E+00 -0.84314023770E+03  0.32928464408E+04  0.31830727642E+04 0.  0.
        5    1    3    3  502    0  0.16091759314E+02 -0.15613270382E+04 -0.74036142615E+03  0.17280504033E+04  0.46999998093E+01 0. -1.
       -5    1    3    3    0  502 -0.16091759314E+02  0.15613270382E+04 -0.10277881155E+03  0.15647960375E+04  0.46999998093E+01 0.  1.
</event>
<event>
 5   0  0.9329929E-08  0.3199265E+04  0.7818609E-02  0.8189011E-01
        2   -1    0    0  501    0  0.00000000000E+00  0.00000000000E+00  0.21716321830E+04  0.21716321830E+04  0.25500000920E-02 0. -1.
       -2   -1    0    0    0  501  0.00000000000E+00  0.00000000000E+00 -0.11782952573E+04  0.11782952573E+04  0.25500000920E-02 0.  1.
    10030    2    1    2    0    0  0.00000000000E+00  0.00000000000E+00  0.99333692569E+03  0.33499274403E+04  0.31992648542E+04 0.  0.
        1    1    3    3  502    0 -0.12795219170E+03  0.27898762039E+03  0.21405102541E+04  0.21624037559E+04  0.50400001928E-02 0. -1.
       -1    1    3    3    0  502  0.12795219170E+03 -0.27898762039E+03 -0.11471733284E+04  0.11875236844E+04  0.50400001928E-02 0.  1.
</event>
<event>
 5   0  0.3427667E-08  0.3199881E+04  0.7818609E-02  0.8188849E-01
        1   -1    0    0  501    0  0.00000000000E+00  0.00000000000E+00  0.14485216454E+04  0.14485216454E+04  0.50400001928E-02 0.  1.
       -1   -1    0    0    0  501  0.00000000000E+00  0.00000000000E+00 -0.17671879121E+04  0.17671879121E+04  0.50400001928E-02 0. -1.
    10030    2    1    2    0    0  0.00000000000E+00  0.00000000000E+00 -0.31866626675E+03  0.32157095575E+04  0.31998812117E+04 0.  0.
        2    1    3    3  502    0 -0.25097048514E+03  0.38818503140E+03  0.13799537358E+04  0.14553165003E+04  0.25500000920E-02 0.  1.
       -2    1    3    3    0  502  0.25097048514E+03 -0.38818503140E+03 -0.16986200025E+04  0.17603930573E+04  0.25500000920E-02 0. -1.
</event>
<event>
 5   0  0.9157524E-08  0.3201036E+04  0.7818609E-02  0.8188544E-01
       -2   -1    0    0    0  501  0.00000000000E+00  0.00000000000E+00  0.12311974833E+04  0.12311974833E+04  0.25500000920E-02 0. -1.
        2   -1    0    0  501    0  0.00000000000E+00  0.00000000000E+00 -0.20806235424E+04  0.20806235424E+04  0.25500000920E-02 0.  1.
    10030    2    1    2    0    0  0.00000000000E+00  0.00000000000E+00 -0.84942605909E+03  0.33118210257E+04  0.32010363754E+04 0.  0.
        5    1    3    3  502    0  0.36522951749E+03 -0.92625697880E+03  0.87176878508E+03  0.13233848631E+04  0.46999998093E+01 0. -1.
       -5    1    3    3    0  502 -0.36522951749E+03  0.92625697880E+03 -0.17211948442E+04  0.19884361626E+04  0.46999998093E+01 0.  1.
</event>
<event>
 5   0  0.9329929E-08  0.3201450E+04  0.7818609E-02  0.8188434E-01
       -2   -1    0    0    0  501  0.00000000000E+00  0.00000000000E+00  0.11133987707E+04  0.11133987707E+04  0.25500000920E-02 0.  1.
        2   -1    0    0  501    0  0.00000000000E+00  0.00000000000E+00 -0.23013508249E+04  0.23013508249E+04  0.25500000920E-02 0. -1.
    10030    2    1    2    0    0  0.00000000000E+00  0.00000000000E+00 -0.11879520542E+04  0.34147495955E+04  0.32014504083E+04 0.  0.
        1    1    3    3  502    0  0.58030096479E+03 -0.34942608640E+03  0.95298934909E+03  0.11692033609E+04  0.50400001928E-02 0.  1.
       -1    1    3    3    0  502 -0.58030096479E+03  0.34942608640E+03 -0.21409414033E+04  0.22455462346E+04  0.50400001928E-02 0. -1.
</event>
<event>
 5   0  0.9329929E-08  0.3200215E+04  0.7818609E-02  0.8188760E-01
        2   -1    0    0  501    0  0.00000000000E+00  0.00000000000E+00  0.12015043043E+04  0.12015043043E+04  0.25500000920E-02 0. -1.
       -2   -1    0    0    0  501  0.00000000000E+00  0.00000000000E+00 -0.21309490130E+04  0.21309490130E+04  0.25500000920E-02 0.  1.
    10030    2    1    2    0    0  0.00000000000E+00  0.00000000000E+00 -0.92944470877E+03  0.33324533173E+04  0.32002152499E+04 0.  0.
        1    1    3    3  502    0 -0.18901705546E+03  0.15873501576E+04 -0.53788541640E+03  0.16866323521E+04  0.50400001928E-02 0. -1.
       -1    1    3    3    0  502  0.18901705546E+03 -0.15873501576E+04 -0.39155929237E+03  0.16458209652E+04  0.50400001928E-02 0.  1.
</event>
<event>
 5   0  0.9707721E-08  0.3200488E+04  0.7818609E-02  0.8188688E-01
       -2   -1    0    0    0  501  0.00000000000E+00  0.00000000000E+00  0.11277194415E+04  0.11277194415E+04  0.25500000920E-02 0.  1.
        2   -1    0    0  501    0  0.00000000000E+00  0.00000000000E+00 -0.22707602557E+04  0.22707602557E+04  0.25500000920E-02 0. -1.
    10030    2    1    2    0    0  0.00000000000E+00  0.00000000000E+00 -0.11430408143E+04  0.33984796972E+04  0.32004877674E+04 0.  0.
        3    1    3    3  502    0 -0.83486435614E+03 -0.72348157541E+03  0.65783839006E+03  0.12857587024E+04  0.10100000352E+00 0.  1.
       -3    1    3    3    0  502  0.83486435614E+03  0.72348157541E+03 -0.18008792043E+04  0.21127209948E+04  0.10100000352E+00 0. -1.
</event>
<event>
 5   0  0.3220147E-08  0.3199548E+04  0.7818609E-02  0.8188937E-01
        1   -1    0    0  501    0  0.00000000000E+00  0.00000000000E+00  0.24619006460E+04  0.24619006460E+04  0.50400001928E-02 0. -1.
       -1   -1    0    0    0  501  0.00000000000E+00  0.00000000000E+00 -0.10395533807E+04  0.10395533807E+04  0.50400001928E-02 0.  1.
    10030    2    1    2    0    0  0.00000000000E+00  0.00000000000E+00  0.14223472653E+04  0.35014540267E+04  0.31995481802E+04 0.  0.
        4    1    3    3  502    0  0.68051655451E+03 -0.14033823860E+04  0.32165161423E+03  0.15924968685E+04  0.12699999809E+01 0. -1.
       -4    1    3    3    0  502 -0.68051655451E+03  0.14033823860E+04  0.11006956511E+04  0.19089571581E+04  0.12699999809E+01 0.  1.
</event>
<event>
 5   0  0.3220147E-08  0.3200093E+04  0.7818609E-02  0.8188793E-01
        1   -1    0    0  501    0  0.00000000000E+00  0.00000000000E+00  0.21944515847E+04  0.21944515847E+04  0.50400001928E-02 0. -1.
       -1   -1    0    0    0  501  0.00000000000E+00  0.00000000000E+00 -0.11666462048E+04  0.11666462049E+04  0.50400001928E-02 0.  1.
    10030    2    1    2    0    0  0.00000000000E+00  0.00000000000E+00  0.10278053798E+04  0.33610977895E+04  0.32000928818E+04 0.  0.
        4    1    3    3  502    0 -0.14484711470E+04  0.64802551961E+03  0.72951439520E+03  0.17464817788E+04  0.12699999809E+01 0. -1.
       -4    1    3    3    0  502  0.14484711470E+04 -0.64802551961E+03  0.29829098463E+03  0.16146160108E+04  0.12699999809E+01 0.  1.
</event>
<event>
 5   0  0.3343140E-08  0.3199747E+04  0.7818609E-02  0.8188884E-01
       -1   -1    0    0    0  501  0.00000000000E+00  0.00000000000E+00  0.11721087109E+04  0.11721087109E+04  0.50400001928E-02 0.  1.
        1   -1    0    0  501    0  0.00000000000E+00  0.00000000000E+00 -0.21837526119E+04  0.21837526119E+04  0.50400001928E-02 0. -1.
    10030    2    1    2    0    0  0.00000000000E+00  0.00000000000E+00 -0.10116439010E+04  0.33558613228E+04  0.31997471518E+04 0.  0.
        1    1    3    3  502    0  0.76900598389E+03 -0.10135026058E+03 -0.19733604996E+04  0.21203286868E+04  0.50400001928E-02 0. -1.
       -1    1    3    3    0  502 -0.76900598389E+03  0.10135026058E+03  0.96171659862E+03  0.12355326360E+04  0.50400001928E-02 0.  1.
</event>
<event>
 5   0  0.9157524E-08  0.3199959E+04  0.7818609E-02  0.8188828E-01
       -2   -1    0    0    0  501  0.00000000000E+00  0.00000000000E+00  0.22123491436E+04  0.22123491436E+04  0.25500000920E-02 0. -1.
        2   -1    0    0  501    0  0.00000000000E+00  0.00000000000E+00 -0.11571112689E+04  0.11571112689E+04  0.25500000920E-02 0.  1.
    10030    2    1    2    0    0  0.00000000000E+00  0.00000000000E+00  0.10552378747E+04  0.33694604125E+04  0.31999588277E+04 0.  0.
        5    1    3    3  502    0 -0.14002810414E+04  0.57151333287E+02 -0.28518843448E+03  0.14301775424E+04  0.46999998093E+01 0.  1.
       -5    1    3    3    0  502  0.14002810414E+04 -0.57151333287E+02  0.13404263092E+04  0.19392828701E+04  0.46999998093E+01 0. -1.
</event>
<event>
 5   0  0.3270966E-08  0.3198604E+04  0.7818609E-02  0.8189186E-01
        1   -1    0    0  501    0  0.00000000000E+00  0.00000000000E+00  0.22110015130E+04  0.22110015131E+04  0.50400001928E-02 0.  1.
       -1   -1    0    0    0  501  0.00000000000E+00  0.00000000000E+00 -0.11568362836E+04  0.11568362836E+04  0.50400001928E-02 0. -1.
    10030    2    1    2    0    0  0.00000000000E+00  0.00000000000E+00  0.10541652294E+04  0.33678377967E+04  0.31986039289E+04 0.  0.
        3    1    3    3  502    0 -0.14486335791E+04 -0.46237918691E+03  0.10487061545E+04  0.18471920224E+04  0.10100000352E+00 0. -1.
       -3    1    3    3    0  502  0.14486335791E+04  0.46237918691E+03  0.54590749802E+01  0.15206457743E+04  0.10100000352E+00 0.  1.
</event>
<event>
 5   0  0.9157524E-08  0.3198941E+04  0.7818609E-02  0.8189097E-01
       -2   -1    0    0    0  501  0.00000000000E+00  0.00000000000E+00  0.16410429972E+04  0.16410429972E+04  0.25500000920E-02 0. -1.
        2   -1    0    0  501    0  0.00000000000E+00  0.00000000000E+00 -0.15589511249E+04  0.15589511249E+04  0.25500000920E-02 0.  1.
    10030    2    1    2    0    0  0.00000000000E+00  0.00000000000E+00  0.82091872293E+02  0.31999941221E+04  0.31989409663E+04 0.  0.
        5    1    3    3  502    0 -0.38353750679E+03  0.68991801652E+03  0.14326170872E+04  0.16356960895E+04  0.46999998093E+01 0. -1.
       -5    1    3    3    0  502  0.38353750679E+03 -0.68991801652E+03 -0.13505252149E+04  0.15642980326E+04  0.46999998093E+01 0.  1.
</event>
<event>
 5   0  0.9329929E-08  0.3200092E+04  0.7818609E-02  0.8188793E-01
        2   -1    0    0  501    0  0.00000000000E+00  0.00000000000E+00  0.19248708054E+04  0.19248708054E+04  0.25500000920E-02 0.  1.
       -2   -1    0    0    0  501  0.00000000000E+00  0.00000000000E+00 -0.13300358007E+04  0.13300358007E+04  0.25500000920E-02 0. -1.
    10030    2    1    2    0    0  0.00000000000E+00  0.00000000000E+00  0.59483500470E+03  0.32549066061E+04  0.32000919255E+04 0.  0.
        1    1    3    3  502    0  0.96027724602E+03 -0.83367923512E+03  0.12851297897E+04  0.18079579731E+04  0.50400001928E-02 0.  1.
       -1    1    3    3    0  502 -0.96027724602E+03  0.83367923512E+03 -0.69029478498E+03  0.14469486330E+04  0.50400001928E-02 0. -1.
</event>
<event>
 5   0  0.9727083E-08  0.3200627E+04  0.7818609E-02  0.8188652E-01
        2   -1    0    0  501    0  0.00000000000E+00  0.00000000000E+00  0.10190860065E+04  0.10190860065E+04  0.25500000920E-02 0.  1.
       -2   -1    0    0    0  501  0.00000000000E+00  0.00000000000E+00 -0.25130392837E+04  0.25130392837E+04  0.25500000920E-02 0. -1.
    10030    2    1    2    0    0  0.00000000000E+00  0.00000000000E+00 -0.14939532772E+04  0.35321252902E+04  0.32006269185E+04 0.  0.
        4    1    3    3  502    0 -0.17888123539E+03  0.14101785338E+04 -0.15582337947E+04  0.21091932499E+04  0.12699999809E+01 0. -1.
       -4    1    3    3    0  502  0.17888123539E+03 -0.14101785338E+04  0.64280517479E+02  0.14229320403E+04  0.12699999809E+01 0.  1.
</event>
<event>
 5   0  0.9157524E-08  0.3198620E+04  0.7818609E-02  0.8189182E-01
       -2   -1    0    0    0  501  0.00000000000E+00  0.00000000000E+00  0.13695069737E+04  0.13695069737E+04  0.25500000920E-02 0. -1.
        2   -1    0    0  501    0  0.00000000000E+00  0.00000000000E+00 -0.18676738847E+04  0.18676738847E+04  0.25500000920E-02 0.  1.
    10030    2    1    2    0    0  0.00000000000E+00  0.00000000000E+00 -0.49816691097E+03  0.32371808585E+04  0.31986199585E+04 0.  0.
        5    1    3    3  502    0  0.66741988859E+03  0.92845826377E+03 -0.13807254383E+04  0.17927378172E+04  0.46999998093E+01 0.  1.
       -5    1    3    3    0  502 -0.66741988859E+03 -0.92845826377E+03  0.88255852733E+03  0.14444430412E+04  0.46999998093E+01 0. -1.
</event>
<event>
 5   0  0.3220147E-08  0.3199193E+04  0.7818609E-02  0.8189030E-01
       -1   -1    0    0    0  501  0.00000000000E+00  0.00000000000E+00  0.16905109695E+04  0.16905109695E+04  0.50400001928E-02 0.  1.
        1   -1    0    0  501    0  0.00000000000E+00  0.00000000000E+00 -0.15135711908E+04  0.15135711908E+04  0.50400001928E-02 0. -1.
    10030    2    1    2    0    0  0.00000000000E+00  0.00000000000E+00  0.17693977867E+03  0.32040821603E+04  0.31991928365E+04 0.  0.
        4    1    3    3  502    0 -0.96943317194E+03  0.12715464059E+04  0.13410432690E+03  0.16045611614E+04  0.12699999809E+01 0. -1.
       -4    1    3    3    0  502  0.96943317194E+03 -0.12715464059E+04  0.42835451768E+02  0.15995209989E+04  0.12699999809E+01 0.  1.
</event>
<event>
 5   0  0.9329929E-08  0.3196135E+04  0.7818609E-02  0.8189839E-01
        2   -1    0    0  501    0  0.00000000000E+00  0.00000000000E+00  0.22800648166E+04  0.22800648166E+04  0.25500000920E-02 0. -1.
       -2   -1    0    0    0  501  0.00000000000E+00  0.00000000000E+00 -0.11200642609E+04  0.11200642609E+04  0.25500000920E-02 0.  1.
    10030    2    1    2    0    0  0.00000000000E+00  0.00000000000E+00  0.11600005557E+04  0.34001290775E+04  0.31961346114E+04 0.  0.
        1    1    3    3  502    0 -0.63709923815E+03  0.93077290123E+03  0.17843264692E+04  0.21109368966E+04  0.50400001928E-02 0. -1.
       -1    1    3    3    0  502  0.63709923815E+03 -0.93077290123E+03 -0.62432591347E+03  0.12891921809E+04  0.50400001928E-02 0.  1.
</event>
<event>
 5   0  0.3220147E-08  0.3200748E+04  0.7818609E-02  0.8188620E-01
        1   -1    0    0  501    0  0.00000000000E+00  0.00000000000E+00  0.21941824392E+04  0.21941824392E+04  0.50400001928E-02 0.  1.
       -1   -1    0    0    0  501  0.00000000000E+00  0.00000000000E+00 -0.11672671517E+04  0.11672671517E+04  0.50400001928E-02 0. -1.
    10030    2    1    2    0    0  0.00000000000E+00  0.00000000000E+00  0.10269152875E+04  0.33614495908E+04  0.32007480913E+04 0.  0.
        4    1    3    3  502    0  0.87594762692E+03 -0.13318184713E+04  0.36430308356E+03  0.16351584128E+04  0.12699999809E+01 0. -1.
       -4    1    3    3    0  502 -0.87594762692E+03  0.13318184713E+04  0.66261220395E+03  0.17262911780E+04  0.12699999809E+01 0.  1.
</event>
<event>
 5   0  0.3427667E-08  0.3204190E+04  0.7818609E-02  0.8187711E-01
       -1   -1    0    0    0  501  0.00000000000E+00  0.00000000000E+00  0.87704863413E+03  0.87704863415E+03  0.50400001928E-02 0. -1.
        1   -1    0    0  501    0  0.00000000000E+00  0.00000000000E+00 -0.29265293713E+04  0.29265293713E+04  0.50400001928E-02 0.  1.
    10030    2    1    2    0    0  0.00000000000E+00  0.00000000000E+00 -0.20494807371E+04  0.38035780054E+04  0.32041901241E+04 0.  0.
        2    1    3    3  502    0  0.79224828881E+03  0.39698638880E+03 -0.26091272566E+04  0.27555036899E+04  0.25500000920E-02 0.  1.
       -2    1    3    3    0  502 -0.79224828881E+03 -0.39698638880E+03  0.55964651948E+03  0.10480743155E+04  0.25500000920E-02 0. -1.
</event>
<event>
 5   0  0.3427667E-08  0.3188454E+04  0.7818609E-02  0.8191873E-01
        1   -1    0    0  501    0  0.00000000000E+00  0.00000000000E+00  0.17506083380E+04  0.17506083380E+04  0.50400001928E-02 0.  1.
       -1   -1    0    0    0  501  0.00000000000E+00  0.00000000000E+00 -0.14518148916E+04  0.14518148916E+04  0.50400001928E-02 0. -1.
    10030    2    1    2    0    0  0.00000000000E+00  0.00000000000E+00  0.29879344642E+03  0.32024232295E+04  0.31884537032E+04 0.  0.
        2    1    3    3  502    0  0.81096581073E+03 -0.48657253924E+03  0.14384295697E+04  0.17214813415E+04  0.25500000920E-02 0.  1.
       -2    1    3    3    0  502 -0.81096581073E+03  0.48657253924E+03 -0.11396361233E+04  0.14809418880E+04  0.25500000920E-02 0. -1.
</event>
<event>
 5   0  0.3343140E-08  0.3191346E+04  0.7818609E-02  0.8191106E-01
        1   -1    0    0  501    0  0.00000000000E+00  0.00000000000E+00  0.21138260737E+04  0.21138260737E+04  0.50400001928E-02 0. -1.
       -1   -1    0    0    0  501  0.00000000000E+00  0.00000000000E+00 -0.12045325207E+04  0.12045325207E+04  0.50400001928E-02 0.  1.
    10030    2    1    2    0    0  0.00000000000E+00  0.00000000000E+00  0.90929355303E+03  0.33183585944E+04  0.31913459536E+04 0.  0.
        1    1    3    3  502    0  0.12361295165E+04 -0.58543156500E+03 -0.39990484181E+03  0.14250158531E+04  0.50400001928E-02 0.  1.
       -1    1    3    3    0  502 -0.12361295165E+04  0.58543156500E+03  0.13091983948E+04  0.18933427413E+04  0.50400001928E-02 0. -1.
</event>
<event>
 5   0  0.3220147E-08  0.3197366E+04  0.7818609E-02  0.8189513E-01
        1   -1    0    0  501    0  0.00000000000E+00  0.00000000000E+00  0.22753233019E+04  0.22753233019E+04  0.50400001928E-02 0. -1.
       -1   -1    0    0    0  501  0.00000000000E+00  0.00000000000E+00 -0.11232636941E+04  0.11232636941E+04  0.50400001928E-02 0.  1.
    10030    2    1    2    0    0  0.00000000000E+00  0.00000000000E+00  0.11520596078E+04  0.33985869960E+04  0.31973664522E+04 0.  0.
        4    1    3    3  502    0 -0.15985547278E+04 -0.20173973140E+02  0.57443984991E+03  0.16987545323E+04  0.12699999809E+01 0.  1.
       -4    1    3    3    0  502  0.15985547278E+04  0.20173973140E+02  0.57761975787E+03  0.16998324637E+04  0.12699999809E+01 0. -1.
</event>
<event>
 5   0  0.9727083E-08  0.3198614E+04  0.7818609E-02  0.8189183E-01
       -2   -1    0    0    0  501  0.00000000000E+00  0.00000000000E+00  0.14122123817E+04  0.14122123817E+04  0.25500000920E-02 0.  1.
        2   -1    0    0  501    0  0.00000000000E+00  0.00000000000E+00 -0.18111881531E+04  0.18111881531E+04  0.25500000920E-02 0. -1.
    10030    2    1    2    0    0  0.00000000000E+00  0.00000000000E+00 -0.39897577139E+03  0.32234005348E+04  0.31986136593E+04 0.  0.
        4    1    3    3  502    0 -0.10724088682E+04 -0.11411300848E+04 -0.52687779726E+03  0.16522228897E+04  0.12699999809E+01 0.  1.
       -4    1    3    3    0  502  0.10724088682E+04  0.11411300848E+04  0.12790202587E+03  0.15711776450E+04  0.12699999809E+01 0. -1.
</event>
<event>
 5   0  0.9353994E-08  0.3199667E+04  0.7818609E-02  0.8188905E-01
       -2   -1    0    0    0  501  0.00000000000E+00  0.00000000000E+00  0.11484752522E+04  0.11484752522E+04  0.25500000920E-02 0. -1.
        2   -1    0    0  501    0  0.00000000000E+00  0.00000000000E+00 -0.22285789388E+04  0.22285789388E+04  0.25500000920E-02 0.  1.
    10030    2    1    2    0    0  0.00000000000E+00  0.00000000000E+00 -0.10801036866E+04  0.33770541910E+04  0.31996673320E+04 0.  0.
        2    1    3    3  502    0 -0.12611760198E+04  0.54256598321E+03 -0.14068784133E+04  0.19657694852E+04  0.25500000920E-02 0.  1.
       -2    1    3    3    0  502  0.12611760198E+04 -0.54256598321E+03  0.32677472672E+03  0.14112847059E+04  0.25500000920E-02 0. -1.
</event>
<event>
 5   0  0.3283581E-08  0.3201058E+04  0.7818609E-02  0.8188538E-01
       -1   -1    0    0    0  501  0.00000000000E+00  0.00000000000E+00  0.14108204738E+04  0.14108204739E+04  0.50400001928E-02 0.  1.
        1   -1    0    0  501    0  0.00000000000E+00  0.00000000000E+00 -0.18157471581E+04  0.18157471581E+04  0.50400001928E-02 0. -1.
    10030    2    1    2    0    0  0.00000000000E+00  0.00000000000E+00 -0.40492668422E+03  0.32265676319E+04  0.32010581163E+04 0.  0.
        5    1    3    3  502    0  0.60962116403E+03 -0.14539544244E+04 -0.48043216792E+03  0.16481682529E+04  0.46999998093E+01 0. -1.
       -5    1    3    3    0  502 -0.60962116403E+03  0.14539544244E+04  0.75505483696E+02  0.15783993791E+04  0.46999998093E+01 0.  1.
</event>
<event>
 5   0  0.9353994E-08  0.3201486E+04  0.7818609E-02  0.8188425E-01
        2   -1    0    0  501    0  0.00000000000E+00  0.00000000000E+00  0.21635169785E+04  0.21635169785E+04  0.25500000920E-02 0.  1.
       -2   -1    0    0    0  501  0.00000000000E+00  0.00000000000E+00 -0.11843580452E+04  0.11843580452E+04  0.25500000920E-02 0. -1.
    10030    2    1    2    0    0  0.00000000000E+00  0.00000000000E+00  0.97915893333E+03  0.33478750236E+04  0.32014863669E+04 0.  0.
        2    1    3    3  502    0 -0.13909578836E+04 -0.27365977282E+03  0.12670290350E+04  0.19013195630E+04  0.25500000920E-02 0.  1.
       -2    1    3    3    0  502  0.13909578836E+04  0.27365977282E+03 -0.28787010165E+03  0.14465554606E+04  0.25500000920E-02 0. -1.
</event>
<event>
 5   0  0.3283581E-08  0.3198424E+04  0.7818609E-02  0.8189233E-01
        1   -1    0    0  501    0  0.00000000000E+00  0.00000000000E+00  0.28956798583E+04  0.28956798583E+04  0.50400001928E-02 0.  1.
       -1   -1    0    0    0  501  0.00000000000E+00  0.00000000000E+00 -0.88320514991E+03  0.88320514993E+03  0.50400001928E-02 0. -1.
    10030    2    1    2    0    0  0.00000000000E+00  0.00000000000E+00  0.20124747084E+04  0.37788850083E+04  0.31984242141E+04 0.  0.
        5    1    3    3  502    0 -0.20040283994E+03 -0.12190904187E+04  0.22059605740E+04  0.25283644697E+04  0.46999998093E+01 0.  1.
       -5    1    3    3    0  502  0.20040283994E+03  0.12190904187E+04 -0.19348586562E+03  0.12505205386E+04  0.46999998093E+01 0. -1.
</event>
<event>
 5   0  0.9329929E-08  0.3199318E+04  0.7818609E-02  0.8188997E-01
        2   -1    0    0  501    0  0.00000000000E+00  0.00000000000E+00  0.15394765672E+04  0.15394765672E+04  0.25500000920E-02 0. -1.
       -2   -1    0    0    0  501  0.00000000000E+00  0.00000000000E+00 -0.16621938890E+04  0.16621938890E+04  0.25500000920E-02 0.  1.
    10030    2    1    2    0    0  0.00000000000E+00  0.00000000000E+00 -0.12271732186E+03  0.32016704562E+04  0.31993177662E+04 0.  0.
        1    1    3    3  502    0  0.12147581207E+04  0.67480313429E+03 -0.85435034955E+03  0.16312299291E+04  0.50400001928E-02 0.  1.
       -1    1    3    3    0  502 -0.12147581207E+04 -0.67480313429E+03  0.73163302768E+03  0.15704405271E+04  0.50400001928E-02 0. -1.
</event>
<event>
 5   0  0.9727083E-08  0.3200783E+04  0.7818609E-02  0.8188610E-01
        2   -1    0    0  501    0  0.00000000000E+00  0.00000000000E+00  0.21895663391E+04  0.21895663391E+04  0.25500000920E-02 0. -1.
       -2   -1    0    0    0  501  0.00000000000E+00  0.00000000000E+00 -0.11697533897E+04  0.11697533897E+04  0.25500000920E-02 0.  1.
    10030    2    1    2    0    0  0.00000000000E+00  0.00000000000E+00  0.10198129494E+04  0.33593197288E+04  0.32007828087E+04 0.  0.
        4    1    3    3  502    0 -0.76212956452E+03  0.61044996948E+03 -0.82087209304E+03  0.12756658043E+04  0.12699999809E+01 0.  1.
       -4    1    3    3    0  502  0.76212956452E+03 -0.61044996948E+03  0.18406850424E+04  0.20836539244E+04  0.12699999809E+01 0. -1.
</event>
<event>
 5   0  0.3283581E-08  0.3200659E+04  0.7818609E-02  0.8188643E-01
        1   -1    0    0  501    0  0.00000000000E+00  0.00000000000E+00  0.20774532653E+04  0.20774532653E+04  0.50400001928E-02 0. -1.
       -1   -1    0    0    0  501  0.00000000000E+00  0.00000000000E+00 -0.12327859837E+04  0.12327859837E+04  0.50400001928E-02 0.  1.
    10030    2    1    2    0    0  0.00000000000E+00  0.00000000000E+00  0.84466728160E+03  0.33102392491E+04  0.32006594741E+04 0.  0.
        5    1    3    3  502    0  0.42686578764E+03 -0.13877573243E+04 -0.27372250242E+03  0.14775083384E+04  0.46999998093E+01 0.  1.
       -5    1    3    3    0  502 -0.42686578764E+03  0.13877573243E+04  0.11183897840E+04  0.18327309106E+04  0.46999998093E+01 0. -1.
</event>
<event>
 5   0  0.9727083E-08  0.3200571E+04  0.7818609E-02  0.8188666E-01
        2   -1    0    0  501    0  0.00000000000E+00  0.00000000000E+00  0.14699844717E+04  0.14699844717E+04  0.25500000920E-02 0.  1.
       -2   -1    0    0    0  501  0.00000000000E+00  0.00000000000E+00 -0.17421369741E+04  0.17421369741E+04  0.25500000920E-02 0. -1.
    10030    2    1    2    0    0  0.00000000000E+00  0.00000000000E+00 -0.27215250242E+03  0.32121214458E+04  0.32005713861E+04 0.  0.
        4    1    3    3  502    0 -0.14637168076E+04  0.64475619703E+03 -0.18856450988E+03  0.16105078807E+04  0.12699999809E+01 0.  1.
       -4    1    3    3    0  502  0.14637168076E+04 -0.64475619703E+03 -0.83587992545E+02  0.16016135651E+04  0.12699999809E+01 0. -1.
</event>
<event>
 5   0  0.9157524E-08  0.3199640E+04  0.7818609E-02  0.8188912E-01
       -2   -1    0    0    0  501  0.00000000000E+00  0.00000000000E+00  0.92918957740E+03  0.92918957740E+03  0.25500000920E-02 0. -1.
        2   -1    0    0  501    0  0.00000000000E+00  0.00000000000E+00 -0.27544694057E+04  0.27544694057E+04  0.25500000920E-02 0.  1.
    10030    2    1    2    0    0  0.00000000000E+00  0.00000000000E+00 -0.18252798283E+04  0.36836589831E+04  0.31996401442E+04 0.  0.
        5    1    3    3  502    0 -0.10734820247E+04 -0.94978506336E+03 -0.17307299717E+04  0.22471990675E+04  0.46999998093E+01 0.  1.
       -5    1    3    3    0  502  0.10734820247E+04  0.94978506336E+03 -0.94549856575E+02  0.14364599156E+04  0.46999998093E+01 0. -1.
</event>
<event>
 5   0  0.9329929E-08  0.3199775E+04  0.7818609E-02  0.8188877E-01
        2   -1    0    0  501    0  0.00000000000E+00  0.00000000000E+00  0.25376788715E+04  0.25376788715E+04  0.25500000920E-02 0. -1.
       -2   -1    0    0    0  501  0.00000000000E+00  0.00000000000E+00 -0.10086541840E+04  0.10086541840E+04  0.25500000920E-02 0.  1.
    10030    2    1    2    0    0  0.00000000000E+00  0.00000000000E+00  0.15290246876E+04  0.35463330555E+04  0.31997752492E+04 0.  0.
        1    1    3    3  502    0  0.12292009818E+04 -0.10113921407E+04  0.58652192620E+03  0.16964247953E+04  0.50400001928E-02 0.  1.
       -1    1    3    3    0  502 -0.12292009818E+04  0.10113921407E+04  0.94250276139E+03  0.18499082602E+04  0.50400001928E-02 0. -1.
</event>
<event>
 5   0  0.3220147E-08  0.3198312E+04  0.7818609E-02  0.8189263E-01
       -1   -1    0    0    0  501  0.00000000000E+00  0.00000000000E+00  0.14575761090E+04  0.14575761090E+04  0.50400001928E-02 0. -1.
        1   -1    0    0  501    0  0.00000000000E+00  0.00000000000E+00 -0.17544884705E+04  0.17544884705E+04  0.50400001928E-02 0.  1.
    10030    2    1    2    0    0  0.00000000000E+00  0.00000000000E+00 -0.29691236149E+03  0.32120645795E+04  0.31983123538E+04 0.  0.
        4    1    3    3  502    0 -0.16476900804E+02  0.12427806202E+04 -0.11590252300E+04  0.16994458671E+04  0.12699999809E+01 0.  1.
       -4    1    3    3    0  502  0.16476900804E+02 -0.12427806202E+04  0.86211286855E+03  0.15126187125E+04  0.12699999809E+01 0. -1.
</event>
<event>
 5   0  0.9329929E-08  0.3198222E+04  0.7818609E-02  0.8189287E-01
       -2   -1    0    0    0  501  0.00000000000E+00  0.00000000000E+00  0.14514878986E+04  0.14514878986E+04  0.25500000920E-02 0.  1.
        2   -1    0    0  501    0  0.00000000000E+00  0.00000000000E+00 -0.17617483913E+04  0.17617483913E+04  0.25500000920E-02 0. -1.
    10030    2    1    2    0    0  0.00000000000E+00  0.00000000000E+00 -0.31026049270E+03  0.32132362898E+04  0.31982223001E+04 0.  0.
        1    1    3    3  502    0 -0.36260463495E+03 -0.11861640024E+04 -0.11691697874E+04  0.17045307723E+04  0.50400001928E-02 0. -1.
       -1    1    3    3    0  502  0.36260463495E+03  0.11861640024E+04  0.85890929471E+03  0.15087055175E+04  0.50400001928E-02 0.  1.
</event>
<event>
 5   0  0.3427667E-08  0.3200425E+04  0.7818609E-02  0.8188705E-01
       -1   -1    0    0    0  501  0.00000000000E+00  0.00000000000E+00  0.13800995677E+04  0.13800995677E+04  0.50400001928E-02 0.  1.
        1   -1    0    0  501    0  0.00000000000E+00  0.00000000000E+00 -0.18554317077E+04  0.18554317077E+04  0.50400001928E-02 0. -1.
    10030    2    1    2    0    0  0.00000000000E+00  0.00000000000E+00 -0.47533214003E+03  0.32355312754E+04  0.32004252828E+04 0.  0.
        2    1    3    3  502    0 -0.78198184563E+03 -0.28258445944E+03 -0.16198982628E+04  0.18208294718E+04  0.25500000920E-02 0. -1.
       -2    1    3    3    0  502  0.78198184563E+03  0.28258445944E+03  0.11445661228E+04  0.14147018036E+04  0.25500000920E-02 0.  1.
</event>
<event>
 5   0  0.9707721E-08  0.3199721E+04  0.7818609E-02  0.8188891E-01
        2   -1    0    0  501    0  0.00000000000E+00  0.00000000000E+00  0.19413032118E+04  0.19413032118E+04  0.25500000920E-02 0. -1.
       -2   -1    0    0    0  501  0.00000000000E+00  0.00000000000E+00 -0.13184720479E+04  0.13184720479E+04  0.25500000920E-02 0.  1.
    10030    2    1    2    0    0  0.00000000000E+00  0.00000000000E+00  0.62283116385E+03  0.32597752597E+04  0.31997212512E+04 0.  0.
        3    1    3    3  502    0  0.73358591338E+03  0.13939328045E+04  0.26238535506E+02  0.15754000847E+04  0.10100000352E+00 0.  1.
       -3    1    3    3    0  502 -0.73358591338E+03 -0.13939328045E+04  0.59659262834E+03  0.16843751750E+04  0.10100000352E+00 0. -1.
</event>
<event>
 5   0  0.3220147E-08  0.3211227E+04  0.7818609E-02  0.8185858E-01
       -1   -1    0    0    0  501  0.00000000000E+00  0.00000000000E+00  0.10198213345E+04  0.10198213345E+04  0.50400001928E-02 0.  1.
        1   -1    0    0  501    0  0.00000000000E+00  0.00000000000E+00 -0.25278892383E+04  0.25278892383E+04  0.50400001928E-02 0. -1.
    10030    2    1    2    0    0  0.00000000000E+00  0.00000000000E+00 -0.15080679038E+04  0.35477105728E+04  0.32112274142E+04 0.  0.
        4    1    3    3  502    0  0.14432916918E+04 -0.37666206621E+03 -0.14104542926E+04  0.20528877573E+04  0.12699999809E+01 0. -1.
       -4    1    3    3    0  502 -0.14432916918E+04  0.37666206621E+03 -0.97613611218E+02  0.14948228155E+04  0.12699999809E+01 0.  1.
</event>
<event>
 5   0  0.3343140E-08  0.3194538E+04  0.7818609E-02  0.8190261E-01
        1   -1    0    0  501    0  0.00000000000E+00  0.00000000000E+00  0.18182095937E+04  0.18182095937E+04  0.50400001928E-02 0. -1.
       -1   -1    0    0    0  501  0.00000000000E+00  0.00000000000E+00 -0.14031762528E+04  0.14031762528E+04  0.50400001928E-02 0.  1.
    10030    2    1    2    0    0  0.00000000000E+00  0.00000000000E+00  0.41503334089E+03  0.32213858465E+04  0.31945381666E+04 0.  0.
        1    1    3    3  502    0  0.10296857604E+04  0.20742404337E+03  0.14209546953E+04  0.17670285072E+04  0.50400001928E-02 0. -1.
       -1    1    3    3    0  502 -0.10296857604E+04 -0.20742404337E+03 -0.10059213544E+04  0.14543573393E+04  0.50400001928E-02 0.  1.
</event>
<event>
 5   0  0.9329929E-08  0.3212921E+04  0.7818609E-02  0.8185413E-01
        2   -1    0    0  501    0  0.00000000000E+00  0.00000000000E+00  0.22392860722E+04  0.22392860722E+04  0.25500000920E-02 0. -1.
       -2   -1    0    0    0  501  0.00000000000E+00  0.00000000000E+00 -0.11524723144E+04  0.11524723144E+04  0.25500000920E-02 0.  1.
    10030    2    1    2    0    0  0.00000000000E+00  0.00000000000E+00  0.10868137578E+04  0.33917583866E+04  0.32129209154E+04 0.  0.
        1    1    3    3  502    0  0.79328346871E+03 -0.73048609702E+02  0.20160762885E+04  0.21677634470E+04  0.50400001928E-02 0. -1.
       -1    1    3    3    0  502 -0.79328346871E+03  0.73048609702E+02 -0.92926253069E+03  0.12239949396E+04  0.50400001928E-02 0.  1.
</event>
<event>
 5   0  0.9727083E-08  0.3199443E+04  0.7818609E-02  0.8188964E-01
        2   -1    0    0  501    0  0.00000000000E+00  0.00000000000E+00  0.17257057470E+04  0.17257057470E+04  0.25500000920E-02 0. -1.
       -2   -1    0    0    0  501  0.00000000000E+00  0.00000000000E+00 -0.14829347629E+04  0.14829347629E+04  0.25500000920E-02 0.  1.
    10030    2    1    2    0    0  0.00000000000E+00  0.00000000000E+00  0.24277098405E+03  0.32086405099E+04  0.31994431033E+04 0.  0.
        4    1    3    3  502    0 -0.15697455778E+04 -0.29709363828E+03  0.20372890014E+03  0.16105504918E+04  0.12699999809E+01 0.  1.
       -4    1    3    3    0  502  0.15697455778E+04  0.29709363828E+03  0.39042083913E+02  0.15980900181E+04  0.12699999809E+01 0. -1.
</event>
<event>
 5   0  0.3283581E-08  0.3200344E+04  0.7818609E-02  0.8188726E-01
       -1   -1    0    0    0  501  0.00000000000E+00  0.00000000000E+00  0.12711263250E+04  0.12711263250E+04  0.50400001928E-02 0.  1.
        1   -1    0    0  501    0  0.00000000000E+00  0.00000000000E+00 -0.20143944038E+04  0.20143944038E+04  0.50400001928E-02 0. -1.
    10030    2    1    2    0    0  0.00000000000E+00  0.00000000000E+00 -0.74326807881E+03  0.32855207288E+04  0.32003435788E+04 0.  0.
        5    1    3    3  502    0 -0.14953172160E+04  0.48279889074E+03 -0.61162645977E+02  0.15725238646E+04  0.46999998093E+01 0.  1.
       -5    1    3    3    0  502  0.14953172160E+04 -0.48279889074E+03 -0.68210543284E+03  0.17129968642E+04  0.46999998093E+01 0. -1.
</event>
<event>
 5   0  0.9329929E-08  0.3201699E+04  0.7818609E-02  0.8188369E-01
        2   -1    0    0  501    0  0.00000000000E+00  0.00000000000E+00  0.21876565793E+04  0.21876565793E+04  0.25500000920E-02 0.  1.
       -2   -1    0    0    0  501  0.00000000000E+00  0.00000000000E+00 -0.11714450109E+04  0.11714450109E+04  0.25500000920E-02 0. -1.
    10030    2    1    2    0    0  0.00000000000E+00  0.00000000000E+00  0.10162115684E+04  0.33591015902E+04  0.32016991647E+04 0.  0.
        1    1    3    3  502    0 -0.90601139421E+03  0.12574790300E+04  0.92856886019E+03  0.18067513070E+04  0.50400001928E-02 0.  1.
       -1    1    3    3    0  502  0.90601139421E+03 -0.12574790300E+04  0.87642708259E+02  0.15523502832E+04  0.50400001928E-02 0. -1.
</event>
<event>
 5   0  0.9707721E-08  0.3200799E+04  0.7818609E-02  0.8188606E-01
       -2   -1    0    0    0  501  0.00000000000E+00  0.00000000000E+00  0.17215817082E+04  0.17215817082E+04  0.25500000920E-02 0. -1.
        2   -1    0    0  501    0  0.00000000000E+00  0.00000000000E+00 -0.14877472008E+04  0.14877472008E+04  0.25500000920E-02 0.  1.
    10030    2    1    2    0    0  0.00000000000E+00  0.00000000000E+00  0.23383450738E+03  0.32093289090E+04  0.32007988799E+04 0.  0.
        3    1    3    3  502    0  0.79793608693E+03  0.46998367681E+03  0.14256511350E+04  0.17000199482E+04  0.10100000352E+00 0. -1.
       -3    1    3    3    0  502 -0.79793608693E+03 -0.46998367681E+03 -0.11918166276E+04  0.15093089609E+04  0.10100000352E+00 0.  1.
</event>
<event>
 5   0  0.3343140E-08  0.3200166E+04  0.7818609E-02  0.8188773E-01
        1   -1    0    0  501    0  0.00000000000E+00  0.00000000000E+00  0.13157058695E+04  0.13157058695E+04  0.50400001928E-02 0. -1.
       -1   -1    0    0    0  501  0.00000000000E+00  0.00000000000E+00 -0.19459254671E+04  0.19459254671E+04  0.50400001928E-02 0.  1.
    10030    2    1    2    0    0  0.00000000000E+00  0.00000000000E+00 -0.63021959756E+03  0.32616313366E+04  0.32001659698E+04 0.  0.
        1    1    3    3  502    0  0.94220949283E+03 -0.44988409512E+03  0.92065964176E+03  0.13920375726E+04  0.50400001928E-02 0.  1.
       -1    1    3    3    0  502 -0.94220949283E+03  0.44988409512E+03 -0.15508792393E+04  0.18695937640E+04  0.50400001928E-02 0. -1.
</event>
<event>
 5   0  0.3343140E-08  0.3210675E+04  0.7818609E-02  0.8186004E-01
       -1   -1    0    0    0  501  0.00000000000E+00  0.00000000000E+00  0.12878997684E+04  0.12878997684E+04  0.50400001928E-02 0. -1.
        1   -1    0    0  501    0  0.00000000000E+00  0.00000000000E+00 -0.20010159875E+04  0.20010159875E+04  0.50400001928E-02 0.  1.
    10030    2    1    2    0    0  0.00000000000E+00  0.00000000000E+00 -0.71311621915E+03  0.32889157559E+04  0.32106747122E+04 0.  0.
        1    1    3    3  502    0  0.39100153741E+03 -0.41957823657E+03 -0.18924900609E+04  0.19774849505E+04  0.50400001928E-02 0.  1.
       -1    1    3    3    0  502 -0.39100153741E+03  0.41957823657E+03  0.11793738417E+04  0.13114308054E+04  0.50400001928E-02 0. -1.
</event>
<event>
 5   0  0.3270966E-08  0.3200769E+04  0.7818609E-02  0.8188614E-01
       -1   -1    0    0    0  501  0.00000000000E+00  0.00000000000E+00  0.93043396245E+03  0.93043396246E+03  0.50400001928E-02 0.  1.
        1   -1    0    0  501    0  0.00000000000E+00  0.00000000000E+00 -0.27527261076E+04  0.27527261076E+04  0.50400001928E-02 0. -1.
    10030    2    1    2    0    0  0.00000000000E+00  0.00000000000E+00 -0.18222921451E+04  0.36831600700E+04  0.32007685701E+04 0.  0.
        3    1    3    3  502    0 -0.14054312739E+04 -0.45180118974E+03 -0.16222338598E+04  0.21934001201E+04  0.10100000352E+00 0. -1.
       -3    1    3    3    0  502  0.14054312739E+04  0.45180118974E+03 -0.20005828537E+03  0.14897599500E+04  0.10100000352E+00 0.  1.
</event>
<event>
 5   0  0.3283581E-08  0.3200515E+04  0.7818609E-02  0.8188681E-01
        1   -1    0    0  501    0  0.00000000000E+00  0.00000000000E+00  0.16479250214E+04  0.16479250214E+04  0.50400001928E-02 0. -1.
       -1   -1    0    0    0  501  0.00000000000E+00  0.00000000000E+00 -0.15539683764E+04  0.15539683764E+04  0.50400001928E-02 0.  1.
    10030    2    1    2    0    0  0.00000000000E+00  0.00000000000E+00  0.93956645063E+02  0.32018933978E+04  0.32005145648E+04 0.  0.
        5    1    3    3  502    0  0.26674849686E+03 -0.10955079182E+04 -0.10890763602E+04  0.15676102091E+04  0.46999998093E+01 0.  1.
       -5    1    3    3    0  502 -0.26674849686E+03  0.10955079182E+04  0.11830330052E+04  0.16342831887E+04  0.46999998093E+01 0. -1.
</event>
<event>
 5   0  0.3283581E-08  0.3199371E+04  0.7818609E-02  0.8188983E-01
        1   -1    0    0  501    0  0.00000000000E+00  0.00000000000E+00  0.17184111491E+04  0.17184111491E+04  0.50400001928E-02 0.  1.
       -1   -1    0    0    0  501  0.00000000000E+00  0.00000000000E+00 -0.14891628389E+04  0.14891628389E+04  0.50400001928E-02 0. -1.
    10030    2    1    2    0    0  0.00000000000E+00  0.00000000000E+00  0.22924831019E+03  0.32075739879E+04  0.31993712039E+04 0.  0.
        5    1    3    3  502    0 -0.54456026814E+03 -0.14378700555E+04  0.55729414323E+03  0.16354250317E+04  0.46999998093E+01 0.  1.
       -5    1    3    3    0  502  0.54456026814E+03  0.14378700555E+04 -0.32804583304E+03  0.15721489563E+04  0.46999998093E+01 0. -1.
</event>
<event>
 5   0  0.9727083E-08  0.3199202E+04  0.7818609E-02  0.8189028E-01
        2   -1    0    0  501    0  0.00000000000E+00  0.00000000000E+00  0.19412768472E+04  0.19412768472E+04  0.25500000920E-02 0.  1.
       -2   -1    0    0    0  501  0.00000000000E+00  0.00000000000E+00 -0.13180622666E+04  0.13180622666E+04  0.25500000920E-02 0. -1.
    10030    2    1    2    0    0  0.00000000000E+00  0.00000000000E+00  0.62321458070E+03  0.32593391138E+04  0.31992022514E+04 0.  0.
        4    1    3    3  502    0  0.48070871451E+03 -0.15233112592E+04  0.22537532195E+03  0.16131812388E+04  0.12699999809E+01 0.  1.
       -4    1    3    3    0  502 -0.48070871451E+03  0.15233112592E+04  0.39783925875E+03  0.16461578750E+04  0.12699999809E+01 0. -1.
</event>
<event>
 5   0  0.9329929E-08  0.3201371E+04  0.7818609E-02  0.8188455E-01
       -2   -1    0    0    0  501  0.00000000000E+00  0.00000000000E+00  0.15546532596E+04  0.15546532596E+04  0.25500000920E-02 0.  1.
        2   -1    0    0  501    0  0.00000000000E+00  0.00000000000E+00 -0.16480805516E+04  0.16480805516E+04  0.25500000920E-02 0. -1.
    10030    2    1    2    0    0  0.00000000000E+00  0.00000000000E+00 -0.93427292039E+02  0.32027338112E+04  0.32013708324E+04 0.  0.
        1    1    3    3  502    0 -0.12423356612E+04 -0.86656246238E+03 -0.56449114697E+03  0.16164710487E+04  0.50400001928E-02 0. -1.
       -1    1    3    3    0  502  0.12423356612E+04  0.86656246238E+03  0.47106385493E+03  0.15862627625E+04  0.50400001928E-02 0.  1.
</event>
<event>
 5   0  0.3427667E-08  0.3199555E+04  0.7818609E-02  0.8188935E-01
        1   -1    0    0  501    0  0.00000000000E+00  0.00000000000E+00  0.20188735464E+04  0.20188735464E+04  0.50400001928E-02 0.  1.
       -1   -1    0    0    0  501  0.00000000000E+00  0.00000000000E+00 -0.12676815326E+04  0.12676815326E+04  0.50400001928E-02 0. -1.
    10030    2    1    2    0    0  0.00000000000E+00  0.00000000000E+00  0.75119201381E+03  0.32865550791E+04  0.31995554138E+04 0.  0.
        2    1    3    3  502    0  0.21236820638E+03  0.15603233867E+04  0.85827242694E+02  0.15770464933E+04  0.25500000920E-02 0. -1.
       -2    1    3    3    0  502 -0.21236820638E+03 -0.15603233867E+04  0.66536477112E+03  0.17095085858E+04  0.25500000920E-02 0.  1.
</event>
<event>
 5   0  0.9157524E-08  0.3199552E+04  0.7818609E-02  0.8188935E-01
        2   -1    0    0  501    0  0.00000000000E+00  0.00000000000E+00  0.14842978834E+04  0.14842978834E+04  0.25500000920E-02 0. -1.
       -2   -1    0    0    0  501  0.00000000000E+00  0.00000000000E+00 -0.17242384263E+04  0.17242384263E+04  0.25500000920E-02 0.  1.
    10030    2    1    2    0    0  0.00000000000E+00  0.00000000000E+00 -0.23994054291E+03  0.32085363097E+04  0.31995521228E+04 0.  0.
        5    1    3    3  502    0 -0.17966949505E+03  0.14313416035E+04  0.57352159691E+03  0.15524074934E+04  0.46999998093E+01 0. -1.
       -5    1    3    3    0  502  0.17966949505E+03 -0.14313416035E+04 -0.81346213982E+03  0.16561288163E+04  0.46999998093E+01 0.  1.
</event>
<event>
 5   0  0.3427667E-08  0.3199630E+04  0.7818609E-02  0.8188915E-01
        1   -1    0    0  501    0  0.00000000000E+00  0.00000000000E+00  0.15439134793E+04  0.15439134793E+04  0.50400001928E-02 0. -1.
       -1   -1    0    0    0  501  0.00000000000E+00  0.00000000000E+00 -0.16577406609E+04  0.16577406609E+04  0.50400001928E-02 0.  1.
    10030    2    1    2    0    0  0.00000000000E+00  0.00000000000E+00 -0.11382718164E+03  0.32016541402E+04  0.31996300734E+04 0.  0.
        2    1    3    3  502    0  0.21662739959E+03  0.97293064026E+03 -0.13090591328E+04  0.16453441203E+04  0.25500000920E-02 0.  1.
       -2    1    3    3    0  502 -0.21662739959E+03 -0.97293064026E+03  0.11952319512E+04  0.15563100199E+04  0.25500000920E-02 0. -1.
</event>
<event>
 5   0  0.9353994E-08  0.3200517E+04  0.7818609E-02  0.8188681E-01
       -2   -1    0    0    0  501  0.00000000000E+00  0.00000000000E+00  0.98598224091E+03  0.98598224091E+03  0.25500000920E-02 0. -1.
        2   -1    0    0  501    0  0.00000000000E+00  0.00000000000E+00 -0.25972348523E+04  0.25972348523E+04  0.25500000920E-02 0.  1.
    10030    2    1    2    0    0  0.00000000000E+00  0.00000000000E+00 -0.16112526114E+04  0.35832170932E+04  0.32005171081E+04 0.  0.
        2    1    3    3  502    0 -0.12778698063E+03  0.74944919521E+03  0.77087753508E+03  0.10827076164E+04  0.25500000920E-02 0. -1.
       -2    1    3    3    0  502  0.12778698063E+03 -0.74944919521E+03 -0.23821301465E+04  0.25005094768E+04  0.25500000920E-02 0.  1.
</event>
<event>
 5   0  0.9707721E-08  0.3198424E+04  0.7818609E-02  0.8189233E-01
       -2   -1    0    0    0  501  0.00000000000E+00  0.00000000000E+00  0.15249359409E+04  0.15249359409E+04  0.25500000920E-02 0. -1.
        2   -1    0    0  501    0  0.00000000000E+00  0.00000000000E+00 -0.16771061389E+04  0.16771061389E+04  0.25500000920E-02 0.  1.
    10030    2    1    2    0    0  0.00000000000E+00  0.00000000000E+00 -0.15217019799E+03  0.32020420797E+04  0.31984242544E+04 0.  0.
        3    1    3    3  502    0  0.32400083453E+03  0.14506411185E+04 -0.66678913341E+03  0.16290929851E+04  0.10100000352E+00 0.  1.
       -3    1    3    3    0  502 -0.32400083453E+03 -0.14506411185E+04  0.51461893541E+03  0.15729490946E+04  0.10100000352E+00 0. -1.
</event>
<event>
 5   0  0.9329929E-08  0.3200774E+04  0.7818609E-02  0.8188613E-01
       -2   -1    0    0    0  501  0.00000000000E+00  0.00000000000E+00  0.20031872415E+04  0.20031872415E+04  0.25500000920E-02 0.  1.
        2   -1    0    0  501    0  0.00000000000E+00  0.00000000000E+00 -0.12785813402E+04  0.12785813402E+04  0.25500000920E-02 0. -1.
    10030    2    1    2    0    0  0.00000000000E+00  0.00000000000E+00  0.72460590132E+03  0.32817685817E+04  0.32007735490E+04 0.  0.
        1    1    3    3  502    0 -0.58519700617E+02 -0.84053092267E+03  0.17573661163E+04  0.19489105814E+04  0.50400001928E-02 0.  1.
       -1    1    3    3    0  502  0.58519700617E+02  0.84053092267E+03 -0.10327602150E+04  0.13328580003E+04  0.50400001928E-02 0. -1.
</event>
<event>
 5   0  0.9727083E-08  0.3199627E+04  0.7818609E-02  0.8188916E-01
        2   -1    0    0  501    0  0.00000000000E+00  0.00000000000E+00  0.18742213106E+04  0.18742213106E+04  0.25500000920E-02 0.  1.
       -2   -1    0    0    0  501  0.00000000000E+00  0.00000000000E+00 -0.13655824135E+04  0.13655824135E+04  0.25500000920E-02 0. -1.
    10030    2    1    2    0    0  0.00000000000E+00  0.00000000000E+00  0.50863889710E+03  0.32398037241E+04  0.31996272663E+04 0.  0.
        4    1    3    3  502    0 -0.78902599387E+03 -0.87450456191E+03 -0.84190194253E+03  0.14477985846E+04  0.12699999809E+01 0. -1.
       -4    1    3    3    0  502  0.78902599387E+03  0.87450456191E+03  0.13505408396E+04  0.17920051396E+04  0.12699999809E+01 0.  1.
</event>
<event>
 5   0  0.3283581E-08  0.3199950E+04  0.7818609E-02  0.8188831E-01
        1   -1    0    0  501    0  0.00000000000E+00  0.00000000000E+00  0.88957482912E+03  0.88957482913E+03  0.50400001928E-02 0. -1.
       -1   -1    0    0    0  501  0.00000000000E+00  0.00000000000E+00 -0.28776884457E+04  0.28776884457E+04  0.50400001928E-02 0.  1.
    10030    2    1    2    0    0  0.00000000000E+00  0.00000000000E+00 -0.19881136166E+04  0.37672632748E+04  0.31999495042E+04 0.  0.
        5    1    3    3  502    0  0.28426500840E+03  0.10303825685E+04 -0.23956739848E+04  0.26233129367E+04  0.46999998093E+01 0.  1.
       -5    1    3    3    0  502 -0.28426500840E+03 -0.10303825685E+04  0.40756036822E+03  0.11439503381E+04  0.46999998093E+01 0. -1.
</event>
<event>
 5   0  0.3220147E-08  0.3199855E+04  0.7818609E-02  0.8188855E-01
        1   -1    0    0  501    0  0.00000000000E+00  0.00000000000E+00  0.22337773057E+04  0.22337773057E+04  0.50400001928E-02 0. -1.
       -1   -1    0    0    0  501  0.00000000000E+00  0.00000000000E+00 -0.11459369682E+04  0.11459369682E+04  0.50400001928E-02 0.  1.
    10030    2    1    2    0    0  0.00000000000E+00  0.00000000000E+00  0.10878403375E+04  0.33797142739E+04  0.31998549926E+04 0.  0.
        4    1    3    3  502    0 -0.57597605794E+03 -0.23070051584E+03 -0.10136903603E+04  0.11885036419E+04  0.12699999809E+01 0.  1.
       -4    1    3    3    0  502  0.57597605794E+03  0.23070051584E+03  0.21015306978E+04  0.21912106320E+04  0.12699999809E+01 0. -1.
</event>
<event>
 5   0  0.3080500E-08  0.3201250E+04  0.7818609E-02  0.8188487E-01
       -3   -1    0    0    0  501  0.00000000000E+00  0.00000000000E+00  0.17581002840E+04  0.17581002869E+04  0.10100000352E+00 0. -1.
        3   -1    0    0  501    0  0.00000000000E+00  0.00000000000E+00 -0.14572546818E+04  0.14572546853E+04  0.10100000352E+00 0.  1.
    10030    2    1    2    0    0  0.00000000000E+00  0.00000000000E+00  0.30084560219E+03  0.32153549722E+04  0.32012496811E+04 0.  0.
        2    1    3    3  502    0 -0.10103649483E+04  0.23120025523E+03 -0.10746682616E+04  0.14930514925E+04  0.25500000920E-02 0.  1.
       -2    1    3    3    0  502  0.10103649483E+04 -0.23120025523E+03  0.13755138638E+04  0.17223034797E+04  0.25500000920E-02 0. -1.
</event>
<event>
 5   0  0.9707721E-08  0.3196968E+04  0.7818609E-02  0.8189618E-01
        2   -1    0    0  501    0  0.00000000000E+00  0.00000000000E+00  0.10199287483E+04  0.10199287483E+04  0.25500000920E-02 0.  1.
       -2   -1    0    0    0  501  0.00000000000E+00  0.00000000000E+00 -0.25052251972E+04  0.25052251972E+04  0.25500000920E-02 0. -1.
    10030    2    1    2    0    0  0.00000000000E+00  0.00000000000E+00 -0.14852964489E+04  0.35251539455E+04  0.31969680634E+04 0.  0.
        3    1    3    3  502    0  0.13186133172E+04  0.28630869748E+03 -0.16876164236E+04  0.21607320412E+04  0.10100000352E+00 0. -1.
       -3    1    3    3    0  502 -0.13186133172E+04 -0.28630869748E+03  0.20231997473E+03  0.13644219043E+04  0.10100000352E+00 0.  1.
</event>
<event>
 5   0  0.9353994E-08  0.3196443E+04  0.7818609E-02  0.8189757E-01
        2   -1    0    0  501    0  0.00000000000E+00  0.00000000000E+00  0.13932067551E+04  0.13932067551E+04  0.25500000920E-02 0. -1.
       -2   -1    0    0    0  501  0.00000000000E+00  0.00000000000E+00 -0.18334049105E+04  0.18334049105E+04  0.25500000920E-02 0.  1.
    10030    2    1    2    0    0  0.00000000000E+00  0.00000000000E+00 -0.44019815544E+03  0.32266116657E+04  0.31964430896E+04 0.  0.
        2    1    3    3  502    0  0.14088175380E+04  0.21895589666E+03 -0.94913679784E+03  0.17127665343E+04  0.25500000920E-02 0.  1.
       -2    1    3    3    0  502 -0.14088175380E+04 -0.21895589666E+03  0.50893864240E+03  0.15138451314E+04  0.25500000920E-02 0. -1.
</event>
<event>
 5   0  0.9157524E-08  0.3200377E+04  0.7818609E-02  0.8188718E-01
       -2   -1    0    0    0  501  0.00000000000E+00  0.00000000000E+00  0.20142153728E+04  0.20142153728E+04  0.25500000920E-02 0.  1.
        2   -1    0    0  501    0  0.00000000000E+00  0.00000000000E+00 -0.12712659681E+04  0.12712659681E+04  0.25500000920E-02 0. -1.
    10030    2    1    2    0    0  0.00000000000E+00  0.00000000000E+00  0.74294940469E+03  0.32854813409E+04  0.32003771377E+04 0.  0.
        5    1    3    3  502    0 -0.40786248554E+03 -0.71190579434E+03 -0.10388921344E+04  0.13238129113E+04  0.46999998093E+01 0. -1.
       -5    1    3    3    0  502  0.40786248554E+03  0.71190579434E+03  0.17818415391E+04  0.19616684296E+04  0.46999998093E+01 0.  1.
</event>
<event>
 5   0  0.3220147E-08  0.3203593E+04  0.7818609E-02  0.8187869E-01
       -1   -1    0    0    0  501  0.00000000000E+00  0.00000000000E+00  0.11258568208E+04  0.11258568208E+04  0.50400001928E-02 0.  1.
        1   -1    0    0  501    0  0.00000000000E+00  0.00000000000E+00 -0.22789328377E+04  0.22789328377E+04  0.50400001928E-02 0. -1.
    10030    2    1    2    0    0  0.00000000000E+00  0.00000000000E+00 -0.11530760169E+04  0.34047896585E+04  0.32035930325E+04 0.  0.
        4    1    3    3  502    0 -0.50216633053E+03 -0.10655741984E+03  0.10360626237E+04  0.11562667860E+04  0.12699999809E+01 0.  1.
       -4    1    3    3    0  502  0.50216633053E+03  0.10655741984E+03 -0.21891386406E+04  0.22485228724E+04  0.12699999809E+01 0. -1.
</event>
<event>
 5   0  0.3343140E-08  0.3199648E+04  0.7818609E-02  0.8188910E-01
       -1   -1    0    0    0  501  0.00000000000E+00  0.00000000000E+00  0.13120363495E+04  0.13120363495E+04  0.50400001928E-02 0.  1.
        1   -1    0    0  501    0  0.00000000000E+00  0.00000000000E+00 -0.19507363667E+04  0.19507363667E+04  0.50400001928E-02 0. -1.
    10030    2    1    2    0    0  0.00000000000E+00  0.00000000000E+00 -0.63870001721E+03  0.32627727162E+04  0.31996481190E+04 0.  0.
        1    1    3    3  502    0  0.57373871933E+03 -0.14070192500E+04 -0.82978273135E+03  0.17313054812E+04  0.50400001928E-02 0. -1.
       -1    1    3    3    0  502 -0.57373871933E+03  0.14070192500E+04  0.19108271414E+03  0.15314672349E+04  0.50400001928E-02 0.  1.
</event>
<event>
 5   0  0.9353994E-08  0.3199647E+04  0.7818609E-02  0.8188911E-01
        2   -1    0    0  501    0  0.00000000000E+00  0.00000000000E+00  0.18636081340E+04  0.18636081340E+04  0.25500000920E-02 0.  1.
       -2   -1    0    0    0  501  0.00000000000E+00  0.00000000000E+00 -0.13733759095E+04  0.13733759095E+04  0.25500000920E-02 0. -1.
    10030    2    1    2    0    0  0.00000000000E+00  0.00000000000E+00  0.49023222447E+03  0.32369840435E+04  0.31996465530E+04 0.  0.
        2    1    3    3  502    0  0.12056850536E+03 -0.14743314272E+04  0.86152461522E+03  0.17118453740E+04  0.25500000920E-02 0.  1.
       -2    1    3    3    0  502 -0.12056850536E+03  0.14743314272E+04 -0.37129239075E+03  0.15251386695E+04  0.25500000920E-02 0. -1.
</event>
<event>
 5   0  0.3220147E-08  0.3199469E+04  0.7818609E-02  0.8188958E-01
       -1   -1    0    0    0  501  0.00000000000E+00  0.00000000000E+00  0.10954434126E+04  0.10954434126E+04  0.50400001928E-02 0.  1.
        1   -1    0    0  501    0  0.00000000000E+00  0.00000000000E+00 -0.23361771165E+04  0.23361771165E+04  0.50400001928E-02 0. -1.
    10030    2    1    2    0    0  0.00000000000E+00  0.00000000000E+00 -0.12407337039E+04  0.34316205290E+04  0.31994686014E+04 0.  0.
        4    1    3    3  502    0  0.11123775992E+04  0.21281587345E+03  0.59142308166E+03  0.12776765607E+04  0.12699999809E+01 0.  1.
       -4    1    3    3    0  502 -0.11123775992E+04 -0.21281587345E+03 -0.18321567855E+04  0.21539439684E+04  0.12699999809E+01 0. -1.
</event>
<event>
 5   0  0.9727083E-08  0.3200142E+04  0.7818609E-02  0.8188780E-01
        2   -1    0    0  501    0  0.00000000000E+00  0.00000000000E+00  0.17417608470E+04  0.17417608470E+04  0.25500000920E-02 0. -1.
       -2   -1    0    0    0  501  0.00000000000E+00  0.00000000000E+00 -0.14699070691E+04  0.14699070691E+04  0.25500000920E-02 0.  1.
    10030    2    1    2    0    0  0.00000000000E+00  0.00000000000E+00  0.27185377785E+03  0.32116679161E+04  0.32001416104E+04 0.  0.
        4    1    3    3  502    0  0.50680284887E+02  0.81707740652E+03 -0.12438124525E+04  0.14890449991E+04  0.12699999809E+01 0.  1.
       -4    1    3    3    0  502 -0.50680284887E+02 -0.81707740652E+03  0.15156662303E+04  0.17226229170E+04  0.12699999809E+01 0. -1.
</event>
<event>
 5   0  0.3283581E-08  0.3200352E+04  0.7818609E-02  0.8188724E-01
       -1   -1    0    0    0  501  0.00000000000E+00  0.00000000000E+00  0.18681627798E+04  0.18681627798E+04  0.50400001928E-02 0. -1.
        1   -1    0    0  501    0  0.00000000000E+00  0.00000000000E+00 -0.13706316278E+04  0.13706316278E+04  0.50400001928E-02 0.  1.
    10030    2    1    2    0    0  0.00000000000E+00  0.00000000000E+00  0.49753115202E+03  0.32387944075E+04  0.32003518505E+04 0.  0.
        5    1    3    3  502    0 -0.13969587318E+04 -0.41304863411E+03  0.91886579735E+03  0.17223354250E+04  0.46999998093E+01 0. -1.
       -5    1    3    3    0  502  0.13969587318E+04  0.41304863411E+03 -0.42133464533E+03  0.15164589826E+04  0.46999998093E+01 0.  1.
</event>
<event>
 5   0  0.9157524E-08  0.3197493E+04  0.7818609E-02  0.8189480E-01
        2   -1    0    0  501    0  0.00000000000E+00  0.00000000000E+00  0.19399097803E+04  0.19399097803E+04  0.25500000920E-02 0.  1.
       -2   -1    0    0    0  501  0.00000000000E+00  0.00000000000E+00 -0.13175818330E+04  0.13175818330E+04  0.25500000920E-02 0. -1.
    10030    2    1    2    0    0  0.00000000000E+00  0.00000000000E+00  0.62232794731E+03  0.32574916132E+04  0.31974926953E+04 0.  0.
        5    1    3    3  502    0  0.14675093450E+04 -0.61662498795E+03  0.46281190243E+03  0.16577174067E+04  0.46999998093E+01 0.  1.
       -5    1    3    3    0  502 -0.14675093450E+04  0.61662498795E+03  0.15951604488E+03  0.15997742066E+04  0.46999998093E+01 0. -1.
</event>
<event>
 5   0  0.9329929E-08  0.3198471E+04  0.7818609E-02  0.8189221E-01
       -2   -1    0    0    0  501  0.00000000000E+00  0.00000000000E+00  0.12549307316E+04  0.12549307316E+04  0.25500000920E-02 0. -1.
        2   -1    0    0  501    0  0.00000000000E+00  0.00000000000E+00 -0.20380046618E+04  0.20380046618E+04  0.25500000920E-02 0.  1.
    10030    2    1    2    0    0  0.00000000000E+00  0.00000000000E+00 -0.78307393026E+03  0.32929353934E+04  0.31984713106E+04 0.  0.
        1    1    3    3  502    0 -0.12204813262E+04  0.81061801397E+03 -0.10514662969E+04  0.18034016762E+04  0.50400001928E-02 0.  1.
       -1    1    3    3    0  502  0.12204813262E+04 -0.81061801397E+03  0.26839236667E+03  0.14895337172E+04  0.50400001928E-02 0. -1.
</event>
<event>
 5   0  0.3270966E-08  0.3200197E+04  0.7818609E-02  0.8188765E-01
        1   -1    0    0  501    0  0.00000000000E+00  0.00000000000E+00  0.28502084026E+04  0.28502084026E+04  0.50400001928E-02 0.  1.
       -1   -1    0    0    0  501  0.00000000000E+00  0.00000000000E+00 -0.89829056942E+03  0.89829056944E+03  0.50400001928E-02 0. -1.
    10030    2    1    2    0    0  0.00000000000E+00  0.00000000000E+00  0.19519178332E+04  0.37484989720E+04  0.32001970745E+04 0.  0.
        3    1    3    3  502    0  0.81819056134E+03  0.94143244835E+03 -0.19805677630E+03  0.12629162072E+04  0.10100000352E+00 0. -1.
       -3    1    3    3    0  502 -0.81819056134E+03 -0.94143244835E+03  0.21499746095E+04  0.24855827649E+04  0.10100000352E+00 0.  1.
</event>
<event>
 5   0  0.3220147E-08  0.3206800E+04  0.7818609E-02  0.8187024E-01
       -1   -1    0    0    0  501  0.00000000000E+00  0.00000000000E+00  0.81138453161E+03  0.81138453163E+03  0.50400001928E-02 0. -1.
        1   -1    0    0  501    0  0.00000000000E+00  0.00000000000E+00 -0.31685234759E+04  0.31685234759E+04  0.50400001928E-02 0.  1.
    10030    2    1    2    0    0  0.00000000000E+00  0.00000000000E+00 -0.23571389443E+04  0.39799080076E+04  0.32067996111E+04 0.  0.
        4    1    3    3  502    0  0.15250779991E+04  0.49274436320E+03 -0.11199696310E+04  0.19552476821E+04  0.12699999809E+01 0.  1.
       -4    1    3    3    0  502 -0.15250779991E+04 -0.49274436320E+03 -0.12371693133E+04  0.20246603255E+04  0.12699999809E+01 0. -1.
</event>
<event>
 5   0  0.3220147E-08  0.3197660E+04  0.7818609E-02  0.8189436E-01
        1   -1    0    0  501    0  0.00000000000E+00  0.00000000000E+00  0.21973509539E+04  0.21973509539E+04  0.50400001928E-02 0. -1.
       -1   -1    0    0    0  501  0.00000000000E+00  0.00000000000E+00 -0.11633355966E+04  0.11633355966E+04  0.50400001928E-02 0.  1.
    10030    2    1    2    0    0  0.00000000000E+00  0.00000000000E+00  0.10340153573E+04  0.33606865506E+04  0.31976595085E+04 0.  0.
        4    1    3    3  502    0 -0.61748149393E+03  0.26390601261E+03 -0.10079415476E+04  0.12111472062E+04  0.12699999809E+01 0.  1.
       -4    1    3    3    0  502  0.61748149393E+03 -0.26390601261E+03  0.20419569048E+04  0.21495393444E+04  0.12699999809E+01 0. -1.
</event>
<event>
 5   0  0.3220147E-08  0.3200338E+04  0.7818609E-02  0.8188728E-01
       -1   -1    0    0    0  501  0.00000000000E+00  0.00000000000E+00  0.19909604547E+04  0.19909604547E+04  0.50400001928E-02 0. -1.
        1   -1    0    0  501    0  0.00000000000E+00  0.00000000000E+00 -0.12860829374E+04  0.12860829374E+04  0.50400001928E-02 0.  1.
    10030    2    1    2    0    0  0.00000000000E+00  0.00000000000E+00  0.70487751726E+03  0.32770433921E+04  0.32003376508E+04 0.  0.
        4    1    3    3  502    0 -0.10396134101E+04  0.12039635805E+04  0.53042758568E+03  0.16768063043E+04  0.12699999809E+01 0.  1.
       -4    1    3    3    0  502  0.10396134101E+04 -0.12039635805E+04  0.17444993158E+03  0.16002370878E+04  0.12699999809E+01 0. -1.
</event>
<event>
 5   0  0.3270966E-08  0.3199925E+04  0.7818609E-02  0.8188837E-01
        1   -1    0    0  501    0  0.00000000000E+00  0.00000000000E+00  0.25943371689E+04  0.25943371689E+04  0.50400001928E-02 0. -1.
       -1   -1    0    0    0  501  0.00000000000E+00  0.00000000000E+00 -0.98671856578E+03  0.98671856580E+03  0.50400001928E-02 0.  1.
    10030    2    1    2    0    0  0.00000000000E+00  0.00000000000E+00  0.16076186031E+04  0.35810557347E+04  0.31999254057E+04 0.  0.
        3    1    3    3  502    0  0.19272755258E+03 -0.12611738749E+04  0.18842985787E+04  0.22755844515E+04  0.10100000352E+00 0.  1.
       -3    1    3    3    0  502 -0.19272755258E+03  0.12611738749E+04 -0.27667997553E+03  0.13054712832E+04  0.10100000352E+00 0. -1.
</event>
<event>
 5   0  0.9157524E-08  0.3199999E+04  0.7818609E-02  0.8188817E-01
       -2   -1    0    0    0  501  0.00000000000E+00  0.00000000000E+00  0.98751190774E+03  0.98751190774E+03  0.25500000920E-02 0. -1.
        2   -1    0    0  501    0  0.00000000000E+00  0.00000000000E+00 -0.25923718141E+04  0.25923718141E+04  0.25500000920E-02 0.  1.
    10030    2    1    2    0    0  0.00000000000E+00  0.00000000000E+00 -0.16048599064E+04  0.35798837219E+04  0.31999987723E+04 0.  0.
        5    1    3    3  502    0  0.12503240872E+04  0.47914790443E+03 -0.17822363308E+04  0.22291885219E+04  0.46999998093E+01 0.  1.
       -5    1    3    3    0  502 -0.12503240872E+04 -0.47914790443E+03  0.17737642446E+03  0.13506952000E+04  0.46999998093E+01 0. -1.
</event>
<event>
 5   0  0.9353994E-08  0.3199893E+04  0.7818609E-02  0.8188845E-01
        2   -1    0    0  501    0  0.00000000000E+00  0.00000000000E+00  0.14174027744E+04  0.14174027744E+04  0.25500000920E-02 0. -1.
       -2   -1    0    0    0  501  0.00000000000E+00  0.00000000000E+00 -0.18059995210E+04  0.18059995210E+04  0.25500000920E-02 0.  1.
    10030    2    1    2    0    0  0.00000000000E+00  0.00000000000E+00 -0.38859674656E+03  0.32234022954E+04  0.31998929555E+04 0.  0.
        2    1    3    3  502    0 -0.12268329041E+04 -0.68733200863E+03  0.57438354103E+03  0.15190328229E+04  0.25500000920E-02 0. -1.
       -2    1    3    3    0  502  0.12268329041E+04  0.68733200863E+03 -0.96298028758E+03  0.17043694726E+04  0.25500000920E-02 0.  1.
</event>
<event>
 5   0  0.3427667E-08  0.3201580E+04  0.7818609E-02  0.8188400E-01
        1   -1    0    0  501    0  0.00000000000E+00  0.00000000000E+00  0.20624120505E+04  0.20624120505E+04  0.50400001928E-02 0.  1.
       -1   -1    0    0    0  501  0.00000000000E+00  0.00000000000E+00 -0.12424910909E+04  0.12424910910E+04  0.50400001928E-02 0. -1.
    10030    2    1    2    0    0  0.00000000000E+00  0.00000000000E+00  0.81992095957E+03  0.33049031415E+04  0.32015799841E+04 0.  0.
        2    1    3    3  502    0  0.13395166173E+04  0.87587273519E+03  0.44373934150E+03  0.16608318456E+04  0.25500000920E-02 0.  1.
       -2    1    3    3    0  502 -0.13395166173E+04 -0.87587273519E+03  0.37618161807E+03  0.16440712959E+04  0.25500000920E-02 0. -1.
</event>
<event>
 5   0  0.3343140E-08  0.3197936E+04  0.7818609E-02  0.8189362E-01
       -1   -1    0    0    0  501  0.00000000000E+00  0.00000000000E+00  0.21647332579E+04  0.21647332579E+04  0.50400001928E-02 0.  1.
        1   -1    0    0  501    0  0.00000000000E+00  0.00000000000E+00 -0.11810686483E+04  0.11810686483E+04  0.50400001928E-02 0. -1.
    10030    2    1    2    0    0  0.00000000000E+00  0.00000000000E+00  0.98366460966E+03  0.33458019062E+04  0.31979359486E+04 0.  0.
        1    1    3    3  502    0  0.77556705069E+03  0.16721114288E+03 -0.96060626774E+03  0.12458845123E+04  0.50400001928E-02 0. -1.
       -1    1    3    3    0  502 -0.77556705069E+03 -0.16721114288E+03  0.19442708774E+04  0.20999173939E+04  0.50400001928E-02 0.  1.
</event>
<event>
 5   0  0.3270966E-08  0.3201285E+04  0.7818609E-02  0.8188478E-01
        1   -1    0    0  501    0  0.00000000000E+00  0.00000000000E+00  0.23528042666E+04  0.23528042666E+04  0.50400001928E-02 0. -1.
       -1   -1    0    0    0  501  0.00000000000E+00  0.00000000000E+00 -0.10889374895E+04  0.10889374895E+04  0.50400001928E-02 0.  1.
    10030    2    1    2    0    0  0.00000000000E+00  0.00000000000E+00  0.12638667771E+04  0.34417417561E+04  0.32012852240E+04 0.  0.
        3    1    3    3  502    0 -0.31908694772E+03 -0.12009284421E+04  0.17166846898E+04  0.21192102156E+04  0.10100000352E+00 0.  1.
       -3    1    3    3    0  502  0.31908694772E+03  0.12009284421E+04 -0.45281791274E+03  0.13225315405E+04  0.10100000352E+00 0. -1.
</event>
<event>
 5   0  0.3343140E-08  0.3200708E+04  0.7818609E-02  0.8188630E-01
       -1   -1    0    0    0  501  0.00000000000E+00  0.00000000000E+00  0.10204675768E+04  0.10204675768E+04  0.50400001928E-02 0. -1.
        1   -1    0    0  501    0  0.00000000000E+00  0.00000000000E+00 -0.25097634954E+04  0.25097634954E+04  0.50400001928E-02 0.  1.
    10030    2    1    2    0    0  0.00000000000E+00  0.00000000000E+00 -0.14892959185E+04  0.35302310722E+04  0.32007075921E+04 0.  0.
        1    1    3    3  502    0  0.71677751717E+03  0.11523514012E+04  0.19088047608E+03  0.13704448610E+04  0.50400001928E-02 0. -1.
       -1    1    3    3    0  502 -0.71677751717E+03 -0.11523514012E+04 -0.16801763946E+04  0.21597862112E+04  0.50400001928E-02 0.  1.
</event>
<event>
 5   0  0.3220147E-08  0.3202751E+04  0.7818609E-02  0.8188091E-01
        1   -1    0    0  501    0  0.00000000000E+00  0.00000000000E+00  0.13724462747E+04  0.13724462747E+04  0.50400001928E-02 0.  1.
       -1   -1    0    0    0  501  0.00000000000E+00  0.00000000000E+00 -0.18684913596E+04  0.18684913597E+04  0.50400001928E-02 0. -1.
    10030    2    1    2    0    0  0.00000000000E+00  0.00000000000E+00 -0.49604508491E+03  0.32409376344E+04  0.32027513209E+04 0.  0.
        4    1    3    3  502    0  0.41621377121E+03  0.31853271941E+03  0.12831962793E+04  0.13861065258E+04  0.12699999809E+01 0.  1.
       -4    1    3    3    0  502 -0.41621377121E+03 -0.31853271941E+03 -0.17792413642E+04  0.18548311087E+04  0.12699999809E+01 0. -1.
</event>
<event>
 5   0  0.3220147E-08  0.3201816E+04  0.7818609E-02  0.8188338E-01
       -1   -1    0    0    0  501  0.00000000000E+00  0.00000000000E+00  0.16436518708E+04  0.16436518708E+04  0.50400001928E-02 0.  1.
        1   -1    0    0  501    0  0.00000000000E+00  0.00000000000E+00 -0.15592753527E+04  0.15592753527E+04  0.50400001928E-02 0. -1.
    10030    2    1    2    0    0  0.00000000000E+00  0.00000000000E+00  0.84376518129E+02  0.32029272235E+04  0.32018156415E+04 0.  0.
        4    1    3    3  502    0  0.10793299541E+04 -0.80360943349E+03 -0.82538612809E+03  0.15786086104E+04  0.12699999809E+01 0. -1.
       -4    1    3    3    0  502 -0.10793299541E+04  0.80360943349E+03  0.90976264621E+03  0.16243186131E+04  0.12699999809E+01 0.  1.
</event>
<event>
 5   0  0.3270966E-08  0.3182647E+04  0.7818609E-02  0.8193415E-01
       -1   -1    0    0    0  501  0.00000000000E+00  0.00000000000E+00  0.92522355217E+03  0.92522355218E+03  0.50400001928E-02 0. -1.
        1   -1    0    0  501    0  0.00000000000E+00  0.00000000000E+00 -0.27369709521E+04  0.27369709521E+04  0.50400001928E-02 0.  1.
    10030    2    1    2    0    0  0.00000000000E+00  0.00000000000E+00 -0.18117474000E+04  0.36621945043E+04  0.31826466889E+04 0.  0.
        3    1    3    3  502    0  0.38409062374E+03  0.14192635689E+04 -0.16062518699E+04  0.21775857652E+04  0.10100000352E+00 0.  1.
       -3    1    3    3    0  502 -0.38409062374E+03 -0.14192635689E+04 -0.20549553010E+03  0.14846087391E+04  0.10100000352E+00 0. -1.
</event>
<event>
 5   0  0.9353994E-08  0.3198809E+04  0.7818609E-02  0.8189132E-01
       -2   -1    0    0    0  501  0.00000000000E+00  0.00000000000E+00  0.13500338730E+04  0.13500338730E+04  0.25500000920E-02 0. -1.
        2   -1    0    0  501    0  0.00000000000E+00  0.00000000000E+00 -0.18948372741E+04  0.18948372741E+04  0.25500000920E-02 0.  1.
    10030    2    1    2    0    0  0.00000000000E+00  0.00000000000E+00 -0.54480340105E+03  0.32448711471E+04  0.31988088432E+04 0.  0.
        2    1    3    3  502    0 -0.58367724241E+03 -0.14659951932E+04 -0.53745619260E+03  0.16669373680E+04  0.25500000920E-02 0.  1.
       -2    1    3    3    0  502  0.58367724241E+03  0.14659951932E+04 -0.73472084512E+01  0.15779337791E+04  0.25500000920E-02 0. -1.
</event>
<event>
 5   0  0.3283581E-08  0.3200394E+04  0.7818609E-02  0.8188713E-01
        1   -1    0    0  501    0  0.00000000000E+00  0.00000000000E+00  0.26251315959E+04  0.26251315959E+04  0.50400001928E-02 0.  1.
       -1   -1    0    0    0  501  0.00000000000E+00  0.00000000000E+00 -0.97542924166E+03  0.97542924168E+03  0.50400001928E-02 0. -1.
    10030    2    1    2    0    0  0.00000000000E+00  0.00000000000E+00  0.16497023543E+04  0.36005608376E+04  0.32003938020E+04 0.  0.
        5    1    3    3  502    0  0.42406514164E+03  0.10444703932E+04  0.21025772250E+04  0.23857080131E+04  0.46999998093E+01 0.  1.
       -5    1    3    3    0  502 -0.42406514164E+03 -0.10444703932E+04 -0.45287487073E+03  0.12148528245E+04  0.46999998093E+01 0. -1.
</event>
<event>
 5   0  0.9329929E-08  0.3200170E+04  0.7818609E-02  0.8188772E-01
        2   -1    0    0  501    0  0.00000000000E+00  0.00000000000E+00  0.16471630630E+04  0.16471630630E+04  0.25500000920E-02 0.  1.
       -2   -1    0    0    0  501  0.00000000000E+00  0.00000000000E+00 -0.15543527234E+04  0.15543527234E+04  0.25500000920E-02 0. -1.
    10030    2    1    2    0    0  0.00000000000E+00  0.00000000000E+00  0.92810339631E+02  0.32015157864E+04  0.32001702410E+04 0.  0.
        1    1    3    3  502    0 -0.14098212062E+04  0.72467405369E+03  0.26449700311E+03  0.16070802662E+04  0.50400001928E-02 0.  1.
       -1    1    3    3    0  502  0.14098212062E+04 -0.72467405369E+03 -0.17168666348E+03  0.15944355201E+04  0.50400001928E-02 0. -1.
</event>
<event>
 5   0  0.3270966E-08  0.3199894E+04  0.7818609E-02  0.8188845E-01
       -1   -1    0    0    0  501  0.00000000000E+00  0.00000000000E+00  0.20045916901E+04  0.20045916902E+04  0.50400001928E-02 0.  1.
        1   -1    0    0  501    0  0.00000000000E+00  0.00000000000E+00 -0.12769837940E+04  0.12769837940E+04  0.50400001928E-02 0. -1.
    10030    2    1    2    0    0  0.00000000000E+00  0.00000000000E+00  0.72760789613E+03  0.32815754842E+04  0.31998944370E+04 0.  0.
        3    1    3    3  502    0  0.27555360124E+03 -0.15687859927E+04  0.20891277956E+03  0.16064444708E+04  0.10100000352E+00 0.  1.
       -3    1    3    3    0  502 -0.27555360124E+03  0.15687859927E+04  0.51869511657E+03  0.16751310134E+04  0.10100000352E+00 0. -1.
</event>
<event>
 5   0  0.9329929E-08  0.3199969E+04  0.7818609E-02  0.8188825E-01
       -2   -1    0    0    0  501  0.00000000000E+00  0.00000000000E+00  0.13810636600E+04  0.13810636600E+04  0.25500000920E-02 0.  1.
        2   -1    0    0  501    0  0.00000000000E+00  0.00000000000E+00 -0.18536076522E+04  0.18536076522E+04  0.25500000920E-02 0. -1.
    10030    2    1    2    0    0  0.00000000000E+00  0.00000000000E+00 -0.47254399221E+03  0.32346713122E+04  0.31999688551E+04 0.  0.
        1    1    3    3  502    0 -0.94747758886E+03  0.21224716355E+03  0.10492058523E+04  0.14295438295E+04  0.50400001928E-02 0.  1.
       -1    1    3    3    0  502  0.94747758886E+03 -0.21224716355E+03 -0.15217498445E+04  0.18051274828E+04  0.50400001928E-02 0. -1.
</event>
<event>
 5   0  0.3343140E-08  0.3200041E+04  0.7818609E-02  0.8188806E-01
       -1   -1    0    0    0  501  0.00000000000E+00  0.00000000000E+00  0.11824938476E+04  0.11824938476E+04  0.50400001928E-02 0.  1.
        1   -1    0    0  501    0  0.00000000000E+00  0.00000000000E+00 -0.21649717159E+04  0.21649717159E+04  0.50400001928E-02 0. -1.
    10030    2    1    2    0    0  0.00000000000E+00  0.00000000000E+00 -0.98247786830E+03  0.33474655635E+04  0.32000410836E+04 0.  0.
        1    1    3    3  502    0  0.76526813510E+01 -0.54628294022E+03 -0.20643766556E+04  0.21354471641E+04  0.50400001928E-02 0. -1.
       -1    1    3    3    0  502 -0.76526813510E+01  0.54628294022E+03  0.10818987873E+04  0.12120183994E+04  0.50400001928E-02 0.  1.
</event>
<event>
 5   0  0.9157524E-08  0.3200317E+04  0.7818609E-02  0.8188733E-01
        2   -1    0    0  501    0  0.00000000000E+00  0.00000000000E+00  0.28953304240E+04  0.28953304240E+04  0.25500000920E-02 0.  1.
       -2   -1    0    0    0  501  0.00000000000E+00  0.00000000000E+00 -0.88435761407E+03  0.88435761407E+03  0.25500000920E-02 0. -1.
    10030    2    1    2    0    0  0.00000000000E+00  0.00000000000E+00  0.20109728099E+04  0.37796880381E+04  0.32003171754E+04 0.  0.
        5    1    3    3  502    0  0.13667038480E+04  0.83217038021E+03  0.10172058245E+04  0.18960793045E+04  0.46999998093E+01 0. -1.
       -5    1    3    3    0  502 -0.13667038480E+04 -0.83217038021E+03  0.99376698546E+03  0.18836087336E+04  0.46999998093E+01 0.  1.
</event>
<event>
 5   0  0.3427667E-08  0.3200214E+04  0.7818609E-02  0.8188761E-01
       -1   -1    0    0    0  501  0.00000000000E+00  0.00000000000E+00  0.17328572666E+04  0.17328572666E+04  0.50400001928E-02 0. -1.
        1   -1    0    0  501    0  0.00000000000E+00  0.00000000000E+00 -0.14775264888E+04  0.14775264888E+04  0.50400001928E-02 0.  1.
    10030    2    1    2    0    0  0.00000000000E+00  0.00000000000E+00  0.25533077780E+03  0.32103837553E+04  0.32002140632E+04 0.  0.
        2    1    3    3  502    0 -0.42007172485E+03  0.14441802637E+04  0.67550117495E+03  0.16487627863E+04  0.25500000920E-02 0. -1.
       -2    1    3    3    0  502  0.42007172485E+03 -0.14441802637E+04 -0.42017039715E+03  0.15616209690E+04  0.25500000920E-02 0.  1.
</event>
<event>
 5   0  0.9707721E-08  0.3199969E+04  0.7818609E-02  0.8188825E-01
       -2   -1    0    0    0  501  0.00000000000E+00  0.00000000000E+00  0.20685608206E+04  0.20685608206E+04  0.25500000920E-02 0. -1.
        2   -1    0    0  501    0  0.00000000000E+00  0.00000000000E+00 -0.12375511536E+04  0.12375511536E+04  0.25500000920E-02 0.  1.
    10030    2    1    2    0    0  0.00000000000E+00  0.00000000000E+00  0.83100966707E+03  0.33061119742E+04  0.31999686435E+04 0.  0.
        3    1    3    3  502    0  0.55937809130E+03 -0.10209360589E+04 -0.71850728589E+03  0.13680157219E+04  0.10100000352E+00 0.  1.
       -3    1    3    3    0  502 -0.55937809130E+03  0.10209360589E+04  0.15495169530E+04  0.19380962523E+04  0.10100000352E+00 0. -1.
</event>
<event>
 5   0  0.9353994E-08  0.3199662E+04  0.7818609E-02  0.8188907E-01
        2   -1    0    0  501    0  0.00000000000E+00  0.00000000000E+00  0.25441260375E+04  0.25441260375E+04  0.25500000920E-02 0.  1.
       -2   -1    0    0    0  501  0.00000000000E+00  0.00000000000E+00 -0.10060266017E+04  0.10060266017E+04  0.25500000920E-02 0. -1.
    10030    2    1    2    0    0  0.00000000000E+00  0.00000000000E+00  0.15380994359E+04  0.35501526392E+04  0.31996615269E+04 0.  0.
        2    1    3    3  502    0 -0.82688130272E+03 -0.33433458900E+01 -0.75054007121E+03  0.11167158391E+04  0.25500000920E-02 0. -1.
       -2    1    3    3    0  502  0.82688130272E+03  0.33433458900E+01  0.22886395071E+04  0.24334368001E+04  0.25500000920E-02 0.  1.
</event>
<event>
 5   0  0.3427667E-08  0.3200191E+04  0.7818609E-02  0.8188767E-01
       -1   -1    0    0    0  501  0.00000000000E+00  0.00000000000E+00  0.12572864385E+04  0.12572864385E+04  0.50400001928E-02 0. -1.
        1   -1    0    0  501    0  0.00000000000E+00  0.00000000000E+00 -0.20363740354E+04  0.20363740354E+04  0.50400001928E-02 0.  1.
    10030    2    1    2    0    0  0.00000000000E+00  0.00000000000E+00 -0.77908759683E+03  0.32936604739E+04  0.32001909059E+04 0.  0.
        2    1    3    3  502    0 -0.82870672575E+03 -0.62785590009E+03 -0.16413527578E+04  0.19429350849E+04  0.25500000920E-02 0.  1.
       -2    1    3    3    0  502  0.82870672575E+03  0.62785590009E+03  0.86226516100E+03  0.13507253890E+04  0.25500000920E-02 0. -1.
</event>
<event>
 5   0  0.9157524E-08  0.3197271E+04  0.7818609E-02  0.8189538E-01
        2   -1    0    0  501    0  0.00000000000E+00  0.00000000000E+00  0.26558840667E+04  0.26558840667E+04  0.25500000920E-02 0.  1.
       -2   -1    0    0    0  501  0.00000000000E+00  0.00000000000E+00 -0.96225410873E+03  0.96225410873E+03  0.25500000920E-02 0. -1.
    10030    2    1    2    0    0  0.00000000000E+00  0.00000000000E+00  0.16936299579E+04  0.36181381754E+04  0.31972709334E+04 0.  0.
        5    1    3    3  502    0 -0.85580128411E+03 -0.95091343277E+03  0.19316382475E+04  0.23168687066E+04  0.46999998093E+01 0.  1.
       -5    1    3    3    0  502  0.85580128411E+03  0.95091343277E+03 -0.23800828955E+03  0.13012694688E+04  0.46999998093E+01 0. -1.
</event>
<event>
 5   0  0.9157524E-08  0.3200299E+04  0.7818609E-02  0.8188738E-01
       -2   -1    0    0    0  501  0.00000000000E+00  0.00000000000E+00  0.20985140906E+04  0.20985140906E+04  0.25500000920E-02 0.  1.
        2   -1    0    0  501    0  0.00000000000E+00  0.00000000000E+00 -0.12201386540E+04  0.12201386540E+04  0.25500000920E-02 0. -1.
    10030    2    1    2    0    0  0.00000000000E+00  0.00000000000E+00  0.87837543665E+03  0.33186527446E+04  0.32002988347E+04 0.  0.
        5    1    3    3  502    0  0.28506885142E+03 -0.12112246474E+04  0.14824384852E+04  0.19354522337E+04  0.46999998093E+01 0.  1.
       -5    1    3    3    0  502 -0.28506885142E+03  0.12112246474E+04 -0.60406304858E+03  0.13832005109E+04  0.46999998093E+01 0. -1.
</event>
<event>
 5   0  0.9707721E-08  0.3200276E+04  0.7818609E-02  0.8188744E-01
        2   -1    0    0  501    0  0.00000000000E+00  0.00000000000E+00  0.21163755660E+04  0.21163755660E+04  0.25500000920E-02 0.  1.
       -2   -1    0    0    0  501  0.00000000000E+00  0.00000000000E+00 -0.12098235341E+04  0.12098235341E+04  0.25500000920E-02 0. -1.
    10030    2    1    2    0    0  0.00000000000E+00  0.00000000000E+00  0.90655203183E+03  0.33261991001E+04  0.32002755924E+04 0.  0.
        3    1    3    3  502    0  0.54349975173E+03  0.13996164286E+04  0.10283301389E+04  0.18198299405E+04  0.10100000352E+00 0.  1.
       -3    1    3    3    0  502 -0.54349975173E+03 -0.13996164286E+04 -0.12177810712E+03  0.15063691596E+04  0.10100000352E+00 0. -1.
</event>
<event>
 5   0  0.9329929E-08  0.3201573E+04  0.7818609E-02  0.8188402E-01
        2   -1    0    0  501    0  0.00000000000E+00  0.00000000000E+00  0.12856527246E+04  0.12856527246E+04  0.25500000920E-02 0.  1.
       -2   -1    0    0    0  501  0.00000000000E+00  0.00000000000E+00 -0.19931648325E+04  0.19931648325E+04  0.25500000920E-02 0. -1.
    10030    2    1    2    0    0  0.00000000000E+00  0.00000000000E+00 -0.70751210788E+03  0.32788175571E+04  0.32015732367E+04 0.  0.
        1    1    3    3  502    0  0.66907501670E+03  0.13729407024E+03 -0.18364453434E+04  0.19593474779E+04  0.50400001928E-02 0. -1.
       -1    1    3    3    0  502 -0.66907501670E+03 -0.13729407024E+03  0.11289332355E+04  0.13194700792E+04  0.50400001928E-02 0.  1.
</event>
<event>
 5   0  0.3283581E-08  0.3201225E+04  0.7818609E-02  0.8188494E-01
       -1   -1    0    0    0  501  0.00000000000E+00  0.00000000000E+00  0.12233579924E+04  0.12233579924E+04  0.50400001928E-02 0.  1.
        1   -1    0    0  501    0  0.00000000000E+00  0.00000000000E+00 -0.20942029791E+04  0.20942029791E+04  0.50400001928E-02 0. -1.
    10030    2    1    2    0    0  0.00000000000E+00  0.00000000000E+00 -0.87084498671E+03  0.33175609715E+04  0.32012247357E+04 0.  0.
        5    1    3    3  502    0 -0.98102240391E+03  0.11995160103E+04 -0.85085733078E+03  0.17678302812E+04  0.46999998093E+01 0.  1.
       -5    1    3    3    0  502  0.98102240391E+03 -0.11995160103E+04 -0.19987655934E+02  0.15497306902E+04  0.46999998093E+01 0. -1.
</event>
<event>
 5   0  0.3343140E-08  0.3200288E+04  0.7818609E-02  0.8188741E-01
       -1   -1    0    0    0  501  0.00000000000E+00  0.00000000000E+00  0.10843797145E+04  0.10843797145E+04  0.50400001928E-02 0. -1.
        1   -1    0    0  501    0  0.00000000000E+00  0.00000000000E+00 -0.23612221672E+04  0.23612221672E+04  0.50400001928E-02 0.  1.
    10030    2    1    2    0    0  0.00000000000E+00  0.00000000000E+00 -0.12768424528E+04  0.34456018817E+04  0.32002883742E+04 0.  0.
        1    1    3    3  502    0  0.18266754020E+03 -0.15870096235E+04 -0.53919111866E+03  0.16860290738E+04  0.50400001928E-02 0.  1.
       -1    1    3    3    0  502 -0.18266754020E+03  0.15870096235E+04 -0.73765133410E+03  0.17595728078E+04  0.50400001928E-02 0. -1.
</event>
<event>
 5   0  0.9353994E-08  0.3204515E+04  0.7818609E-02  0.8187626E-01
       -2   -1    0    0    0  501  0.00000000000E+00  0.00000000000E+00  0.15433187545E+04  0.15433187545E+04  0.25500000920E-02 0.  1.
        2   -1    0    0  501    0  0.00000000000E+00  0.00000000000E+00 -0.16634472595E+04  0.16634472595E+04  0.25500000920E-02 0. -1.
    10030    2    1    2    0    0  0.00000000000E+00  0.00000000000E+00 -0.12012850497E+03  0.32067660140E+04  0.32045151600E+04 0.  0.
        2    1    3    3  502    0 -0.12155263403E+03 -0.82981352480E+03 -0.14262571753E+04  0.16545618933E+04  0.25500000920E-02 0. -1.
       -2    1    3    3    0  502  0.12155263403E+03  0.82981352480E+03  0.13061286703E+04  0.15522041206E+04  0.25500000920E-02 0.  1.
</event>
<event>
 5   0  0.3427667E-08  0.3200723E+04  0.7818609E-02  0.8188626E-01
       -1   -1    0    0    0  501  0.00000000000E+00  0.00000000000E+00  0.96764795217E+03  0.96764795219E+03  0.50400001928E-02 0.  1.
        1   -1    0    0  501    0  0.00000000000E+00  0.00000000000E+00 -0.26467854782E+04  0.26467854782E+04  0.50400001928E-02 0. -1.
    10030    2    1    2    0    0  0.00000000000E+00  0.00000000000E+00 -0.16791375261E+04  0.36144334304E+04  0.32007227608E+04 0.  0.
        2    1    3    3  502    0  0.54719915315E+03  0.16295615586E+03  0.84872466812E+03  0.10228954904E+04  0.25500000920E-02 0.  1.
       -2    1    3    3    0  502 -0.54719915315E+03 -0.16295615586E+03 -0.25278621942E+04  0.25915379400E+04  0.25500000920E-02 0. -1.
</event>
<event>
 5   0  0.9329929E-08  0.3197681E+04  0.7818609E-02  0.8189430E-01
       -2   -1    0    0    0  501  0.00000000000E+00  0.00000000000E+00  0.13092629163E+04  0.13092629163E+04  0.25500000920E-02 0.  1.
        2   -1    0    0  501    0  0.00000000000E+00  0.00000000000E+00 -0.19524658821E+04  0.19524658821E+04  0.25500000920E-02 0. -1.
    10030    2    1    2    0    0  0.00000000000E+00  0.00000000000E+00 -0.64320296580E+03  0.32617287983E+04  0.31976811440E+04 0.  0.
        1    1    3    3  502    0 -0.42668496241E+03  0.98680779096E+03  0.88550387682E+03  0.13928269057E+04  0.50400001928E-02 0.  1.
       -1    1    3    3    0  502  0.42668496241E+03 -0.98680779096E+03 -0.15287068426E+04  0.18689018926E+04  0.50400001928E-02 0. -1.
</event>
<event>
 5   0  0.9157524E-08  0.3192794E+04  0.7818609E-02  0.8190723E-01
       -2   -1    0    0    0  501  0.00000000000E+00  0.00000000000E+00  0.11480384770E+04  0.11480384770E+04  0.25500000920E-02 0.  1.
        2   -1    0    0  501    0  0.00000000000E+00  0.00000000000E+00 -0.22198591638E+04  0.22198591638E+04  0.25500000920E-02 0. -1.
    10030    2    1    2    0    0  0.00000000000E+00  0.00000000000E+00 -0.10718206868E+04  0.33678976408E+04  0.31927942204E+04 0.  0.
        5    1    3    3  502    0  0.67424544812E+03  0.25760801588E+03  0.96608165315E+03  0.12059455480E+04  0.46999998093E+01 0.  1.
       -5    1    3    3    0  502 -0.67424544812E+03 -0.25760801588E+03 -0.20379023400E+04  0.21619520928E+04  0.46999998093E+01 0. -1.
</event>
<event>
 5   0  0.3283581E-08  0.3199559E+04  0.7818609E-02  0.8188934E-01
        1   -1    0    0  501    0  0.00000000000E+00  0.00000000000E+00  0.20747186272E+04  0.20747186272E+04  0.50400001928E-02 0.  1.
       -1   -1    0    0    0  501  0.00000000000E+00  0.00000000000E+00 -0.12335625270E+04  0.12335625270E+04  0.50400001928E-02 0. -1.
    10030    2    1    2    0    0  0.00000000000E+00  0.00000000000E+00  0.84115610021E+03  0.33082811542E+04  0.31995594401E+04 0.  0.
        5    1    3    3  502    0  0.55118848966E+03  0.74570422025E+03  0.17684812273E+04  0.19968553970E+04  0.46999998093E+01 0.  1.
       -5    1    3    3    0  502 -0.55118848966E+03 -0.74570422025E+03 -0.92732512713E+03  0.13114257572E+04  0.46999998093E+01 0. -1.
</event>
<event>
 5   0  0.3283581E-08  0.3197090E+04  0.7818609E-02  0.8189586E-01
        1   -1    0    0  501    0  0.00000000000E+00  0.00000000000E+00  0.12026275710E+04  0.12026275710E+04  0.50400001928E-02 0. -1.
       -1   -1    0    0    0  501  0.00000000000E+00  0.00000000000E+00 -0.21248019841E+04  0.21248019841E+04  0.50400001928E-02 0.  1.
    10030    2    1    2    0    0  0.00000000000E+00  0.00000000000E+00 -0.92217441318E+03  0.33274295551E+04  0.31970895821E+04 0.  0.
        5    1    3    3  502    0  0.85889506342E+03 -0.10318843931E+04  0.44194784524E+03  0.14134447703E+04  0.46999998093E+01 0. -1.
       -5    1    3    3    0  502 -0.85889506342E+03  0.10318843931E+04 -0.13641222584E+04  0.19139847848E+04  0.46999998093E+01 0.  1.
</event>
<event>
 5   0  0.9329929E-08  0.3199834E+04  0.7818609E-02  0.8188861E-01
        2   -1    0    0  501    0  0.00000000000E+00  0.00000000000E+00  0.24941379379E+04  0.24941379379E+04  0.25500000920E-02 0.  1.
       -2   -1    0    0    0  501  0.00000000000E+00  0.00000000000E+00 -0.10262999755E+04  0.10262999755E+04  0.25500000920E-02 0. -1.
    10030    2    1    2    0    0  0.00000000000E+00  0.00000000000E+00  0.14678379623E+04  0.35204379134E+04  0.31998335611E+04 0.  0.
        1    1    3    3  502    0  0.80471360021E+03  0.54182103548E+03  0.21336320806E+04  0.23438259040E+04  0.50400001928E-02 0.  1.
       -1    1    3    3    0  502 -0.80471360021E+03 -0.54182103548E+03 -0.66579411824E+03  0.11766120094E+04  0.50400001928E-02 0. -1.
</event>
<event>
 5   0  0.9727083E-08  0.3206776E+04  0.7818609E-02  0.8187030E-01
       -2   -1    0    0    0  501  0.00000000000E+00  0.00000000000E+00  0.16042597652E+04  0.16042597652E+04  0.25500000920E-02 0.  1.
        2   -1    0    0  501    0  0.00000000000E+00  0.00000000000E+00 -0.16025167567E+04  0.16025167567E+04  0.25500000920E-02 0. -1.
    10030    2    1    2    0    0  0.00000000000E+00  0.00000000000E+00  0.17430084119E+01  0.32067765219E+04  0.32067760482E+04 0.  0.
        4    1    3    3  502    0 -0.13355244821E+04  0.33115407072E+03 -0.82227069634E+03  0.16029408510E+04  0.12699999809E+01 0. -1.
       -4    1    3    3    0  502  0.13355244821E+04 -0.33115407072E+03  0.82401370475E+03  0.16038356709E+04  0.12699999809E+01 0.  1.
</event>
<event>
 5   0  0.3427667E-08  0.3199490E+04  0.7818609E-02  0.8188952E-01
       -1   -1    0    0    0  501  0.00000000000E+00  0.00000000000E+00  0.89165776400E+03  0.89165776402E+03  0.50400001928E-02 0.  1.
        1   -1    0    0  501    0  0.00000000000E+00  0.00000000000E+00 -0.28701411023E+04  0.28701411023E+04  0.50400001928E-02 0. -1.
    10030    2    1    2    0    0  0.00000000000E+00  0.00000000000E+00 -0.19784833383E+04  0.37617988664E+04  0.31994897079E+04 0.  0.
        2    1    3    3  502    0  0.11272370993E+04  0.75989158038E+03  0.22192125925E+01  0.13594497478E+04  0.25500000920E-02 0.  1.
       -2    1    3    3    0  502 -0.11272370993E+04 -0.75989158038E+03 -0.19807025509E+04  0.24023491185E+04  0.25500000920E-02 0. -1.
</event>
<event>
 5   0  0.3220147E-08  0.3201597E+04  0.7818609E-02  0.8188396E-01
       -1   -1    0    0    0  501  0.00000000000E+00  0.00000000000E+00  0.13804827489E+04  0.13804827489E+04  0.50400001928E-02 0.  1.
        1   -1    0    0  501    0  0.00000000000E+00  0.00000000000E+00 -0.18562745908E+04  0.18562745908E+04  0.50400001928E-02 0. -1.
    10030    2    1    2    0    0  0.00000000000E+00  0.00000000000E+00 -0.47579184186E+03  0.32367573397E+04  0.32015965079E+04 0.  0.
        4    1    3    3  502    0 -0.11483148786E+04 -0.75804367202E+02  0.88705985350E+03  0.14530141634E+04  0.12699999809E+01 0.  1.
       -4    1    3    3    0  502  0.11483148786E+04  0.75804367202E+02 -0.13628516954E+04  0.17837431763E+04  0.12699999809E+01 0. -1.
</event>
<event>
 5   0  0.9707721E-08  0.3201176E+04  0.7818609E-02  0.8188507E-01
       -2   -1    0    0    0  501  0.00000000000E+00  0.00000000000E+00  0.12998615550E+04  0.12998615550E+04  0.25500000920E-02 0. -1.
        2   -1    0    0  501    0  0.00000000000E+00  0.00000000000E+00 -0.19708886041E+04  0.19708886041E+04  0.25500000920E-02 0.  1.
    10030    2    1    2    0    0  0.00000000000E+00  0.00000000000E+00 -0.67102704908E+03  0.32707501591E+04  0.32011762374E+04 0.  0.
        3    1    3    3  502    0 -0.14721158871E+04 -0.39365391651E+03 -0.83584369637E+03  0.17380228094E+04  0.10100000352E+00 0. -1.
       -3    1    3    3    0  502  0.14721158871E+04  0.39365391651E+03  0.16481664730E+03  0.15327273497E+04  0.10100000352E+00 0.  1.
</event>
<event>
 5   0  0.3343140E-08  0.3199867E+04  0.7818609E-02  0.8188852E-01
        1   -1    0    0  501    0  0.00000000000E+00  0.00000000000E+00  0.15186052096E+04  0.15186052096E+04  0.50400001928E-02 0. -1.
       -1   -1    0    0    0  501  0.00000000000E+00  0.00000000000E+00 -0.16856169009E+04  0.16856169009E+04  0.50400001928E-02 0.  1.
    10030    2    1    2    0    0  0.00000000000E+00  0.00000000000E+00 -0.16701169123E+03  0.32042221105E+04  0.31998666267E+04 0.  0.
        1    1    3    3  502    0  0.44167018215E+03 -0.63332754255E+03 -0.14867019964E+04  0.16752489821E+04  0.50400001928E-02 0.  1.
       -1    1    3    3    0  502 -0.44167018215E+03  0.63332754255E+03  0.13196903051E+04  0.15289731284E+04  0.50400001928E-02 0. -1.
</event>
<event>
 5   0  0.9157524E-08  0.3199530E+04  0.7818609E-02  0.8188941E-01
       -2   -1    0    0    0  501  0.00000000000E+00  0.00000000000E+00  0.28770526567E+04  0.28770526567E+04  0.25500000920E-02 0.  1.
        2   -1    0    0  501    0  0.00000000000E+00  0.00000000000E+00 -0.88953812614E+03  0.88953812614E+03  0.25500000920E-02 0. -1.
    10030    2    1    2    0    0  0.00000000000E+00  0.00000000000E+00  0.19875145306E+04  0.37665907829E+04  0.31995299836E+04 0.  0.
        5    1    3    3  502    0 -0.22589772860E+03 -0.14966412142E+04  0.38402214369E+03  0.15615568528E+04  0.46999998093E+01 0.  1.
       -5    1    3    3    0  502  0.22589772860E+03  0.14966412142E+04  0.16034923869E+04  0.22050339300E+04  0.46999998093E+01 0. -1.
</event>
<event>
 5   0  0.3427667E-08  0.3201747E+04  0.7818609E-02  0.8188356E-01
       -1   -1    0    0    0  501  0.00000000000E+00  0.00000000000E+00  0.14251868634E+04  0.14251868634E+04  0.50400001928E-02 0.  1.
        1   -1    0    0  501    0  0.00000000000E+00  0.00000000000E+00 -0.17982170602E+04  0.17982170602E+04  0.50400001928E-02 0. -1.
    10030    2    1    2    0    0  0.00000000000E+00  0.00000000000E+00 -0.37303019674E+03  0.32234039236E+04  0.32017466057E+04 0.  0.
        2    1    3    3  502    0  0.22051334786E+03 -0.10922981879E+04 -0.13436607702E+04  0.17456132828E+04  0.25500000920E-02 0. -1.
       -2    1    3    3    0  502 -0.22051334786E+03  0.10922981879E+04  0.97063057342E+03  0.14777906408E+04  0.25500000920E-02 0.  1.
</event>
<event>
 5   0  0.9329929E-08  0.3199305E+04  0.7818609E-02  0.8189001E-01
       -2   -1    0    0    0  501  0.00000000000E+00  0.00000000000E+00  0.10098928242E+04  0.10098928242E+04  0.25500000920E-02 0. -1.
        2   -1    0    0  501    0  0.00000000000E+00  0.00000000000E+00 -0.25338208812E+04  0.25338208812E+04  0.25500000920E-02 0.  1.
    10030    2    1    2    0    0  0.00000000000E+00  0.00000000000E+00 -0.15239280569E+04  0.35437137054E+04  0.31993046281E+04 0.  0.
        1    1    3    3  502    0 -0.12468145986E+04 -0.61502347423E+03  0.11447231856E+03  0.13949567839E+04  0.50400001928E-02 0. -1.
       -1    1    3    3    0  502  0.12468145986E+04  0.61502347423E+03 -0.16384003755E+04  0.21487569215E+04  0.50400001928E-02 0.  1.
</event>
<event>
 5   0  0.9353994E-08  0.3201929E+04  0.7818609E-02  0.8188308E-01
       -2   -1    0    0    0  501  0.00000000000E+00  0.00000000000E+00  0.13723299034E+04  0.13723299034E+04  0.25500000920E-02 0.  1.
        2   -1    0    0  501    0  0.00000000000E+00  0.00000000000E+00 -0.18676904390E+04  0.18676904391E+04  0.25500000920E-02 0. -1.
    10030    2    1    2    0    0  0.00000000000E+00  0.00000000000E+00 -0.49536053564E+03  0.32400203425E+04  0.32019290684E+04 0.  0.
        2    1    3    3  502    0  0.13664679519E+04  0.70702751112E+03  0.20026520033E+03  0.15515246423E+04  0.25500000920E-02 0. -1.
       -2    1    3    3    0  502 -0.13664679519E+04 -0.70702751112E+03 -0.69562573597E+03  0.16884957002E+04  0.25500000920E-02 0.  1.
</event>
<event>
 5   0  0.3080500E-08  0.3198704E+04  0.7818609E-02  0.8189159E-01
       -3   -1    0    0    0  501  0.00000000000E+00  0.00000000000E+00  0.14583903173E+04  0.14583903208E+04  0.10100000352E+00 0.  1.
        3   -1    0    0  501    0  0.00000000000E+00  0.00000000000E+00 -0.17539386250E+04  0.17539386279E+04  0.10100000352E+00 0. -1.
    10030    2    1    2    0    0  0.00000000000E+00  0.00000000000E+00 -0.29554830771E+03  0.32123289487E+04  0.31987041864E+04 0.  0.
        5    1    3    3  502    0 -0.58956429846E+03  0.11084460321E+04 -0.11427851656E+04  0.16977098377E+04  0.46999998093E+01 0.  1.
       -5    1    3    3    0  502  0.58956429846E+03 -0.11084460321E+04  0.84723685790E+03  0.15146191110E+04  0.46999998093E+01 0. -1.
</event>
<event>
 5   0  0.3220147E-08  0.3210507E+04  0.7818609E-02  0.8186048E-01
       -1   -1    0    0    0  501  0.00000000000E+00  0.00000000000E+00  0.15759114441E+04  0.15759114441E+04  0.50400001928E-02 0.  1.
        1   -1    0    0  501    0  0.00000000000E+00  0.00000000000E+00 -0.16351422485E+04  0.16351422485E+04  0.50400001928E-02 0. -1.
    10030    2    1    2    0    0  0.00000000000E+00  0.00000000000E+00 -0.59230804376E+02  0.32110536926E+04  0.32105073631E+04 0.  0.
        4    1    3    3  502    0 -0.36566900794E+03  0.15602324722E+04  0.64201298590E+02  0.16037963120E+04  0.12699999809E+01 0. -1.
       -4    1    3    3    0  502  0.36566900794E+03 -0.15602324722E+04 -0.12343210297E+03  0.16072573806E+04  0.12699999809E+01 0.  1.
</event>
<event>
 5   0  0.9727083E-08  0.3200632E+04  0.7818609E-02  0.8188650E-01
        2   -1    0    0  501    0  0.00000000000E+00  0.00000000000E+00  0.10021534927E+04  0.10021534927E+04  0.25500000920E-02 0. -1.
       -2   -1    0    0    0  501  0.00000000000E+00  0.00000000000E+00 -0.25555077459E+04  0.25555077459E+04  0.25500000920E-02 0.  1.
    10030    2    1    2    0    0  0.00000000000E+00  0.00000000000E+00 -0.15533542531E+04  0.35576612386E+04  0.32006318209E+04 0.  0.
        4    1    3    3  502    0 -0.75514631568E+03  0.10604700777E+04 -0.18111750043E+04  0.22305154680E+04  0.12699999809E+01 0.  1.
       -4    1    3    3    0  502  0.75514631568E+03 -0.10604700777E+04  0.25782075119E+03  0.13271457706E+04  0.12699999809E+01 0. -1.
</event>
<event>
 5   0  0.9157524E-08  0.3200037E+04  0.7818609E-02  0.8188808E-01
        2   -1    0    0  501    0  0.00000000000E+00  0.00000000000E+00  0.13829844439E+04  0.13829844439E+04  0.25500000920E-02 0.  1.
       -2   -1    0    0    0  501  0.00000000000E+00  0.00000000000E+00 -0.18511114954E+04  0.18511114954E+04  0.25500000920E-02 0. -1.
    10030    2    1    2    0    0  0.00000000000E+00  0.00000000000E+00 -0.46812705146E+03  0.32340959393E+04  0.32000365011E+04 0.  0.
        5    1    3    3  502    0  0.52381237588E+03 -0.13022830469E+04  0.54203943244E+03  0.15047090668E+04  0.46999998093E+01 0. -1.
       -5    1    3    3    0  502 -0.52381237588E+03  0.13022830469E+04 -0.10101664839E+04  0.17293868725E+04  0.46999998093E+01 0.  1.
</event>
<event>
 5   0  0.3343140E-08  0.3198794E+04  0.7818609E-02  0.8189136E-01
       -1   -1    0    0    0  501  0.00000000000E+00  0.00000000000E+00  0.91814393646E+03  0.91814393648E+03  0.50400001928E-02 0. -1.
        1   -1    0    0  501    0  0.00000000000E+00  0.00000000000E+00 -0.27861334610E+04  0.27861334610E+04  0.50400001928E-02 0.  1.
    10030    2    1    2    0    0  0.00000000000E+00  0.00000000000E+00 -0.18679895246E+04  0.37042773975E+04  0.31987944876E+04 0.  0.
        1    1    3    3  502    0 -0.18494076748E+03  0.16714761488E+03 -0.27634988100E+04  0.27747192805E+04  0.50400001928E-02 0.  1.
       -1    1    3    3    0  502  0.18494076748E+03 -0.16714761488E+03  0.89550928542E+03  0.92955811703E+03  0.50400001928E-02 0. -1.
</event>
<event>
 5   0  0.9727083E-08  0.3200662E+04  0.7818609E-02  0.8188642E-01
        2   -1    0    0  501    0  0.00000000000E+00  0.00000000000E+00  0.18663804966E+04  0.18663804966E+04  0.25500000920E-02 0. -1.
       -2   -1    0    0    0  501  0.00000000000E+00  0.00000000000E+00 -0.13722064516E+04  0.13722064516E+04  0.25500000920E-02 0.  1.
    10030    2    1    2    0    0  0.00000000000E+00  0.00000000000E+00  0.49417404506E+03  0.32385869482E+04  0.32006620306E+04 0.  0.
        4    1    3    3  502    0  0.58194894749E+03  0.14550794168E+04  0.57517752262E+03  0.16693566072E+04  0.12699999809E+01 0. -1.
       -4    1    3    3    0  502 -0.58194894749E+03 -0.14550794168E+04 -0.81003477558E+02  0.15692303410E+04  0.12699999809E+01 0.  1.
</event>
<event>
 5   0  0.3270966E-08  0.3200522E+04  0.7818609E-02  0.8188679E-01
       -1   -1    0    0    0  501  0.00000000000E+00  0.00000000000E+00  0.90303735812E+03  0.90303735813E+03  0.50400001928E-02 0.  1.
        1   -1    0    0  501    0  0.00000000000E+00  0.00000000000E+00 -0.28358015217E+04  0.28358015217E+04  0.50400001928E-02 0. -1.
    10030    2    1    2    0    0  0.00000000000E+00  0.00000000000E+00 -0.19327641636E+04  0.37388388798E+04  0.32005216539E+04 0.  0.
        3    1    3    3  502    0  0.80995775477E+03  0.74208000376E+03  0.39300964347E+03  0.11666922844E+04  0.10100000352E+00 0.  1.
       -3    1    3    3    0  502 -0.80995775477E+03 -0.74208000376E+03 -0.23257738070E+04  0.25721465954E+04  0.10100000352E+00 0. -1.
</event>
<event>
 5   0  0.3427667E-08  0.3200040E+04  0.7818609E-02  0.8188807E-01
       -1   -1    0    0    0  501  0.00000000000E+00  0.00000000000E+00  0.12487295021E+04  0.12487295021E+04  0.50400001928E-02 0. -1.
        1   -1    0    0  501    0  0.00000000000E+00  0.00000000000E+00 -0.20501346486E+04  0.20501346486E+04  0.50400001928E-02 0.  1.
    10030    2    1    2    0    0  0.00000000000E+00  0.00000000000E+00 -0.80140514655E+03  0.32988641507E+04  0.32000397616E+04 0.  0.
        2    1    3    3  502    0  0.62760006190E+03  0.23621215303E+03 -0.18982823413E+04  0.20132446116E+04  0.25500000920E-02 0.  1.
       -2    1    3    3    0  502 -0.62760006190E+03 -0.23621215303E+03  0.10968771947E+04  0.12856195391E+04  0.25500000920E-02 0. -1.
</event>
<event>
 5   0  0.3427667E-08  0.3198893E+04  0.7818609E-02  0.8189110E-01
       -1   -1    0    0    0  501  0.00000000000E+00  0.00000000000E+00  0.18319276844E+04  0.18319276844E+04  0.50400001928E-02 0. -1.
        1   -1    0    0  501    0  0.00000000000E+00  0.00000000000E+00 -0.13964686562E+04  0.13964686563E+04  0.50400001928E-02 0.  1.
    10030    2    1    2    0    0  0.00000000000E+00  0.00000000000E+00  0.43545902817E+03  0.32283963407E+04  0.31988933035E+04 0.  0.
        2    1    3    3  502    0 -0.12152075104E+04 -0.70897030391E+03 -0.55011695120E+03  0.15106279639E+04  0.25500000920E-02 0.  1.
       -2    1    3    3    0  502  0.12152075104E+04  0.70897030391E+03  0.98557597937E+03  0.17177683768E+04  0.25500000920E-02 0. -1.
</event>
<event>
 5   0  0.3343140E-08  0.3203212E+04  0.7818609E-02  0.8187970E-01
        1   -1    0    0  501    0  0.00000000000E+00  0.00000000000E+00  0.17853772460E+04  0.17853772460E+04  0.50400001928E-02 0.  1.
       -1   -1    0    0    0  501  0.00000000000E+00  0.00000000000E+00 -0.14367502331E+04  0.14367502331E+04  0.50400001928E-02 0. -1.
    10030    2    1    2    0    0  0.00000000000E+00  0.00000000000E+00  0.34862701286E+03  0.32221274791E+04  0.32032116224E+04 0.  0.
        1    1    3    3  502    0 -0.89075827652E+03  0.23629189743E+03 -0.11433291118E+04  0.14684977446E+04  0.50400001928E-02 0. -1.
       -1    1    3    3    0  502  0.89075827652E+03 -0.23629189743E+03  0.14919561246E+04  0.17536297345E+04  0.50400001928E-02 0.  1.
</event>
<event>
 5   0  0.3283581E-08  0.3200745E+04  0.7818609E-02  0.8188620E-01
       -1   -1    0    0    0  501  0.00000000000E+00  0.00000000000E+00  0.10972762405E+04  0.10972762405E+04  0.50400001928E-02 0.  1.
        1   -1    0    0  501    0  0.00000000000E+00  0.00000000000E+00 -0.23341361107E+04  0.23341361107E+04  0.50400001928E-02 0. -1.
    10030    2    1    2    0    0  0.00000000000E+00  0.00000000000E+00 -0.12368598702E+04  0.34314123512E+04  0.32007449735E+04 0.  0.
        5    1    3    3  502    0  0.96503267394E+03 -0.18818189571E+03  0.73529350423E+03  0.12277536866E+04  0.46999998093E+01 0.  1.
       -5    1    3    3    0  502 -0.96503267394E+03  0.18818189571E+03 -0.19721533745E+04  0.22036586646E+04  0.46999998093E+01 0. -1.
</event>
<event>
 5   0  0.3427667E-08  0.3199343E+04  0.7818609E-02  0.8188991E-01
       -1   -1    0    0    0  501  0.00000000000E+00  0.00000000000E+00  0.11301455032E+04  0.11301455032E+04  0.50400001928E-02 0.  1.
        1   -1    0    0  501    0  0.00000000000E+00  0.00000000000E+00 -0.22642650493E+04  0.22642650493E+04  0.50400001928E-02 0. -1.
    10030    2    1    2    0    0  0.00000000000E+00  0.00000000000E+00 -0.11341195461E+04  0.33944105525E+04  0.31993430348E+04 0.  0.
        2    1    3    3  502    0 -0.98805536137E+03 -0.12314114660E+04 -0.84029097876E+03  0.17884956038E+04  0.25500000920E-02 0. -1.
       -2    1    3    3    0  502  0.98805536137E+03  0.12314114660E+04 -0.29382856732E+03  0.16059149488E+04  0.25500000920E-02 0.  1.
</event>
<event>
 5   0  0.9727083E-08  0.3203998E+04  0.7818609E-02  0.8187762E-01
       -2   -1    0    0    0  501  0.00000000000E+00  0.00000000000E+00  0.14423085228E+04  0.14423085228E+04  0.25500000920E-02 0. -1.
        2   -1    0    0  501    0  0.00000000000E+00  0.00000000000E+00 -0.17793699096E+04  0.17793699096E+04  0.25500000920E-02 0.  1.
    10030    2    1    2    0    0  0.00000000000E+00  0.00000000000E+00 -0.33706138679E+03  0.32216784324E+04  0.32039977440E+04 0.  0.
        4    1    3    3  502    0 -0.10473840325E+04  0.43220766402E+03  0.97023023506E+03  0.14916987291E+04  0.12699999809E+01 0. -1.
       -4    1    3    3    0  502  0.10473840325E+04 -0.43220766402E+03 -0.13072916219E+04  0.17299797033E+04  0.12699999809E+01 0.  1.
</event>
<event>
 5   0  0.9727083E-08  0.3198154E+04  0.7818609E-02  0.8189305E-01
        2   -1    0    0  501    0  0.00000000000E+00  0.00000000000E+00  0.26049638528E+04  0.26049638528E+04  0.25500000920E-02 0.  1.
       -2   -1    0    0    0  501  0.00000000000E+00  0.00000000000E+00 -0.98160539005E+03  0.98160539005E+03  0.25500000920E-02 0. -1.
    10030    2    1    2    0    0  0.00000000000E+00  0.00000000000E+00  0.16233584627E+04  0.35865692428E+04  0.31981535665E+04 0.  0.
        4    1    3    3  502    0  0.39205263535E+01  0.36337514049E+03  0.25580429919E+04  0.25837264609E+04  0.12699999809E+01 0.  1.
       -4    1    3    3    0  502 -0.39205263535E+01 -0.36337514049E+03 -0.93468452920E+03  0.10028427819E+04  0.12699999809E+01 0. -1.
</event>
<event>
 5   0  0.9329929E-08  0.3191080E+04  0.7818609E-02  0.8191177E-01
       -2   -1    0    0    0  501  0.00000000000E+00  0.00000000000E+00  0.14698680726E+04  0.14698680726E+04  0.25500000920E-02 0.  1.
        2   -1    0    0  501    0  0.00000000000E+00  0.00000000000E+00 -0.17319571914E+04  0.17319571914E+04  0.25500000920E-02 0. -1.
    10030    2    1    2    0    0  0.00000000000E+00  0.00000000000E+00 -0.26208911875E+03  0.32018252640E+04  0.31910804307E+04 0.  0.
        1    1    3    3  502    0 -0.65627970848E+03 -0.64840241854E+03  0.11751143528E+04  0.14939954801E+04  0.50400001928E-02 0.  1.
       -1    1    3    3    0  502  0.65627970848E+03  0.64840241854E+03 -0.14372034716E+04  0.17078297840E+04  0.50400001928E-02 0. -1.
</event>
<event>
 5   0  0.3220147E-08  0.3198782E+04  0.7818609E-02  0.8189139E-01
        1   -1    0    0  501    0  0.00000000000E+00  0.00000000000E+00  0.19319897804E+04  0.19319897804E+04  0.50400001928E-02 0. -1.
       -1   -1    0    0    0  501  0.00000000000E+00  0.00000000000E+00 -0.13240501597E+04  0.13240501597E+04  0.50400001928E-02 0.  1.
    10030    2    1    2    0    0  0.00000000000E+00  0.00000000000E+00  0.60793962070E+03  0.32560399402E+04  0.31987818790E+04 0.  0.
        4    1    3    3  502    0  0.32687993212E+02 -0.77995732555E+03 -0.11169572186E+04  0.13627167628E+04  0.12699999809E+01 0.  1.
       -4    1    3    3    0  502 -0.32687993212E+02  0.77995732555E+03  0.17248968393E+04  0.18933231773E+04  0.12699999809E+01 0. -1.
</event>
<event>
 5   0  0.3220147E-08  0.3201421E+04  0.7818609E-02  0.8188442E-01
       -1   -1    0    0    0  501  0.00000000000E+00  0.00000000000E+00  0.97216053567E+03  0.97216053569E+03  0.50400001928E-02 0. -1.
        1   -1    0    0  501    0  0.00000000000E+00  0.00000000000E+00 -0.26356493519E+04  0.26356493519E+04  0.50400001928E-02 0.  1.
    10030    2    1    2    0    0  0.00000000000E+00  0.00000000000E+00 -0.16634888162E+04  0.36078098876E+04  0.32014211131E+04 0.  0.
        4    1    3    3  502    0 -0.85239487494E+03 -0.84289469945E+03 -0.20271639937E+04  0.23550889510E+04  0.12699999809E+01 0.  1.
       -4    1    3    3    0  502  0.85239487494E+03  0.84289469945E+03  0.36367517747E+03  0.12527209365E+04  0.12699999809E+01 0. -1.
</event>
<event>
 5   0  0.9157524E-08  0.3198496E+04  0.7818609E-02  0.8189214E-01
        2   -1    0    0  501    0  0.00000000000E+00  0.00000000000E+00  0.18177534494E+04  0.18177534494E+04  0.25500000920E-02 0. -1.
       -2   -1    0    0    0  501  0.00000000000E+00  0.00000000000E+00 -0.14070085235E+04  0.14070085235E+04  0.25500000920E-02 0.  1.
    10030    2    1    2    0    0  0.00000000000E+00  0.00000000000E+00  0.41074492591E+03  0.32247619730E+04  0.31984962698E+04 0.  0.
        5    1    3    3  502    0  0.43383443090E+03 -0.11652148636E+04  0.12194324217E+04  0.17415440026E+04  0.46999998093E+01 0. -1.
       -5    1    3    3    0  502 -0.43383443090E+03  0.11652148636E+04 -0.80868749583E+03  0.14832179704E+04  0.46999998093E+01 0.  1.
</event>
<event>
 5   0  0.3283581E-08  0.3204209E+04  0.7818609E-02  0.8187706E-01
       -1   -1    0    0    0  501  0.00000000000E+00  0.00000000000E+00  0.12211008878E+04  0.12211008878E+04  0.50400001928E-02 0.  1.
        1   -1    0    0  501    0  0.00000000000E+00  0.00000000000E+00 -0.21019876759E+04  0.21019876759E+04  0.50400001928E-02 0. -1.
    10030    2    1    2    0    0  0.00000000000E+00  0.00000000000E+00 -0.88088678812E+03  0.33230885637E+04  0.32042091175E+04 0.  0.
        5    1    3    3  502    0 -0.13420486752E+03 -0.12687816828E+04  0.56447433282E+03  0.13951599434E+04  0.46999998093E+01 0.  1.
       -5    1    3    3    0  502  0.13420486752E+03  0.12687816828E+04 -0.14453611209E+04  0.19279286203E+04  0.46999998093E+01 0. -1.
</event>
<event>
 5   0  0.3080500E-08  0.3200167E+04  0.7818609E-02  0.8188773E-01
       -3   -1    0    0    0  501  0.00000000000E+00  0.00000000000E+00  0.11794835113E+04  0.11794835156E+04  0.10100000352E+00 0. -1.
        3   -1    0    0  501    0  0.00000000000E+00  0.00000000000E+00 -0.21706684406E+04  0.21706684430E+04  0.10100000352E+00 0.  1.
    10030    2    1    2    0    0  0.00000000000E+00  0.00000000000E+00 -0.99118492928E+03  0.33501519586E+04  0.32001672740E+04 0.  0.
        2    1    3    3  502    0 -0.99654322329E+03 -0.24723681873E+02 -0.18058753390E+04  0.20627397791E+04  0.25500000920E-02 0.  1.
       -2    1    3    3    0  502  0.99654322329E+03  0.24723681873E+02  0.81469040968E+03  0.12874121795E+04  0.25500000920E-02 0. -1.
</event>
<event>
 5   0  0.9353994E-08  0.3200510E+04  0.7818609E-02  0.8188683E-01
       -2   -1    0    0    0  501  0.00000000000E+00  0.00000000000E+00  0.11904180746E+04  0.11904180746E+04  0.25500000920E-02 0.  1.
        2   -1    0    0  501    0  0.00000000000E+00  0.00000000000E+00 -0.21511900924E+04  0.21511900924E+04  0.25500000920E-02 0. -1.
    10030    2    1    2    0    0  0.00000000000E+00  0.00000000000E+00 -0.96077201775E+03  0.33416081670E+04  0.32005096893E+04 0.  0.
        2    1    3    3  502    0  0.10441580796E+04  0.11979426399E+04 -0.28371245906E+03  0.16142569260E+04  0.25500000920E-02 0. -1.
       -2    1    3    3    0  502 -0.10441580796E+04 -0.11979426399E+04 -0.67705955870E+03  0.17273512410E+04  0.25500000920E-02 0.  1.
</event>
<event>
 5   0  0.3270966E-08  0.3202493E+04  0.7818609E-02  0.8188159E-01
        1   -1    0    0  501    0  0.00000000000E+00  0.00000000000E+00  0.14662747478E+04  0.14662747478E+04  0.50400001928E-02 0.  1.
       -1   -1    0    0    0  501  0.00000000000E+00  0.00000000000E+00 -0.17486429298E+04  0.17486429299E+04  0.50400001928E-02 0. -1.
    10030    2    1    2    0    0  0.00000000000E+00  0.00000000000E+00 -0.28236818206E+03  0.32149176776E+04  0.32024933854E+04 0.  0.
        3    1    3    3  502    0  0.54981806831E+03 -0.24094247299E+03 -0.16314086618E+04  0.17383461725E+04  0.10100000352E+00 0. -1.
       -3    1    3    3    0  502 -0.54981806831E+03  0.24094247299E+03  0.13490404797E+04  0.14765715051E+04  0.10100000352E+00 0.  1.
</event>
<event>
 5   0  0.9707721E-08  0.3202129E+04  0.7818609E-02  0.8188255E-01
        2   -1    0    0  501    0  0.00000000000E+00  0.00000000000E+00  0.18828330259E+04  0.18828330259E+04  0.25500000920E-02 0.  1.
       -2   -1    0    0    0  501  0.00000000000E+00  0.00000000000E+00 -0.13614627784E+04  0.13614627784E+04  0.25500000920E-02 0. -1.
    10030    2    1    2    0    0  0.00000000000E+00  0.00000000000E+00  0.52137024751E+03  0.32442958044E+04  0.32021287187E+04 0.  0.
        3    1    3    3  502    0  0.16648608884E+03  0.93616503523E+03 -0.10444097536E+04  0.14124143636E+04  0.10100000352E+00 0. -1.
       -3    1    3    3    0  502 -0.16648608884E+03 -0.93616503523E+03  0.15657800011E+04  0.18318814408E+04  0.10100000352E+00 0.  1.
</event>
<event>
 5   0  0.9727083E-08  0.3200831E+04  0.7818609E-02  0.8188598E-01
        2   -1    0    0  501    0  0.00000000000E+00  0.00000000000E+00  0.14952984606E+04  0.14952984606E+04  0.25500000920E-02 0. -1.
       -2   -1    0    0    0  501  0.00000000000E+00  0.00000000000E+00 -0.17129225583E+04  0.17129225583E+04  0.25500000920E-02 0.  1.
    10030    2    1    2    0    0  0.00000000000E+00  0.00000000000E+00 -0.21762409775E+03  0.32082210189E+04  0.32008314323E+04 0.  0.
        4    1    3    3  502    0 -0.10687708089E+04 -0.46960147063E+03  0.98849038429E+03  0.15296769057E+04  0.12699999809E+01 0. -1.
       -4    1    3    3    0  502  0.10687708089E+04  0.46960147063E+03 -0.12061144820E+04  0.16785441132E+04  0.12699999809E+01 0.  1.
</event>
<event>
 5   0  0.9727083E-08  0.3200660E+04  0.7818609E-02  0.8188643E-01
       -2   -1    0    0    0  501  0.00000000000E+00  0.00000000000E+00  0.12719341747E+04  0.12719341747E+04  0.25500000920E-02 0. -1.
        2   -1    0    0  501    0  0.00000000000E+00  0.00000000000E+00 -0.20135130078E+04  0.20135130078E+04  0.25500000920E-02 0.  1.
    10030    2    1    2    0    0  0.00000000000E+00  0.00000000000E+00 -0.74157883311E+03  0.32854471826E+04  0.32006599357E+04 0.  0.
        4    1    3    3  502    0 -0.21203561694E+03 -0.21709296393E+03  0.12421293877E+04  0.12786615997E+04  0.12699999809E+01 0. -1.
       -4    1    3    3    0  502  0.21203561694E+03  0.21709296393E+03 -0.19837082208E+04  0.20067855829E+04  0.12699999809E+01 0.  1.
</event>
<event>
 5   0  0.3427667E-08  0.3186138E+04  0.7818609E-02  0.8192488E-01
       -1   -1    0    0    0  501  0.00000000000E+00  0.00000000000E+00  0.13373877021E+04  0.13373877021E+04  0.50400001928E-02 0. -1.
        1   -1    0    0  501    0  0.00000000000E+00  0.00000000000E+00 -0.18976307734E+04  0.18976307734E+04  0.50400001928E-02 0.  1.
    10030    2    1    2    0    0  0.00000000000E+00  0.00000000000E+00 -0.56024307128E+03  0.32350184756E+04  0.31861375109E+04 0.  0.
        2    1    3    3  502    0  0.15287943863E+04  0.21489099456E+03  0.11894477789E+03  0.15483986164E+04  0.25500000920E-02 0.  1.
       -2    1    3    3    0  502 -0.15287943863E+04 -0.21489099456E+03 -0.67918784917E+03  0.16866198592E+04  0.25500000920E-02 0. -1.
</event>
<event>
 5   0  0.9329929E-08  0.3203822E+04  0.7818609E-02  0.8187808E-01
       -2   -1    0    0    0  501  0.00000000000E+00  0.00000000000E+00  0.14866212873E+04  0.14866212873E+04  0.25500000920E-02 0. -1.
        2   -1    0    0  501    0  0.00000000000E+00  0.00000000000E+00 -0.17261418446E+04  0.17261418446E+04  0.25500000920E-02 0.  1.
    10030    2    1    2    0    0  0.00000000000E+00  0.00000000000E+00 -0.23952055724E+03  0.32127631319E+04  0.32038222242E+04 0.  0.
        1    1    3    3  502    0 -0.10161445511E+04 -0.10559550148E+03  0.11175465304E+04  0.15141368519E+04  0.50400001928E-02 0. -1.
       -1    1    3    3    0  502  0.10161445511E+04  0.10559550148E+03 -0.13570670877E+04  0.16986262800E+04  0.50400001928E-02 0.  1.
</event>
<event>
 5   0  0.3343140E-08  0.3197211E+04  0.7818609E-02  0.8189554E-01
       -1   -1    0    0    0  501  0.00000000000E+00  0.00000000000E+00  0.21521905403E+04  0.21521905403E+04  0.50400001928E-02 0.  1.
        1   -1    0    0  501    0  0.00000000000E+00  0.00000000000E+00 -0.11874130234E+04  0.11874130234E+04  0.50400001928E-02 0. -1.
    10030    2    1    2    0    0  0.00000000000E+00  0.00000000000E+00  0.96477751689E+03  0.33396035637E+04  0.31972107071E+04 0.  0.
        1    1    3    3  502    0  0.43528452648E+03 -0.75255662788E+03 -0.91889706822E+03  0.12649845529E+04  0.50400001928E-02 0. -1.
       -1    1    3    3    0  502 -0.43528452648E+03  0.75255662788E+03  0.18836745851E+04  0.20746190108E+04  0.50400001928E-02 0.  1.
</event>
<event>
 5   0  0.3283581E-08  0.3199468E+04  0.7818609E-02  0.8188958E-01
       -1   -1    0    0    0  501  0.00000000000E+00  0.00000000000E+00  0.14767131527E+04  0.14767131527E+04  0.50400001928E-02 0.  1.
        1   -1    0    0  501    0  0.00000000000E+00  0.00000000000E+00 -0.17330031958E+04  0.17330031958E+04  0.50400001928E-02 0. -1.
    10030    2    1    2    0    0  0.00000000000E+00  0.00000000000E+00 -0.25629004316E+03  0.32097163485E+04  0.31994678388E+04 0.  0.
        5    1    3    3  502    0 -0.11378954737E+04  0.11241459812E+04 -0.15304845167E+03  0.16068466681E+04  0.46999998093E+01 0. -1.
       -5    1    3    3    0  502  0.11378954737E+04 -0.11241459812E+04 -0.10324159149E+03  0.16028696804E+04  0.46999998093E+01 0.  1.
</event>
<event>
 5   0  0.9329929E-08  0.3198739E+04  0.7818609E-02  0.8189150E-01
       -2   -1    0    0    0  501  0.00000000000E+00  0.00000000000E+00  0.10944993009E+04  0.10944993009E+04  0.25500000920E-02 0.  1.
        2   -1    0    0  501    0  0.00000000000E+00  0.00000000000E+00 -0.23371257323E+04  0.23371257323E+04  0.25500000920E-02 0. -1.
    10030    2    1    2    0    0  0.00000000000E+00  0.00000000000E+00 -0.12426264313E+04  0.34316250332E+04  0.31987388015E+04 0.  0.
        1    1    3    3  502    0 -0.11656322434E+04 -0.10553338043E+04 -0.30752074795E+03  0.16021850630E+04  0.50400001928E-02 0. -1.
       -1    1    3    3    0  502  0.11656322434E+04  0.10553338043E+04 -0.93510568339E+03  0.18294399702E+04  0.50400001928E-02 0.  1.
</event>
<event>
 5   0  0.3283581E-08  0.3200104E+04  0.7818609E-02  0.8188790E-01
       -1   -1    0    0    0  501  0.00000000000E+00  0.00000000000E+00  0.22689337622E+04  0.22689337622E+04  0.50400001928E-02 0.  1.
        1   -1    0    0  501    0  0.00000000000E+00  0.00000000000E+00 -0.11283568126E+04  0.11283568126E+04  0.50400001928E-02 0. -1.
    10030    2    1    2    0    0  0.00000000000E+00  0.00000000000E+00  0.11405769497E+04  0.33972905748E+04  0.32001042908E+04 0.  0.
        5    1    3    3  502    0  0.86580107389E+03  0.79692958048E+03 -0.58069251968E+03  0.13122248848E+04  0.46999998093E+01 0. -1.
       -5    1    3    3    0  502 -0.86580107389E+03 -0.79692958048E+03  0.17212694693E+04  0.20850656901E+04  0.46999998093E+01 0.  1.
</event>
<event>
 5   0  0.3270966E-08  0.3199221E+04  0.7818609E-02  0.8189023E-01
       -1   -1    0    0    0  501  0.00000000000E+00  0.00000000000E+00  0.16269081907E+04  0.16269081907E+04  0.50400001928E-02 0.  1.
        1   -1    0    0  501    0  0.00000000000E+00  0.00000000000E+00 -0.15727707833E+04  0.15727707833E+04  0.50400001928E-02 0. -1.
    10030    2    1    2    0    0  0.00000000000E+00  0.00000000000E+00  0.54137407348E+02  0.31996789740E+04  0.31992209486E+04 0.  0.
        3    1    3    3  502    0  0.15577076840E+04  0.26903736801E+03 -0.21775058326E+03  0.15956972335E+04  0.10100000352E+00 0. -1.
       -3    1    3    3    0  502 -0.15577076840E+04 -0.26903736801E+03  0.27188799061E+03  0.16039817405E+04  0.10100000352E+00 0.  1.
</event>
<event>
 5   0  0.3220147E-08  0.3221930E+04  0.7818609E-02  0.8183049E-01
        1   -1    0    0  501    0  0.00000000000E+00  0.00000000000E+00  0.18062266046E+04  0.18062266046E+04  0.50400001928E-02 0.  1.
       -1   -1    0    0    0  501  0.00000000000E+00  0.00000000000E+00 -0.14368122524E+04  0.14368122524E+04  0.50400001928E-02 0. -1.
    10030    2    1    2    0    0  0.00000000000E+00  0.00000000000E+00  0.36941435220E+03  0.32430388571E+04  0.32219301769E+04 0.  0.
        4    1    3    3  502    0 -0.36671841220E+02 -0.95902755741E+03  0.14870651902E+04  0.17698709480E+04  0.12699999809E+01 0.  1.
       -4    1    3    3    0  502  0.36671841220E+02  0.95902755741E+03 -0.11176508380E+04  0.14731679091E+04  0.12699999809E+01 0. -1.
</event>
<event>
 5   0  0.9157524E-08  0.3201909E+04  0.7818609E-02  0.8188313E-01
       -2   -1    0    0    0  501  0.00000000000E+00  0.00000000000E+00  0.14662215979E+04  0.14662215979E+04  0.25500000920E-02 0. -1.
        2   -1    0    0  501    0  0.00000000000E+00  0.00000000000E+00 -0.17480686455E+04  0.17480686455E+04  0.25500000920E-02 0.  1.
    10030    2    1    2    0    0  0.00000000000E+00  0.00000000000E+00 -0.28184704764E+03  0.32142902434E+04  0.32019094320E+04 0.  0.
        5    1    3    3  502    0  0.16743485513E+03 -0.51111913763E+03  0.13728051699E+04  0.14744128757E+04  0.46999998093E+01 0. -1.
       -5    1    3    3    0  502 -0.16743485513E+03  0.51111913763E+03 -0.16546522175E+04  0.17398773677E+04  0.46999998093E+01 0.  1.
</event>
<event>
 5   0  0.9329929E-08  0.3198706E+04  0.7818609E-02  0.8189159E-01
        2   -1    0    0  501    0  0.00000000000E+00  0.00000000000E+00  0.11866649409E+04  0.11866649409E+04  0.25500000920E-02 0.  1.
       -2   -1    0    0    0  501  0.00000000000E+00  0.00000000000E+00 -0.21555616970E+04  0.21555616970E+04  0.25500000920E-02 0. -1.
    10030    2    1    2    0    0  0.00000000000E+00  0.00000000000E+00 -0.96889675602E+03  0.33422266379E+04  0.31987056719E+04 0.  0.
        1    1    3    3  502    0 -0.36094643730E+03  0.16417506592E+03  0.11344887877E+04  0.12017905776E+04  0.50400001928E-02 0.  1.
       -1    1    3    3    0  502  0.36094643730E+03 -0.16417506592E+03 -0.21033855437E+04  0.21404360603E+04  0.50400001928E-02 0. -1.
</event>
<event>
 5   0  0.3427667E-08  0.3200745E+04  0.7818609E-02  0.8188621E-01
       -1   -1    0    0    0  501  0.00000000000E+00  0.00000000000E+00  0.14448533415E+04  0.14448533415E+04  0.50400001928E-02 0. -1.
        1   -1    0    0  501    0  0.00000000000E+00  0.00000000000E+00 -0.17726309696E+04  0.17726309696E+04  0.50400001928E-02 0.  1.
    10030    2    1    2    0    0  0.00000000000E+00  0.00000000000E+00 -0.32777762812E+03  0.32174843112E+04  0.32007447757E+04 0.  0.
        2    1    3    3  502    0 -0.64316335216E+03 -0.62209392096E+03 -0.14976784364E+04  0.17446204868E+04  0.25500000920E-02 0.  1.
       -2    1    3    3    0  502  0.64316335216E+03  0.62209392096E+03  0.11699008083E+04  0.14728638244E+04  0.25500000920E-02 0. -1.
</event>
<event>
 5   0  0.3283581E-08  0.3197396E+04  0.7818609E-02  0.8189505E-01
       -1   -1    0    0    0  501  0.00000000000E+00  0.00000000000E+00  0.13172453475E+04  0.13172453475E+04  0.50400001928E-02 0. -1.
        1   -1    0    0  501    0  0.00000000000E+00  0.00000000000E+00 -0.19402881089E+04  0.19402881089E+04  0.50400001928E-02 0.  1.
    10030    2    1    2    0    0  0.00000000000E+00  0.00000000000E+00 -0.62304276143E+03  0.32575334564E+04  0.31973961183E+04 0.  0.
        5    1    3    3  502    0  0.13903862716E+04  0.14240107902E+03  0.47919545875E+03  0.14775325476E+04  0.46999998093E+01 0. -1.
       -5    1    3    3    0  502 -0.13903862716E+04 -0.14240107902E+03 -0.11022382202E+04  0.17800009089E+04  0.46999998093E+01 0.  1.
</event>
<event>
 5   0  0.9707721E-08  0.3195234E+04  0.7818609E-02  0.8190077E-01
        2   -1    0    0  501    0  0.00000000000E+00  0.00000000000E+00  0.23153183651E+04  0.23153183651E+04  0.25500000920E-02 0. -1.
       -2   -1    0    0    0  501  0.00000000000E+00  0.00000000000E+00 -0.11023886678E+04  0.11023886678E+04  0.25500000920E-02 0.  1.
    10030    2    1    2    0    0  0.00000000000E+00  0.00000000000E+00  0.12129296973E+04  0.34177070329E+04  0.31952344065E+04 0.  0.
        3    1    3    3  502    0  0.11093761474E+04  0.94810187484E+03 -0.89012871147E+02  0.14620314302E+04  0.10100000352E+00 0.  1.
       -3    1    3    3    0  502 -0.11093761474E+04 -0.94810187484E+03  0.13019425685E+04  0.19556756028E+04  0.10100000352E+00 0. -1.
</event>
<event>
 5   0  0.9329929E-08  0.3201293E+04  0.7818609E-02  0.8188476E-01
       -2   -1    0    0    0  501  0.00000000000E+00  0.00000000000E+00  0.26771071510E+04  0.26771071510E+04  0.25500000920E-02 0.  1.
        2   -1    0    0  501    0  0.00000000000E+00  0.00000000000E+00 -0.95702912547E+03  0.95702912547E+03  0.25500000920E-02 0. -1.
    10030    2    1    2    0    0  0.00000000000E+00  0.00000000000E+00  0.17200780255E+04  0.36341362764E+04  0.32012931859E+04 0.  0.
        1    1    3    3  502    0 -0.13910746121E+04 -0.50469505075E+03  0.15526688367E+04  0.21448977102E+04  0.50400001928E-02 0.  1.
       -1    1    3    3    0  502  0.13910746121E+04  0.50469505075E+03  0.16740918878E+03  0.14892385662E+04  0.50400001928E-02 0. -1.
</event>
<event>
 5   0  0.3080500E-08  0.3200832E+04  0.7818609E-02  0.8188597E-01
        3   -1    0    0  501    0  0.00000000000E+00  0.00000000000E+00  0.14353999165E+04  0.14353999200E+04  0.10100000352E+00 0. -1.
       -3   -1    0    0    0  501  0.00000000000E+00  0.00000000000E+00 -0.17844030488E+04  0.17844030516E+04  0.10100000352E+00 0.  1.
    10030    2    1    2    0    0  0.00000000000E+00  0.00000000000E+00 -0.34900313233E+03  0.32198029717E+04  0.32008323902E+04 0.  0.
        1    1    3    3  502    0 -0.13141704884E+03 -0.11342312397E+04 -0.13025671675E+04  0.17321755603E+04  0.50400001928E-02 0.  1.
       -1    1    3    3    0  502  0.13141704884E+03  0.11342312397E+04  0.95356403512E+03  0.14876274114E+04  0.50400001928E-02 0. -1.
</event>
<event>
 5   0  0.3427667E-08  0.3201662E+04  0.7818609E-02  0.8188378E-01
        1   -1    0    0  501    0  0.00000000000E+00  0.00000000000E+00  0.21506323246E+04  0.21506323246E+04  0.50400001928E-02 0. -1.
       -1   -1    0    0    0  501  0.00000000000E+00  0.00000000000E+00 -0.11915840752E+04  0.11915840752E+04  0.50400001928E-02 0.  1.
    10030    2    1    2    0    0  0.00000000000E+00  0.00000000000E+00  0.95904824942E+03  0.33422163998E+04  0.32016615872E+04 0.  0.
        2    1    3    3  502    0 -0.95393676792E+02  0.13081006209E+04 -0.47861059714E+03  0.13961716555E+04  0.25500000920E-02 0.  1.
       -2    1    3    3    0  502  0.95393676792E+02 -0.13081006209E+04  0.14376588466E+04  0.19460447443E+04  0.25500000920E-02 0. -1.
</event>
<event>
 5   0  0.3283581E-08  0.3199224E+04  0.7818609E-02  0.8189022E-01
       -1   -1    0    0    0  501  0.00000000000E+00  0.00000000000E+00  0.17698810995E+04  0.17698810995E+04  0.50400001928E-02 0.  1.
        1   -1    0    0  501    0  0.00000000000E+00  0.00000000000E+00 -0.14457235891E+04  0.14457235891E+04  0.50400001928E-02 0. -1.
    10030    2    1    2    0    0  0.00000000000E+00  0.00000000000E+00  0.32415751044E+03  0.32156046886E+04  0.31992241906E+04 0.  0.
        5    1    3    3  502    0  0.11927300719E+04  0.54654199144E+03  0.10818727595E+04  0.17005246045E+04  0.46999998093E+01 0.  1.
       -5    1    3    3    0  502 -0.11927300719E+04 -0.54654199144E+03 -0.75771524902E+03  0.15150800841E+04  0.46999998093E+01 0. -1.
</event>
<event>
 5   0  0.3427667E-08  0.3200849E+04  0.7818609E-02  0.8188593E-01
       -1   -1    0    0    0  501  0.00000000000E+00  0.00000000000E+00  0.20388329160E+04  0.20388329160E+04  0.50400001928E-02 0. -1.
        1   -1    0    0  501    0  0.00000000000E+00  0.00000000000E+00 -0.12562869213E+04  0.12562869213E+04  0.50400001928E-02 0.  1.
    10030    2    1    2    0    0  0.00000000000E+00  0.00000000000E+00  0.78254599475E+03  0.32951198373E+04  0.32008493417E+04 0.  0.
        2    1    3    3  502    0  0.43400948262E+03  0.13292290384E+04  0.11927559057E+04  0.18379011720E+04  0.25500000920E-02 0. -1.
       -2    1    3    3    0  502 -0.43400948262E+03 -0.13292290384E+04 -0.41020991095E+03  0.14572186653E+04  0.25500000920E-02 0.  1.
</event>
<event>
 5   0  0.3283581E-08  0.3203094E+04  0.7818609E-02  0.8188001E-01
        1   -1    0    0  501    0  0.00000000000E+00  0.00000000000E+00  0.99342639357E+03  0.99342639358E+03  0.50400001928E-02 0. -1.
       -1   -1    0    0    0  501  0.00000000000E+00  0.00000000000E+00 -0.25819252447E+04  0.25819252447E+04  0.50400001928E-02 0.  1.
    10030    2    1    2    0    0  0.00000000000E+00  0.00000000000E+00 -0.15884988511E+04  0.35753516382E+04  0.32030939320E+04 0.  0.
        5    1    3    3  502    0  0.12996730444E+04  0.39611982295E+03 -0.17406481870E+04  0.22081528791E+04  0.46999998093E+01 0.  1.
       -5    1    3    3    0  502 -0.12996730444E+04 -0.39611982295E+03  0.15214933594E+03  0.13671987591E+04  0.46999998093E+01 0. -1.
</event>
<event>
 5   0  0.3427667E-08  0.3189938E+04  0.7818609E-02  0.8191480E-01
        1   -1    0    0  501    0  0.00000000000E+00  0.00000000000E+00  0.15552502057E+04  0.15552502057E+04  0.50400001928E-02 0.  1.
       -1   -1    0    0    0  501  0.00000000000E+00  0.00000000000E+00 -0.16357019956E+04  0.16357019956E+04  0.50400001928E-02 0. -1.
    10030    2    1    2    0    0  0.00000000000E+00  0.00000000000E+00 -0.80451789962E+02  0.31909522013E+04  0.31899378459E+04 0.  0.
        2    1    3    3  502    0  0.10999219602E+04  0.55676035317E+03  0.97208179928E+03  0.15699533222E+04  0.25500000920E-02 0.  1.
       -2    1    3    3    0  502 -0.10999219602E+04 -0.55676035317E+03 -0.10525335892E+04  0.16209988791E+04  0.25500000920E-02 0. -1.
</event>
<event>
 5   0  0.9707721E-08  0.3204810E+04  0.7818609E-02  0.8187548E-01
        2   -1    0    0  501    0  0.00000000000E+00  0.00000000000E+00  0.20926306564E+04  0.20926306564E+04  0.25500000920E-02 0. -1.
       -2   -1    0    0    0  501  0.00000000000E+00  0.00000000000E+00 -0.12270206479E+04  0.12270206479E+04  0.25500000920E-02 0.  1.
    10030    2    1    2    0    0  0.00000000000E+00  0.00000000000E+00  0.86561000845E+03  0.33196513043E+04  0.32048095256E+04 0.  0.
        3    1    3    3  502    0 -0.13095463973E+04 -0.67598001183E+03  0.10845087729E+04  0.18297595557E+04  0.10100000352E+00 0.  1.
       -3    1    3    3    0  502  0.13095463973E+04  0.67598001183E+03 -0.21889876443E+03  0.14898917486E+04  0.10100000352E+00 0. -1.
</event>
<event>
 5   0  0.9353994E-08  0.3200214E+04  0.7818609E-02  0.8188761E-01
       -2   -1    0    0    0  501  0.00000000000E+00  0.00000000000E+00  0.20524005360E+04  0.20524005360E+04  0.25500000920E-02 0.  1.
        2   -1    0    0  501    0  0.00000000000E+00  0.00000000000E+00 -0.12474864970E+04  0.12474864970E+04  0.25500000920E-02 0. -1.
    10030    2    1    2    0    0  0.00000000000E+00  0.00000000000E+00  0.80491403900E+03  0.32998870331E+04  0.32002137149E+04 0.  0.
        2    1    3    3  502    0  0.25358950595E+02  0.93458250136E+02 -0.12444621797E+04  0.12482241936E+04  0.25500000920E-02 0. -1.
       -2    1    3    3    0  502 -0.25358950595E+02 -0.93458250136E+02  0.20493762187E+04  0.20516628394E+04  0.25500000920E-02 0.  1.
</event>
<event>
 5   0  0.9329929E-08  0.3199604E+04  0.7818609E-02  0.8188922E-01
       -2   -1    0    0    0  501  0.00000000000E+00  0.00000000000E+00  0.10544370824E+04  0.10544370824E+04  0.25500000920E-02 0. -1.
        2   -1    0    0  501    0  0.00000000000E+00  0.00000000000E+00 -0.24272343993E+04  0.24272343993E+04  0.25500000920E-02 0.  1.
    10030    2    1    2    0    0  0.00000000000E+00  0.00000000000E+00 -0.13727973169E+04  0.34816714817E+04  0.31996036994E+04 0.  0.
        1    1    3    3  502    0  0.10355100349E+04 -0.10886083047E+03  0.63526848208E+03  0.12197121616E+04  0.50400001928E-02 0. -1.
       -1    1    3    3    0  502 -0.10355100349E+04  0.10886083047E+03 -0.20080657990E+04  0.22619593201E+04  0.50400001928E-02 0.  1.
</event>
<event>
 5   0  0.3427667E-08  0.3201963E+04  0.7818609E-02  0.8188299E-01
       -1   -1    0    0    0  501  0.00000000000E+00  0.00000000000E+00  0.16404106315E+04  0.16404106315E+04  0.50400001928E-02 0. -1.
        1   -1    0    0  501    0  0.00000000000E+00  0.00000000000E+00 -0.15625003325E+04  0.15625003325E+04  0.50400001928E-02 0.  1.
    10030    2    1    2    0    0  0.00000000000E+00  0.00000000000E+00  0.77910299009E+02  0.32029109639E+04  0.32019632459E+04 0.  0.
        2    1    3    3  502    0  0.12387994692E+04 -0.95567000383E+03 -0.30057553767E+03  0.15931964521E+04  0.25500000920E-02 0.  1.
       -2    1    3    3    0  502 -0.12387994692E+04  0.95567000383E+03  0.37848583668E+03  0.16097145118E+04  0.25500000920E-02 0. -1.
</event>
<event>
 5   0  0.9727083E-08  0.3199085E+04  0.7818609E-02  0.8189059E-01
        2   -1    0    0  501    0  0.00000000000E+00  0.00000000000E+00  0.15452959290E+04  0.15452959290E+04  0.25500000920E-02 0.  1.
       -2   -1    0    0    0  501  0.00000000000E+00  0.00000000000E+00 -0.16556935626E+04  0.16556935626E+04  0.25500000920E-02 0. -1.
    10030    2    1    2    0    0  0.00000000000E+00  0.00000000000E+00 -0.11039763367E+03  0.32009894916E+04  0.31990851955E+04 0.  0.
        4    1    3    3  502    0 -0.64385689689E+02 -0.15956431760E+04 -0.14642461193E+03  0.16036409954E+04  0.12699999809E+01 0. -1.
       -4    1    3    3    0  502  0.64385689689E+02  0.15956431760E+04  0.36026978256E+02  0.15973484962E+04  0.12699999809E+01 0.  1.
</event>
<event>
 5   0  0.3343140E-08  0.3199662E+04  0.7818609E-02  0.8188906E-01
        1   -1    0    0  501    0  0.00000000000E+00  0.00000000000E+00  0.16018204823E+04  0.16018204823E+04  0.50400001928E-02 0.  1.
       -1   -1    0    0    0  501  0.00000000000E+00  0.00000000000E+00 -0.15978441071E+04  0.15978441071E+04  0.50400001928E-02 0. -1.
    10030    2    1    2    0    0  0.00000000000E+00  0.00000000000E+00  0.39763752086E+01  0.31996645894E+04  0.31996621185E+04 0.  0.
        1    1    3    3  502    0 -0.40054452845E+03 -0.73477674777E+03  0.13654871796E+04  0.16015267797E+04  0.50400001928E-02 0.  1.
       -1    1    3    3    0  502  0.40054452845E+03  0.73477674777E+03 -0.13615108044E+04  0.15981378097E+04  0.50400001928E-02 0. -1.
</event>
<event>
 5   0  0.3220147E-08  0.3200663E+04  0.7818609E-02  0.8188642E-01
       -1   -1    0    0    0  501  0.00000000000E+00  0.00000000000E+00  0.89075272749E+03  0.89075272750E+03  0.50400001928E-02 0.  1.
        1   -1    0    0  501    0  0.00000000000E+00  0.00000000000E+00 -0.28751644904E+04  0.28751644904E+04  0.50400001928E-02 0. -1.
    10030    2    1    2    0    0  0.00000000000E+00  0.00000000000E+00 -0.19844117629E+04  0.37659172179E+04  0.32006628138E+04 0.  0.
        4    1    3    3  502    0 -0.83263428537E+03 -0.64251429138E+02 -0.25984558298E+04  0.27293556770E+04  0.12699999809E+01 0. -1.
       -4    1    3    3    0  502  0.83263428537E+03  0.64251429138E+02  0.61404406682E+03  0.10365615410E+04  0.12699999809E+01 0.  1.
</event>
<event>
 5   0  0.9707721E-08  0.3198699E+04  0.7818609E-02  0.8189161E-01
       -2   -1    0    0    0  501  0.00000000000E+00  0.00000000000E+00  0.17378497119E+04  0.17378497119E+04  0.25500000920E-02 0.  1.
        2   -1    0    0  501    0  0.00000000000E+00  0.00000000000E+00 -0.14718874598E+04  0.14718874598E+04  0.25500000920E-02 0. -1.
    10030    2    1    2    0    0  0.00000000000E+00  0.00000000000E+00  0.26596225208E+03  0.32097371716E+04  0.31986992343E+04 0.  0.
        3    1    3    3  502    0 -0.14910781249E+04 -0.54141455683E+03 -0.71376962752E+02  0.15879352562E+04  0.10100000352E+00 0. -1.
       -3    1    3    3    0  502  0.14910781249E+04  0.54141455683E+03  0.33733921483E+03  0.16218019154E+04  0.10100000352E+00 0.  1.
</event>
<event>
 5   0  0.3283581E-08  0.3201221E+04  0.7818609E-02  0.8188495E-01
       -1   -1    0    0    0  501  0.00000000000E+00  0.00000000000E+00  0.20903463155E+04  0.20903463155E+04  0.50400001928E-02 0. -1.
        1   -1    0    0  501    0  0.00000000000E+00  0.00000000000E+00 -0.12256119820E+04  0.12256119820E+04  0.50400001928E-02 0.  1.
    10030    2    1    2    0    0  0.00000000000E+00  0.00000000000E+00  0.86473433355E+03  0.33159582975E+04  0.32012206990E+04 0.  0.
        5    1    3    3  502    0  0.15288932708E+04 -0.21323944024E+03  0.87054871709E+03  0.17722479655E+04  0.46999998093E+01 0. -1.
       -5    1    3    3    0  502 -0.15288932708E+04  0.21323944024E+03 -0.58143835468E+01  0.15437103321E+04  0.46999998093E+01 0.  1.
</event>
<event>
 5   0  0.9707721E-08  0.3198803E+04  0.7818609E-02  0.8189133E-01
       -2   -1    0    0    0  501  0.00000000000E+00  0.00000000000E+00  0.12958223128E+04  0.12958223128E+04  0.25500000920E-02 0. -1.
        2   -1    0    0  501    0  0.00000000000E+00  0.00000000000E+00 -0.19741014511E+04  0.19741014511E+04  0.25500000920E-02 0.  1.
    10030    2    1    2    0    0  0.00000000000E+00  0.00000000000E+00 -0.67827913825E+03  0.32699237639E+04  0.31988027185E+04 0.  0.
        3    1    3    3  502    0  0.12399858608E+04 -0.10078355104E+04 -0.40986858489E+03  0.16496331768E+04  0.10100000352E+00 0.  1.
       -3    1    3    3    0  502 -0.12399858608E+04  0.10078355104E+04 -0.26841055336E+03  0.16202905870E+04  0.10100000352E+00 0. -1.
</event>
<event>
 5   0  0.3220147E-08  0.3200305E+04  0.7818609E-02  0.8188737E-01
       -1   -1    0    0    0  501  0.00000000000E+00  0.00000000000E+00  0.21910636339E+04  0.21910636339E+04  0.50400001928E-02 0. -1.
        1   -1    0    0  501    0  0.00000000000E+00  0.00000000000E+00 -0.11686052026E+04  0.11686052026E+04  0.50400001928E-02 0.  1.
    10030    2    1    2    0    0  0.00000000000E+00  0.00000000000E+00  0.10224584313E+04  0.33596688365E+04  0.32003052116E+04 0.  0.
        4    1    3    3  502    0  0.48352213490E+02  0.15568591410E+04  0.89600275859E+03  0.17969337433E+04  0.12699999809E+01 0.  1.
       -4    1    3    3    0  502 -0.48352213490E+02 -0.15568591410E+04  0.12645567267E+03  0.15627350932E+04  0.12699999809E+01 0. -1.
</event>
<event>
 5   0  0.3283581E-08  0.3200225E+04  0.7818609E-02  0.8188758E-01
        1   -1    0    0  501    0  0.00000000000E+00  0.00000000000E+00  0.16258328669E+04  0.16258328669E+04  0.50400001928E-02 0. -1.
       -1   -1    0    0    0  501  0.00000000000E+00  0.00000000000E+00 -0.15747991407E+04  0.15747991407E+04  0.50400001928E-02 0.  1.
    10030    2    1    2    0    0  0.00000000000E+00  0.00000000000E+00  0.51033726212E+02  0.32006320076E+04  0.32002251181E+04 0.  0.
        5    1    3    3  502    0  0.26712158253E+03  0.15654786105E+04 -0.17011192242E+03  0.15971967243E+04  0.46999998093E+01 0.  1.
       -5    1    3    3    0  502 -0.26712158253E+03 -0.15654786105E+04  0.22114564863E+03  0.16034352833E+04  0.46999998093E+01 0. -1.
</event>
<event>
 5   0  0.9157524E-08  0.3201365E+04  0.7818609E-02  0.8188457E-01
        2   -1    0    0  501    0  0.00000000000E+00  0.00000000000E+00  0.14856786299E+04  0.14856786299E+04  0.25500000920E-02 0. -1.
       -2   -1    0    0    0  501  0.00000000000E+00  0.00000000000E+00 -0.17245883321E+04  0.17245883321E+04  0.25500000920E-02 0.  1.
    10030    2    1    2    0    0  0.00000000000E+00  0.00000000000E+00 -0.23890970222E+03  0.32102669620E+04  0.32013647280E+04 0.  0.
        5    1    3    3  502    0 -0.15587373305E+04  0.69233380856E+02 -0.47780920760E+03  0.16318023947E+04  0.46999998093E+01 0.  1.
       -5    1    3    3    0  502  0.15587373305E+04 -0.69233380856E+02  0.23889950538E+03  0.15784645673E+04  0.46999998093E+01 0. -1.
</event>
<event>
 5   0  0.3343140E-08  0.3196414E+04  0.7818609E-02  0.8189765E-01
       -1   -1    0    0    0  501  0.00000000000E+00  0.00000000000E+00  0.21325456760E+04  0.21325456760E+04  0.50400001928E-02 0.  1.
        1   -1    0    0  501    0  0.00000000000E+00  0.00000000000E+00 -0.11977543609E+04  0.11977543610E+04  0.50400001928E-02 0. -1.
    10030    2    1    2    0    0  0.00000000000E+00  0.00000000000E+00  0.93479131503E+03  0.33303000369E+04  0.31964141680E+04 0.  0.
        1    1    3    3  502    0  0.14686748260E+04  0.62977332358E+03  0.49387063726E+03  0.16725813552E+04  0.50400001928E-02 0.  1.
       -1    1    3    3    0  502 -0.14686748260E+04 -0.62977332358E+03  0.44092067777E+03  0.16577186817E+04  0.50400001928E-02 0. -1.
</event>
<event>
 5   0  0.9157524E-08  0.3198897E+04  0.7818609E-02  0.8189108E-01
       -2   -1    0    0    0  501  0.00000000000E+00  0.00000000000E+00  0.12946193793E+04  0.12946193793E+04  0.25500000920E-02 0. -1.
        2   -1    0    0  501    0  0.00000000000E+00  0.00000000000E+00 -0.19760527796E+04  0.19760527797E+04  0.25500000920E-02 0.  1.
    10030    2    1    2    0    0  0.00000000000E+00  0.00000000000E+00 -0.68143340031E+03  0.32706721590E+04  0.31988974495E+04 0.  0.
        5    1    3    3  502    0  0.77806487744E+03  0.67528751998E+02 -0.17678388997E+04  0.19326721272E+04  0.46999998093E+01 0.  1.
       -5    1    3    3    0  502 -0.77806487744E+03 -0.67528751998E+02  0.10864054994E+04  0.13380000318E+04  0.46999998093E+01 0. -1.
</event>
<event>
 5   0  0.3427667E-08  0.3198336E+04  0.7818609E-02  0.8189257E-01
        1   -1    0    0  501    0  0.00000000000E+00  0.00000000000E+00  0.11923390941E+04  0.11923390941E+04  0.50400001928E-02 0. -1.
       -1   -1    0    0    0  501  0.00000000000E+00  0.00000000000E+00 -0.21448073342E+04  0.21448073342E+04  0.50400001928E-02 0.  1.
    10030    2    1    2    0    0  0.00000000000E+00  0.00000000000E+00 -0.95246824016E+03  0.33371464283E+04  0.31983355883E+04 0.  0.
        2    1    3    3  502    0 -0.92675532864E+03  0.66349092078E+03 -0.16466314444E+04  0.20026209713E+04  0.25500000920E-02 0.  1.
       -2    1    3    3    0  502  0.92675532864E+03 -0.66349092078E+03  0.69416320424E+03  0.13345254570E+04  0.25500000920E-02 0. -1.
</event>
<event>
 5   0  0.3270966E-08  0.3205415E+04  0.7818609E-02  0.8187389E-01
        1   -1    0    0  501    0  0.00000000000E+00  0.00000000000E+00  0.25023248224E+04  0.25023248224E+04  0.50400001928E-02 0. -1.
       -1   -1    0    0    0  501  0.00000000000E+00  0.00000000000E+00 -0.10265138345E+04  0.10265138345E+04  0.50400001928E-02 0.  1.
    10030    2    1    2    0    0  0.00000000000E+00  0.00000000000E+00  0.14758109879E+04  0.35288386569E+04  0.32054148241E+04 0.  0.
        3    1    3    3  502    0 -0.46153997162E+03 -0.15191260753E+04  0.97886881947E+03  0.18651936506E+04  0.10100000352E+00 0. -1.
       -3    1    3    3    0  502  0.46153997162E+03  0.15191260753E+04  0.49694216840E+03  0.16636450063E+04  0.10100000352E+00 0.  1.
</event>
<event>
 5   0  0.3283581E-08  0.3185937E+04  0.7818609E-02  0.8192541E-01
        1   -1    0    0  501    0  0.00000000000E+00  0.00000000000E+00  0.19275849639E+04  0.19275849639E+04  0.50400001928E-02 0.  1.
       -1   -1    0    0    0  501  0.00000000000E+00  0.00000000000E+00 -0.13164396350E+04  0.13164396350E+04  0.50400001928E-02 0. -1.
    10030    2    1    2    0    0  0.00000000000E+00  0.00000000000E+00  0.61114532883E+03  0.32440245989E+04  0.31859373794E+04 0.  0.
        5    1    3    3  502    0  0.12862788498E+04 -0.83640703331E+03  0.74167714880E+03  0.17041704984E+04  0.46999998093E+01 0. -1.
       -5    1    3    3    0  502 -0.12862788498E+04  0.83640703331E+03 -0.13053181997E+03  0.15398541005E+04  0.46999998093E+01 0.  1.
</event>
<event>
 5   0  0.9353994E-08  0.3200207E+04  0.7818609E-02  0.8188763E-01
        2   -1    0    0  501    0  0.00000000000E+00  0.00000000000E+00  0.27618121272E+04  0.27618121272E+04  0.25500000920E-02 0. -1.
       -2   -1    0    0    0  501  0.00000000000E+00  0.00000000000E+00 -0.92704735895E+03  0.92704735895E+03  0.25500000920E-02 0.  1.
    10030    2    1    2    0    0  0.00000000000E+00  0.00000000000E+00  0.18347647683E+04  0.36888594862E+04  0.32002066424E+04 0.  0.
        2    1    3    3  502    0 -0.15803743677E+04  0.20302963497E+03  0.10865045126E+04  0.19285476999E+04  0.25500000920E-02 0.  1.
       -2    1    3    3    0  502  0.15803743677E+04 -0.20302963497E+03  0.74826025562E+03  0.17603117863E+04  0.25500000920E-02 0. -1.
</event>
<event>
 5   0  0.9329929E-08  0.3200231E+04  0.7818609E-02  0.8188756E-01
       -2   -1    0    0    0  501  0.00000000000E+00  0.00000000000E+00  0.12153448357E+04  0.12153448357E+04  0.25500000920E-02 0. -1.
        2   -1    0    0  501    0  0.00000000000E+00  0.00000000000E+00 -0.21067017727E+04  0.21067017727E+04  0.25500000920E-02 0.  1.
    10030    2    1    2    0    0  0.00000000000E+00  0.00000000000E+00 -0.89135693697E+03  0.33220466083E+04  0.32002306915E+04 0.  0.
        1    1    3    3  502    0 -0.12303861974E+04 -0.82044622060E+03 -0.10799920172E+04  0.18312195261E+04  0.50400001928E-02 0. -1.
       -1    1    3    3    0  502  0.12303861974E+04  0.82044622060E+03  0.18863508025E+03  0.14908270822E+04  0.50400001928E-02 0.  1.
</event>
<event>
 5   0  0.3343140E-08  0.3193154E+04  0.7818609E-02  0.8190628E-01
        1   -1    0    0  501    0  0.00000000000E+00  0.00000000000E+00  0.18098993050E+04  0.18098993051E+04  0.50400001928E-02 0. -1.
       -1   -1    0    0    0  501  0.00000000000E+00  0.00000000000E+00 -0.14083976723E+04  0.14083976723E+04  0.50400001928E-02 0.  1.
    10030    2    1    2    0    0  0.00000000000E+00  0.00000000000E+00  0.40150163277E+03  0.32182969773E+04  0.31931539069E+04 0.  0.
        1    1    3    3  502    0  0.38207044747E+03  0.12045929705E+04  0.11841569943E+04  0.17318342411E+04  0.50400001928E-02 0. -1.
       -1    1    3    3    0  502 -0.38207044747E+03 -0.12045929705E+04 -0.78265536154E+03  0.14864627363E+04  0.50400001928E-02 0.  1.
</event>
<event>
 5   0  0.3270966E-08  0.3201286E+04  0.7818609E-02  0.8188478E-01
        1   -1    0    0  501    0  0.00000000000E+00  0.00000000000E+00  0.19108064205E+04  0.19108064205E+04  0.50400001928E-02 0.  1.
       -1   -1    0    0    0  501  0.00000000000E+00  0.00000000000E+00 -0.13408255169E+04  0.13408255169E+04  0.50400001928E-02 0. -1.
    10030    2    1    2    0    0  0.00000000000E+00  0.00000000000E+00  0.56998090356E+03  0.32516319374E+04  0.32012859957E+04 0.  0.
        3    1    3    3  502    0 -0.24020315408E+02  0.84328155480E+03  0.16666616280E+04  0.18680101040E+04  0.10100000352E+00 0.  1.
       -3    1    3    3    0  502  0.24020315408E+02 -0.84328155480E+03 -0.10966807245E+04  0.13836218334E+04  0.10100000352E+00 0. -1.
</event>
<event>
 5   0  0.3270966E-08  0.3203357E+04  0.7818609E-02  0.8187931E-01
        1   -1    0    0  501    0  0.00000000000E+00  0.00000000000E+00  0.15663337860E+04  0.15663337860E+04  0.50400001928E-02 0.  1.
       -1   -1    0    0    0  501  0.00000000000E+00  0.00000000000E+00 -0.16378211602E+04  0.16378211602E+04  0.50400001928E-02 0. -1.
    10030    2    1    2    0    0  0.00000000000E+00  0.00000000000E+00 -0.71487374201E+02  0.32041549461E+04  0.32033573753E+04 0.  0.
        3    1    3    3  502    0 -0.11742528357E+04  0.77481688476E+03 -0.80154758062E+03  0.16191631978E+04  0.10100000352E+00 0. -1.
       -3    1    3    3    0  502  0.11742528357E+04 -0.77481688476E+03  0.73006020642E+03  0.15849917483E+04  0.10100000352E+00 0.  1.
</event>
<event>
 5   0  0.3220147E-08  0.3199363E+04  0.7818609E-02  0.8188985E-01
        1   -1    0    0  501    0  0.00000000000E+00  0.00000000000E+00  0.29027620038E+04  0.29027620038E+04  0.50400001928E-02 0. -1.
       -1   -1    0    0    0  501  0.00000000000E+00  0.00000000000E+00 -0.88156768444E+03  0.88156768446E+03  0.50400001928E-02 0.  1.
    10030    2    1    2    0    0  0.00000000000E+00  0.00000000000E+00  0.20211943193E+04  0.37843296882E+04  0.31993631730E+04 0.  0.
        4    1    3    3  502    0 -0.57504544633E+03  0.11254726375E+04  0.21705110021E+04  0.25116698721E+04  0.12699999809E+01 0. -1.
       -4    1    3    3    0  502  0.57504544633E+03 -0.11254726375E+04 -0.14931668277E+03  0.12726598162E+04  0.12699999809E+01 0.  1.
</event>
<event>
 5   0  0.9329929E-08  0.3200246E+04  0.7818609E-02  0.8188752E-01
       -2   -1    0    0    0  501  0.00000000000E+00  0.00000000000E+00  0.16178158877E+04  0.16178158877E+04  0.25500000920E-02 0. -1.
        2   -1    0    0  501    0  0.00000000000E+00  0.00000000000E+00 -0.15826235203E+04  0.15826235203E+04  0.25500000920E-02 0.  1.
    10030    2    1    2    0    0  0.00000000000E+00  0.00000000000E+00  0.35192367406E+02  0.32004394080E+04  0.32002459126E+04 0.  0.
        1    1    3    3  502    0  0.12635538038E+04  0.39664242324E+03  0.91570395982E+03  0.16100953913E+04  0.50400001928E-02 0. -1.
       -1    1    3    3    0  502 -0.12635538038E+04 -0.39664242324E+03 -0.88051159241E+03  0.15903440167E+04  0.50400001928E-02 0.  1.
</event>
<event>
 5   0  0.9707721E-08  0.3201430E+04  0.7818609E-02  0.8188440E-01
        2   -1    0    0  501    0  0.00000000000E+00  0.00000000000E+00  0.21042775065E+04  0.21042775065E+04  0.25500000920E-02 0. -1.
       -2   -1    0    0    0  501  0.00000000000E+00  0.00000000000E+00 -0.12176572893E+04  0.12176572893E+04  0.25500000920E-02 0.  1.
    10030    2    1    2    0    0  0.00000000000E+00  0.00000000000E+00  0.88662021717E+03  0.33219347958E+04  0.32014302082E+04 0.  0.
        3    1    3    3  502    0  0.45444957737E+03 -0.13772302550E+04 -0.25968773826E+03  0.14733381571E+04  0.10100000352E+00 0. -1.
       -3    1    3    3    0  502 -0.45444957737E+03  0.13772302550E+04  0.11463079554E+04  0.18485966387E+04  0.10100000352E+00 0.  1.
</event>
<event>
 5   0  0.3270966E-08  0.3201532E+04  0.7818609E-02  0.8188413E-01
       -1   -1    0    0    0  501  0.00000000000E+00  0.00000000000E+00  0.11957023595E+04  0.11957023595E+04  0.50400001928E-02 0. -1.
        1   -1    0    0  501    0  0.00000000000E+00  0.00000000000E+00 -0.21430520729E+04  0.21430520729E+04  0.50400001928E-02 0.  1.
    10030    2    1    2    0    0  0.00000000000E+00  0.00000000000E+00 -0.94734971337E+03  0.33387544324E+04  0.32015323957E+04 0.  0.
        3    1    3    3  502    0 -0.14046708743E+04 -0.49944867277E+03  0.13432598875E+03  0.14968609565E+04  0.10100000352E+00 0.  1.
       -3    1    3    3    0  502  0.14046708743E+04  0.49944867277E+03 -0.10816757021E+04  0.18418934759E+04  0.10100000352E+00 0. -1.
</event>
<event>
 5   0  0.9727083E-08  0.3200085E+04  0.7818609E-02  0.8188795E-01
        2   -1    0    0  501    0  0.00000000000E+00  0.00000000000E+00  0.18487852012E+04  0.18487852012E+04  0.25500000920E-02 0.  1.
       -2   -1    0    0    0  501  0.00000000000E+00  0.00000000000E+00 -0.13847666879E+04  0.13847666879E+04  0.25500000920E-02 0. -1.
    10030    2    1    2    0    0  0.00000000000E+00  0.00000000000E+00  0.46401851326E+03  0.32335518891E+04  0.32000850987E+04 0.  0.
        4    1    3    3  502    0 -0.31504810786E+03  0.12818707081E+04  0.11457264148E+04  0.17478954354E+04  0.12699999809E+01 0.  1.
       -4    1    3    3    0  502  0.31504810786E+03 -0.12818707081E+04 -0.68170790159E+03  0.14856564537E+04  0.12699999809E+01 0. -1.
</event>
<event>
 5   0  0.3270966E-08  0.3200096E+04  0.7818609E-02  0.8188792E-01
       -1   -1    0    0    0  501  0.00000000000E+00  0.00000000000E+00  0.13687302331E+04  0.13687302331E+04  0.50400001928E-02 0.  1.
        1   -1    0    0  501    0  0.00000000000E+00  0.00000000000E+00 -0.18704591756E+04  0.18704591756E+04  0.50400001928E-02 0. -1.
    10030    2    1    2    0    0  0.00000000000E+00  0.00000000000E+00 -0.50172894254E+03  0.32391894087E+04  0.32000962632E+04 0.  0.
        3    1    3    3  502    0 -0.13077654790E+04 -0.27744495423E+03  0.63903870005E+03  0.14817546090E+04  0.10100000352E+00 0.  1.
       -3    1    3    3    0  502  0.13077654790E+04  0.27744495423E+03 -0.11407676426E+04  0.17574347998E+04  0.10100000352E+00 0. -1.
</event>
<event>
 5   0  0.3270966E-08  0.3200293E+04  0.7818609E-02  0.8188740E-01
       -1   -1    0    0    0  501  0.00000000000E+00  0.00000000000E+00  0.19853535009E+04  0.19853535010E+04  0.50400001928E-02 0.  1.
        1   -1    0    0  501    0  0.00000000000E+00  0.00000000000E+00 -0.12896792495E+04  0.12896792495E+04  0.50400001928E-02 0. -1.
    10030    2    1    2    0    0  0.00000000000E+00  0.00000000000E+00  0.69567425142E+03  0.32750327505E+04  0.32002932448E+04 0.  0.
        3    1    3    3  502    0  0.14575480914E+04  0.16893430190E+03 -0.30541545592E+03  0.14987540985E+04  0.10100000352E+00 0.  1.
       -3    1    3    3    0  502 -0.14575480914E+04 -0.16893430190E+03  0.10010897073E+04  0.17762786519E+04  0.10100000352E+00 0. -1.
</event>
<event>
 5   0  0.9157524E-08  0.3200978E+04  0.7818609E-02  0.8188559E-01
        2   -1    0    0  501    0  0.00000000000E+00  0.00000000000E+00  0.13265159540E+04  0.13265159540E+04  0.25500000920E-02 0. -1.
       -2   -1    0    0    0  501  0.00000000000E+00  0.00000000000E+00 -0.19310469533E+04  0.19310469533E+04  0.25500000920E-02 0.  1.
    10030    2    1    2    0    0  0.00000000000E+00  0.00000000000E+00 -0.60453099939E+03  0.32575629073E+04  0.32009777203E+04 0.  0.
        5    1    3    3  502    0 -0.90728696557E+03 -0.26944581209E+03  0.10111977171E+04  0.13850319840E+04  0.46999998093E+01 0. -1.
       -5    1    3    3    0  502  0.90728696557E+03  0.26944581209E+03 -0.16157287165E+04  0.18725309233E+04  0.46999998093E+01 0.  1.
</event>
<event>
 5   0  0.3220147E-08  0.3199999E+04  0.7818609E-02  0.8188817E-01
       -1   -1    0    0    0  501  0.00000000000E+00  0.00000000000E+00  0.23512434475E+04  0.23512434475E+04  0.50400001928E-02 0. -1.
        1   -1    0    0  501    0  0.00000000000E+00  0.00000000000E+00 -0.10887852062E+04  0.10887852062E+04  0.50400001928E-02 0.  1.
    10030    2    1    2    0    0  0.00000000000E+00  0.00000000000E+00  0.12624582414E+04  0.34400286537E+04  0.31999994261E+04 0.  0.
        4    1    3    3  502    0  0.76243532964E+03 -0.91040324199E+03  0.17839757069E+04  0.21430615089E+04  0.12699999809E+01 0. -1.
       -4    1    3    3    0  502 -0.76243532964E+03  0.91040324199E+03 -0.52151746559E+03  0.12969671448E+04  0.12699999809E+01 0.  1.
</event>
<event>
 5   0  0.3270966E-08  0.3200148E+04  0.7818609E-02  0.8188778E-01
        1   -1    0    0  501    0  0.00000000000E+00  0.00000000000E+00  0.17318923365E+04  0.17318923365E+04  0.50400001928E-02 0.  1.
       -1   -1    0    0    0  501  0.00000000000E+00  0.00000000000E+00 -0.14782883851E+04  0.14782883851E+04  0.50400001928E-02 0. -1.
    10030    2    1    2    0    0  0.00000000000E+00  0.00000000000E+00  0.25360395133E+03  0.32101807216E+04  0.32001476999E+04 0.  0.
        3    1    3    3  502    0  0.31158105277E+03  0.20815686149E+03 -0.14336534745E+04  0.14818145385E+04  0.10100000352E+00 0. -1.
       -3    1    3    3    0  502 -0.31158105277E+03 -0.20815686149E+03  0.16872574259E+04  0.17283661831E+04  0.10100000352E+00 0.  1.
</event>
<event>
 5   0  0.9353994E-08  0.3199827E+04  0.7818609E-02  0.8188863E-01
       -2   -1    0    0    0  501  0.00000000000E+00  0.00000000000E+00  0.88357467693E+03  0.88357467693E+03  0.25500000920E-02 0.  1.
        2   -1    0    0  501    0  0.00000000000E+00  0.00000000000E+00 -0.28970082527E+04  0.28970082527E+04  0.25500000920E-02 0. -1.
    10030    2    1    2    0    0  0.00000000000E+00  0.00000000000E+00 -0.20134335757E+04  0.37805829296E+04  0.31998269521E+04 0.  0.
        2    1    3    3  502    0  0.12148797576E+04  0.91576634931E+03 -0.42171240556E+03  0.15787343618E+04  0.25500000920E-02 0.  1.
       -2    1    3    3    0  502 -0.12148797576E+04 -0.91576634931E+03 -0.15917211702E+04  0.22018485678E+04  0.25500000920E-02 0. -1.
</event>
<event>
 5   0  0.3220147E-08  0.3199912E+04  0.7818609E-02  0.8188841E-01
       -1   -1    0    0    0  501  0.00000000000E+00  0.00000000000E+00  0.10950818059E+04  0.10950818059E+04  0.50400001928E-02 0. -1.
        1   -1    0    0  501    0  0.00000000000E+00  0.00000000000E+00 -0.23375958101E+04  0.23375958101E+04  0.50400001928E-02 0.  1.
    10030    2    1    2    0    0  0.00000000000E+00  0.00000000000E+00 -0.12425140042E+04  0.34326776160E+04  0.31999116496E+04 0.  0.
        4    1    3    3  502    0 -0.84195889155E+03 -0.84090903118E+03  0.52604190453E+03  0.13010551380E+04  0.12699999809E+01 0. -1.
       -4    1    3    3    0  502  0.84195889155E+03  0.84090903118E+03 -0.17685559087E+04  0.21316224781E+04  0.12699999809E+01 0.  1.
</event>
<event>
 5   0  0.9329929E-08  0.3208733E+04  0.7818609E-02  0.8186515E-01
       -2   -1    0    0    0  501  0.00000000000E+00  0.00000000000E+00  0.88504063732E+03  0.88504063732E+03  0.25500000920E-02 0. -1.
        2   -1    0    0  501    0  0.00000000000E+00  0.00000000000E+00 -0.29083323566E+04  0.29083323566E+04  0.25500000920E-02 0.  1.
    10030    2    1    2    0    0  0.00000000000E+00  0.00000000000E+00 -0.20232917193E+04  0.37933729939E+04  0.32087332843E+04 0.  0.
        1    1    3    3  502    0 -0.33283183106E+03  0.10741990440E+04  0.34109140685E+03  0.11751697587E+04  0.50400001928E-02 0. -1.
       -1    1    3    3    0  502  0.33283183106E+03 -0.10741990440E+04 -0.23643831261E+04  0.26182032352E+04  0.50400001928E-02 0.  1.
</event>
<event>
 5   0  0.3427667E-08  0.3199908E+04  0.7818609E-02  0.8188842E-01
        1   -1    0    0  501    0  0.00000000000E+00  0.00000000000E+00  0.25251598623E+04  0.25251598623E+04  0.50400001928E-02 0.  1.
       -1   -1    0    0    0  501  0.00000000000E+00  0.00000000000E+00 -0.10137386424E+04  0.10137386424E+04  0.50400001928E-02 0. -1.
    10030    2    1    2    0    0  0.00000000000E+00  0.00000000000E+00  0.15114212199E+04  0.35388985047E+04  0.31999075803E+04 0.  0.
        2    1    3    3  502    0 -0.12341284440E+04  0.31682884273E+03 -0.31447978697E+03  0.13123837352E+04  0.25500000920E-02 0. -1.
       -2    1    3    3    0  502  0.12341284440E+04 -0.31682884273E+03  0.18259010068E+04  0.22265147695E+04  0.25500000920E-02 0.  1.
</event>
<event>
 5   0  0.3220147E-08  0.3200935E+04  0.7818609E-02  0.8188570E-01
       -1   -1    0    0    0  501  0.00000000000E+00  0.00000000000E+00  0.18320049906E+04  0.18320049906E+04  0.50400001928E-02 0. -1.
        1   -1    0    0  501    0  0.00000000000E+00  0.00000000000E+00 -0.13981929543E+04  0.13981929543E+04  0.50400001928E-02 0.  1.
    10030    2    1    2    0    0  0.00000000000E+00  0.00000000000E+00  0.43381203626E+03  0.32301979449E+04  0.32009351572E+04 0.  0.
        4    1    3    3  502    0 -0.73178338402E+03 -0.16612176453E+03  0.16434742429E+04  0.18066855182E+04  0.12699999809E+01 0. -1.
       -4    1    3    3    0  502  0.73178338402E+03  0.16612176453E+03 -0.12096622067E+04  0.14235124267E+04  0.12699999809E+01 0.  1.
</event>
<event>
 5   0  0.9707721E-08  0.3177387E+04  0.7818609E-02  0.8194815E-01
        2   -1    0    0  501    0  0.00000000000E+00  0.00000000000E+00  0.21545030465E+04  0.21545030465E+04  0.25500000920E-02 0. -1.
       -2   -1    0    0    0  501  0.00000000000E+00  0.00000000000E+00 -0.11714753797E+04  0.11714753797E+04  0.25500000920E-02 0.  1.
    10030    2    1    2    0    0  0.00000000000E+00  0.00000000000E+00  0.98302766687E+03  0.33259784262E+04  0.31773871495E+04 0.  0.
        3    1    3    3  502    0  0.16538624069E+03  0.87198251397E+03 -0.88777212743E+03  0.12553268394E+04  0.10100000352E+00 0.  1.
       -3    1    3    3    0  502 -0.16538624069E+03 -0.87198251397E+03  0.18707997943E+04  0.20706515868E+04  0.10100000352E+00 0. -1.
</event>
<event>
 5   0  0.3270966E-08  0.3198306E+04  0.7818609E-02  0.8189265E-01
        1   -1    0    0  501    0  0.00000000000E+00  0.00000000000E+00  0.15328001834E+04  0.15328001834E+04  0.50400001928E-02 0. -1.
       -1   -1    0    0    0  501  0.00000000000E+00  0.00000000000E+00 -0.16683781025E+04  0.16683781025E+04  0.50400001928E-02 0.  1.
    10030    2    1    2    0    0  0.00000000000E+00  0.00000000000E+00 -0.13557791910E+03  0.32011782859E+04  0.31983059650E+04 0.  0.
        3    1    3    3  502    0 -0.10531987723E+04 -0.62602957441E+03  0.96082536350E+03  0.15570247497E+04  0.10100000352E+00 0. -1.
       -3    1    3    3    0  502  0.10531987723E+04  0.62602957441E+03 -0.10964032826E+04  0.16441535361E+04  0.10100000352E+00 0.  1.
</event>
<event>
 5   0  0.9353994E-08  0.3200100E+04  0.7818609E-02  0.8188791E-01
        2   -1    0    0  501    0  0.00000000000E+00  0.00000000000E+00  0.96113180040E+03  0.96113180041E+03  0.25500000920E-02 0. -1.
       -2   -1    0    0    0  501  0.00000000000E+00  0.00000000000E+00 -0.26636931021E+04  0.26636931021E+04  0.25500000920E-02 0.  1.
    10030    2    1    2    0    0  0.00000000000E+00  0.00000000000E+00 -0.17025613017E+04  0.36248249025E+04  0.32001000903E+04 0.  0.
        2    1    3    3  502    0  0.96927134596E+03  0.59037559256E+03 -0.21288638584E+04  0.24124866031E+04  0.25500000920E-02 0.  1.
       -2    1    3    3    0  502 -0.96927134596E+03 -0.59037559256E+03  0.42630255672E+03  0.12123382994E+04  0.25500000920E-02 0. -1.
</event>
<event>
 5   0  0.9707721E-08  0.3200261E+04  0.7818609E-02  0.8188748E-01
       -2   -1    0    0    0  501  0.00000000000E+00  0.00000000000E+00  0.16248443361E+04  0.16248443361E+04  0.25500000920E-02 0. -1.
        2   -1    0    0  501    0  0.00000000000E+00  0.00000000000E+00 -0.15757928416E+04  0.15757928416E+04  0.25500000920E-02 0.  1.
    10030    2    1    2    0    0  0.00000000000E+00  0.00000000000E+00  0.49051494466E+02  0.32006371777E+04  0.32002612853E+04 0.  0.
        3    1    3    3  502    0 -0.29980135217E+03 -0.15547736449E+04 -0.20618755464E+03  0.15967827828E+04  0.10100000352E+00 0.  1.
       -3    1    3    3    0  502  0.29980135217E+03  0.15547736449E+04  0.25523904910E+03  0.16038543949E+04  0.10100000352E+00 0. -1.
</event>
<event>
 5   0  0.9353994E-08  0.3200306E+04  0.7818609E-02  0.8188736E-01
       -2   -1    0    0    0  501  0.00000000000E+00  0.00000000000E+00  0.13073690922E+04  0.13073690922E+04  0.25500000920E-02 0. -1.
        2   -1    0    0  501    0  0.00000000000E+00  0.00000000000E+00 -0.19585059487E+04  0.19585059487E+04  0.25500000920E-02 0.  1.
    10030    2    1    2    0    0  0.00000000000E+00  0.00000000000E+00 -0.65113685650E+03  0.32658750409E+04  0.32003063254E+04 0.  0.
        2    1    3    3  502    0 -0.36899539980E+03 -0.50549589686E+03 -0.18284280308E+04  0.19325715435E+04  0.25500000920E-02 0.  1.
       -2    1    3    3    0  502  0.36899539980E+03  0.50549589686E+03  0.11772911744E+04  0.13333034973E+04  0.25500000920E-02 0. -1.
</event>
<event>
 5   0  0.9353994E-08  0.3199379E+04  0.7818609E-02  0.8188981E-01
        2   -1    0    0  501    0  0.00000000000E+00  0.00000000000E+00  0.18716451206E+04  0.18716451206E+04  0.25500000920E-02 0. -1.
       -2   -1    0    0    0  501  0.00000000000E+00  0.00000000000E+00 -0.13672501454E+04  0.13672501454E+04  0.25500000920E-02 0.  1.
    10030    2    1    2    0    0  0.00000000000E+00  0.00000000000E+00  0.50439497522E+03  0.32388952661E+04  0.31993793544E+04 0.  0.
        2    1    3    3  502    0  0.98998635411E+03 -0.12009665343E+04  0.62637520477E+03  0.16777185387E+04  0.25500000920E-02 0. -1.
       -2    1    3    3    0  502 -0.98998635411E+03  0.12009665343E+04 -0.12198022955E+03  0.15611767274E+04  0.25500000920E-02 0.  1.
</event>
<event>
 5   0  0.3283581E-08  0.3197725E+04  0.7818609E-02  0.8189418E-01
       -1   -1    0    0    0  501  0.00000000000E+00  0.00000000000E+00  0.11520973548E+04  0.11520973548E+04  0.50400001928E-02 0. -1.
        1   -1    0    0  501    0  0.00000000000E+00  0.00000000000E+00 -0.22188766240E+04  0.22188766240E+04  0.50400001928E-02 0.  1.
    10030    2    1    2    0    0  0.00000000000E+00  0.00000000000E+00 -0.10667792692E+04  0.33709739788E+04  0.31977253723E+04 0.  0.
        5    1    3    3  502    0  0.23995713562E+03 -0.15295305713E+04 -0.95413321219E+03  0.18186356073E+04  0.46999998093E+01 0.  1.
       -5    1    3    3    0  502 -0.23995713562E+03  0.15295305713E+04 -0.11264605696E+03  0.15523383715E+04  0.46999998093E+01 0. -1.
</event>
<event>
 5   0  0.3343140E-08  0.3221366E+04  0.7818609E-02  0.8183197E-01
        1   -1    0    0  501    0  0.00000000000E+00  0.00000000000E+00  0.14821682307E+04  0.14821682307E+04  0.50400001928E-02 0.  1.
       -1   -1    0    0    0  501  0.00000000000E+00  0.00000000000E+00 -0.17503411787E+04  0.17503411787E+04  0.50400001928E-02 0. -1.
    10030    2    1    2    0    0  0.00000000000E+00  0.00000000000E+00 -0.26817294799E+03  0.32325094095E+04  0.32213662245E+04 0.  0.
        1    1    3    3  502    0 -0.82213081498E+03  0.20719682386E+03  0.12401289354E+04  0.15022481077E+04  0.50400001928E-02 0.  1.
       -1    1    3    3    0  502  0.82213081498E+03 -0.20719682386E+03 -0.15083018834E+04  0.17302613017E+04  0.50400001928E-02 0. -1.
</event>
<event>
 5   0  0.9353994E-08  0.3201340E+04  0.7818609E-02  0.8188463E-01
       -2   -1    0    0    0  501  0.00000000000E+00  0.00000000000E+00  0.10177940600E+04  0.10177940600E+04  0.25500000920E-02 0.  1.
        2   -1    0    0  501    0  0.00000000000E+00  0.00000000000E+00 -0.25173506160E+04  0.25173506160E+04  0.25500000920E-02 0. -1.
    10030    2    1    2    0    0  0.00000000000E+00  0.00000000000E+00 -0.14995565560E+04  0.35351446760E+04  0.32013400343E+04 0.  0.
        2    1    3    3  502    0  0.62859789016E+03  0.26195188258E+03  0.84984800919E+03  0.10890343131E+04  0.25500000920E-02 0.  1.
       -2    1    3    3    0  502 -0.62859789016E+03 -0.26195188258E+03 -0.23494045652E+04  0.24461103629E+04  0.25500000920E-02 0. -1.
</event>
<event>
 5   0  0.9353994E-08  0.3197784E+04  0.7818609E-02  0.8189403E-01
       -2   -1    0    0    0  501  0.00000000000E+00  0.00000000000E+00  0.17425094302E+04  0.17425094302E+04  0.25500000920E-02 0. -1.
        2   -1    0    0  501    0  0.00000000000E+00  0.00000000000E+00 -0.14671112254E+04  0.14671112254E+04  0.25500000920E-02 0.  1.
    10030    2    1    2    0    0  0.00000000000E+00  0.00000000000E+00  0.27539820484E+03  0.32096206556E+04  0.31977836984E+04 0.  0.
        2    1    3    3  502    0 -0.93273069177E+03  0.12751109021E+04  0.38470105444E+03  0.16260040767E+04  0.25500000920E-02 0.  1.
       -2    1    3    3    0  502  0.93273069177E+03 -0.12751109021E+04 -0.10930284960E+03  0.15836165789E+04  0.25500000920E-02 0. -1.
</event>
<event>
 5   0  0.9707721E-08  0.3201948E+04  0.7818609E-02  0.8188303E-01
       -2   -1    0    0    0  501  0.00000000000E+00  0.00000000000E+00  0.10936878642E+04  0.10936878642E+04  0.25500000920E-02 0.  1.
        2   -1    0    0  501    0  0.00000000000E+00  0.00000000000E+00 -0.23435546080E+04  0.23435546080E+04  0.25500000920E-02 0. -1.
    10030    2    1    2    0    0  0.00000000000E+00  0.00000000000E+00 -0.12498667438E+04  0.34372424722E+04  0.32019476785E+04 0.  0.
        3    1    3    3  502    0  0.12879958033E+04 -0.10497266202E+03  0.38958924156E+03  0.13497156132E+04  0.10100000352E+00 0.  1.
       -3    1    3    3    0  502 -0.12879958033E+04  0.10497266202E+03 -0.16394559854E+04  0.20875268591E+04  0.10100000352E+00 0. -1.
</event>
<event>
 5   0  0.3427667E-08  0.3201198E+04  0.7818609E-02  0.8188501E-01
       -1   -1    0    0    0  501  0.00000000000E+00  0.00000000000E+00  0.11769974396E+04  0.11769974396E+04  0.50400001928E-02 0.  1.
        1   -1    0    0  501    0  0.00000000000E+00  0.00000000000E+00 -0.21766552730E+04  0.21766552730E+04  0.50400001928E-02 0. -1.
    10030    2    1    2    0    0  0.00000000000E+00  0.00000000000E+00 -0.99965783333E+03  0.33536527126E+04  0.32011983277E+04 0.  0.
        2    1    3    3  502    0  0.31657207156E+03 -0.15688943928E+04 -0.48260860904E+03  0.16716933217E+04  0.25500000920E-02 0. -1.
       -2    1    3    3    0  502 -0.31657207156E+03  0.15688943928E+04 -0.51704922430E+03  0.16819593909E+04  0.25500000920E-02 0.  1.
</event>
<event>
 5   0  0.3343140E-08  0.3199472E+04  0.7818609E-02  0.8188957E-01
       -1   -1    0    0    0  501  0.00000000000E+00  0.00000000000E+00  0.12790147421E+04  0.12790147422E+04  0.50400001928E-02 0. -1.
        1   -1    0    0  501    0  0.00000000000E+00  0.00000000000E+00 -0.20008805158E+04  0.20008805158E+04  0.50400001928E-02 0.  1.
    10030    2    1    2    0    0  0.00000000000E+00  0.00000000000E+00 -0.72186577367E+03  0.32798952580E+04  0.31994722546E+04 0.  0.
        1    1    3    3  502    0  0.10813568960E+04  0.36723462234E+03 -0.15093426018E+04  0.18926988915E+04  0.50400001928E-02 0.  1.
       -1    1    3    3    0  502 -0.10813568960E+04 -0.36723462234E+03  0.78747682808E+03  0.13871963665E+04  0.50400001928E-02 0. -1.
</event>
<event>
 5   0  0.9353994E-08  0.3202382E+04  0.7818609E-02  0.8188188E-01
       -2   -1    0    0    0  501  0.00000000000E+00  0.00000000000E+00  0.12804482541E+04  0.12804482541E+04  0.25500000920E-02 0.  1.
        2   -1    0    0  501    0  0.00000000000E+00  0.00000000000E+00 -0.20022769727E+04  0.20022769727E+04  0.25500000920E-02 0. -1.
    10030    2    1    2    0    0  0.00000000000E+00  0.00000000000E+00 -0.72182871862E+03  0.32827252268E+04  0.32023816474E+04 0.  0.
        2    1    3    3  502    0  0.98824685425E+03 -0.28277695718E+03 -0.16194032732E+04  0.19180880099E+04  0.25500000920E-02 0. -1.
       -2    1    3    3    0  502 -0.98824685425E+03  0.28277695718E+03  0.89757455462E+03  0.13646372168E+04  0.25500000920E-02 0.  1.
</event>
<event>
 5   0  0.9157524E-08  0.3198712E+04  0.7818609E-02  0.8189157E-01
        2   -1    0    0  501    0  0.00000000000E+00  0.00000000000E+00  0.15907413643E+04  0.15907413643E+04  0.25500000920E-02 0.  1.
       -2   -1    0    0    0  501  0.00000000000E+00  0.00000000000E+00 -0.16080171771E+04  0.16080171771E+04  0.25500000920E-02 0. -1.
    10030    2    1    2    0    0  0.00000000000E+00  0.00000000000E+00 -0.17275812765E+02  0.31987585415E+04  0.31987118896E+04 0.  0.
        5    1    3    3  502    0  0.45670828097E+03  0.12002856413E+04 -0.96188277430E+03  0.16045275430E+04  0.46999998093E+01 0. -1.
       -5    1    3    3    0  502 -0.45670828097E+03 -0.12002856413E+04  0.94460696154E+03  0.15942309985E+04  0.46999998093E+01 0.  1.
</event>
<event>
 5   0  0.3427667E-08  0.3199833E+04  0.7818609E-02  0.8188861E-01
        1   -1    0    0  501    0  0.00000000000E+00  0.00000000000E+00  0.30315093918E+04  0.30315093919E+04  0.50400001928E-02 0.  1.
       -1   -1    0    0    0  501  0.00000000000E+00  0.00000000000E+00 -0.84437572518E+03  0.84437572519E+03  0.50400001928E-02 0. -1.
    10030    2    1    2    0    0  0.00000000000E+00  0.00000000000E+00  0.21871336667E+04  0.38758851170E+04  0.31998330839E+04 0.  0.
        2    1    3    3  502    0  0.87805156165E+03 -0.45859404553E+02 -0.52549695256E+03  0.10243166879E+04  0.25500000920E-02 0. -1.
       -2    1    3    3    0  502 -0.87805156165E+03  0.45859404553E+02  0.27126306192E+04  0.28515684292E+04  0.25500000920E-02 0.  1.
</event>
<event>
 5   0  0.3283581E-08  0.3202079E+04  0.7818609E-02  0.8188268E-01
        1   -1    0    0  501    0  0.00000000000E+00  0.00000000000E+00  0.25836951777E+04  0.25836951777E+04  0.50400001928E-02 0.  1.
       -1   -1    0    0    0  501  0.00000000000E+00  0.00000000000E+00 -0.99211711268E+03  0.99211711269E+03  0.50400001928E-02 0. -1.
    10030    2    1    2    0    0  0.00000000000E+00  0.00000000000E+00  0.15915780650E+04  0.35758122904E+04  0.32020794492E+04 0.  0.
        5    1    3    3  502    0  0.78791010624E+03 -0.13339592872E+04  0.34485654328E+03  0.15871981101E+04  0.46999998093E+01 0. -1.
       -5    1    3    3    0  502 -0.78791010624E+03  0.13339592872E+04  0.12467215218E+04  0.19886141803E+04  0.46999998093E+01 0.  1.
</event>
<event>
 5   0  0.9727083E-08  0.3200963E+04  0.7818609E-02  0.8188563E-01
       -2   -1    0    0    0  501  0.00000000000E+00  0.00000000000E+00  0.11647550800E+04  0.11647550800E+04  0.25500000920E-02 0. -1.
        2   -1    0    0  501    0  0.00000000000E+00  0.00000000000E+00 -0.21992096296E+04  0.21992096296E+04  0.25500000920E-02 0.  1.
    10030    2    1    2    0    0  0.00000000000E+00  0.00000000000E+00 -0.10344545496E+04  0.33639647096E+04  0.32009627227E+04 0.  0.
        4    1    3    3  502    0  0.67661538575E+03 -0.12928903635E+04  0.17364165534E+03  0.14695328882E+04  0.12699999809E+01 0. -1.
       -4    1    3    3    0  502 -0.67661538575E+03  0.12928903635E+04 -0.12080962050E+04  0.18944318213E+04  0.12699999809E+01 0.  1.
</event>
<event>
 5   0  0.3270966E-08  0.3195740E+04  0.7818609E-02  0.8189943E-01
       -1   -1    0    0    0  501  0.00000000000E+00  0.00000000000E+00  0.10345392099E+04  0.10345392099E+04  0.50400001928E-02 0. -1.
        1   -1    0    0  501    0  0.00000000000E+00  0.00000000000E+00 -0.24679471049E+04  0.24679471049E+04  0.50400001928E-02 0.  1.
    10030    2    1    2    0    0  0.00000000000E+00  0.00000000000E+00 -0.14334078950E+04  0.35024863148E+04  0.31957396940E+04 0.  0.
        3    1    3    3  502    0  0.58139545293E+03  0.10491486489E+04  0.44030366592E+03  0.12777327141E+04  0.10100000352E+00 0. -1.
       -3    1    3    3    0  502 -0.58139545293E+03 -0.10491486489E+04 -0.18737115609E+04  0.22247536007E+04  0.10100000352E+00 0.  1.
</event>
<event>
 5   0  0.3427667E-08  0.3198357E+04  0.7818609E-02  0.8189251E-01
       -1   -1    0    0    0  501  0.00000000000E+00  0.00000000000E+00  0.16542383024E+04  0.16542383024E+04  0.50400001928E-02 0. -1.
        1   -1    0    0  501    0  0.00000000000E+00  0.00000000000E+00 -0.15459512696E+04  0.15459512696E+04  0.50400001928E-02 0.  1.
    10030    2    1    2    0    0  0.00000000000E+00  0.00000000000E+00  0.10828703278E+03  0.32001895719E+04  0.31983569555E+04 0.  0.
        2    1    3    3  502    0  0.52246476873E+03 -0.15011822326E+04  0.22989800962E+03  0.16060419126E+04  0.25500000920E-02 0. -1.
       -2    1    3    3    0  502 -0.52246476873E+03  0.15011822326E+04 -0.12161097683E+03  0.15941476594E+04  0.25500000920E-02 0.  1.
</event>
<event>
 5   0  0.9353994E-08  0.3200170E+04  0.7818609E-02  0.8188772E-01
       -2   -1    0    0    0  501  0.00000000000E+00  0.00000000000E+00  0.13798650920E+04  0.13798650920E+04  0.25500000920E-02 0. -1.
        2   -1    0    0  501    0  0.00000000000E+00  0.00000000000E+00 -0.18554510427E+04  0.18554510427E+04  0.25500000920E-02 0.  1.
    10030    2    1    2    0    0  0.00000000000E+00  0.00000000000E+00 -0.47558595070E+03  0.32353161348E+04  0.32001700729E+04 0.  0.
        2    1    3    3  502    0 -0.89075026168E+03 -0.73658631824E+03 -0.13564152284E+04  0.17820936297E+04  0.25500000920E-02 0.  1.
       -2    1    3    3    0  502  0.89075026168E+03  0.73658631824E+03  0.88082927774E+03  0.14532225051E+04  0.25500000920E-02 0. -1.
</event>
<event>
 5   0  0.9157524E-08  0.3200367E+04  0.7818609E-02  0.8188720E-01
        2   -1    0    0  501    0  0.00000000000E+00  0.00000000000E+00  0.15587367677E+04  0.15587367677E+04  0.25500000920E-02 0.  1.
       -2   -1    0    0    0  501  0.00000000000E+00  0.00000000000E+00 -0.16427325334E+04  0.16427325334E+04  0.25500000920E-02 0. -1.
    10030    2    1    2    0    0  0.00000000000E+00  0.00000000000E+00 -0.83995765629E+02  0.32014693011E+04  0.32003672285E+04 0.  0.
        5    1    3    3  502    0 -0.93713025551E+03  0.93108215371E+03  0.86132936631E+03  0.15770343877E+04  0.46999998093E+01 0.  1.
       -5    1    3    3    0  502  0.93713025551E+03 -0.93108215371E+03 -0.94532513194E+03  0.16244349134E+04  0.46999998093E+01 0. -1.
</event>
<event>
 5   0  0.3220147E-08  0.3200154E+04  0.7818609E-02  0.8188777E-01
       -1   -1    0    0    0  501  0.00000000000E+00  0.00000000000E+00  0.97211478844E+03  0.97211478845E+03  0.50400001928E-02 0. -1.
        1   -1    0    0  501    0  0.00000000000E+00  0.00000000000E+00 -0.26336871080E+04  0.26336871080E+04  0.50400001928E-02 0.  1.
    10030    2    1    2    0    0  0.00000000000E+00  0.00000000000E+00 -0.16615723195E+04  0.36058018964E+04  0.32001538624E+04 0.  0.
        4    1    3    3  502    0  0.10726942359E+04 -0.55014991930E+03 -0.20162450948E+04  0.23491666081E+04  0.12699999809E+01 0.  1.
       -4    1    3    3    0  502 -0.10726942359E+04  0.55014991930E+03  0.35467277530E+03  0.12566352883E+04  0.12699999809E+01 0. -1.
</event>
<event>
 5   0  0.9157524E-08  0.3197093E+04  0.7818609E-02  0.8189585E-01
        2   -1    0    0  501    0  0.00000000000E+00  0.00000000000E+00  0.30697309830E+04  0.30697309830E+04  0.25500000920E-02 0. -1.
       -2   -1    0    0    0  501  0.00000000000E+00  0.00000000000E+00 -0.83243454730E+03  0.83243454730E+03  0.25500000920E-02 0.  1.
    10030    2    1    2    0    0  0.00000000000E+00  0.00000000000E+00  0.22372964357E+04  0.39021655303E+04  0.31970925049E+04 0.  0.
        5    1    3    3  502    0 -0.12503852014E+04  0.96699772077E+03  0.82781147035E+03  0.17843322741E+04  0.46999998093E+01 0. -1.
       -5    1    3    3    0  502  0.12503852014E+04 -0.96699772077E+03  0.14094849654E+04  0.21178332563E+04  0.46999998093E+01 0.  1.
</event>
<event>
 5   0  0.3270966E-08  0.3201219E+04  0.7818609E-02  0.8188495E-01
        1   -1    0    0  501    0  0.00000000000E+00  0.00000000000E+00  0.24726836671E+04  0.24726836671E+04  0.50400001928E-02 0. -1.
       -1   -1    0    0    0  501  0.00000000000E+00  0.00000000000E+00 -0.10361011457E+04  0.10361011457E+04  0.50400001928E-02 0.  1.
    10030    2    1    2    0    0  0.00000000000E+00  0.00000000000E+00  0.14365825214E+04  0.35087848129E+04  0.32012187558E+04 0.  0.
        3    1    3    3  502    0 -0.87794595412E+03  0.31774125373E+03 -0.70669493635E+03  0.11709681234E+04  0.10100000352E+00 0.  1.
       -3    1    3    3    0  502  0.87794595412E+03 -0.31774125373E+03  0.21432774578E+04  0.23378166895E+04  0.10100000352E+00 0. -1.
</event>
<event>
 5   0  0.9353994E-08  0.3200531E+04  0.7818609E-02  0.8188677E-01
        2   -1    0    0  501    0  0.00000000000E+00  0.00000000000E+00  0.22821021526E+04  0.22821021526E+04  0.25500000920E-02 0. -1.
       -2   -1    0    0    0  501  0.00000000000E+00  0.00000000000E+00 -0.11221452290E+04  0.11221452290E+04  0.25500000920E-02 0.  1.
    10030    2    1    2    0    0  0.00000000000E+00  0.00000000000E+00  0.11599569236E+04  0.34042473816E+04  0.32005312326E+04 0.  0.
        2    1    3    3  502    0  0.98590097581E+03  0.11900756140E+04  0.10218345705E+04  0.18526809198E+04  0.25500000920E-02 0. -1.
       -2    1    3    3    0  502 -0.98590097581E+03 -0.11900756140E+04  0.13812235310E+03  0.15515664618E+04  0.25500000920E-02 0.  1.
</event>
<event>
 5   0  0.9707721E-08  0.3199331E+04  0.7818609E-02  0.8188994E-01
        2   -1    0    0  501    0  0.00000000000E+00  0.00000000000E+00  0.13172684638E+04  0.13172684638E+04  0.25500000920E-02 0. -1.
       -2   -1    0    0    0  501  0.00000000000E+00  0.00000000000E+00 -0.19426034199E+04  0.19426034199E+04  0.25500000920E-02 0.  1.
    10030    2    1    2    0    0  0.00000000000E+00  0.00000000000E+00 -0.62533495608E+03  0.32598718837E+04  0.31993313194E+04 0.  0.
        3    1    3    3  502    0 -0.62853008496E+03 -0.58573001956E+02  0.11849929648E+04  0.13426426185E+04  0.10100000352E+00 0. -1.
       -3    1    3    3    0  502  0.62853008496E+03  0.58573001956E+02 -0.18103279209E+04  0.19172292652E+04  0.10100000352E+00 0.  1.
</event>
<event>
 5   0  0.9329929E-08  0.3200217E+04  0.7818609E-02  0.8188760E-01
        2   -1    0    0  501    0  0.00000000000E+00  0.00000000000E+00  0.18391792933E+04  0.18391792933E+04  0.25500000920E-02 0.  1.
       -2   -1    0    0    0  501  0.00000000000E+00  0.00000000000E+00 -0.13921136144E+04  0.13921136144E+04  0.25500000920E-02 0. -1.
    10030    2    1    2    0    0  0.00000000000E+00  0.00000000000E+00  0.44706567885E+03  0.32312929077E+04  0.32002165761E+04 0.  0.
        1    1    3    3  502    0  0.45935712120E+03  0.14056754062E+04  0.84054309651E+03  0.17010129363E+04  0.50400001928E-02 0.  1.
       -1    1    3    3    0  502 -0.45935712120E+03 -0.14056754062E+04 -0.39347741765E+03  0.15302799713E+04  0.50400001928E-02 0. -1.
</event>
<event>
 5   0  0.3343140E-08  0.3198742E+04  0.7818609E-02  0.8189149E-01
       -1   -1    0    0    0  501  0.00000000000E+00  0.00000000000E+00  0.10107580658E+04  0.10107580658E+04  0.50400001928E-02 0.  1.
        1   -1    0    0  501    0  0.00000000000E+00  0.00000000000E+00 -0.25307618579E+04  0.25307618579E+04  0.50400001928E-02 0. -1.
    10030    2    1    2    0    0  0.00000000000E+00  0.00000000000E+00 -0.15200037921E+04  0.35415199237E+04  0.31987422281E+04 0.  0.
        1    1    3    3  502    0 -0.51596034229E+03  0.10734331440E+04  0.42186974217E+03  0.12635061808E+04  0.50400001928E-02 0.  1.
       -1    1    3    3    0  502  0.51596034229E+03 -0.10734331440E+04 -0.19418735343E+04  0.22780137429E+04  0.50400001928E-02 0. -1.
</event>
<event>
 5   0  0.9707721E-08  0.3200492E+04  0.7818609E-02  0.8188687E-01
       -2   -1    0    0    0  501  0.00000000000E+00  0.00000000000E+00  0.16643012970E+04  0.16643012970E+04  0.25500000920E-02 0. -1.
        2   -1    0    0  501    0  0.00000000000E+00  0.00000000000E+00 -0.15386563253E+04  0.15386563253E+04  0.25500000920E-02 0.  1.
    10030    2    1    2    0    0  0.00000000000E+00  0.00000000000E+00  0.12564497174E+03  0.32029576223E+04  0.32004922858E+04 0.  0.
        3    1    3    3  502    0 -0.42067234417E+03  0.60319082876E+03  0.14851784512E+04  0.16572747024E+04  0.10100000352E+00 0. -1.
       -3    1    3    3    0  502  0.42067234417E+03 -0.60319082876E+03 -0.13595334794E+04  0.15456829199E+04  0.10100000352E+00 0.  1.
</event>
<event>
 5   0  0.3220147E-08  0.3201834E+04  0.7818609E-02  0.8188333E-01
        1   -1    0    0  501    0  0.00000000000E+00  0.00000000000E+00  0.14353485805E+04  0.14353485805E+04  0.50400001928E-02 0. -1.
       -1   -1    0    0    0  501  0.00000000000E+00  0.00000000000E+00 -0.17855833244E+04  0.17855833244E+04  0.50400001928E-02 0.  1.
    10030    2    1    2    0    0  0.00000000000E+00  0.00000000000E+00 -0.35023474394E+03  0.32209319049E+04  0.32018335310E+04 0.  0.
        4    1    3    3  502    0  0.14363652412E+04 -0.70286346167E+03 -0.98698962912E+02  0.16021564375E+04  0.12699999809E+01 0.  1.
       -4    1    3    3    0  502 -0.14363652412E+04  0.70286346167E+03 -0.25153578103E+03  0.16187754674E+04  0.12699999809E+01 0. -1.
</event>
<event>
 5   0  0.9157524E-08  0.3199063E+04  0.7818609E-02  0.8189065E-01
       -2   -1    0    0    0  501  0.00000000000E+00  0.00000000000E+00  0.87026343418E+03  0.87026343418E+03  0.25500000920E-02 0. -1.
        2   -1    0    0  501    0  0.00000000000E+00  0.00000000000E+00 -0.29399152682E+04  0.29399152682E+04  0.25500000920E-02 0.  1.
    10030    2    1    2    0    0  0.00000000000E+00  0.00000000000E+00 -0.20696518340E+04  0.38101787024E+04  0.31990628362E+04 0.  0.
        5    1    3    3  502    0  0.54804079128E+03 -0.70622515568E+03  0.54497333820E+03  0.10469578352E+04  0.46999998093E+01 0. -1.
       -5    1    3    3    0  502 -0.54804079128E+03  0.70622515568E+03 -0.26146251722E+04  0.27632208672E+04  0.46999998093E+01 0.  1.
</event>
<event>
 5   0  0.3220147E-08  0.3198949E+04  0.7818609E-02  0.8189095E-01
        1   -1    0    0  501    0  0.00000000000E+00  0.00000000000E+00  0.14834671756E+04  0.14834671756E+04  0.50400001928E-02 0. -1.
       -1   -1    0    0    0  501  0.00000000000E+00  0.00000000000E+00 -0.17245534422E+04  0.17245534422E+04  0.50400001928E-02 0.  1.
    10030    2    1    2    0    0  0.00000000000E+00  0.00000000000E+00 -0.24108626665E+03  0.32080206178E+04  0.31989488424E+04 0.  0.
        4    1    3    3  502    0 -0.14728079495E+03 -0.42136424146E+03  0.14197413726E+04  0.14882562395E+04  0.12699999809E+01 0. -1.
       -4    1    3    3    0  502  0.14728079495E+03  0.42136424146E+03 -0.16608276392E+04  0.17197643783E+04  0.12699999809E+01 0.  1.
</event>
<event>
 5   0  0.3270966E-08  0.3202790E+04  0.7818609E-02  0.8188081E-01
        1   -1    0    0  501    0  0.00000000000E+00  0.00000000000E+00  0.88561320085E+03  0.88561320086E+03  0.50400001928E-02 0. -1.
       -1   -1    0    0    0  501  0.00000000000E+00  0.00000000000E+00 -0.28956956246E+04  0.28956956246E+04  0.50400001928E-02 0.  1.
    10030    2    1    2    0    0  0.00000000000E+00  0.00000000000E+00 -0.20100824238E+04  0.37813088255E+04  0.32027902028E+04 0.  0.
        3    1    3    3  502    0  0.10455002758E+04 -0.49379488485E+03  0.30304203375E+03  0.11952985817E+04  0.10100000352E+00 0. -1.
       -3    1    3    3    0  502 -0.10455002758E+04  0.49379488485E+03 -0.23131244575E+04  0.25860102438E+04  0.10100000352E+00 0.  1.
</event>
<event>
 5   0  0.9329929E-08  0.3197713E+04  0.7818609E-02  0.8189421E-01
        2   -1    0    0  501    0  0.00000000000E+00  0.00000000000E+00  0.21913946408E+04  0.21913946408E+04  0.25500000920E-02 0.  1.
       -2   -1    0    0    0  501  0.00000000000E+00  0.00000000000E+00 -0.11665365923E+04  0.11665365923E+04  0.25500000920E-02 0. -1.
    10030    2    1    2    0    0  0.00000000000E+00  0.00000000000E+00  0.10248580484E+04  0.33579312331E+04  0.31977129556E+04 0.  0.
        1    1    3    3  502    0 -0.11906733489E+04  0.56178631120E+03  0.14650968850E+04  0.19697247944E+04  0.50400001928E-02 0.  1.
       -1    1    3    3    0  502  0.11906733489E+04 -0.56178631120E+03 -0.44023883653E+03  0.13882064387E+04  0.50400001928E-02 0. -1.
</event>
<event>
 5   0  0.9727083E-08  0.3198881E+04  0.7818609E-02  0.8189113E-01
       -2   -1    0    0    0  501  0.00000000000E+00  0.00000000000E+00  0.17151920464E+04  0.17151920464E+04  0.25500000920E-02 0. -1.
        2   -1    0    0  501    0  0.00000000000E+00  0.00000000000E+00 -0.14915004504E+04  0.14915004504E+04  0.25500000920E-02 0.  1.
    10030    2    1    2    0    0  0.00000000000E+00  0.00000000000E+00  0.22369159595E+03  0.32066924968E+04  0.31988808729E+04 0.  0.
        4    1    3    3  502    0  0.10488897002E+04 -0.46341613862E+03 -0.10059035279E+04  0.15253745904E+04  0.12699999809E+01 0.  1.
       -4    1    3    3    0  502 -0.10488897002E+04  0.46341613862E+03  0.12295951238E+04  0.16813179064E+04  0.12699999809E+01 0. -1.
</event>
<event>
 5   0  0.9707721E-08  0.3200121E+04  0.7818609E-02  0.8188785E-01
       -2   -1    0    0    0  501  0.00000000000E+00  0.00000000000E+00  0.12336047708E+04  0.12336047708E+04  0.25500000920E-02 0.  1.
        2   -1    0    0  501    0  0.00000000000E+00  0.00000000000E+00 -0.20753759268E+04  0.20753759268E+04  0.25500000920E-02 0. -1.
    10030    2    1    2    0    0  0.00000000000E+00  0.00000000000E+00 -0.84177115596E+03  0.33089806976E+04  0.32001210256E+04 0.  0.
        3    1    3    3  502    0  0.11732595300E+04  0.85299405682E+03 -0.11191779879E+04  0.18321288613E+04  0.10100000352E+00 0. -1.
       -3    1    3    3    0  502 -0.11732595300E+04 -0.85299405682E+03  0.27740683195E+03  0.14768518363E+04  0.10100000352E+00 0.  1.
</event>
<event>
 5   0  0.3220147E-08  0.3200956E+04  0.7818609E-02  0.8188565E-01
       -1   -1    0    0    0  501  0.00000000000E+00  0.00000000000E+00  0.91726293986E+03  0.91726293988E+03  0.50400001928E-02 0.  1.
        1   -1    0    0  501    0  0.00000000000E+00  0.00000000000E+00 -0.27925800848E+04  0.27925800848E+04  0.50400001928E-02 0. -1.
    10030    2    1    2    0    0  0.00000000000E+00  0.00000000000E+00 -0.18753171449E+04  0.37098430247E+04  0.32009562436E+04 0.  0.
        4    1    3    3  502    0 -0.73716077003E+02  0.15554665928E+04 -0.50927765730E+03  0.16383759417E+04  0.12699999809E+01 0.  1.
       -4    1    3    3    0  502  0.73716077003E+02 -0.15554665928E+04 -0.13660394876E+04  0.20714670830E+04  0.12699999809E+01 0. -1.
</event>
<event>
 5   0  0.3427667E-08  0.3200041E+04  0.7818609E-02  0.8188806E-01
       -1   -1    0    0    0  501  0.00000000000E+00  0.00000000000E+00  0.95430726293E+03  0.95430726295E+03  0.50400001928E-02 0.  1.
        1   -1    0    0  501    0  0.00000000000E+00  0.00000000000E+00 -0.26826423827E+04  0.26826423827E+04  0.50400001928E-02 0. -1.
    10030    2    1    2    0    0  0.00000000000E+00  0.00000000000E+00 -0.17283351197E+04  0.36369496456E+04  0.32000406933E+04 0.  0.
        2    1    3    3  502    0  0.21869397790E+03 -0.17216504117E+03 -0.26549174052E+04  0.26694670416E+04  0.25500000920E-02 0. -1.
       -2    1    3    3    0  502 -0.21869397790E+03  0.17216504117E+03  0.92658228549E+03  0.96748260406E+03  0.25500000920E-02 0.  1.
</event>
<event>
 5   0  0.9157524E-08  0.3200488E+04  0.7818609E-02  0.8188688E-01
        2   -1    0    0  501    0  0.00000000000E+00  0.00000000000E+00  0.20047383094E+04  0.20047383094E+04  0.25500000920E-02 0.  1.
       -2   -1    0    0    0  501  0.00000000000E+00  0.00000000000E+00 -0.12773640965E+04  0.12773640965E+04  0.25500000920E-02 0. -1.
    10030    2    1    2    0    0  0.00000000000E+00  0.00000000000E+00  0.72737421291E+03  0.32821024060E+04  0.32004879249E+04 0.  0.
        5    1    3    3  502    0 -0.88498121051E+03 -0.80584116985E+03  0.14529343354E+04  0.18824484075E+04  0.46999998093E+01 0.  1.
       -5    1    3    3    0  502  0.88498121051E+03  0.80584116985E+03 -0.72556012250E+03  0.13996539984E+04  0.46999998093E+01 0. -1.
</event>
<event>
 5   0  0.3343140E-08  0.3199794E+04  0.7818609E-02  0.8188872E-01
       -1   -1    0    0    0  501  0.00000000000E+00  0.00000000000E+00  0.16934466427E+04  0.16934466427E+04  0.50400001928E-02 0.  1.
        1   -1    0    0  501    0  0.00000000000E+00  0.00000000000E+00 -0.15115151279E+04  0.15115151279E+04  0.50400001928E-02 0. -1.
    10030    2    1    2    0    0  0.00000000000E+00  0.00000000000E+00  0.18193151476E+03  0.32049617706E+04  0.31997938800E+04 0.  0.
        1    1    3    3  502    0 -0.13747730502E+04 -0.55549039616E+03  0.69285199523E+03  0.16366473069E+04  0.50400001928E-02 0.  1.
       -1    1    3    3    0  502  0.13747730502E+04  0.55549039616E+03 -0.51092048048E+03  0.15683144637E+04  0.50400001928E-02 0. -1.
</event>
<event>
 5   0  0.9707721E-08  0.3200654E+04  0.7818609E-02  0.8188645E-01
       -2   -1    0    0    0  501  0.00000000000E+00  0.00000000000E+00  0.14947920756E+04  0.14947920756E+04  0.25500000920E-02 0. -1.
        2   -1    0    0  501    0  0.00000000000E+00  0.00000000000E+00 -0.17133125153E+04  0.17133125153E+04  0.25500000920E-02 0.  1.
    10030    2    1    2    0    0  0.00000000000E+00  0.00000000000E+00 -0.21852043969E+03  0.32081045910E+04  0.32006536651E+04 0.  0.
        3    1    3    3  502    0 -0.34399749778E+03  0.66936919327E+03 -0.15248711310E+04  0.17004768072E+04  0.10100000352E+00 0.  1.
       -3    1    3    3    0  502  0.34399749778E+03 -0.66936919327E+03  0.13063506913E+04  0.15076277838E+04  0.10100000352E+00 0. -1.
</event>
<event>
 5   0  0.3427667E-08  0.3191077E+04  0.7818609E-02  0.8191178E-01
        1   -1    0    0  501    0  0.00000000000E+00  0.00000000000E+00  0.10219420082E+04  0.10219420082E+04  0.50400001928E-02 0. -1.
       -1   -1    0    0    0  501  0.00000000000E+00  0.00000000000E+00 -0.24910831898E+04  0.24910831898E+04  0.50400001928E-02 0.  1.
    10030    2    1    2    0    0  0.00000000000E+00  0.00000000000E+00 -0.14691411815E+04  0.35130251980E+04  0.31910766570E+04 0.  0.
        2    1    3    3  502    0  0.11935705623E+04 -0.69235009027E+03 -0.16165089001E+04  0.21253377047E+04  0.25500000920E-02 0.  1.
       -2    1    3    3    0  502 -0.11935705623E+04  0.69235009027E+03  0.14736771857E+03  0.13876874934E+04  0.25500000920E-02 0. -1.
</event>
<event>
 5   0  0.3220147E-08  0.3200263E+04  0.7818609E-02  0.8188748E-01
        1   -1    0    0  501    0  0.00000000000E+00  0.00000000000E+00  0.21632766471E+04  0.21632766471E+04  0.50400001928E-02 0.  1.
       -1   -1    0    0    0  501  0.00000000000E+00  0.00000000000E+00 -0.11835841833E+04  0.11835841833E+04  0.50400001928E-02 0. -1.
    10030    2    1    2    0    0  0.00000000000E+00  0.00000000000E+00  0.97969246376E+03  0.33468608304E+04  0.32002625040E+04 0.  0.
        4    1    3    3  502    0  0.10890820559E+04  0.11551368980E+04  0.28074359758E+03  0.16122219320E+04  0.12699999809E+01 0. -1.
       -4    1    3    3    0  502 -0.10890820559E+04 -0.11551368980E+04  0.69894886618E+03  0.17346388984E+04  0.12699999809E+01 0.  1.
</event>
<event>
 5   0  0.3080500E-08  0.3199479E+04  0.7818609E-02  0.8188955E-01
       -3   -1    0    0    0  501  0.00000000000E+00  0.00000000000E+00  0.11998521000E+04  0.11998521042E+04  0.10100000352E+00 0. -1.
        3   -1    0    0  501    0  0.00000000000E+00  0.00000000000E+00 -0.21329015320E+04  0.21329015344E+04  0.10100000352E+00 0.  1.
    10030    2    1    2    0    0  0.00000000000E+00  0.00000000000E+00 -0.93304943208E+03  0.33327536386E+04  0.31994789534E+04 0.  0.
        1    1    3    3  502    0 -0.85556501933E+03 -0.11986693408E+04  0.18429445377E+03  0.14841711952E+04  0.50400001928E-02 0. -1.
       -1    1    3    3    0  502  0.85556501933E+03  0.11986693408E+04 -0.11173438858E+04  0.18485824434E+04  0.50400001928E-02 0.  1.
</event>
<event>
 5   0  0.9727083E-08  0.3198348E+04  0.7818609E-02  0.8189254E-01
       -2   -1    0    0    0  501  0.00000000000E+00  0.00000000000E+00  0.13965265998E+04  0.13965265998E+04  0.25500000920E-02 0. -1.
        2   -1    0    0  501    0  0.00000000000E+00  0.00000000000E+00 -0.18312268208E+04  0.18312268208E+04  0.25500000920E-02 0.  1.
    10030    2    1    2    0    0  0.00000000000E+00  0.00000000000E+00 -0.43470022102E+03  0.32277534206E+04  0.31983476768E+04 0.  0.
        4    1    3    3  502    0 -0.14392205667E+03  0.93668229191E+03 -0.15173189942E+04  0.17889510383E+04  0.12699999809E+01 0.  1.
       -4    1    3    3    0  502  0.14392205667E+03 -0.93668229191E+03  0.10826187732E+04  0.14388023823E+04  0.12699999809E+01 0. -1.
</event>
<event>
 5   0  0.3283581E-08  0.3199941E+04  0.7818609E-02  0.8188833E-01
        1   -1    0    0  501    0  0.00000000000E+00  0.00000000000E+00  0.21821560514E+04  0.21821560514E+04  0.50400001928E-02 0.  1.
       -1   -1    0    0    0  501  0.00000000000E+00  0.00000000000E+00 -0.11731087578E+04  0.11731087578E+04  0.50400001928E-02 0. -1.
    10030    2    1    2    0    0  0.00000000000E+00  0.00000000000E+00  0.10090472936E+04  0.33552648092E+04  0.31999414837E+04 0.  0.
        5    1    3    3  502    0 -0.21506163270E+03  0.70487508416E+02  0.21652804463E+04  0.21770809576E+04  0.46999998093E+01 0.  1.
       -5    1    3    3    0  502  0.21506163270E+03 -0.70487508416E+02 -0.11562331527E+04  0.11781838516E+04  0.46999998093E+01 0. -1.
</event>
<event>
 5   0  0.9353994E-08  0.3202496E+04  0.7818609E-02  0.8188158E-01
       -2   -1    0    0    0  501  0.00000000000E+00  0.00000000000E+00  0.15680640781E+04  0.15680640781E+04  0.25500000920E-02 0.  1.
        2   -1    0    0  501    0  0.00000000000E+00  0.00000000000E+00 -0.16351341966E+04  0.16351341966E+04  0.25500000920E-02 0. -1.
    10030    2    1    2    0    0  0.00000000000E+00  0.00000000000E+00 -0.67070118469E+02  0.32031982746E+04  0.32024960243E+04 0.  0.
        2    1    3    3  502    0 -0.75814094494E+03 -0.28192465633E+03 -0.14157700704E+04  0.16305410441E+04  0.25500000920E-02 0. -1.
       -2    1    3    3    0  502  0.75814094494E+03  0.28192465633E+03  0.13486999520E+04  0.15726572305E+04  0.25500000920E-02 0.  1.
</event>
<event>
 5   0  0.3220147E-08  0.3199941E+04  0.7818609E-02  0.8188833E-01
       -1   -1    0    0    0  501  0.00000000000E+00  0.00000000000E+00  0.98962110766E+03  0.98962110768E+03  0.50400001928E-02 0. -1.
        1   -1    0    0  501    0  0.00000000000E+00  0.00000000000E+00 -0.25867526116E+04  0.25867526116E+04  0.50400001928E-02 0.  1.
    10030    2    1    2    0    0  0.00000000000E+00  0.00000000000E+00 -0.15971315040E+04  0.35763737193E+04  0.31999406150E+04 0.  0.
        4    1    3    3  502    0  0.93593908439E+02  0.13912855290E+04 -0.16753722515E+04  0.21797497647E+04  0.12699999809E+01 0.  1.
       -4    1    3    3    0  502 -0.93593908439E+02 -0.13912855290E+04  0.78240747487E+02  0.13966239546E+04  0.12699999809E+01 0. -1.
</event>
<event>
 5   0  0.3343140E-08  0.3199231E+04  0.7818609E-02  0.8189020E-01
        1   -1    0    0  501    0  0.00000000000E+00  0.00000000000E+00  0.21348059011E+04  0.21348059011E+04  0.50400001928E-02 0. -1.
       -1   -1    0    0    0  501  0.00000000000E+00  0.00000000000E+00 -0.11985959539E+04  0.11985959539E+04  0.50400001928E-02 0.  1.
    10030    2    1    2    0    0  0.00000000000E+00  0.00000000000E+00  0.93620994727E+03  0.33334018550E+04  0.31992309797E+04 0.  0.
        1    1    3    3  502    0 -0.84538670728E+03  0.68755844104E+03  0.16882653893E+04  0.20093917785E+04  0.50400001928E-02 0. -1.
       -1    1    3    3    0  502  0.84538670728E+03 -0.68755844104E+03 -0.75205544207E+03  0.13240100765E+04  0.50400001928E-02 0.  1.
</event>
<event>
 5   0  0.9353994E-08  0.3200241E+04  0.7818609E-02  0.8188754E-01
       -2   -1    0    0    0  501  0.00000000000E+00  0.00000000000E+00  0.18658668515E+04  0.18658668515E+04  0.25500000920E-02 0.  1.
        2   -1    0    0  501    0  0.00000000000E+00  0.00000000000E+00 -0.13722231671E+04  0.13722231671E+04  0.25500000920E-02 0. -1.
    10030    2    1    2    0    0  0.00000000000E+00  0.00000000000E+00  0.49364368448E+03  0.32380900186E+04  0.32002410661E+04 0.  0.
        2    1    3    3  502    0 -0.14621237362E+04 -0.64251543248E+03  0.14689237344E+03  0.16038108586E+04  0.25500000920E-02 0.  1.
       -2    1    3    3    0  502  0.14621237362E+04  0.64251543248E+03  0.34675131103E+03  0.16342791599E+04  0.25500000920E-02 0. -1.
</event>
<event>
 5   0  0.9329929E-08  0.3199421E+04  0.7818609E-02  0.8188970E-01
       -2   -1    0    0    0  501  0.00000000000E+00  0.00000000000E+00  0.13768039716E+04  0.13768039716E+04  0.25500000920E-02 0.  1.
        2   -1    0    0  501    0  0.00000000000E+00  0.00000000000E+00 -0.18587061944E+04  0.18587061944E+04  0.25500000920E-02 0. -1.
    10030    2    1    2    0    0  0.00000000000E+00  0.00000000000E+00 -0.48190222283E+03  0.32355101661E+04  0.31994212418E+04 0.  0.
        1    1    3    3  502    0 -0.20101131757E+03 -0.14867868331E+04 -0.80231019776E+03  0.17013648316E+04  0.50400001928E-02 0.  1.
       -1    1    3    3    0  502  0.20101131757E+03  0.14867868331E+04  0.32040797493E+03  0.15341453344E+04  0.50400001928E-02 0. -1.
</event>
<event>
 5   0  0.3427667E-08  0.3200551E+04  0.7818609E-02  0.8188672E-01
        1   -1    0    0  501    0  0.00000000000E+00  0.00000000000E+00  0.16104537754E+04  0.16104537754E+04  0.50400001928E-02 0.  1.
       -1   -1    0    0    0  501  0.00000000000E+00  0.00000000000E+00 -0.15901611995E+04  0.15901611995E+04  0.50400001928E-02 0. -1.
    10030    2    1    2    0    0  0.00000000000E+00  0.00000000000E+00  0.20292575874E+02  0.32006149749E+04  0.32005506446E+04 0.  0.
        2    1    3    3  502    0  0.74070382696E+02 -0.12008392389E+04  0.10653356385E+04  0.16069976111E+04  0.25500000920E-02 0.  1.
       -2    1    3    3    0  502 -0.74070382696E+02  0.12008392389E+04 -0.10450430626E+04  0.15936173638E+04  0.25500000920E-02 0. -1.
</event>
<event>
 5   0  0.3343140E-08  0.3200740E+04  0.7818609E-02  0.8188622E-01
        1   -1    0    0  501    0  0.00000000000E+00  0.00000000000E+00  0.21440285785E+04  0.21440285785E+04  0.50400001928E-02 0. -1.
       -1   -1    0    0    0  501  0.00000000000E+00  0.00000000000E+00 -0.11945659118E+04  0.11945659118E+04  0.50400001928E-02 0.  1.
    10030    2    1    2    0    0  0.00000000000E+00  0.00000000000E+00  0.94946266667E+03  0.33385944903E+04  0.32007395732E+04 0.  0.
        1    1    3    3  502    0  0.34305673833E+02  0.87030219634E+03 -0.92569634840E+03  0.12710297092E+04  0.50400001928E-02 0.  1.
       -1    1    3    3    0  502 -0.34305673833E+02 -0.87030219634E+03  0.18751590151E+04  0.20675647811E+04  0.50400001928E-02 0. -1.
</event>
<event>
 5   0  0.3343140E-08  0.3199223E+04  0.7818609E-02  0.8189022E-01
        1   -1    0    0  501    0  0.00000000000E+00  0.00000000000E+00  0.22337866730E+04  0.22337866730E+04  0.50400001928E-02 0.  1.
       -1   -1    0    0    0  501  0.00000000000E+00  0.00000000000E+00 -0.11454794604E+04  0.11454794604E+04  0.50400001928E-02 0. -1.
    10030    2    1    2    0    0  0.00000000000E+00  0.00000000000E+00  0.10883072126E+04  0.33792661334E+04  0.31992228762E+04 0.  0.
        1    1    3    3  502    0 -0.97765656926E+03 -0.73965681459E+03  0.16295277220E+04  0.20391824753E+04  0.50400001928E-02 0.  1.
       -1    1    3    3    0  502  0.97765656926E+03  0.73965681459E+03 -0.54122050949E+03  0.13400836581E+04  0.50400001928E-02 0. -1.
</event>
<event>
 5   0  0.9727083E-08  0.3200819E+04  0.7818609E-02  0.8188601E-01
        2   -1    0    0  501    0  0.00000000000E+00  0.00000000000E+00  0.17020996395E+04  0.17020996395E+04  0.25500000920E-02 0.  1.
       -2   -1    0    0    0  501  0.00000000000E+00  0.00000000000E+00 -0.15047945411E+04  0.15047945411E+04  0.25500000920E-02 0. -1.
    10030    2    1    2    0    0  0.00000000000E+00  0.00000000000E+00  0.19730509842E+03  0.32068941806E+04  0.32008187990E+04 0.  0.
        4    1    3    3  502    0  0.18204421755E+03 -0.71735282275E+03 -0.13230452137E+04  0.15159767214E+04  0.12699999809E+01 0. -1.
       -4    1    3    3    0  502 -0.18204421755E+03  0.71735282275E+03  0.15203503121E+04  0.16909174592E+04  0.12699999809E+01 0.  1.
</event>
<event>
 5   0  0.3270966E-08  0.3175467E+04  0.7818609E-02  0.8195326E-01
        1   -1    0    0  501    0  0.00000000000E+00  0.00000000000E+00  0.16416484490E+04  0.16416484490E+04  0.50400001928E-02 0.  1.
       -1   -1    0    0    0  501  0.00000000000E+00  0.00000000000E+00 -0.15355891945E+04  0.15355891945E+04  0.50400001928E-02 0. -1.
    10030    2    1    2    0    0  0.00000000000E+00  0.00000000000E+00  0.10605925455E+03  0.31772376435E+04  0.31754669701E+04 0.  0.
        3    1    3    3  502    0 -0.10118855637E+03 -0.15602106253E+04 -0.22353233375E+03  0.15793869170E+04  0.10100000352E+00 0. -1.
       -3    1    3    3    0  502  0.10118855637E+03  0.15602106253E+04  0.32959158830E+03  0.15978507266E+04  0.10100000352E+00 0.  1.
</event>
<event>
 5   0  0.3343140E-08  0.3200650E+04  0.7818609E-02  0.8188646E-01
        1   -1    0    0  501    0  0.00000000000E+00  0.00000000000E+00  0.17094268314E+04  0.17094268314E+04  0.50400001928E-02 0. -1.
       -1   -1    0    0    0  501  0.00000000000E+00  0.00000000000E+00 -0.14981861548E+04  0.14981861548E+04  0.50400001928E-02 0.  1.
    10030    2    1    2    0    0  0.00000000000E+00  0.00000000000E+00  0.21124067661E+03  0.32076129863E+04  0.32006496913E+04 0.  0.
        1    1    3    3  502    0  0.14996831949E+04  0.49887281593E+03  0.35739556898E+03  0.16203874118E+04  0.50400001928E-02 0. -1.
       -1    1    3    3    0  502 -0.14996831949E+04 -0.49887281593E+03 -0.14615489237E+03  0.15872255745E+04  0.50400001928E-02 0.  1.
</event>
<event>
 5   0  0.3343140E-08  0.3199246E+04  0.7818609E-02  0.8189016E-01
        1   -1    0    0  501    0  0.00000000000E+00  0.00000000000E+00  0.17379631547E+04  0.17379631547E+04  0.50400001928E-02 0. -1.
       -1   -1    0    0    0  501  0.00000000000E+00  0.00000000000E+00 -0.14722943288E+04  0.14722943288E+04  0.50400001928E-02 0.  1.
    10030    2    1    2    0    0  0.00000000000E+00  0.00000000000E+00  0.26566882594E+03  0.32102574835E+04  0.31992457213E+04 0.  0.
        1    1    3    3  502    0 -0.30458449618E+03  0.12488158345E+04  0.10882042475E+04  0.16841915532E+04  0.50400001928E-02 0. -1.
       -1    1    3    3    0  502  0.30458449618E+03 -0.12488158345E+04 -0.82253542152E+03  0.15260659302E+04  0.50400001928E-02 0.  1.
</event>
<event>
 5   0  0.9727083E-08  0.3200639E+04  0.7818609E-02  0.8188648E-01
        2   -1    0    0  501    0  0.00000000000E+00  0.00000000000E+00  0.15811921759E+04  0.15811921759E+04  0.25500000920E-02 0.  1.
       -2   -1    0    0    0  501  0.00000000000E+00  0.00000000000E+00 -0.16196783630E+04  0.16196783630E+04  0.25500000920E-02 0. -1.
    10030    2    1    2    0    0  0.00000000000E+00  0.00000000000E+00 -0.38486187054E+02  0.32008705389E+04  0.32006391580E+04 0.  0.
        4    1    3    3  502    0  0.11962707889E+04  0.70392588288E+03  0.77733548221E+03  0.15908574775E+04  0.12699999809E+01 0.  1.
       -4    1    3    3    0  502 -0.11962707889E+04 -0.70392588288E+03 -0.81582166926E+03  0.16100130614E+04  0.12699999809E+01 0. -1.
</event>
<event>
 5   0  0.9707721E-08  0.3190021E+04  0.7818609E-02  0.8191458E-01
       -2   -1    0    0    0  501  0.00000000000E+00  0.00000000000E+00  0.12236986280E+04  0.12236986280E+04  0.25500000920E-02 0. -1.
        2   -1    0    0  501    0  0.00000000000E+00  0.00000000000E+00 -0.20789909481E+04  0.20789909481E+04  0.25500000920E-02 0.  1.
    10030    2    1    2    0    0  0.00000000000E+00  0.00000000000E+00 -0.85529232014E+03  0.33026895761E+04  0.31900209220E+04 0.  0.
        3    1    3    3  502    0 -0.11296619560E+04  0.68169215308E+03 -0.13555243139E+04  0.18916359328E+04  0.10100000352E+00 0.  1.
       -3    1    3    3    0  502  0.11296619560E+04 -0.68169215308E+03  0.50023199373E+03  0.14110536433E+04  0.10100000352E+00 0. -1.
</event>
<event>
 5   0  0.9157524E-08  0.3201345E+04  0.7818609E-02  0.8188462E-01
       -2   -1    0    0    0  501  0.00000000000E+00  0.00000000000E+00  0.13762743602E+04  0.13762743602E+04  0.25500000920E-02 0.  1.
        2   -1    0    0  501    0  0.00000000000E+00  0.00000000000E+00 -0.18616580008E+04  0.18616580008E+04  0.25500000920E-02 0. -1.
    10030    2    1    2    0    0  0.00000000000E+00  0.00000000000E+00 -0.48538364058E+03  0.32379323610E+04  0.32013448262E+04 0.  0.
        5    1    3    3  502    0 -0.10005974331E+03  0.13179122084E+04  0.67052563864E+03  0.14820699253E+04  0.46999998093E+01 0. -1.
       -5    1    3    3    0  502  0.10005974331E+03 -0.13179122084E+04 -0.11559092792E+04  0.17558624357E+04  0.46999998093E+01 0.  1.
</event>
<event>
 5   0  0.9707721E-08  0.3221581E+04  0.7818609E-02  0.8183141E-01
       -2   -1    0    0    0  501  0.00000000000E+00  0.00000000000E+00  0.15154466863E+04  0.15154466863E+04  0.25500000920E-02 0.  1.
        2   -1    0    0  501    0  0.00000000000E+00  0.00000000000E+00 -0.17121329575E+04  0.17121329575E+04  0.25500000920E-02 0. -1.
    10030    2    1    2    0    0  0.00000000000E+00  0.00000000000E+00 -0.19668627121E+03  0.32275796438E+04  0.32215811130E+04 0.  0.
        3    1    3    3  502    0 -0.61355687069E+03 -0.14557428194E+04 -0.41358282058E+03  0.16330002907E+04  0.10100000352E+00 0. -1.
       -3    1    3    3    0  502  0.61355687069E+03  0.14557428194E+04  0.21689654937E+03  0.15945793530E+04  0.10100000352E+00 0.  1.
</event>
<event>
 5   0  0.3283581E-08  0.3198082E+04  0.7818609E-02  0.8189324E-01
        1   -1    0    0  501    0  0.00000000000E+00  0.00000000000E+00  0.11724791019E+04  0.11724791019E+04  0.50400001928E-02 0.  1.
       -1   -1    0    0    0  501  0.00000000000E+00  0.00000000000E+00 -0.21807918840E+04  0.21807918840E+04  0.50400001928E-02 0. -1.
    10030    2    1    2    0    0  0.00000000000E+00  0.00000000000E+00 -0.10083127821E+04  0.33532709859E+04  0.31980824940E+04 0.  0.
        5    1    3    3  502    0  0.55743975919E+03  0.14523053624E+04 -0.89222538711E+03  0.17933260112E+04  0.46999998093E+01 0. -1.
       -5    1    3    3    0  502 -0.55743975919E+03 -0.14523053624E+04 -0.11608739500E+03  0.15599449747E+04  0.46999998093E+01 0.  1.
</event>
<event>
 5   0  0.9157524E-08  0.3206368E+04  0.7818609E-02  0.8187137E-01
       -2   -1    0    0    0  501  0.00000000000E+00  0.00000000000E+00  0.12303297620E+04  0.12303297620E+04  0.25500000920E-02 0. -1.
        2   -1    0    0  501    0  0.00000000000E+00  0.00000000000E+00 -0.20890328495E+04  0.20890328495E+04  0.25500000920E-02 0.  1.
    10030    2    1    2    0    0  0.00000000000E+00  0.00000000000E+00 -0.85870308753E+03  0.33193626115E+04  0.32063682187E+04 0.  0.
        5    1    3    3  502    0  0.20135177380E+03 -0.47616892500E+03  0.11416573249E+04  0.12532688935E+04  0.46999998093E+01 0. -1.
       -5    1    3    3    0  502 -0.20135177380E+03  0.47616892500E+03 -0.20003604124E+04  0.20660937180E+04  0.46999998093E+01 0.  1.
</event>
<event>
 5   0  0.9353994E-08  0.3199768E+04  0.7818609E-02  0.8188879E-01
       -2   -1    0    0    0  501  0.00000000000E+00  0.00000000000E+00  0.15753962241E+04  0.15753962241E+04  0.25500000920E-02 0. -1.
        2   -1    0    0  501    0  0.00000000000E+00  0.00000000000E+00 -0.16247520586E+04  0.16247520586E+04  0.25500000920E-02 0.  1.
    10030    2    1    2    0    0  0.00000000000E+00  0.00000000000E+00 -0.49355834541E+02  0.32001482827E+04  0.31997676529E+04 0.  0.
        2    1    3    3  502    0 -0.11376291887E+04 -0.58641015856E+03 -0.98476670132E+03  0.16148815749E+04  0.25500000920E-02 0.  1.
       -2    1    3    3    0  502  0.11376291887E+04  0.58641015856E+03  0.93541086678E+03  0.15852667078E+04  0.25500000920E-02 0. -1.
</event>
<event>
 5   0  0.9157524E-08  0.3199767E+04  0.7818609E-02  0.8188879E-01
       -2   -1    0    0    0  501  0.00000000000E+00  0.00000000000E+00  0.16618973970E+04  0.16618973970E+04  0.25500000920E-02 0.  1.
        2   -1    0    0  501    0  0.00000000000E+00  0.00000000000E+00 -0.15401836890E+04  0.15401836890E+04  0.25500000920E-02 0. -1.
    10030    2    1    2    0    0  0.00000000000E+00  0.00000000000E+00  0.12171370802E+03  0.32020810861E+04  0.31997670314E+04 0.  0.
        5    1    3    3  502    0 -0.71113191437E+02 -0.15572376171E+04 -0.29934663315E+03  0.15873489153E+04  0.46999998093E+01 0.  1.
       -5    1    3    3    0  502  0.71113191437E+02  0.15572376171E+04  0.42106034118E+03  0.16147321707E+04  0.46999998093E+01 0. -1.
</event>
<event>
 5   0  0.3343140E-08  0.3199703E+04  0.7818609E-02  0.8188896E-01
       -1   -1    0    0    0  501  0.00000000000E+00  0.00000000000E+00  0.11893302338E+04  0.11893302338E+04  0.50400001928E-02 0.  1.
        1   -1    0    0  501    0  0.00000000000E+00  0.00000000000E+00 -0.21520723561E+04  0.21520723561E+04  0.50400001928E-02 0. -1.
    10030    2    1    2    0    0  0.00000000000E+00  0.00000000000E+00 -0.96274212229E+03  0.33414025899E+04  0.31997029352E+04 0.  0.
        1    1    3    3  502    0 -0.30403506590E+02  0.13888346772E+04  0.34733267536E+03  0.14319309066E+04  0.50400001928E-02 0.  1.
       -1    1    3    3    0  502  0.30403506590E+02 -0.13888346772E+04 -0.13100747977E+04  0.19094716833E+04  0.50400001928E-02 0. -1.
</event>
<event>
 5   0  0.9353994E-08  0.3199766E+04  0.7818609E-02  0.8188879E-01
        2   -1    0    0  501    0  0.00000000000E+00  0.00000000000E+00  0.11102058419E+04  0.11102058419E+04  0.25500000920E-02 0. -1.
       -2   -1    0    0    0  501  0.00000000000E+00  0.00000000000E+00 -0.23055419553E+04  0.23055419553E+04  0.25500000920E-02 0.  1.
    10030    2    1    2    0    0  0.00000000000E+00  0.00000000000E+00 -0.11953361135E+04  0.34157477972E+04  0.31997663336E+04 0.  0.
        2    1    3    3  502    0  0.43582891183E+02  0.10568754493E+04  0.68366043855E+03  0.12594748028E+04  0.25500000920E-02 0.  1.
       -2    1    3    3    0  502 -0.43582891183E+02 -0.10568754493E+04 -0.18789965520E+04  0.21562729944E+04  0.25500000920E-02 0. -1.
</event>
<event>
 5   0  0.3283581E-08  0.3199908E+04  0.7818609E-02  0.8188841E-01
        1   -1    0    0  501    0  0.00000000000E+00  0.00000000000E+00  0.15076878683E+04  0.15076878683E+04  0.50400001928E-02 0.  1.
       -1   -1    0    0    0  501  0.00000000000E+00  0.00000000000E+00 -0.16978666184E+04  0.16978666184E+04  0.50400001928E-02 0. -1.
    10030    2    1    2    0    0  0.00000000000E+00  0.00000000000E+00 -0.19017875010E+03  0.32055544866E+04  0.31999080627E+04 0.  0.
        5    1    3    3  502    0 -0.13126051281E+04 -0.53617849064E+03 -0.83762009032E+03  0.16468300161E+04  0.46999998093E+01 0. -1.
       -5    1    3    3    0  502  0.13126051281E+04  0.53617849064E+03  0.64744134022E+03  0.15587244706E+04  0.46999998093E+01 0.  1.
</event>
<event>
 5   0  0.3270966E-08  0.3201509E+04  0.7818609E-02  0.8188419E-01
       -1   -1    0    0    0  501  0.00000000000E+00  0.00000000000E+00  0.14332437161E+04  0.14332437161E+04  0.50400001928E-02 0. -1.
        1   -1    0    0  501    0  0.00000000000E+00  0.00000000000E+00 -0.17878434280E+04  0.17878434280E+04  0.50400001928E-02 0.  1.
    10030    2    1    2    0    0  0.00000000000E+00  0.00000000000E+00 -0.35459971193E+03  0.32210871441E+04  0.32015092432E+04 0.  0.
        3    1    3    3  502    0  0.15521968426E+04 -0.70518687098E+01  0.21630931243E+03  0.15672123328E+04  0.10100000352E+00 0. -1.
       -3    1    3    3    0  502 -0.15521968426E+04  0.70518687098E+01 -0.57090902436E+03  0.16538748113E+04  0.10100000352E+00 0.  1.
</event>
<event>
 5   0  0.9727083E-08  0.3198895E+04  0.7818609E-02  0.8189109E-01
       -2   -1    0    0    0  501  0.00000000000E+00  0.00000000000E+00  0.15764900696E+04  0.15764900696E+04  0.25500000920E-02 0.  1.
        2   -1    0    0  501    0  0.00000000000E+00  0.00000000000E+00 -0.16227391494E+04  0.16227391494E+04  0.25500000920E-02 0. -1.
    10030    2    1    2    0    0  0.00000000000E+00  0.00000000000E+00 -0.46249079809E+02  0.31992292190E+04  0.31988949058E+04 0.  0.
        4    1    3    3  502    0  0.37340226514E+03  0.34094169452E+03 -0.15407020017E+04  0.16215531942E+04  0.12699999809E+01 0. -1.
       -4    1    3    3    0  502 -0.37340226514E+03 -0.34094169452E+03  0.14944529219E+04  0.15776760248E+04  0.12699999809E+01 0.  1.
</event>
<event>
 5   0  0.3283581E-08  0.3207176E+04  0.7818609E-02  0.8186925E-01
       -1   -1    0    0    0  501  0.00000000000E+00  0.00000000000E+00  0.14478844616E+04  0.14478844617E+04  0.50400001928E-02 0. -1.
        1   -1    0    0  501    0  0.00000000000E+00  0.00000000000E+00 -0.17760356708E+04  0.17760356708E+04  0.50400001928E-02 0.  1.
    10030    2    1    2    0    0  0.00000000000E+00  0.00000000000E+00 -0.32815120917E+03  0.32239201325E+04  0.32071759859E+04 0.  0.
        5    1    3    3  502    0  0.49950945677E+03  0.55264251540E+03  0.12633906928E+04  0.14666634174E+04  0.46999998093E+01 0. -1.
       -5    1    3    3    0  502 -0.49950945677E+03 -0.55264251540E+03 -0.15915419019E+04  0.17572567151E+04  0.46999998093E+01 0.  1.
</event>
<event>
 5   0  0.3343140E-08  0.3200363E+04  0.7818609E-02  0.8188721E-01
       -1   -1    0    0    0  501  0.00000000000E+00  0.00000000000E+00  0.16565521112E+04  0.16565521112E+04  0.50400001928E-02 0. -1.
        1   -1    0    0  501    0  0.00000000000E+00  0.00000000000E+00 -0.15457287546E+04  0.15457287546E+04  0.50400001928E-02 0.  1.
    10030    2    1    2    0    0  0.00000000000E+00  0.00000000000E+00  0.11082335658E+03  0.32022808658E+04  0.32003626243E+04 0.  0.
        1    1    3    3  502    0 -0.13090725405E+04  0.10344320001E+03 -0.85958096556E+03  0.15694747045E+04  0.50400001928E-02 0. -1.
       -1    1    3    3    0  502  0.13090725405E+04 -0.10344320001E+03  0.97040432214E+03  0.16328061613E+04  0.50400001928E-02 0.  1.
</event>
<event>
 5   0  0.3283581E-08  0.3198559E+04  0.7818609E-02  0.8189198E-01
       -1   -1    0    0    0  501  0.00000000000E+00  0.00000000000E+00  0.97451484352E+03  0.97451484354E+03  0.50400001928E-02 0. -1.
        1   -1    0    0  501    0  0.00000000000E+00  0.00000000000E+00 -0.26245823947E+04  0.26245823947E+04  0.50400001928E-02 0.  1.
    10030    2    1    2    0    0  0.00000000000E+00  0.00000000000E+00 -0.16500675512E+04  0.35990972383E+04  0.31985587390E+04 0.  0.
        5    1    3    3  502    0  0.68595508373E+03  0.11042343541E+04 -0.18732483773E+04  0.22801204921E+04  0.46999998093E+01 0.  1.
       -5    1    3    3    0  502 -0.68595508373E+03 -0.11042343541E+04  0.22318082604E+03  0.13189767461E+04  0.46999998093E+01 0. -1.
</event>
<event>
 5   0  0.9157524E-08  0.3196620E+04  0.7818609E-02  0.8189710E-01
        2   -1    0    0  501    0  0.00000000000E+00  0.00000000000E+00  0.19120571216E+04  0.19120571216E+04  0.25500000920E-02 0. -1.
       -2   -1    0    0    0  501  0.00000000000E+00  0.00000000000E+00 -0.13360456082E+04  0.13360456082E+04  0.25500000920E-02 0.  1.
    10030    2    1    2    0    0  0.00000000000E+00  0.00000000000E+00  0.57601151342E+03  0.32481027298E+04  0.31966204153E+04 0.  0.
        5    1    3    3  502    0  0.10473848132E+04 -0.11619035463E+04  0.62121799336E+03  0.16831425023E+04  0.46999998093E+01 0.  1.
       -5    1    3    3    0  502 -0.10473848132E+04  0.11619035463E+04 -0.45206479933E+02  0.15649602275E+04  0.46999998093E+01 0. -1.
</event>
<event>
 5   0  0.3220147E-08  0.3200389E+04  0.7818609E-02  0.8188714E-01
       -1   -1    0    0    0  501  0.00000000000E+00  0.00000000000E+00  0.17535555817E+04  0.17535555817E+04  0.50400001928E-02 0. -1.
        1   -1    0    0  501    0  0.00000000000E+00  0.00000000000E+00 -0.14602458654E+04  0.14602458654E+04  0.50400001928E-02 0.  1.
    10030    2    1    2    0    0  0.00000000000E+00  0.00000000000E+00  0.29330971629E+03  0.32138014471E+04  0.32003889064E+04 0.  0.
        4    1    3    3  502    0 -0.10733084141E+04 -0.75521939166E+02 -0.10427609119E+04  0.14983479060E+04  0.12699999809E+01 0.  1.
       -4    1    3    3    0  502  0.10733084141E+04  0.75521939166E+02  0.13360706282E+04  0.17154535411E+04  0.12699999809E+01 0. -1.
</event>
<event>
 5   0  0.3080500E-08  0.3199297E+04  0.7818609E-02  0.8189003E-01
        3   -1    0    0  501    0  0.00000000000E+00  0.00000000000E+00  0.16497637073E+04  0.16497637104E+04  0.10100000352E+00 0.  1.
       -3   -1    0    0    0  501  0.00000000000E+00  0.00000000000E+00 -0.15510551633E+04  0.15510551666E+04  0.10100000352E+00 0. -1.
    10030    2    1    2    0    0  0.00000000000E+00  0.00000000000E+00  0.98708543965E+02  0.32008188770E+04  0.31992965018E+04 0.  0.
        4    1    3    3  502    0 -0.11399421266E+04  0.88623116262E+03 -0.63944932672E+03  0.15791677491E+04  0.12699999809E+01 0. -1.
       -4    1    3    3    0  502  0.11399421266E+04 -0.88623116262E+03  0.73815787068E+03  0.16216511279E+04  0.12699999809E+01 0.  1.
</event>
<event>
 5   0  0.9157524E-08  0.3200752E+04  0.7818609E-02  0.8188619E-01
       -2   -1    0    0    0  501  0.00000000000E+00  0.00000000000E+00  0.12300101444E+04  0.12300101444E+04  0.25500000920E-02 0.  1.
        2   -1    0    0  501    0  0.00000000000E+00  0.00000000000E+00 -0.20822620194E+04  0.20822620194E+04  0.25500000920E-02 0. -1.
    10030    2    1    2    0    0  0.00000000000E+00  0.00000000000E+00 -0.85225187504E+03  0.33122721638E+04  0.32007520411E+04 0.  0.
        5    1    3    3  502    0  0.15554777546E+04 -0.29957566391E+02 -0.81439553330E+03  0.17560383468E+04  0.46999998093E+01 0. -1.
       -5    1    3    3    0  502 -0.15554777546E+04  0.29957566391E+02 -0.37856341744E+02  0.15562338170E+04  0.46999998093E+01 0.  1.
</event>
<event>
 5   0  0.3283581E-08  0.3185362E+04  0.7818609E-02  0.8192694E-01
        1   -1    0    0  501    0  0.00000000000E+00  0.00000000000E+00  0.18177099481E+04  0.18177099481E+04  0.50400001928E-02 0.  1.
       -1   -1    0    0    0  501  0.00000000000E+00  0.00000000000E+00 -0.13955106147E+04  0.13955106147E+04  0.50400001928E-02 0. -1.
    10030    2    1    2    0    0  0.00000000000E+00  0.00000000000E+00  0.42219933343E+03  0.32132205628E+04  0.31853624767E+04 0.  0.
        5    1    3    3  502    0  0.40939486507E+03 -0.89377203830E+03  0.14751263325E+04  0.17726963640E+04  0.46999998093E+01 0.  1.
       -5    1    3    3    0  502 -0.40939486507E+03  0.89377203830E+03 -0.10529269991E+04  0.14405241988E+04  0.46999998093E+01 0. -1.
</event>
<event>
 5   0  0.9727083E-08  0.3200457E+04  0.7818609E-02  0.8188696E-01
        2   -1    0    0  501    0  0.00000000000E+00  0.00000000000E+00  0.22675430803E+04  0.22675430803E+04  0.25500000920E-02 0. -1.
       -2   -1    0    0    0  501  0.00000000000E+00  0.00000000000E+00 -0.11292977703E+04  0.11292977703E+04  0.25500000920E-02 0.  1.
    10030    2    1    2    0    0  0.00000000000E+00  0.00000000000E+00  0.11382453100E+04  0.33968408506E+04  0.32004570578E+04 0.  0.
        4    1    3    3  502    0  0.71909482710E+03  0.60511447199E+03  0.19437672403E+04  0.21590492334E+04  0.12699999809E+01 0. -1.
       -4    1    3    3    0  502 -0.71909482710E+03 -0.60511447199E+03 -0.80552193038E+03  0.12377916173E+04  0.12699999809E+01 0.  1.
</event>
<event>
 5   0  0.3220147E-08  0.3200613E+04  0.7818609E-02  0.8188655E-01
       -1   -1    0    0    0  501  0.00000000000E+00  0.00000000000E+00  0.15911938688E+04  0.15911938688E+04  0.50400001928E-02 0. -1.
        1   -1    0    0  501    0  0.00000000000E+00  0.00000000000E+00 -0.16094712519E+04  0.16094712519E+04  0.50400001928E-02 0.  1.
    10030    2    1    2    0    0  0.00000000000E+00  0.00000000000E+00 -0.18277383032E+02  0.32006651207E+04  0.32006129338E+04 0.  0.
        4    1    3    3  502    0 -0.39807204493E+03 -0.14486198283E+04  0.54224894846E+03  0.15971838638E+04  0.12699999809E+01 0. -1.
       -4    1    3    3    0  502  0.39807204493E+03  0.14486198283E+04 -0.56052633149E+03  0.16034812569E+04  0.12699999809E+01 0.  1.
</event>
<event>
 5   0  0.3427667E-08  0.3200565E+04  0.7818609E-02  0.8188668E-01
       -1   -1    0    0    0  501  0.00000000000E+00  0.00000000000E+00  0.21898806502E+04  0.21898806502E+04  0.50400001928E-02 0.  1.
        1   -1    0    0  501    0  0.00000000000E+00  0.00000000000E+00 -0.11694264346E+04  0.11694264346E+04  0.50400001928E-02 0. -1.
    10030    2    1    2    0    0  0.00000000000E+00  0.00000000000E+00  0.10204542156E+04  0.33593070848E+04  0.32005651507E+04 0.  0.
        2    1    3    3  502    0 -0.18547070037E+03 -0.62350210330E+03 -0.10243951689E+04  0.12134824744E+04  0.25500000920E-02 0. -1.
       -2    1    3    3    0  502  0.18547070037E+03  0.62350210330E+03  0.20448493845E+04  0.21458246105E+04  0.25500000920E-02 0.  1.
</event>
<event>
 5   0  0.3270966E-08  0.3199549E+04  0.7818609E-02  0.8188936E-01
        1   -1    0    0  501    0  0.00000000000E+00  0.00000000000E+00  0.19694614091E+04  0.19694614091E+04  0.50400001928E-02 0.  1.
       -1   -1    0    0    0  501  0.00000000000E+00  0.00000000000E+00 -0.12994813667E+04  0.12994813667E+04  0.50400001928E-02 0. -1.
    10030    2    1    2    0    0  0.00000000000E+00  0.00000000000E+00  0.66998004233E+03  0.32689427758E+04  0.31995489705E+04 0.  0.
        3    1    3    3  502    0  0.12221709791E+04 -0.42975801298E+03 -0.62392042748E+03  0.14379396934E+04  0.10100000352E+00 0. -1.
       -3    1    3    3    0  502 -0.12221709791E+04  0.42975801298E+03  0.12939004698E+04  0.18310030824E+04  0.10100000352E+00 0.  1.
</event>
<event>
 5   0  0.9707721E-08  0.3196505E+04  0.7818609E-02  0.8189741E-01
       -2   -1    0    0    0  501  0.00000000000E+00  0.00000000000E+00  0.11352174850E+04  0.11352174850E+04  0.25500000920E-02 0.  1.
        2   -1    0    0  501    0  0.00000000000E+00  0.00000000000E+00 -0.22501506088E+04  0.22501506088E+04  0.25500000920E-02 0. -1.
    10030    2    1    2    0    0  0.00000000000E+00  0.00000000000E+00 -0.11149331239E+04  0.33853680938E+04  0.31965045377E+04 0.  0.
        3    1    3    3  502    0 -0.69621149880E+03 -0.13771532579E+04 -0.11676939167E+03  0.15475453621E+04  0.10100000352E+00 0.  1.
       -3    1    3    3    0  502  0.69621149880E+03  0.13771532579E+04 -0.99816373221E+03  0.18378227317E+04  0.10100000352E+00 0. -1.
</event>
<event>
 5   0  0.3427667E-08  0.3199671E+04  0.7818609E-02  0.8188904E-01
       -1   -1    0    0    0  501  0.00000000000E+00  0.00000000000E+00  0.12991067825E+04  0.12991067825E+04  0.50400001928E-02 0.  1.
        1   -1    0    0  501    0  0.00000000000E+00  0.00000000000E+00 -0.19701791731E+04  0.19701791731E+04  0.50400001928E-02 0. -1.
    10030    2    1    2    0    0  0.00000000000E+00  0.00000000000E+00 -0.67107239060E+03  0.32692859556E+04  0.31996706871E+04 0.  0.
        2    1    3    3  502    0 -0.42205693406E+03 -0.15143420835E+03  0.12335874432E+04  0.13125556579E+04  0.25500000920E-02 0.  1.
       -2    1    3    3    0  502  0.42205693406E+03  0.15143420835E+03 -0.19046598339E+04  0.19567302977E+04  0.25500000920E-02 0. -1.
</event>
<event>
 5   0  0.3427667E-08  0.3200304E+04  0.7818609E-02  0.8188737E-01
       -1   -1    0    0    0  501  0.00000000000E+00  0.00000000000E+00  0.14190856275E+04  0.14190856275E+04  0.50400001928E-02 0.  1.
        1   -1    0    0  501    0  0.00000000000E+00  0.00000000000E+00 -0.18043217499E+04  0.18043217499E+04  0.50400001928E-02 0. -1.
    10030    2    1    2    0    0  0.00000000000E+00  0.00000000000E+00 -0.38523612235E+03  0.32234073774E+04  0.32003043997E+04 0.  0.
        2    1    3    3  502    0  0.49754275390E+03  0.11473383478E+04  0.81286348536E+03  0.14915364971E+04  0.25500000920E-02 0.  1.
       -2    1    3    3    0  502 -0.49754275390E+03 -0.11473383478E+04 -0.11980996077E+04  0.17318708804E+04  0.25500000920E-02 0. -1.
</event>
<event>
 5   0  0.9157524E-08  0.3199512E+04  0.7818609E-02  0.8188946E-01
       -2   -1    0    0    0  501  0.00000000000E+00  0.00000000000E+00  0.97013726388E+03  0.97013726388E+03  0.25500000920E-02 0. -1.
        2   -1    0    0  501    0  0.00000000000E+00  0.00000000000E+00 -0.26379970923E+04  0.26379970923E+04  0.25500000920E-02 0.  1.
    10030    2    1    2    0    0  0.00000000000E+00  0.00000000000E+00 -0.16678598284E+04  0.36081343562E+04  0.31995120136E+04 0.  0.
        5    1    3    3  502    0 -0.46414592413E+03  0.60454998478E+03  0.75221693306E+03  0.10708709200E+04  0.46999998093E+01 0. -1.
       -5    1    3    3    0  502  0.46414592413E+03 -0.60454998478E+03 -0.24200767615E+04  0.25372634362E+04  0.46999998093E+01 0.  1.
</event>
<event>
 5   0  0.9727083E-08  0.3196612E+04  0.7818609E-02  0.8189713E-01
        2   -1    0    0  501    0  0.00000000000E+00  0.00000000000E+00  0.21549857269E+04  0.21549857269E+04  0.25500000920E-02 0.  1.
       -2   -1    0    0    0  501  0.00000000000E+00  0.00000000000E+00 -0.11854284791E+04  0.11854284792E+04  0.25500000920E-02 0. -1.
    10030    2    1    2    0    0  0.00000000000E+00  0.00000000000E+00  0.96955724776E+03  0.33404142061E+04  0.31966116141E+04 0.  0.
        4    1    3    3  502    0  0.95372491164E+03 -0.58723236014E+03 -0.70675593408E+03  0.13243634755E+04  0.12699999809E+01 0. -1.
       -4    1    3    3    0  502 -0.95372491164E+03  0.58723236014E+03  0.16763131818E+04  0.20160507306E+04  0.12699999809E+01 0.  1.
</event>
<event>
 5   0  0.3427667E-08  0.3202385E+04  0.7818609E-02  0.8188188E-01
       -1   -1    0    0    0  501  0.00000000000E+00  0.00000000000E+00  0.19818034906E+04  0.19818034906E+04  0.50400001928E-02 0. -1.
        1   -1    0    0  501    0  0.00000000000E+00  0.00000000000E+00 -0.12936786174E+04  0.12936786174E+04  0.50400001928E-02 0.  1.
    10030    2    1    2    0    0  0.00000000000E+00  0.00000000000E+00  0.68812487324E+03  0.32754821081E+04  0.32023846113E+04 0.  0.
        2    1    3    3  502    0 -0.42489144306E+01 -0.15854081252E+04  0.57341236664E+03  0.16859236990E+04  0.25500000920E-02 0.  1.
       -2    1    3    3    0  502  0.42489144306E+01  0.15854081252E+04  0.11471250660E+03  0.15895584091E+04  0.25500000920E-02 0. -1.
</event>
<event>
 5   0  0.3270966E-08  0.3200114E+04  0.7818609E-02  0.8188787E-01
       -1   -1    0    0    0  501  0.00000000000E+00  0.00000000000E+00  0.26044998594E+04  0.26044998594E+04  0.50400001928E-02 0. -1.
        1   -1    0    0  501    0  0.00000000000E+00  0.00000000000E+00 -0.98298457071E+03  0.98298457072E+03  0.50400001928E-02 0.  1.
    10030    2    1    2    0    0  0.00000000000E+00  0.00000000000E+00  0.16215152887E+04  0.35874844302E+04  0.32001144831E+04 0.  0.
        3    1    3    3  502    0 -0.15225284538E+04  0.41806975930E+03  0.11016000252E+04  0.19252007277E+04  0.10100000352E+00 0. -1.
       -3    1    3    3    0  502  0.15225284538E+04 -0.41806975930E+03  0.51991526355E+03  0.16622837025E+04  0.10100000352E+00 0.  1.
</event>
<event>
 5   0  0.3270966E-08  0.3200726E+04  0.7818609E-02  0.8188626E-01
       -1   -1    0    0    0  501  0.00000000000E+00  0.00000000000E+00  0.10702472181E+04  0.10702472182E+04  0.50400001928E-02 0. -1.
        1   -1    0    0  501    0  0.00000000000E+00  0.00000000000E+00 -0.23930559031E+04  0.23930559031E+04  0.50400001928E-02 0.  1.
    10030    2    1    2    0    0  0.00000000000E+00  0.00000000000E+00 -0.13228086850E+04  0.34633031213E+04  0.32007258072E+04 0.  0.
        3    1    3    3  502    0 -0.11919949747E+04 -0.31103670548E+03  0.44395096777E+03  0.13094610814E+04  0.10100000352E+00 0. -1.
       -3    1    3    3    0  502  0.11919949747E+04  0.31103670548E+03 -0.17667596528E+04  0.21538420399E+04  0.10100000352E+00 0.  1.
</event>
<event>
 5   0  0.9353994E-08  0.3200167E+04  0.7818609E-02  0.8188773E-01
        2   -1    0    0  501    0  0.00000000000E+00  0.00000000000E+00  0.16520341498E+04  0.16520341498E+04  0.25500000920E-02 0.  1.
       -2   -1    0    0    0  501  0.00000000000E+00  0.00000000000E+00 -0.15497661870E+04  0.15497661870E+04  0.25500000920E-02 0. -1.
    10030    2    1    2    0    0  0.00000000000E+00  0.00000000000E+00  0.10226796277E+03  0.32018003367E+04  0.32001666613E+04 0.  0.
        2    1    3    3  502    0  0.10975200223E+04  0.11157860750E+04 -0.28180894500E+03  0.15902657155E+04  0.25500000920E-02 0. -1.
       -2    1    3    3    0  502 -0.10975200223E+04 -0.11157860750E+04  0.38407690777E+03  0.16115346212E+04  0.25500000920E-02 0.  1.
</event>
<event>
 5   0  0.3343140E-08  0.3182078E+04  0.7818609E-02  0.8193567E-01
        1   -1    0    0  501    0  0.00000000000E+00  0.00000000000E+00  0.20439793516E+04  0.20439793516E+04  0.50400001928E-02 0. -1.
       -1   -1    0    0    0  501  0.00000000000E+00  0.00000000000E+00 -0.12384687021E+04  0.12384687021E+04  0.50400001928E-02 0.  1.
    10030    2    1    2    0    0  0.00000000000E+00  0.00000000000E+00  0.80551064950E+03  0.32824480538E+04  0.31820775948E+04 0.  0.
        1    1    3    3  502    0  0.51234072218E+03 -0.85461558655E+03 -0.87674972918E+03  0.13272343064E+04  0.50400001928E-02 0.  1.
       -1    1    3    3    0  502 -0.51234072218E+03  0.85461558655E+03  0.16822603787E+04  0.19552137474E+04  0.50400001928E-02 0. -1.
</event>
<event>
 5   0  0.9157524E-08  0.3193364E+04  0.7818609E-02  0.8190572E-01
        2   -1    0    0  501    0  0.00000000000E+00  0.00000000000E+00  0.15351358927E+04  0.15351358927E+04  0.25500000920E-02 0. -1.
       -2   -1    0    0    0  501  0.00000000000E+00  0.00000000000E+00 -0.16606954623E+04  0.16606954623E+04  0.25500000920E-02 0.  1.
    10030    2    1    2    0    0  0.00000000000E+00  0.00000000000E+00 -0.12555956959E+03  0.31958313549E+04  0.31933638759E+04 0.  0.
        5    1    3    3  502    0  0.12371416615E+04 -0.36245770744E+03 -0.10055671720E+04  0.16349564238E+04  0.46999998093E+01 0.  1.
       -5    1    3    3    0  502 -0.12371416615E+04  0.36245770744E+03  0.88000760241E+03  0.15608749311E+04  0.46999998093E+01 0. -1.
</event>
<event>
 5   0  0.3270966E-08  0.3199517E+04  0.7818609E-02  0.8188945E-01
       -1   -1    0    0    0  501  0.00000000000E+00  0.00000000000E+00  0.10268172473E+04  0.10268172473E+04  0.50400001928E-02 0. -1.
        1   -1    0    0  501    0  0.00000000000E+00  0.00000000000E+00 -0.24923876176E+04  0.24923876176E+04  0.50400001928E-02 0.  1.
    10030    2    1    2    0    0  0.00000000000E+00  0.00000000000E+00 -0.14655703702E+04  0.35192048649E+04  0.31995165840E+04 0.  0.
        3    1    3    3  502    0 -0.99934117817E+03  0.12221552816E+04 -0.44833307518E+03  0.16411425530E+04  0.10100000352E+00 0. -1.
       -3    1    3    3    0  502  0.99934117817E+03 -0.12221552816E+04 -0.10172372951E+04  0.18780623119E+04  0.10100000352E+00 0.  1.
</event>
<event>
 5   0  0.9353994E-08  0.3197811E+04  0.7818609E-02  0.8189396E-01
       -2   -1    0    0    0  501  0.00000000000E+00  0.00000000000E+00  0.98115320261E+03  0.98115320261E+03  0.25500000920E-02 0. -1.
        2   -1    0    0  501    0  0.00000000000E+00  0.00000000000E+00 -0.26056061271E+04  0.26056061271E+04  0.25500000920E-02 0.  1.
    10030    2    1    2    0    0  0.00000000000E+00  0.00000000000E+00 -0.16244529245E+04  0.35867593297E+04  0.31978109990E+04 0.  0.
        2    1    3    3  502    0 -0.35649768007E+03  0.43785348633E+03 -0.24900630099E+04  0.25532763393E+04  0.25500000920E-02 0.  1.
       -2    1    3    3    0  502  0.35649768007E+03 -0.43785348633E+03  0.86561008546E+03  0.10334829904E+04  0.25500000920E-02 0. -1.
</event>
<event>
 5   0  0.9157524E-08  0.3198189E+04  0.7818609E-02  0.8189296E-01
       -2   -1    0    0    0  501  0.00000000000E+00  0.00000000000E+00  0.15090842152E+04  0.15090842152E+04  0.25500000920E-02 0. -1.
        2   -1    0    0  501    0  0.00000000000E+00  0.00000000000E+00 -0.16944737549E+04  0.16944737549E+04  0.25500000920E-02 0.  1.
    10030    2    1    2    0    0  0.00000000000E+00  0.00000000000E+00 -0.18538953973E+03  0.32035579702E+04  0.31981892356E+04 0.  0.
        5    1    3    3  502    0 -0.13788754003E+04 -0.69022679817E+03 -0.51692798740E+03  0.16263293137E+04  0.46999998093E+01 0.  1.
       -5    1    3    3    0  502  0.13788754003E+04  0.69022679817E+03  0.33153844767E+03  0.15772286565E+04  0.46999998093E+01 0. -1.
</event>
<event>
 5   0  0.3343140E-08  0.3201740E+04  0.7818609E-02  0.8188358E-01
        1   -1    0    0  501    0  0.00000000000E+00  0.00000000000E+00  0.22111501967E+04  0.22111501967E+04  0.50400001928E-02 0. -1.
       -1   -1    0    0    0  501  0.00000000000E+00  0.00000000000E+00 -0.11590281100E+04  0.11590281100E+04  0.50400001928E-02 0.  1.
    10030    2    1    2    0    0  0.00000000000E+00  0.00000000000E+00  0.10521220867E+04  0.33701783067E+04  0.32017402976E+04 0.  0.
        1    1    3    3  502    0  0.94605217016E+03  0.19467874029E+03 -0.81776593189E+03  0.12655653440E+04  0.50400001928E-02 0.  1.
       -1    1    3    3    0  502 -0.94605217016E+03 -0.19467874029E+03  0.18698880186E+04  0.21046129627E+04  0.50400001928E-02 0. -1.
</event>
<event>
 5   0  0.3220147E-08  0.3200429E+04  0.7818609E-02  0.8188704E-01
        1   -1    0    0  501    0  0.00000000000E+00  0.00000000000E+00  0.83288726361E+03  0.83288726362E+03  0.50400001928E-02 0.  1.
       -1   -1    0    0    0  501  0.00000000000E+00  0.00000000000E+00 -0.30744696773E+04  0.30744696773E+04  0.50400001928E-02 0. -1.
    10030    2    1    2    0    0  0.00000000000E+00  0.00000000000E+00 -0.22415824137E+04  0.39073569409E+04  0.32004291191E+04 0.  0.
        4    1    3    3  502    0  0.41933752197E+03 -0.12318384250E+04 -0.22578642859E+04  0.26059974307E+04  0.12699999809E+01 0. -1.
       -4    1    3    3    0  502 -0.41933752197E+03  0.12318384250E+04  0.16281872198E+02  0.13013595102E+04  0.12699999809E+01 0.  1.
</event>
<event>
 5   0  0.9707721E-08  0.3203740E+04  0.7818609E-02  0.8187830E-01
       -2   -1    0    0    0  501  0.00000000000E+00  0.00000000000E+00  0.10760219987E+04  0.10760219987E+04  0.25500000920E-02 0. -1.
        2   -1    0    0  501    0  0.00000000000E+00  0.00000000000E+00 -0.23846982320E+04  0.23846982320E+04  0.25500000920E-02 0.  1.
    10030    2    1    2    0    0  0.00000000000E+00  0.00000000000E+00 -0.13086762333E+04  0.34607202307E+04  0.32037401629E+04 0.  0.
        3    1    3    3  502    0  0.44281875578E+03 -0.13325063347E+04  0.17842528658E+03  0.14154494606E+04  0.10100000352E+00 0. -1.
       -3    1    3    3    0  502 -0.44281875578E+03  0.13325063347E+04 -0.14871015199E+04  0.20452707701E+04  0.10100000352E+00 0.  1.
</event>
<event>
 5   0  0.3283581E-08  0.3199649E+04  0.7818609E-02  0.8188910E-01
       -1   -1    0    0    0  501  0.00000000000E+00  0.00000000000E+00  0.26065148630E+04  0.26065148630E+04  0.50400001928E-02 0. -1.
        1   -1    0    0  501    0  0.00000000000E+00  0.00000000000E+00 -0.98193911024E+03  0.98193911025E+03  0.50400001928E-02 0.  1.
    10030    2    1    2    0    0  0.00000000000E+00  0.00000000000E+00  0.16245757528E+04  0.35884539733E+04  0.31996492842E+04 0.  0.
        5    1    3    3  502    0 -0.15079258068E+04  0.14520838196E+02  0.21317881317E+03  0.15229965167E+04  0.46999998093E+01 0.  1.
       -5    1    3    3    0  502  0.15079258068E+04 -0.14520838196E+02  0.14113969396E+04  0.20654574565E+04  0.46999998093E+01 0. -1.
</event>
<event>
 5   0  0.9329929E-08  0.3199520E+04  0.7818609E-02  0.8188944E-01
       -2   -1    0    0    0  501  0.00000000000E+00  0.00000000000E+00  0.22353959730E+04  0.22353959730E+04  0.25500000920E-02 0. -1.
        2   -1    0    0  501    0  0.00000000000E+00  0.00000000000E+00 -0.11448673297E+04  0.11448673297E+04  0.25500000920E-02 0.  1.
    10030    2    1    2    0    0  0.00000000000E+00  0.00000000000E+00  0.10905286433E+04  0.33802633027E+04  0.31995198505E+04 0.  0.
        1    1    3    3  502    0  0.29309103233E+03 -0.12501090278E+04  0.15534006446E+04  0.20153730418E+04  0.50400001928E-02 0. -1.
       -1    1    3    3    0  502 -0.29309103233E+03  0.12501090278E+04 -0.46287200131E+03  0.13648902609E+04  0.50400001928E-02 0.  1.
</event>
<event>
 5   0  0.3343140E-08  0.3200076E+04  0.7818609E-02  0.8188797E-01
       -1   -1    0    0    0  501  0.00000000000E+00  0.00000000000E+00  0.89864930369E+03  0.89864930371E+03  0.50400001928E-02 0. -1.
        1   -1    0    0  501    0  0.00000000000E+00  0.00000000000E+00 -0.28488544321E+04  0.28488544321E+04  0.50400001928E-02 0.  1.
    10030    2    1    2    0    0  0.00000000000E+00  0.00000000000E+00 -0.19502051284E+04  0.37475037358E+04  0.32000756565E+04 0.  0.
        1    1    3    3  502    0  0.37113655411E+03  0.25680045719E+03 -0.27727698119E+04  0.28092599108E+04  0.50400001928E-02 0.  1.
       -1    1    3    3    0  502 -0.37113655411E+03 -0.25680045719E+03  0.82256468350E+03  0.93824382501E+03  0.50400001928E-02 0. -1.
</event>
<event>
 5   0  0.9353994E-08  0.3201805E+04  0.7818609E-02  0.8188341E-01
        2   -1    0    0  501    0  0.00000000000E+00  0.00000000000E+00  0.21098269994E+04  0.21098269994E+04  0.25500000920E-02 0. -1.
       -2   -1    0    0    0  501  0.00000000000E+00  0.00000000000E+00 -0.12147388625E+04  0.12147388625E+04  0.25500000920E-02 0.  1.
    10030    2    1    2    0    0  0.00000000000E+00  0.00000000000E+00  0.89508813686E+03  0.33245658619E+04  0.32018050217E+04 0.  0.
        2    1    3    3  502    0 -0.12021760797E+04 -0.81829201187E+03 -0.24749305910E+03  0.14751548928E+04  0.25500000920E-02 0.  1.
       -2    1    3    3    0  502  0.12021760797E+04  0.81829201187E+03  0.11425811960E+04  0.18494109691E+04  0.25500000920E-02 0. -1.
</event>
<event>
 5   0  0.3270966E-08  0.3200271E+04  0.7818609E-02  0.8188746E-01
        1   -1    0    0  501    0  0.00000000000E+00  0.00000000000E+00  0.20474754880E+04  0.20474754880E+04  0.50400001928E-02 0.  1.
       -1   -1    0    0    0  501  0.00000000000E+00  0.00000000000E+00 -0.12505319833E+04  0.12505319834E+04  0.50400001928E-02 0. -1.
    10030    2    1    2    0    0  0.00000000000E+00  0.00000000000E+00  0.79694350467E+03  0.32980074714E+04  0.32002709778E+04 0.  0.
        3    1    3    3  502    0  0.87181579719E+03 -0.40246284457E+03  0.17175608042E+04  0.19677536054E+04  0.10100000352E+00 0.  1.
       -3    1    3    3    0  502 -0.87181579719E+03  0.40246284457E+03 -0.92061729950E+03  0.13302538659E+04  0.10100000352E+00 0. -1.
</event>
<event>
 5   0  0.9727083E-08  0.3198510E+04  0.7818609E-02  0.8189211E-01
        2   -1    0    0  501    0  0.00000000000E+00  0.00000000000E+00  0.27418828374E+04  0.27418828374E+04  0.25500000920E-02 0.  1.
       -2   -1    0    0    0  501  0.00000000000E+00  0.00000000000E+00 -0.93279587214E+03  0.93279587214E+03  0.25500000920E-02 0. -1.
    10030    2    1    2    0    0  0.00000000000E+00  0.00000000000E+00  0.18090869653E+04  0.36746787096E+04  0.31985102736E+04 0.  0.
        4    1    3    3  502    0 -0.15411436891E+03  0.14720875615E+04  0.20871929866E+03  0.14947770355E+04  0.12699999809E+01 0. -1.
       -4    1    3    3    0  502  0.15411436891E+03 -0.14720875615E+04  0.16003676666E+04  0.21799016741E+04  0.12699999809E+01 0.  1.
</event>
<event>
 5   0  0.9329929E-08  0.3198543E+04  0.7818609E-02  0.8189202E-01
       -2   -1    0    0    0  501  0.00000000000E+00  0.00000000000E+00  0.10951709391E+04  0.10951709391E+04  0.25500000920E-02 0.  1.
        2   -1    0    0  501    0  0.00000000000E+00  0.00000000000E+00 -0.23354071367E+04  0.23354071367E+04  0.25500000920E-02 0. -1.
    10030    2    1    2    0    0  0.00000000000E+00  0.00000000000E+00 -0.12402361975E+04  0.34305780758E+04  0.31985434355E+04 0.  0.
        1    1    3    3  502    0 -0.22747338811E+03  0.11136444782E+04  0.58653989868E+03  0.12790532510E+04  0.50400001928E-02 0.  1.
       -1    1    3    3    0  502  0.22747338811E+03 -0.11136444782E+04 -0.18267760962E+04  0.21515248248E+04  0.50400001928E-02 0. -1.
</event>
<event>
 5   0  0.3270966E-08  0.3201221E+04  0.7818609E-02  0.8188495E-01
       -1   -1    0    0    0  501  0.00000000000E+00  0.00000000000E+00  0.20956486678E+04  0.20956486678E+04  0.50400001928E-02 0.  1.
        1   -1    0    0  501    0  0.00000000000E+00  0.00000000000E+00 -0.12225115114E+04  0.12225115114E+04  0.50400001928E-02 0. -1.
    10030    2    1    2    0    0  0.00000000000E+00  0.00000000000E+00  0.87313715643E+03  0.33181601792E+04  0.32012214045E+04 0.  0.
        3    1    3    3  502    0 -0.14202527507E+04  0.35733610381E+03 -0.23289434877E+03  0.14829183238E+04  0.10100000352E+00 0.  1.
       -3    1    3    3    0  502  0.14202527507E+04 -0.35733610381E+03  0.11060315052E+04  0.18352418554E+04  0.10100000352E+00 0. -1.
</event>
<event>
 5   0  0.3283581E-08  0.3199777E+04  0.7818609E-02  0.8188876E-01
        1   -1    0    0  501    0  0.00000000000E+00  0.00000000000E+00  0.20252492826E+04  0.20252492826E+04  0.50400001928E-02 0.  1.
       -1   -1    0    0    0  501  0.00000000000E+00  0.00000000000E+00 -0.12638657066E+04  0.12638657066E+04  0.50400001928E-02 0. -1.
    10030    2    1    2    0    0  0.00000000000E+00  0.00000000000E+00  0.76138357596E+03  0.32891149892E+04  0.31997769395E+04 0.  0.
        5    1    3    3  502    0  0.10698225124E+04  0.11893630640E+04  0.35733470238E+03  0.16391506598E+04  0.46999998093E+01 0.  1.
       -5    1    3    3    0  502 -0.10698225124E+04 -0.11893630640E+04  0.40404887358E+03  0.16499643294E+04  0.46999998093E+01 0. -1.
</event>
<event>
 5   0  0.3270966E-08  0.3179255E+04  0.7818609E-02  0.8194317E-01
        1   -1    0    0  501    0  0.00000000000E+00  0.00000000000E+00  0.22611662394E+04  0.22611662394E+04  0.50400001928E-02 0.  1.
       -1   -1    0    0    0  501  0.00000000000E+00  0.00000000000E+00 -0.11175275734E+04  0.11175275734E+04  0.50400001928E-02 0. -1.
    10030    2    1    2    0    0  0.00000000000E+00  0.00000000000E+00  0.11436386660E+04  0.33786938128E+04  0.31792550200E+04 0.  0.
        3    1    3    3  502    0  0.15004049544E+04 -0.80047240501E+02  0.11233072749E+04  0.18760175457E+04  0.10100000352E+00 0.  1.
       -3    1    3    3    0  502 -0.15004049544E+04  0.80047240501E+02  0.20331391112E+02  0.15026762671E+04  0.10100000352E+00 0. -1.
</event>
<event>
 5   0  0.3080500E-08  0.3202285E+04  0.7818609E-02  0.8188214E-01
        3   -1    0    0  501    0  0.00000000000E+00  0.00000000000E+00  0.17002290224E+04  0.17002290254E+04  0.10100000352E+00 0.  1.
       -3   -1    0    0    0  501  0.00000000000E+00  0.00000000000E+00 -0.15078302754E+04  0.15078302787E+04  0.10100000352E+00 0. -1.
    10030    2    1    2    0    0  0.00000000000E+00  0.00000000000E+00  0.19239874700E+03  0.32080593041E+04  0.32022846876E+04 0.  0.
        2    1    3    3  502    0 -0.61737003964E+03 -0.12681544680E+04 -0.66298991964E+03  0.15584983651E+04  0.25500000920E-02 0. -1.
       -2    1    3    3    0  502  0.61737003964E+03  0.12681544680E+04  0.85538866664E+03  0.16495609390E+04  0.25500000920E-02 0.  1.
</event>
<event>
 5   0  0.9353994E-08  0.3199118E+04  0.7818609E-02  0.8189050E-01
       -2   -1    0    0    0  501  0.00000000000E+00  0.00000000000E+00  0.15599572700E+04  0.15599572700E+04  0.25500000920E-02 0. -1.
        2   -1    0    0  501    0  0.00000000000E+00  0.00000000000E+00 -0.16401661655E+04  0.16401661655E+04  0.25500000920E-02 0.  1.
    10030    2    1    2    0    0  0.00000000000E+00  0.00000000000E+00 -0.80208895475E+02  0.32001234355E+04  0.31991180872E+04 0.  0.
        2    1    3    3  502    0  0.42153467593E+03  0.65587679341E+03  0.13570174281E+04  0.15650438177E+04  0.25500000920E-02 0. -1.
       -2    1    3    3    0  502 -0.42153467593E+03 -0.65587679341E+03 -0.14372263236E+04  0.16350796178E+04  0.25500000920E-02 0.  1.
</event>
<event>
 5   0  0.3270966E-08  0.3200088E+04  0.7818609E-02  0.8188794E-01
       -1   -1    0    0    0  501  0.00000000000E+00  0.00000000000E+00  0.13978151568E+04  0.13978151568E+04  0.50400001928E-02 0.  1.
        1   -1    0    0  501    0  0.00000000000E+00  0.00000000000E+00 -0.18315301869E+04  0.18315301869E+04  0.50400001928E-02 0. -1.
    10030    2    1    2    0    0  0.00000000000E+00  0.00000000000E+00 -0.43371503013E+03  0.32293453437E+04  0.32000879084E+04 0.  0.
        3    1    3    3  502    0 -0.12134566733E+02 -0.18110120948E+03  0.13873923928E+04  0.13992149790E+04  0.10100000352E+00 0.  1.
       -3    1    3    3    0  502  0.12134566733E+02  0.18110120948E+03 -0.18211074229E+04  0.18301303647E+04  0.10100000352E+00 0. -1.
</event>
<event>
 5   0  0.9329929E-08  0.3201893E+04  0.7818609E-02  0.8188317E-01
       -2   -1    0    0    0  501  0.00000000000E+00  0.00000000000E+00  0.13475460702E+04  0.13475460702E+04  0.25500000920E-02 0. -1.
        2   -1    0    0  501    0  0.00000000000E+00  0.00000000000E+00 -0.19019979898E+04  0.19019979898E+04  0.25500000920E-02 0.  1.
    10030    2    1    2    0    0  0.00000000000E+00  0.00000000000E+00 -0.55445191958E+03  0.32495440601E+04  0.32018931380E+04 0.  0.
        1    1    3    3  502    0 -0.74371349977E+03  0.65188626576E+03  0.10004636361E+04  0.14067668465E+04  0.50400001928E-02 0. -1.
       -1    1    3    3    0  502  0.74371349977E+03 -0.65188626576E+03 -0.15549155557E+04  0.18427772135E+04  0.50400001928E-02 0.  1.
</event>
<event>
 5   0  0.9727083E-08  0.3200219E+04  0.7818609E-02  0.8188759E-01
        2   -1    0    0  501    0  0.00000000000E+00  0.00000000000E+00  0.19124245664E+04  0.19124245664E+04  0.25500000920E-02 0.  1.
       -2   -1    0    0    0  501  0.00000000000E+00  0.00000000000E+00 -0.13387977778E+04  0.13387977778E+04  0.25500000920E-02 0. -1.
    10030    2    1    2    0    0  0.00000000000E+00  0.00000000000E+00  0.57362678861E+03  0.32512223442E+04  0.32002185923E+04 0.  0.
        4    1    3    3  502    0 -0.61279154528E+03  0.13371450831E+04 -0.35320929911E+03  0.15126892851E+04  0.12699999809E+01 0. -1.
       -4    1    3    3    0  502  0.61279154528E+03 -0.13371450831E+04  0.92683608772E+03  0.17385330591E+04  0.12699999809E+01 0.  1.
</event>
<event>
 5   0  0.3283581E-08  0.3199567E+04  0.7818609E-02  0.8188931E-01
       -1   -1    0    0    0  501  0.00000000000E+00  0.00000000000E+00  0.15703400938E+04  0.15703400938E+04  0.50400001928E-02 0.  1.
        1   -1    0    0  501    0  0.00000000000E+00  0.00000000000E+00 -0.16297792832E+04  0.16297792832E+04  0.50400001928E-02 0. -1.
    10030    2    1    2    0    0  0.00000000000E+00  0.00000000000E+00 -0.59439189465E+02  0.32001193770E+04  0.31995673160E+04 0.  0.
        5    1    3    3  502    0  0.71690903332E+03 -0.12030329916E+04 -0.80318266007E+03  0.16144260331E+04  0.46999998093E+01 0. -1.
       -5    1    3    3    0  502 -0.71690903332E+03  0.12030329916E+04  0.74374347060E+03  0.15856933439E+04  0.46999998093E+01 0.  1.
</event>
<event>
 5   0  0.9707721E-08  0.3199819E+04  0.7818609E-02  0.8188865E-01
       -2   -1    0    0    0  501  0.00000000000E+00  0.00000000000E+00  0.14344801760E+04  0.14344801760E+04  0.25500000920E-02 0.  1.
        2   -1    0    0  501    0  0.00000000000E+00  0.00000000000E+00 -0.17844162711E+04  0.17844162711E+04  0.25500000920E-02 0. -1.
    10030    2    1    2    0    0  0.00000000000E+00  0.00000000000E+00 -0.34993609506E+03  0.32188964472E+04  0.31998185991E+04 0.  0.
        3    1    3    3  502    0  0.24364464196E+01 -0.10830988830E+03 -0.17807221486E+04  0.17840146717E+04  0.10100000352E+00 0. -1.
       -3    1    3    3    0  502 -0.24364464196E+01  0.10830988830E+03  0.14307860536E+04  0.14348817754E+04  0.10100000352E+00 0.  1.
</event>
<event>
 5   0  0.9707721E-08  0.3202845E+04  0.7818609E-02  0.8188066E-01
       -2   -1    0    0    0  501  0.00000000000E+00  0.00000000000E+00  0.20353349529E+04  0.20353349529E+04  0.25500000920E-02 0. -1.
        2   -1    0    0  501    0  0.00000000000E+00  0.00000000000E+00 -0.12600157101E+04  0.12600157101E+04  0.25500000920E-02 0.  1.
    10030    2    1    2    0    0  0.00000000000E+00  0.00000000000E+00  0.77531924279E+03  0.32953506630E+04  0.32028449953E+04 0.  0.
        3    1    3    3  502    0  0.10597742409E+04 -0.59918034142E+03  0.14581005646E+04  0.18995251485E+04  0.10100000352E+00 0. -1.
       -3    1    3    3    0  502 -0.10597742409E+04  0.59918034142E+03 -0.68278132184E+03  0.13958255145E+04  0.10100000352E+00 0.  1.
</event>
<event>
 5   0  0.3427667E-08  0.3199556E+04  0.7818609E-02  0.8188934E-01
       -1   -1    0    0    0  501  0.00000000000E+00  0.00000000000E+00  0.12164100841E+04  0.12164100841E+04  0.50400001928E-02 0. -1.
        1   -1    0    0  501    0  0.00000000000E+00  0.00000000000E+00 -0.21039700752E+04  0.21039700752E+04  0.50400001928E-02 0.  1.
    10030    2    1    2    0    0  0.00000000000E+00  0.00000000000E+00 -0.88755999110E+03  0.33203801593E+04  0.31995564793E+04 0.  0.
        2    1    3    3  502    0  0.54589192226E+03 -0.12385303210E+04  0.44126488291E+03  0.14236116197E+04  0.25500000920E-02 0. -1.
       -2    1    3    3    0  502 -0.54589192226E+03  0.12385303210E+04 -0.13288248740E+04  0.18967685396E+04  0.25500000920E-02 0.  1.
</event>
<event>
 5   0  0.3283581E-08  0.3198769E+04  0.7818609E-02  0.8189142E-01
        1   -1    0    0  501    0  0.00000000000E+00  0.00000000000E+00  0.15996086558E+04  0.15996086558E+04  0.50400001928E-02 0. -1.
       -1   -1    0    0    0  501  0.00000000000E+00  0.00000000000E+00 -0.15991600772E+04  0.15991600772E+04  0.50400001928E-02 0.  1.
    10030    2    1    2    0    0  0.00000000000E+00  0.00000000000E+00  0.44857858549E+00  0.31987687330E+04  0.31987687015E+04 0.  0.
        5    1    3    3  502    0 -0.91513453663E+02 -0.87886684883E+03  0.13333509135E+04  0.15995713172E+04  0.46999998093E+01 0. -1.
       -5    1    3    3    0  502  0.91513453663E+02  0.87886684883E+03 -0.13329023349E+04  0.15991974158E+04  0.46999998093E+01 0.  1.
</event>
<event>
 5   0  0.3343140E-08  0.3195083E+04  0.7818609E-02  0.8190117E-01
       -1   -1    0    0    0  501  0.00000000000E+00  0.00000000000E+00  0.15988076504E+04  0.15988076504E+04  0.50400001928E-02 0. -1.
        1   -1    0    0  501    0  0.00000000000E+00  0.00000000000E+00 -0.15962762169E+04  0.15962762169E+04  0.50400001928E-02 0.  1.
    10030    2    1    2    0    0  0.00000000000E+00  0.00000000000E+00  0.25314335127E+01  0.31950838674E+04  0.31950828645E+04 0.  0.
        1    1    3    3  502    0  0.19507430054E+03 -0.44683066236E+03  0.15225902900E+04  0.15987472642E+04  0.50400001928E-02 0. -1.
       -1    1    3    3    0  502 -0.19507430054E+03  0.44683066236E+03 -0.15200588565E+04  0.15963366032E+04  0.50400001928E-02 0.  1.
</event>
<event>
 5   0  0.9157524E-08  0.3201741E+04  0.7818609E-02  0.8188358E-01
       -2   -1    0    0    0  501  0.00000000000E+00  0.00000000000E+00  0.11887126709E+04  0.11887126709E+04  0.25500000920E-02 0. -1.
        2   -1    0    0  501    0  0.00000000000E+00  0.00000000000E+00 -0.21559341147E+04  0.21559341147E+04  0.25500000920E-02 0.  1.
    10030    2    1    2    0    0  0.00000000000E+00  0.00000000000E+00 -0.96722144381E+03  0.33446467856E+04  0.32017409013E+04 0.  0.
        5    1    3    3  502    0 -0.81086661949E+03  0.49003514904E+03  0.86438183912E+03  0.12825042595E+04  0.46999998093E+01 0. -1.
       -5    1    3    3    0  502  0.81086661949E+03 -0.49003514904E+03 -0.18316032829E+04  0.20621425261E+04  0.46999998093E+01 0.  1.
</event>
<event>
 5   0  0.9707721E-08  0.3200401E+04  0.7818609E-02  0.8188711E-01
       -2   -1    0    0    0  501  0.00000000000E+00  0.00000000000E+00  0.11667199122E+04  0.11667199122E+04  0.25500000920E-02 0. -1.
        2   -1    0    0  501    0  0.00000000000E+00  0.00000000000E+00 -0.21947355767E+04  0.21947355767E+04  0.25500000920E-02 0.  1.
    10030    2    1    2    0    0  0.00000000000E+00  0.00000000000E+00 -0.10280156645E+04  0.33614554889E+04  0.32004010369E+04 0.  0.
        3    1    3    3  502    0  0.10920952363E+04  0.26847442979E+03 -0.17096665283E+04  0.20463895457E+04  0.10100000352E+00 0.  1.
       -3    1    3    3    0  502 -0.10920952363E+04 -0.26847442979E+03  0.68165086377E+03  0.13150659432E+04  0.10100000352E+00 0. -1.
</event>
<event>
 5   0  0.9727083E-08  0.3200357E+04  0.7818609E-02  0.8188723E-01
        2   -1    0    0  501    0  0.00000000000E+00  0.00000000000E+00  0.17393009031E+04  0.17393009031E+04  0.25500000920E-02 0. -1.
       -2   -1    0    0    0  501  0.00000000000E+00  0.00000000000E+00 -0.14721837159E+04  0.14721837159E+04  0.25500000920E-02 0.  1.
    10030    2    1    2    0    0  0.00000000000E+00  0.00000000000E+00  0.26711718719E+03  0.32114846190E+04  0.32003565218E+04 0.  0.
        4    1    3    3  502    0  0.87477260805E+03  0.42502305268E+03 -0.11415671770E+04  0.14996829477E+04  0.12699999809E+01 0.  1.
       -4    1    3    3    0  502 -0.87477260805E+03 -0.42502305268E+03  0.14086843642E+04  0.17118016713E+04  0.12699999809E+01 0. -1.
</event>
<event>
 5   0  0.9707721E-08  0.3197921E+04  0.7818609E-02  0.8189366E-01
       -2   -1    0    0    0  501  0.00000000000E+00  0.00000000000E+00  0.12702073074E+04  0.12702073074E+04  0.25500000920E-02 0. -1.
        2   -1    0    0  501    0  0.00000000000E+00  0.00000000000E+00 -0.20128016007E+04  0.20128016007E+04  0.25500000920E-02 0.  1.
    10030    2    1    2    0    0  0.00000000000E+00  0.00000000000E+00 -0.74259429330E+03  0.32830089082E+04  0.31979213885E+04 0.  0.
        3    1    3    3  502    0  0.94050985888E+03 -0.67108737106E+01  0.95619418741E+03  0.13412349402E+04  0.10100000352E+00 0. -1.
       -3    1    3    3    0  502 -0.94050985888E+03  0.67108737106E+01 -0.16987884807E+04  0.19417739680E+04  0.10100000352E+00 0.  1.
</event>
<event>
 5   0  0.3283581E-08  0.3199022E+04  0.7818609E-02  0.8189075E-01
        1   -1    0    0  501    0  0.00000000000E+00  0.00000000000E+00  0.17995767255E+04  0.17995767255E+04  0.50400001928E-02 0.  1.
       -1   -1    0    0    0  501  0.00000000000E+00  0.00000000000E+00 -0.14216875969E+04  0.14216875970E+04  0.50400001928E-02 0. -1.
    10030    2    1    2    0    0  0.00000000000E+00  0.00000000000E+00  0.37788912854E+03  0.32212643224E+04  0.31990222946E+04 0.  0.
        5    1    3    3  502    0  0.35675342162E+03  0.14342187230E+04  0.80488158283E+03  0.16828882321E+04  0.46999998093E+01 0.  1.
       -5    1    3    3    0  502 -0.35675342162E+03 -0.14342187230E+04 -0.42699245429E+03  0.15383760903E+04  0.46999998093E+01 0. -1.
</event>
<event>
 5   0  0.3220147E-08  0.3200572E+04  0.7818609E-02  0.8188666E-01
        1   -1    0    0  501    0  0.00000000000E+00  0.00000000000E+00  0.15710111845E+04  0.15710111845E+04  0.50400001928E-02 0. -1.
       -1   -1    0    0    0  501  0.00000000000E+00  0.00000000000E+00 -0.16301065196E+04  0.16301065196E+04  0.50400001928E-02 0.  1.
    10030    2    1    2    0    0  0.00000000000E+00  0.00000000000E+00 -0.59095335072E+02  0.32011177041E+04  0.32005721827E+04 0.  0.
        4    1    3    3  502    0  0.22883414794E+03 -0.92860452242E+03  0.12537308565E+04  0.15768684472E+04  0.12699999809E+01 0. -1.
       -4    1    3    3    0  502 -0.22883414794E+03  0.92860452242E+03 -0.13128261916E+04  0.16242492569E+04  0.12699999809E+01 0.  1.
</event>
<event>
 5   0  0.3283581E-08  0.3198398E+04  0.7818609E-02  0.8189240E-01
        1   -1    0    0  501    0  0.00000000000E+00  0.00000000000E+00  0.24858732768E+04  0.24858732768E+04  0.50400001928E-02 0. -1.
       -1   -1    0    0    0  501  0.00000000000E+00  0.00000000000E+00 -0.10287881319E+04  0.10287881319E+04  0.50400001928E-02 0.  1.
    10030    2    1    2    0    0  0.00000000000E+00  0.00000000000E+00  0.14570851449E+04  0.35146614087E+04  0.31983976767E+04 0.  0.
        5    1    3    3  502    0 -0.51703943537E+03  0.12345228834E+04  0.16903237544E+04  0.21560596031E+04  0.46999998093E+01 0.  1.
       -5    1    3    3    0  502  0.51703943537E+03 -0.12345228834E+04 -0.23323860948E+03  0.13586018057E+04  0.46999998093E+01 0. -1.
</event>
<event>
 5   0  0.3220147E-08  0.3207114E+04  0.7818609E-02  0.8186941E-01
       -1   -1    0    0    0  501  0.00000000000E+00  0.00000000000E+00  0.10930942679E+04  0.10930942679E+04  0.50400001928E-02 0.  1.
        1   -1    0    0  501    0  0.00000000000E+00  0.00000000000E+00 -0.23523995388E+04  0.23523995388E+04  0.50400001928E-02 0. -1.
    10030    2    1    2    0    0  0.00000000000E+00  0.00000000000E+00 -0.12593052709E+04  0.34454938067E+04  0.32071136254E+04 0.  0.
        4    1    3    3  502    0  0.28293035729E+03 -0.29077705076E+03  0.10370434008E+04  0.11135804903E+04  0.12699999809E+01 0.  1.
       -4    1    3    3    0  502 -0.28293035729E+03  0.29077705076E+03 -0.22963486717E+04  0.23319133164E+04  0.12699999809E+01 0. -1.
</event>
<event>
 5   0  0.9707721E-08  0.3206901E+04  0.7818609E-02  0.8186997E-01
       -2   -1    0    0    0  501  0.00000000000E+00  0.00000000000E+00  0.16623714766E+04  0.16623714766E+04  0.25500000920E-02 0. -1.
        2   -1    0    0  501    0  0.00000000000E+00  0.00000000000E+00 -0.15466183214E+04  0.15466183214E+04  0.25500000920E-02 0.  1.
    10030    2    1    2    0    0  0.00000000000E+00  0.00000000000E+00  0.11575315517E+03  0.32089897981E+04  0.32069014221E+04 0.  0.
        3    1    3    3  502    0 -0.24773678696E+03  0.10716377324E+04  0.12253725144E+04  0.16466082577E+04  0.10100000352E+00 0. -1.
       -3    1    3    3    0  502  0.24773678696E+03 -0.10716377324E+04 -0.11096193592E+04  0.15623815404E+04  0.10100000352E+00 0.  1.
</event>
<event>
 5   0  0.3270966E-08  0.3200162E+04  0.7818609E-02  0.8188774E-01
        1   -1    0    0  501    0  0.00000000000E+00  0.00000000000E+00  0.23140806315E+04  0.23140806315E+04  0.50400001928E-02 0. -1.
       -1   -1    0    0    0  501  0.00000000000E+00  0.00000000000E+00 -0.11063829941E+04  0.11063829941E+04  0.50400001928E-02 0.  1.
    10030    2    1    2    0    0  0.00000000000E+00  0.00000000000E+00  0.12076976374E+04  0.34204636256E+04  0.32001621569E+04 0.  0.
        3    1    3    3  502    0 -0.12410808287E+04  0.66386508036E+03  0.14173349029E+04  0.19974575604E+04  0.10100000352E+00 0. -1.
       -3    1    3    3    0  502  0.12410808287E+04 -0.66386508036E+03 -0.20963726543E+03  0.14230060652E+04  0.10100000352E+00 0.  1.
</event>
<event>
 5   0  0.9157524E-08  0.3199546E+04  0.7818609E-02  0.8188937E-01
        2   -1    0    0  501    0  0.00000000000E+00  0.00000000000E+00  0.22851589472E+04  0.22851589472E+04  0.25500000920E-02 0. -1.
       -2   -1    0    0    0  501  0.00000000000E+00  0.00000000000E+00 -0.11199540216E+04  0.11199540216E+04  0.25500000920E-02 0.  1.
    10030    2    1    2    0    0  0.00000000000E+00  0.00000000000E+00  0.11652049256E+04  0.34051129688E+04  0.31995455633E+04 0.  0.
        5    1    3    3  502    0  0.70159423282E+03  0.14368999131E+04  0.53117561298E+03  0.16849585899E+04  0.46999998093E+01 0.  1.
       -5    1    3    3    0  502 -0.70159423282E+03 -0.14368999131E+04  0.63402931263E+03  0.17201543789E+04  0.46999998093E+01 0. -1.
</event>
<event>
 5   0  0.9707721E-08  0.3200091E+04  0.7818609E-02  0.8188793E-01
        2   -1    0    0  501    0  0.00000000000E+00  0.00000000000E+00  0.19838264276E+04  0.19838264276E+04  0.25500000920E-02 0. -1.
       -2   -1    0    0    0  501  0.00000000000E+00  0.00000000000E+00 -0.12905088010E+04  0.12905088010E+04  0.25500000920E-02 0.  1.
    10030    2    1    2    0    0  0.00000000000E+00  0.00000000000E+00  0.69331762653E+03  0.32743352286E+04  0.32000909140E+04 0.  0.
        3    1    3    3  502    0 -0.13327899535E+04 -0.68626314242E+02 -0.55649002544E+03  0.14459321526E+04  0.10100000352E+00 0.  1.
       -3    1    3    3    0  502  0.13327899535E+04  0.68626314242E+02  0.12498076520E+04  0.18284030760E+04  0.10100000352E+00 0. -1.
</event>
<event>
 5   0  0.3270966E-08  0.3201434E+04  0.7818609E-02  0.8188438E-01
       -1   -1    0    0    0  501  0.00000000000E+00  0.00000000000E+00  0.10085387726E+04  0.10085387726E+04  0.50400001928E-02 0. -1.
        1   -1    0    0  501    0  0.00000000000E+00  0.00000000000E+00 -0.25406017412E+04  0.25406017412E+04  0.50400001928E-02 0.  1.
    10030    2    1    2    0    0  0.00000000000E+00  0.00000000000E+00 -0.15320629685E+04  0.35491405138E+04  0.32014342797E+04 0.  0.
        3    1    3    3  502    0  0.71121309876E+03  0.60577277987E+03  0.67495220772E+03  0.11525386005E+04  0.10100000352E+00 0. -1.
       -3    1    3    3    0  502 -0.71121309876E+03 -0.60577277987E+03 -0.22070151763E+04  0.23966019134E+04  0.10100000352E+00 0.  1.
</event>
<event>
 5   0  0.9727083E-08  0.3199727E+04  0.7818609E-02  0.8188889E-01
       -2   -1    0    0    0  501  0.00000000000E+00  0.00000000000E+00  0.15085121618E+04  0.15085121618E+04  0.25500000920E-02 0. -1.
        2   -1    0    0  501    0  0.00000000000E+00  0.00000000000E+00 -0.16967471212E+04  0.16967471212E+04  0.25500000920E-02 0.  1.
    10030    2    1    2    0    0  0.00000000000E+00  0.00000000000E+00 -0.18823495943E+03  0.32052592831E+04  0.31997272808E+04 0.  0.
        4    1    3    3  502    0  0.99748039154E+03  0.79324186169E+03  0.87469589770E+03  0.15457342297E+04  0.12699999809E+01 0. -1.
       -4    1    3    3    0  502 -0.99748039154E+03 -0.79324186169E+03 -0.10629308571E+04  0.16595250533E+04  0.12699999809E+01 0.  1.
</event>
<event>
 5   0  0.9157524E-08  0.3202604E+04  0.7818609E-02  0.8188130E-01
        2   -1    0    0  501    0  0.00000000000E+00  0.00000000000E+00  0.18471805334E+04  0.18471805334E+04  0.25500000920E-02 0. -1.
       -2   -1    0    0    0  501  0.00000000000E+00  0.00000000000E+00 -0.13881523832E+04  0.13881523832E+04  0.25500000920E-02 0.  1.
    10030    2    1    2    0    0  0.00000000000E+00  0.00000000000E+00  0.45902815028E+03  0.32353329166E+04  0.32026039778E+04 0.  0.
        5    1    3    3  502    0 -0.12332913933E+03  0.33689001238E+03  0.18060524454E+04  0.18413452916E+04  0.46999998093E+01 0. -1.
       -5    1    3    3    0  502  0.12332913933E+03 -0.33689001238E+03 -0.13470242952E+04  0.13939876251E+04  0.46999998093E+01 0.  1.
</event>
<event>
 5   0  0.3427667E-08  0.3201418E+04  0.7818609E-02  0.8188443E-01
       -1   -1    0    0    0  501  0.00000000000E+00  0.00000000000E+00  0.14936046261E+04  0.14936046262E+04  0.50400001928E-02 0. -1.
        1   -1    0    0  501    0  0.00000000000E+00  0.00000000000E+00 -0.17154935538E+04  0.17154935538E+04  0.50400001928E-02 0.  1.
    10030    2    1    2    0    0  0.00000000000E+00  0.00000000000E+00 -0.22188892764E+03  0.32090981800E+04  0.32014178784E+04 0.  0.
        2    1    3    3  502    0 -0.52633909906E+03  0.98347606709E+03 -0.12617453030E+04  0.16841197200E+04  0.25500000920E-02 0.  1.
       -2    1    3    3    0  502  0.52633909906E+03 -0.98347606709E+03  0.10398563754E+04  0.15249784599E+04  0.25500000920E-02 0. -1.
</event>
<event>
 5   0  0.3220147E-08  0.3200364E+04  0.7818609E-02  0.8188721E-01
        1   -1    0    0  501    0  0.00000000000E+00  0.00000000000E+00  0.26176975422E+04  0.26176975422E+04  0.50400001928E-02 0. -1.
       -1   -1    0    0    0  501  0.00000000000E+00  0.00000000000E+00 -0.97818129055E+03  0.97818129056E+03  0.50400001928E-02 0.  1.
    10030    2    1    2    0    0  0.00000000000E+00  0.00000000000E+00  0.16395162517E+04  0.35958788328E+04  0.32003642044E+04 0.  0.
        4    1    3    3  502    0 -0.27202796555E+03 -0.10174844088E+04  0.21733425602E+04  0.24150969407E+04  0.12699999809E+01 0. -1.
       -4    1    3    3    0  502  0.27202796555E+03  0.10174844088E+04 -0.53382630848E+03  0.11807818921E+04  0.12699999809E+01 0.  1.
</event>
<event>
 5   0  0.3270966E-08  0.3198748E+04  0.7818609E-02  0.8189148E-01
        1   -1    0    0  501    0  0.00000000000E+00  0.00000000000E+00  0.11841208526E+04  0.11841208526E+04  0.50400001928E-02 0. -1.
       -1   -1    0    0    0  501  0.00000000000E+00  0.00000000000E+00 -0.21602504466E+04  0.21602504466E+04  0.50400001928E-02 0.  1.
    10030    2    1    2    0    0  0.00000000000E+00  0.00000000000E+00 -0.97612959401E+03  0.33443712993E+04  0.31987482557E+04 0.  0.
        3    1    3    3  502    0 -0.49677169865E+03 -0.22243420463E+03 -0.20604379521E+04  0.21311179368E+04  0.10100000352E+00 0.  1.
       -3    1    3    3    0  502  0.49677169865E+03  0.22243420463E+03  0.10843083581E+04  0.12132533625E+04  0.10100000352E+00 0. -1.
</event>
<event>
 5   0  0.3283581E-08  0.3199199E+04  0.7818609E-02  0.8189029E-01
        1   -1    0    0  501    0  0.00000000000E+00  0.00000000000E+00  0.19435867677E+04  0.19435867678E+04  0.50400001928E-02 0.  1.
       -1   -1    0    0    0  501  0.00000000000E+00  0.00000000000E+00 -0.13164931136E+04  0.13164931136E+04  0.50400001928E-02 0. -1.
    10030    2    1    2    0    0  0.00000000000E+00  0.00000000000E+00  0.62709365413E+03  0.32600798814E+04  0.31991990219E+04 0.  0.
        5    1    3    3  502    0  0.11074479354E+04 -0.42257777747E+03  0.14080835632E+04  0.18405798865E+04  0.46999998093E+01 0.  1.
       -5    1    3    3    0  502 -0.11074479354E+04  0.42257777747E+03 -0.78098990902E+03  0.14194999949E+04  0.46999998093E+01 0. -1.
</event>
<event>
 5   0  0.9707721E-08  0.3199021E+04  0.7818609E-02  0.8189076E-01
        2   -1    0    0  501    0  0.00000000000E+00  0.00000000000E+00  0.17619013019E+04  0.17619013019E+04  0.25500000920E-02 0.  1.
       -2   -1    0    0    0  501  0.00000000000E+00  0.00000000000E+00 -0.14520872377E+04  0.14520872377E+04  0.25500000920E-02 0. -1.
    10030    2    1    2    0    0  0.00000000000E+00  0.00000000000E+00  0.30981406418E+03  0.32139885396E+04  0.31990213470E+04 0.  0.
        3    1    3    3  502    0 -0.34659168238E+03 -0.10735362060E+04 -0.98434215433E+03  0.14971757635E+04  0.10100000352E+00 0. -1.
       -3    1    3    3    0  502  0.34659168238E+03  0.10735362060E+04  0.12941562185E+04  0.17168127761E+04  0.10100000352E+00 0.  1.
</event>
<event>
 5   0  0.3343140E-08  0.3202211E+04  0.7818609E-02  0.8188234E-01
       -1   -1    0    0    0  501  0.00000000000E+00  0.00000000000E+00  0.12386515191E+04  0.12386515191E+04  0.50400001928E-02 0.  1.
        1   -1    0    0  501    0  0.00000000000E+00  0.00000000000E+00 -0.20696203016E+04  0.20696203016E+04  0.50400001928E-02 0. -1.
    10030    2    1    2    0    0  0.00000000000E+00  0.00000000000E+00 -0.83096878250E+03  0.33082718207E+04  0.32022106930E+04 0.  0.
        1    1    3    3  502    0 -0.78018813442E+03 -0.12160781322E+04 -0.11282622538E+04  0.18331708219E+04  0.50400001928E-02 0. -1.
       -1    1    3    3    0  502  0.78018813442E+03  0.12160781322E+04  0.29729347134E+03  0.14751009989E+04  0.50400001928E-02 0.  1.
</event>
<event>
 5   0  0.9329929E-08  0.3199467E+04  0.7818609E-02  0.8188958E-01
       -2   -1    0    0    0  501  0.00000000000E+00  0.00000000000E+00  0.93742030619E+03  0.93742030619E+03  0.25500000920E-02 0.  1.
        2   -1    0    0  501    0  0.00000000000E+00  0.00000000000E+00 -0.27299889028E+04  0.27299889028E+04  0.25500000920E-02 0. -1.
    10030    2    1    2    0    0  0.00000000000E+00  0.00000000000E+00 -0.17925685966E+04  0.36674092090E+04  0.31994668513E+04 0.  0.
        1    1    3    3  502    0 -0.35627062902E+03 -0.21583922171E+03  0.87416484065E+03  0.96833852520E+03  0.50400001928E-02 0.  1.
       -1    1    3    3    0  502  0.35627062902E+03  0.21583922171E+03 -0.26667334373E+04  0.26990706838E+04  0.50400001928E-02 0. -1.
</event>
<event>
 5   0  0.3270966E-08  0.3198440E+04  0.7818609E-02  0.8189229E-01
        1   -1    0    0  501    0  0.00000000000E+00  0.00000000000E+00  0.99590171378E+03  0.99590171380E+03  0.50400001928E-02 0.  1.
       -1   -1    0    0    0  501  0.00000000000E+00  0.00000000000E+00 -0.25680284796E+04  0.25680284796E+04  0.50400001928E-02 0. -1.
    10030    2    1    2    0    0  0.00000000000E+00  0.00000000000E+00 -0.15721267658E+04  0.35639301934E+04  0.31984395970E+04 0.  0.
        3    1    3    3  502    0  0.11036977639E+04  0.11559939983E+04 -0.84743006702E+03  0.18090352696E+04  0.10100000352E+00 0. -1.
       -3    1    3    3    0  502 -0.11036977639E+04 -0.11559939983E+04 -0.72469669878E+03  0.17548949238E+04  0.10100000352E+00 0.  1.
</event>
<event>
 5   0  0.3427667E-08  0.3200921E+04  0.7818609E-02  0.8188574E-01
        1   -1    0    0  501    0  0.00000000000E+00  0.00000000000E+00  0.13419092341E+04  0.13419092342E+04  0.50400001928E-02 0. -1.
       -1   -1    0    0    0  501  0.00000000000E+00  0.00000000000E+00 -0.19088278624E+04  0.19088278624E+04  0.50400001928E-02 0.  1.
    10030    2    1    2    0    0  0.00000000000E+00  0.00000000000E+00 -0.56691862827E+03  0.32507370966E+04  0.32009209518E+04 0.  0.
        2    1    3    3  502    0  0.13094423453E+04 -0.85423662087E+03 -0.63100493062E+03  0.16859794431E+04  0.25500000920E-02 0.  1.
       -2    1    3    3    0  502 -0.13094423453E+04  0.85423662087E+03  0.64086302344E+02  0.15647576535E+04  0.25500000920E-02 0. -1.
</event>
<event>
 5   0  0.3283581E-08  0.3199621E+04  0.7818609E-02  0.8188917E-01
       -1   -1    0    0    0  501  0.00000000000E+00  0.00000000000E+00  0.14354896881E+04  0.14354896881E+04  0.50400001928E-02 0. -1.
        1   -1    0    0  501    0  0.00000000000E+00  0.00000000000E+00 -0.17829406115E+04  0.17829406115E+04  0.50400001928E-02 0.  1.
    10030    2    1    2    0    0  0.00000000000E+00  0.00000000000E+00 -0.34745092343E+03  0.32184302996E+04  0.31996205165E+04 0.  0.
        5    1    3    3  502    0 -0.14020627944E+04 -0.47251787410E+03  0.43838920209E+03  0.15431333070E+04  0.46999998093E+01 0. -1.
       -5    1    3    3    0  502  0.14020627944E+04  0.47251787410E+03 -0.78584012552E+03  0.16752969926E+04  0.46999998093E+01 0.  1.
</event>
<event>
 5   0  0.9157524E-08  0.3199599E+04  0.7818609E-02  0.8188923E-01
       -2   -1    0    0    0  501  0.00000000000E+00  0.00000000000E+00  0.14024086767E+04  0.14024086767E+04  0.25500000920E-02 0.  1.
        2   -1    0    0  501    0  0.00000000000E+00  0.00000000000E+00 -0.18249735071E+04  0.18249735071E+04  0.25500000920E-02 0. -1.
    10030    2    1    2    0    0  0.00000000000E+00  0.00000000000E+00 -0.42256483046E+03  0.32273821838E+04  0.31995991506E+04 0.  0.
        5    1    3    3  502    0 -0.79887547182E+02  0.15423364118E+04  0.20965764551E+03  0.15585769296E+04  0.46999998093E+01 0.  1.
       -5    1    3    3    0  502  0.79887547182E+02 -0.15423364118E+04 -0.63222247598E+03  0.16688052542E+04  0.46999998093E+01 0. -1.
</event>
<event>
 5   0  0.9157524E-08  0.3199798E+04  0.7818609E-02  0.8188871E-01
        2   -1    0    0  501    0  0.00000000000E+00  0.00000000000E+00  0.19306213755E+04  0.19306213755E+04  0.25500000920E-02 0.  1.
       -2   -1    0    0    0  501  0.00000000000E+00  0.00000000000E+00 -0.13258304972E+04  0.13258304972E+04  0.25500000920E-02 0. -1.
    10030    2    1    2    0    0  0.00000000000E+00  0.00000000000E+00  0.60479087823E+03  0.32564518727E+04  0.31997979300E+04 0.  0.
        5    1    3    3  502    0 -0.10024256479E+04 -0.30432640206E+02 -0.96621894491E+03  0.13926178459E+04  0.46999998093E+01 0. -1.
       -5    1    3    3    0  502  0.10024256479E+04  0.30432640206E+02  0.15710098231E+04  0.18638340268E+04  0.46999998093E+01 0.  1.
</event>
<event>
 5   0  0.9157524E-08  0.3200213E+04  0.7818609E-02  0.8188761E-01
       -2   -1    0    0    0  501  0.00000000000E+00  0.00000000000E+00  0.90902581910E+03  0.90902581910E+03  0.25500000920E-02 0. -1.
        2   -1    0    0  501    0  0.00000000000E+00  0.00000000000E+00 -0.28165769953E+04  0.28165769953E+04  0.25500000920E-02 0.  1.
    10030    2    1    2    0    0  0.00000000000E+00  0.00000000000E+00 -0.19075511762E+04  0.37256028144E+04  0.32002132493E+04 0.  0.
        5    1    3    3  502    0  0.69478897185E+03  0.48535408121E+03 -0.25338031605E+04  0.26717935635E+04  0.46999998093E+01 0.  1.
       -5    1    3    3    0  502 -0.69478897185E+03 -0.48535408121E+03  0.62625198430E+03  0.10538092510E+04  0.46999998093E+01 0. -1.
</event>
<event>
 5   0  0.3220147E-08  0.3190202E+04  0.7818609E-02  0.8191410E-01
       -1   -1    0    0    0  501  0.00000000000E+00  0.00000000000E+00  0.11082902661E+04  0.11082902661E+04  0.50400001928E-02 0.  1.
        1   -1    0    0  501    0  0.00000000000E+00  0.00000000000E+00 -0.22957405086E+04  0.22957405086E+04  0.50400001928E-02 0. -1.
    10030    2    1    2    0    0  0.00000000000E+00  0.00000000000E+00 -0.11874502425E+04  0.34040307746E+04  0.31902017861E+04 0.  0.
        4    1    3    3  502    0  0.41256921657E+03  0.14858145992E+04 -0.10291019494E+04  0.18538907241E+04  0.12699999809E+01 0. -1.
       -4    1    3    3    0  502 -0.41256921657E+03 -0.14858145992E+04 -0.15834829313E+03  0.15501400506E+04  0.12699999809E+01 0.  1.
</event>
<event>
 5   0  0.9353994E-08  0.3199895E+04  0.7818609E-02  0.8188845E-01
        2   -1    0    0  501    0  0.00000000000E+00  0.00000000000E+00  0.18815660547E+04  0.18815660547E+04  0.25500000920E-02 0.  1.
       -2   -1    0    0    0  501  0.00000000000E+00  0.00000000000E+00 -0.13604796376E+04  0.13604796376E+04  0.25500000920E-02 0. -1.
    10030    2    1    2    0    0  0.00000000000E+00  0.00000000000E+00  0.52108641710E+03  0.32420456923E+04  0.31998951884E+04 0.  0.
        2    1    3    3  502    0  0.54357160316E+02  0.30402597356E+03  0.18510774185E+04  0.18766656875E+04  0.25500000920E-02 0.  1.
       -2    1    3    3    0  502 -0.54357160316E+02 -0.30402597356E+03 -0.13299910014E+04  0.13653800047E+04  0.25500000920E-02 0. -1.
</event>
<event>
 5   0  0.9707721E-08  0.3202038E+04  0.7818609E-02  0.8188279E-01
       -2   -1    0    0    0  501  0.00000000000E+00  0.00000000000E+00  0.16127917290E+04  0.16127917290E+04  0.25500000920E-02 0.  1.
        2   -1    0    0  501    0  0.00000000000E+00  0.00000000000E+00 -0.15893321392E+04  0.15893321392E+04  0.25500000920E-02 0. -1.
    10030    2    1    2    0    0  0.00000000000E+00  0.00000000000E+00  0.23459589746E+02  0.32021238682E+04  0.32020379316E+04 0.  0.
        3    1    3    3  502    0  0.10106999469E+03  0.40358483393E+03  0.15577874113E+04  0.16123887531E+04  0.10100000352E+00 0.  1.
       -3    1    3    3    0  502 -0.10106999469E+03 -0.40358483393E+03 -0.15343278216E+04  0.15897351151E+04  0.10100000352E+00 0. -1.
</event>
<event>
 5   0  0.3270966E-08  0.3199137E+04  0.7818609E-02  0.8189045E-01
        1   -1    0    0  501    0  0.00000000000E+00  0.00000000000E+00  0.20043081984E+04  0.20043081984E+04  0.50400001928E-02 0. -1.
       -1   -1    0    0    0  501  0.00000000000E+00  0.00000000000E+00 -0.12765596289E+04  0.12765596289E+04  0.50400001928E-02 0.  1.
    10030    2    1    2    0    0  0.00000000000E+00  0.00000000000E+00  0.72774856950E+03  0.32808678273E+04  0.31991367147E+04 0.  0.
        3    1    3    3  502    0 -0.14210253756E+04  0.28212649820E+03 -0.33146716445E+03  0.14861961413E+04  0.10100000352E+00 0.  1.
       -3    1    3    3    0  502  0.14210253756E+04 -0.28212649820E+03  0.10592157340E+04  0.17946716860E+04  0.10100000352E+00 0. -1.
</event>
<event>
 5   0  0.9707721E-08  0.3199302E+04  0.7818609E-02  0.8189002E-01
        2   -1    0    0  501    0  0.00000000000E+00  0.00000000000E+00  0.21409740179E+04  0.21409740179E+04  0.25500000920E-02 0.  1.
       -2   -1    0    0    0  501  0.00000000000E+00  0.00000000000E+00 -0.11951955094E+04  0.11951955095E+04  0.25500000920E-02 0. -1.
    10030    2    1    2    0    0  0.00000000000E+00  0.00000000000E+00  0.94577850846E+03  0.33361695274E+04  0.31993015063E+04 0.  0.
        3    1    3    3  502    0 -0.56594163477E+03  0.14935014494E+04  0.37935230800E+03  0.16415677558E+04  0.10100000352E+00 0. -1.
       -3    1    3    3    0  502  0.56594163477E+03 -0.14935014494E+04  0.56642620046E+03  0.16946017715E+04  0.10100000352E+00 0.  1.
</event>
<event>
 5   0  0.3220147E-08  0.3197250E+04  0.7818609E-02  0.8189544E-01
        1   -1    0    0  501    0  0.00000000000E+00  0.00000000000E+00  0.24119901138E+04  0.24119901138E+04  0.50400001928E-02 0. -1.
       -1   -1    0    0    0  501  0.00000000000E+00  0.00000000000E+00 -0.10595408771E+04  0.10595408771E+04  0.50400001928E-02 0.  1.
    10030    2    1    2    0    0  0.00000000000E+00  0.00000000000E+00  0.13524492367E+04  0.34715309910E+04  0.31972501440E+04 0.  0.
        4    1    3    3  502    0 -0.12351000933E+04  0.82283912265E+03  0.31059055742E+02  0.14844200012E+04  0.12699999809E+01 0.  1.
       -4    1    3    3    0  502  0.12351000933E+04 -0.82283912265E+03  0.13213901810E+04  0.19871109897E+04  0.12699999809E+01 0. -1.
</event>
<event>
 5   0  0.9157524E-08  0.3200209E+04  0.7818609E-02  0.8188762E-01
        2   -1    0    0  501    0  0.00000000000E+00  0.00000000000E+00  0.19530875628E+04  0.19530875628E+04  0.25500000920E-02 0.  1.
       -2   -1    0    0    0  501  0.00000000000E+00  0.00000000000E+00 -0.13109167315E+04  0.13109167315E+04  0.25500000920E-02 0. -1.
    10030    2    1    2    0    0  0.00000000000E+00  0.00000000000E+00  0.64217083133E+03  0.32640042943E+04  0.32002094708E+04 0.  0.
        5    1    3    3  502    0 -0.66699396984E+03 -0.10010755270E+04 -0.75506877407E+03  0.14202760683E+04  0.46999998093E+01 0. -1.
       -5    1    3    3    0  502  0.66699396984E+03  0.10010755270E+04  0.13972396054E+04  0.18437282260E+04  0.46999998093E+01 0.  1.
</event>
<event>
 5   0  0.3270966E-08  0.3198029E+04  0.7818609E-02  0.8189338E-01
        1   -1    0    0  501    0  0.00000000000E+00  0.00000000000E+00  0.17772237575E+04  0.17772237575E+04  0.50400001928E-02 0. -1.
       -1   -1    0    0    0  501  0.00000000000E+00  0.00000000000E+00 -0.14386746906E+04  0.14386746906E+04  0.50400001928E-02 0.  1.
    10030    2    1    2    0    0  0.00000000000E+00  0.00000000000E+00  0.33854906699E+03  0.32158984481E+04  0.31980286674E+04 0.  0.
        3    1    3    3  502    0 -0.80643471076E+03 -0.12235024427E+03 -0.12137432783E+04  0.14623540203E+04  0.10100000352E+00 0.  1.
       -3    1    3    3    0  502  0.80643471076E+03  0.12235024427E+03  0.15522923452E+04  0.17535444278E+04  0.10100000352E+00 0. -1.
</event>
<event>
 5   0  0.9353994E-08  0.3199710E+04  0.7818609E-02  0.8188894E-01
        2   -1    0    0  501    0  0.00000000000E+00  0.00000000000E+00  0.20561345957E+04  0.20561345957E+04  0.25500000920E-02 0. -1.
       -2   -1    0    0    0  501  0.00000000000E+00  0.00000000000E+00 -0.12448289669E+04  0.12448289669E+04  0.25500000920E-02 0.  1.
    10030    2    1    2    0    0  0.00000000000E+00  0.00000000000E+00  0.81130562880E+03  0.33009635626E+04  0.31997099272E+04 0.  0.
        2    1    3    3  502    0 -0.13734264812E+04  0.28940212679E+03 -0.38642053526E+03  0.14558072401E+04  0.25500000920E-02 0. -1.
       -2    1    3    3    0  502  0.13734264812E+04 -0.28940212679E+03  0.11977261641E+04  0.18451563225E+04  0.25500000920E-02 0.  1.
</event>
<event>
 5   0  0.3283581E-08  0.3200537E+04  0.7818609E-02  0.8188675E-01
       -1   -1    0    0    0  501  0.00000000000E+00  0.00000000000E+00  0.15343127771E+04  0.15343127771E+04  0.50400001928E-02 0.  1.
        1   -1    0    0  501    0  0.00000000000E+00  0.00000000000E+00 -0.16690596347E+04  0.16690596347E+04  0.50400001928E-02 0. -1.
    10030    2    1    2    0    0  0.00000000000E+00  0.00000000000E+00 -0.13474685755E+03  0.32033724118E+04  0.32005371570E+04 0.  0.
        5    1    3    3  502    0 -0.15849777866E+04 -0.21165991516E+03 -0.50050708443E+01  0.15990627394E+04  0.46999998093E+01 0.  1.
       -5    1    3    3    0  502  0.15849777866E+04  0.21165991516E+03 -0.12974178670E+03  0.16043096724E+04  0.46999998093E+01 0. -1.
</event>
<event>
 5   0  0.3427667E-08  0.3200369E+04  0.7818609E-02  0.8188720E-01
       -1   -1    0    0    0  501  0.00000000000E+00  0.00000000000E+00  0.98566076188E+03  0.98566076189E+03  0.50400001928E-02 0.  1.
        1   -1    0    0  501    0  0.00000000000E+00  0.00000000000E+00 -0.25978408306E+04  0.25978408306E+04  0.50400001928E-02 0. -1.
    10030    2    1    2    0    0  0.00000000000E+00  0.00000000000E+00 -0.16121800688E+04  0.35835015925E+04  0.32003685865E+04 0.  0.
        2    1    3    3  502    0  0.42197515664E+03 -0.15425160824E+04 -0.86914178805E+03  0.18201171240E+04  0.25500000920E-02 0.  1.
       -2    1    3    3    0  502 -0.42197515664E+03  0.15425160824E+04 -0.74303828071E+03  0.17633844685E+04  0.25500000920E-02 0. -1.
</event>
<event>
 5   0  0.3283581E-08  0.3203025E+04  0.7818609E-02  0.8188019E-01
       -1   -1    0    0    0  501  0.00000000000E+00  0.00000000000E+00  0.11463234101E+04  0.11463234101E+04  0.50400001928E-02 0. -1.
        1   -1    0    0  501    0  0.00000000000E+00  0.00000000000E+00 -0.22374508530E+04  0.22374508530E+04  0.50400001928E-02 0.  1.
    10030    2    1    2    0    0  0.00000000000E+00  0.00000000000E+00 -0.10911274429E+04  0.33837742632E+04  0.32030250026E+04 0.  0.
        5    1    3    3  502    0 -0.15395182599E+04  0.26497602464E+03 -0.91830783312E+03  0.18120817125E+04  0.46999998093E+01 0. -1.
       -5    1    3    3    0  502  0.15395182599E+04 -0.26497602464E+03 -0.17281960983E+03  0.15716925507E+04  0.46999998093E+01 0.  1.
</event>
<event>
 5   0  0.9157524E-08  0.3199821E+04  0.7818609E-02  0.8188865E-01
       -2   -1    0    0    0  501  0.00000000000E+00  0.00000000000E+00  0.15094814453E+04  0.15094814453E+04  0.25500000920E-02 0. -1.
        2   -1    0    0  501    0  0.00000000000E+00  0.00000000000E+00 -0.16957564975E+04  0.16957564975E+04  0.25500000920E-02 0.  1.
    10030    2    1    2    0    0  0.00000000000E+00  0.00000000000E+00 -0.18627505215E+03  0.32052379428E+04  0.31998206005E+04 0.  0.
        5    1    3    3  502    0 -0.91057658016E+03  0.67873890769E+03  0.10356485785E+04  0.15370186340E+04  0.46999998093E+01 0. -1.
       -5    1    3    3    0  502  0.91057658016E+03 -0.67873890769E+03 -0.12219236307E+04  0.16682193088E+04  0.46999998093E+01 0.  1.
</event>
<event>
 5   0  0.3283581E-08  0.3198205E+04  0.7818609E-02  0.8189291E-01
       -1   -1    0    0    0  501  0.00000000000E+00  0.00000000000E+00  0.12835486571E+04  0.12835486572E+04  0.50400001928E-02 0.  1.
        1   -1    0    0  501    0  0.00000000000E+00  0.00000000000E+00 -0.19922332112E+04  0.19922332112E+04  0.50400001928E-02 0. -1.
    10030    2    1    2    0    0  0.00000000000E+00  0.00000000000E+00 -0.70868455401E+03  0.32757818683E+04  0.31982046607E+04 0.  0.
        5    1    3    3  502    0 -0.53893275364E+03 -0.12390222994E+04 -0.12303549058E+04  0.18274080156E+04  0.46999998093E+01 0. -1.
       -5    1    3    3    0  502  0.53893275364E+03  0.12390222994E+04  0.52167035174E+03  0.14483738527E+04  0.46999998093E+01 0.  1.
</event>
<event>
 5   0  0.9329929E-08  0.3199571E+04  0.7818609E-02  0.8188930E-01
       -2   -1    0    0    0  501  0.00000000000E+00  0.00000000000E+00  0.21954220166E+04  0.21954220166E+04  0.25500000920E-02 0. -1.
        2   -1    0    0  501    0  0.00000000000E+00  0.00000000000E+00 -0.11657504996E+04  0.11657504996E+04  0.25500000920E-02 0.  1.
    10030    2    1    2    0    0  0.00000000000E+00  0.00000000000E+00  0.10296715170E+04  0.33611725161E+04  0.31995714167E+04 0.  0.
        1    1    3    3  502    0 -0.14684715308E+03 -0.32981979624E+03 -0.11223953686E+04  0.11790320385E+04  0.50400001928E-02 0.  1.
       -1    1    3    3    0  502  0.14684715308E+03  0.32981979624E+03  0.21520668856E+04  0.21821404777E+04  0.50400001928E-02 0. -1.
</event>
<event>
 5   0  0.9157524E-08  0.3199388E+04  0.7818609E-02  0.8188979E-01
       -2   -1    0    0    0  501  0.00000000000E+00  0.00000000000E+00  0.12987411303E+04  0.12987411303E+04  0.25500000920E-02 0. -1.
        2   -1    0    0  501    0  0.00000000000E+00  0.00000000000E+00 -0.19703861498E+04  0.19703861498E+04  0.25500000920E-02 0.  1.
    10030    2    1    2    0    0  0.00000000000E+00  0.00000000000E+00 -0.67164501950E+03  0.32691272802E+04  0.31993884012E+04 0.  0.
        5    1    3    3  502    0 -0.59722554754E+03  0.10211892734E+04  0.76444688794E+03  0.14085123433E+04  0.46999998093E+01 0. -1.
       -5    1    3    3    0  502  0.59722554754E+03 -0.10211892734E+04 -0.14360919074E+04  0.18606149369E+04  0.46999998093E+01 0.  1.
</event>
<event>
 5   0  0.9157524E-08  0.3197759E+04  0.7818609E-02  0.8189409E-01
       -2   -1    0    0    0  501  0.00000000000E+00  0.00000000000E+00  0.10640595532E+04  0.10640595532E+04  0.25500000920E-02 0. -1.
        2   -1    0    0  501    0  0.00000000000E+00  0.00000000000E+00 -0.24025114108E+04  0.24025114108E+04  0.25500000920E-02 0.  1.
    10030    2    1    2    0    0  0.00000000000E+00  0.00000000000E+00 -0.13384518576E+04  0.34665709641E+04  0.31977587266E+04 0.  0.
        5    1    3    3  502    0  0.31544241976E+03  0.13117747505E+04 -0.15993341720E+04  0.20924026381E+04  0.46999998093E+01 0.  1.
       -5    1    3    3    0  502 -0.31544241976E+03 -0.13117747505E+04  0.26088231443E+03  0.13741683260E+04  0.46999998093E+01 0. -1.
</event>
<event>
 5   0  0.3283581E-08  0.3189691E+04  0.7818609E-02  0.8191545E-01
        1   -1    0    0  501    0  0.00000000000E+00  0.00000000000E+00  0.24292586360E+04  0.24292586360E+04  0.50400001928E-02 0.  1.
       -1   -1    0    0    0  501  0.00000000000E+00  0.00000000000E+00 -0.10470406636E+04  0.10470406636E+04  0.50400001928E-02 0. -1.
    10030    2    1    2    0    0  0.00000000000E+00  0.00000000000E+00  0.13822179724E+04  0.34762992996E+04  0.31896912542E+04 0.  0.
        5    1    3    3  502    0 -0.45365494524E+03  0.14628715847E+04  0.20650423732E+03  0.15454650345E+04  0.46999998093E+01 0. -1.
       -5    1    3    3    0  502  0.45365494524E+03 -0.14628715847E+04  0.11757137351E+04  0.19308342652E+04  0.46999998093E+01 0.  1.
</event>
<event>
 5   0  0.3283581E-08  0.3199689E+04  0.7818609E-02  0.8188899E-01
        1   -1    0    0  501    0  0.00000000000E+00  0.00000000000E+00  0.15675285999E+04  0.15675285999E+04  0.50400001928E-02 0. -1.
       -1   -1    0    0    0  501  0.00000000000E+00  0.00000000000E+00 -0.16328263921E+04  0.16328263921E+04  0.50400001928E-02 0.  1.
    10030    2    1    2    0    0  0.00000000000E+00  0.00000000000E+00 -0.65297792171E+02  0.32003549920E+04  0.31996887775E+04 0.  0.
        5    1    3    3  502    0 -0.57873554662E+03 -0.12099798864E+04  0.83959564593E+03  0.15823808319E+04  0.46999998093E+01 0.  1.
       -5    1    3    3    0  502  0.57873554662E+03  0.12099798864E+04 -0.90489343810E+03  0.16179741601E+04  0.46999998093E+01 0. -1.
</event>
<event>
 5   0  0.9157524E-08  0.3200855E+04  0.7818609E-02  0.8188591E-01
       -2   -1    0    0    0  501  0.00000000000E+00  0.00000000000E+00  0.13785751342E+04  0.13785751342E+04  0.25500000920E-02 0.  1.
        2   -1    0    0  501    0  0.00000000000E+00  0.00000000000E+00 -0.18579823613E+04  0.18579823613E+04  0.25500000920E-02 0. -1.
    10030    2    1    2    0    0  0.00000000000E+00  0.00000000000E+00 -0.47940722712E+03  0.32365574956E+04  0.32008550628E+04 0.  0.
        5    1    3    3  502    0  0.12257356220E+04 -0.70583932643E+03  0.51745377916E+03  0.15061266459E+04  0.46999998093E+01 0. -1.
       -5    1    3    3    0  502 -0.12257356220E+04  0.70583932643E+03 -0.99686100628E+03  0.17304308497E+04  0.46999998093E+01 0.  1.
</event>
<event>
 5   0  0.3220147E-08  0.3200082E+04  0.7818609E-02  0.8188795E-01
       -1   -1    0    0    0  501  0.00000000000E+00  0.00000000000E+00  0.13018541462E+04  0.13018541462E+04  0.50400001928E-02 0.  1.
        1   -1    0    0  501    0  0.00000000000E+00  0.00000000000E+00 -0.19665272195E+04  0.19665272195E+04  0.50400001928E-02 0. -1.
    10030    2    1    2    0    0  0.00000000000E+00  0.00000000000E+00 -0.66467307329E+03  0.32683813657E+04  0.32000822579E+04 0.  0.
        4    1    3    3  502    0 -0.45454310444E+03  0.91001834824E+03 -0.15937621028E+04  0.18907199902E+04  0.12699999809E+01 0. -1.
       -4    1    3    3    0  502  0.45454310444E+03 -0.91001834824E+03  0.92908902951E+03  0.13776613755E+04  0.12699999809E+01 0.  1.
</event>
<event>
 5   0  0.9329929E-08  0.3200161E+04  0.7818609E-02  0.8188775E-01
        2   -1    0    0  501    0  0.00000000000E+00  0.00000000000E+00  0.15672987343E+04  0.15672987343E+04  0.25500000920E-02 0.  1.
       -2   -1    0    0    0  501  0.00000000000E+00  0.00000000000E+00 -0.16335481126E+04  0.16335481126E+04  0.25500000920E-02 0. -1.
    10030    2    1    2    0    0  0.00000000000E+00  0.00000000000E+00 -0.66249378315E+02  0.32008468470E+04  0.32001611768E+04 0.  0.
        1    1    3    3  502    0  0.69213758117E+03  0.13887496882E+04  0.35757103863E+03  0.15923370169E+04  0.50400001928E-02 0.  1.
       -1    1    3    3    0  502 -0.69213758117E+03 -0.13887496882E+04 -0.42382041695E+03  0.16085098301E+04  0.50400001928E-02 0. -1.
</event>
<event>
 5   0  0.3283581E-08  0.3199193E+04  0.7818609E-02  0.8189030E-01
        1   -1    0    0  501    0  0.00000000000E+00  0.00000000000E+00  0.26307385786E+04  0.26307385786E+04  0.50400001928E-02 0.  1.
       -1   -1    0    0    0  501  0.00000000000E+00  0.00000000000E+00 -0.97261977774E+03  0.97261977775E+03  0.50400001928E-02 0. -1.
    10030    2    1    2    0    0  0.00000000000E+00  0.00000000000E+00  0.16581188009E+04  0.36033583564E+04  0.31991926304E+04 0.  0.
        5    1    3    3  502    0  0.58120757523E+03 -0.94279931113E+03 -0.47087482080E+03  0.12035023778E+04  0.46999998093E+01 0. -1.
       -5    1    3    3    0  502 -0.58120757523E+03  0.94279931113E+03  0.21289936217E+04  0.23998559786E+04  0.46999998093E+01 0.  1.
</event>
<event>
 5   0  0.3343140E-08  0.3193143E+04  0.7818609E-02  0.8190630E-01
       -1   -1    0    0    0  501  0.00000000000E+00  0.00000000000E+00  0.15097081039E+04  0.15097081039E+04  0.50400001928E-02 0.  1.
        1   -1    0    0  501    0  0.00000000000E+00  0.00000000000E+00 -0.16884329552E+04  0.16884329552E+04  0.50400001928E-02 0. -1.
    10030    2    1    2    0    0  0.00000000000E+00  0.00000000000E+00 -0.17872485129E+03  0.31981410591E+04  0.31931432259E+04 0.  0.
        1    1    3    3  502    0 -0.54805678777E+03  0.14532597038E+04  0.28096066887E+03  0.15783754011E+04  0.50400001928E-02 0.  1.
       -1    1    3    3    0  502  0.54805678777E+03 -0.14532597038E+04 -0.45968552016E+03  0.16197656580E+04  0.50400001928E-02 0. -1.
</event>
<event>
 5   0  0.3343140E-08  0.3199891E+04  0.7818609E-02  0.8188846E-01
        1   -1    0    0  501    0  0.00000000000E+00  0.00000000000E+00  0.17118224014E+04  0.17118224014E+04  0.50400001928E-02 0. -1.
       -1   -1    0    0    0  501  0.00000000000E+00  0.00000000000E+00 -0.14953807713E+04  0.14953807713E+04  0.50400001928E-02 0.  1.
    10030    2    1    2    0    0  0.00000000000E+00  0.00000000000E+00  0.21644163018E+03  0.32072031727E+04  0.31998914375E+04 0.  0.
        1    1    3    3  502    0  0.12604440600E+04  0.73331739085E+03  0.76802029875E+03  0.16481288795E+04  0.50400001928E-02 0.  1.
       -1    1    3    3    0  502 -0.12604440600E+04 -0.73331739085E+03 -0.55157866857E+03  0.15590742932E+04  0.50400001928E-02 0. -1.
</event>
<event>
 5   0  0.3220147E-08  0.3199560E+04  0.7818609E-02  0.8188933E-01
       -1   -1    0    0    0  501  0.00000000000E+00  0.00000000000E+00  0.90368585651E+03  0.90368585652E+03  0.50400001928E-02 0.  1.
        1   -1    0    0  501    0  0.00000000000E+00  0.00000000000E+00 -0.28320638143E+04  0.28320638143E+04  0.50400001928E-02 0. -1.
    10030    2    1    2    0    0  0.00000000000E+00  0.00000000000E+00 -0.19283779578E+04  0.37357496708E+04  0.31995599783E+04 0.  0.
        4    1    3    3  502    0  0.72620865898E+02  0.44866730644E+03  0.82671570599E+03  0.94341751810E+03  0.12699999809E+01 0.  1.
       -4    1    3    3    0  502 -0.72620865898E+02 -0.44866730644E+03 -0.27550936637E+04  0.27923321527E+04  0.12699999809E+01 0. -1.
</event>
<event>
 5   0  0.9727083E-08  0.3200823E+04  0.7818609E-02  0.8188600E-01
        2   -1    0    0  501    0  0.00000000000E+00  0.00000000000E+00  0.22510193335E+04  0.22510193335E+04  0.25500000920E-02 0.  1.
       -2   -1    0    0    0  501  0.00000000000E+00  0.00000000000E+00 -0.11378473882E+04  0.11378473882E+04  0.25500000920E-02 0. -1.
    10030    2    1    2    0    0  0.00000000000E+00  0.00000000000E+00  0.11131719454E+04  0.33888667217E+04  0.32008226876E+04 0.  0.
        4    1    3    3  502    0 -0.13867450547E+04  0.70321762431E+03  0.95798715280E+03  0.18262852657E+04  0.12699999809E+01 0.  1.
       -4    1    3    3    0  502  0.13867450547E+04 -0.70321762431E+03  0.15518479258E+03  0.15625814560E+04  0.12699999809E+01 0. -1.
</event>
<event>
 5   0  0.9707721E-08  0.3198519E+04  0.7818609E-02  0.8189208E-01
        2   -1    0    0  501    0  0.00000000000E+00  0.00000000000E+00  0.27528610930E+04  0.27528610930E+04  0.25500000920E-02 0. -1.
       -2   -1    0    0    0  501  0.00000000000E+00  0.00000000000E+00 -0.92908096909E+03  0.92908096909E+03  0.25500000920E-02 0.  1.
    10030    2    1    2    0    0  0.00000000000E+00  0.00000000000E+00  0.18237801239E+04  0.36819420621E+04  0.31985189398E+04 0.  0.
        3    1    3    3  502    0 -0.61164292152E+03  0.10555253470E+04  0.21022987477E+04  0.24306173818E+04  0.10100000352E+00 0. -1.
       -3    1    3    3    0  502  0.61164292152E+03 -0.10555253470E+04 -0.27851862378E+03  0.12513246804E+04  0.10100000352E+00 0.  1.
</event>
<event>
 5   0  0.3220147E-08  0.3199556E+04  0.7818609E-02  0.8188935E-01
       -1   -1    0    0    0  501  0.00000000000E+00  0.00000000000E+00  0.17403232818E+04  0.17403232818E+04  0.50400001928E-02 0. -1.
        1   -1    0    0  501    0  0.00000000000E+00  0.00000000000E+00 -0.14705826848E+04  0.14705826848E+04  0.50400001928E-02 0.  1.
    10030    2    1    2    0    0  0.00000000000E+00  0.00000000000E+00  0.26974059702E+03  0.32109059667E+04  0.31995557718E+04 0.  0.
        4    1    3    3  502    0 -0.96940227225E+03  0.95786299685E+02 -0.11386356943E+04  0.14984687644E+04  0.12699999809E+01 0.  1.
       -4    1    3    3    0  502  0.96940227225E+03 -0.95786299685E+02  0.14083762914E+04  0.17124372022E+04  0.12699999809E+01 0. -1.
</event>
<event>
 5   0  0.9157524E-08  0.3201316E+04  0.7818609E-02  0.8188470E-01
        2   -1    0    0  501    0  0.00000000000E+00  0.00000000000E+00  0.11896924005E+04  0.11896924005E+04  0.25500000920E-02 0.  1.
       -2   -1    0    0    0  501  0.00000000000E+00  0.00000000000E+00 -0.21535866945E+04  0.21535866945E+04  0.25500000920E-02 0. -1.
    10030    2    1    2    0    0  0.00000000000E+00  0.00000000000E+00 -0.96389429400E+03  0.33432790950E+04  0.32013158071E+04 0.  0.
        5    1    3    3  502    0 -0.54375754735E+03  0.99281125234E+03 -0.16638291583E+04  0.20123856517E+04  0.46999998093E+01 0. -1.
       -5    1    3    3    0  502  0.54375754735E+03 -0.99281125234E+03  0.69993486432E+03  0.13308934433E+04  0.46999998093E+01 0.  1.
</event>
<event>
 5   0  0.9707721E-08  0.3202068E+04  0.7818609E-02  0.8188271E-01
        2   -1    0    0  501    0  0.00000000000E+00  0.00000000000E+00  0.27703368123E+04  0.27703368123E+04  0.25500000920E-02 0.  1.
       -2   -1    0    0    0  501  0.00000000000E+00  0.00000000000E+00 -0.92526997212E+03  0.92526997212E+03  0.25500000920E-02 0. -1.
    10030    2    1    2    0    0  0.00000000000E+00  0.00000000000E+00  0.18450668402E+04  0.36956067844E+04  0.32020677476E+04 0.  0.
        3    1    3    3  502    0 -0.24370215571E+02  0.15956676939E+04  0.77401255266E+03  0.17736529364E+04  0.10100000352E+00 0. -1.
       -3    1    3    3    0  502  0.24370215571E+02 -0.15956676939E+04  0.10710542875E+04  0.19219538480E+04  0.10100000352E+00 0.  1.
</event>
<event>
 5   0  0.9727083E-08  0.3203434E+04  0.7818609E-02  0.8187911E-01
       -2   -1    0    0    0  501  0.00000000000E+00  0.00000000000E+00  0.16578509242E+04  0.16578509242E+04  0.25500000920E-02 0. -1.
        2   -1    0    0  501    0  0.00000000000E+00  0.00000000000E+00 -0.15474836114E+04  0.15474836114E+04  0.25500000920E-02 0.  1.
    10030    2    1    2    0    0  0.00000000000E+00  0.00000000000E+00  0.11036731279E+03  0.32053345356E+04  0.32034338672E+04 0.  0.
        4    1    3    3  502    0 -0.27972389079E+03 -0.15475853097E+04 -0.24869008889E+03  0.15922041700E+04  0.12699999809E+01 0. -1.
       -4    1    3    3    0  502  0.27972389079E+03  0.15475853097E+04  0.35905740168E+03  0.16131303656E+04  0.12699999809E+01 0.  1.
</event>
<event>
 5   0  0.9353994E-08  0.3199973E+04  0.7818609E-02  0.8188824E-01
        2   -1    0    0  501    0  0.00000000000E+00  0.00000000000E+00  0.16581177568E+04  0.16581177568E+04  0.25500000920E-02 0. -1.
       -2   -1    0    0    0  501  0.00000000000E+00  0.00000000000E+00 -0.15438928796E+04  0.15438928796E+04  0.25500000920E-02 0.  1.
    10030    2    1    2    0    0  0.00000000000E+00  0.00000000000E+00  0.11422487723E+03  0.32020106365E+04  0.31999726239E+04 0.  0.
        2    1    3    3  502    0  0.68802357120E+02 -0.77272354305E+03  0.14573323311E+04  0.16509551665E+04  0.25500000920E-02 0. -1.
       -2    1    3    3    0  502 -0.68802357120E+02  0.77272354305E+03 -0.13431074539E+04  0.15510554700E+04  0.25500000920E-02 0.  1.
</event>
<event>
 5   0  0.9353994E-08  0.3198847E+04  0.7818609E-02  0.8189122E-01
       -2   -1    0    0    0  501  0.00000000000E+00  0.00000000000E+00  0.18651098395E+04  0.18651098395E+04  0.25500000920E-02 0. -1.
        2   -1    0    0  501    0  0.00000000000E+00  0.00000000000E+00 -0.13715845410E+04  0.13715845410E+04  0.25500000920E-02 0.  1.
    10030    2    1    2    0    0  0.00000000000E+00  0.00000000000E+00  0.49352529849E+03  0.32366943806E+04  0.31988471819E+04 0.  0.
        2    1    3    3  502    0 -0.14326585650E+04  0.70921514676E+03  0.19458573330E+03  0.16103913486E+04  0.25500000920E-02 0.  1.
       -2    1    3    3    0  502  0.14326585650E+04 -0.70921514676E+03  0.29893956519E+03  0.16263030320E+04  0.25500000920E-02 0. -1.
</event>
<event>
 5   0  0.9353994E-08  0.3199170E+04  0.7818609E-02  0.8189036E-01
        2   -1    0    0  501    0  0.00000000000E+00  0.00000000000E+00  0.14234720238E+04  0.14234720238E+04  0.25500000920E-02 0. -1.
       -2   -1    0    0    0  501  0.00000000000E+00  0.00000000000E+00 -0.17974872244E+04  0.17974872244E+04  0.25500000920E-02 0.  1.
    10030    2    1    2    0    0  0.00000000000E+00  0.00000000000E+00 -0.37401520066E+03  0.32209592482E+04  0.31991703781E+04 0.  0.
        2    1    3    3  502    0  0.67049498034E+03 -0.98699187473E+03 -0.12596067040E+04  0.17350289704E+04  0.25500000920E-02 0.  1.
       -2    1    3    3    0  502 -0.67049498034E+03  0.98699187473E+03  0.88559150338E+03  0.14859302777E+04  0.25500000920E-02 0. -1.
</event>
<event>
 5   0  0.9707721E-08  0.3200236E+04  0.7818609E-02  0.8188755E-01
        2   -1    0    0  501    0  0.00000000000E+00  0.00000000000E+00  0.21353742048E+04  0.21353742048E+04  0.25500000920E-02 0. -1.
       -2   -1    0    0    0  501  0.00000000000E+00  0.00000000000E+00 -0.11990299002E+04  0.11990299002E+04  0.25500000920E-02 0.  1.
    10030    2    1    2    0    0  0.00000000000E+00  0.00000000000E+00  0.93634430467E+03  0.33344041050E+04  0.32002359411E+04 0.  0.
        3    1    3    3  502    0  0.81213561193E+03  0.88904758992E+03 -0.62976493200E+03  0.13588869523E+04  0.10100000352E+00 0.  1.
       -3    1    3    3    0  502 -0.81213561193E+03 -0.88904758992E+03  0.15661092367E+04  0.19755171527E+04  0.10100000352E+00 0. -1.
</event>
<event>
 5   0  0.9727083E-08  0.3206103E+04  0.7818609E-02  0.8187207E-01
       -2   -1    0    0    0  501  0.00000000000E+00  0.00000000000E+00  0.16337553958E+04  0.16337553958E+04  0.25500000920E-02 0. -1.
        2   -1    0    0  501    0  0.00000000000E+00  0.00000000000E+00 -0.15729245520E+04  0.15729245520E+04  0.25500000920E-02 0.  1.
    10030    2    1    2    0    0  0.00000000000E+00  0.00000000000E+00  0.60830843861E+02  0.32066799478E+04  0.32061029141E+04 0.  0.
        4    1    3    3  502    0  0.15405852141E+04  0.36158923789E+03 -0.22580012407E+03  0.15984795550E+04  0.12699999809E+01 0. -1.
       -4    1    3    3    0  502 -0.15405852141E+04 -0.36158923789E+03  0.28663096793E+03  0.16082003928E+04  0.12699999809E+01 0.  1.
</event>
<event>
 5   0  0.9329929E-08  0.3199055E+04  0.7818609E-02  0.8189067E-01
        2   -1    0    0  501    0  0.00000000000E+00  0.00000000000E+00  0.23237069972E+04  0.23237069972E+04  0.25500000920E-02 0. -1.
       -2   -1    0    0    0  501  0.00000000000E+00  0.00000000000E+00 -0.11010370316E+04  0.11010370316E+04  0.25500000920E-02 0.  1.
    10030    2    1    2    0    0  0.00000000000E+00  0.00000000000E+00  0.12226699657E+04  0.34247440288E+04  0.31990545194E+04 0.  0.
        1    1    3    3  502    0 -0.11870453905E+04  0.52169201188E+03 -0.39135737206E+03  0.13544002020E+04  0.50400001928E-02 0.  1.
       -1    1    3    3    0  502  0.11870453905E+04 -0.52169201188E+03  0.16140273377E+04  0.20703438269E+04  0.50400001928E-02 0. -1.
</event>
<event>
 5   0  0.3343140E-08  0.3201805E+04  0.7818609E-02  0.8188341E-01
        1   -1    0    0  501    0  0.00000000000E+00  0.00000000000E+00  0.16720185676E+04  0.16720185676E+04  0.50400001928E-02 0.  1.
       -1   -1    0    0    0  501  0.00000000000E+00  0.00000000000E+00 -0.15328109266E+04  0.15328109266E+04  0.50400001928E-02 0. -1.
    10030    2    1    2    0    0  0.00000000000E+00  0.00000000000E+00  0.13920764104E+03  0.32048294942E+04  0.32018046973E+04 0.  0.
        1    1    3    3  502    0 -0.10600434552E+04  0.11988264876E+04  0.11449321311E+03  0.16043646001E+04  0.50400001928E-02 0.  1.
       -1    1    3    3    0  502  0.10600434552E+04 -0.11988264876E+04  0.24714427928E+02  0.16004648941E+04  0.50400001928E-02 0. -1.
</event>
<event>
 5   0  0.3270966E-08  0.3187420E+04  0.7818609E-02  0.8192147E-01
       -1   -1    0    0    0  501  0.00000000000E+00  0.00000000000E+00  0.10187422554E+04  0.10187422554E+04  0.50400001928E-02 0. -1.
        1   -1    0    0  501    0  0.00000000000E+00  0.00000000000E+00 -0.24931843612E+04  0.24931843612E+04  0.50400001928E-02 0.  1.
    10030    2    1    2    0    0  0.00000000000E+00  0.00000000000E+00 -0.14744421058E+04  0.35119266166E+04  0.31874204362E+04 0.  0.
        3    1    3    3  502    0 -0.20694731600E+03  0.11276392752E+04 -0.19569556604E+04  0.22680548921E+04  0.10100000352E+00 0.  1.
       -3    1    3    3    0  502  0.20694731600E+03 -0.11276392752E+04  0.48251355460E+03  0.12438717245E+04  0.10100000352E+00 0. -1.
</event>
<event>
 5   0  0.3343140E-08  0.3200780E+04  0.7818609E-02  0.8188611E-01
       -1   -1    0    0    0  501  0.00000000000E+00  0.00000000000E+00  0.14047048425E+04  0.14047048425E+04  0.50400001928E-02 0. -1.
        1   -1    0    0  501    0  0.00000000000E+00  0.00000000000E+00 -0.18233357390E+04  0.18233357390E+04  0.50400001928E-02 0.  1.
    10030    2    1    2    0    0  0.00000000000E+00  0.00000000000E+00 -0.41863089646E+03  0.32280405815E+04  0.32007802437E+04 0.  0.
        1    1    3    3  502    0  0.50609428054E+03 -0.88135861260E+03 -0.14560984175E+04  0.17757102878E+04  0.50400001928E-02 0.  1.
       -1    1    3    3    0  502 -0.50609428054E+03  0.88135861260E+03  0.10374675210E+04  0.14523302937E+04  0.50400001928E-02 0. -1.
</event>
<event>
 5   0  0.9727083E-08  0.3200061E+04  0.7818609E-02  0.8188801E-01
        2   -1    0    0  501    0  0.00000000000E+00  0.00000000000E+00  0.15246074432E+04  0.15246074432E+04  0.25500000920E-02 0. -1.
       -2   -1    0    0    0  501  0.00000000000E+00  0.00000000000E+00 -0.16791849806E+04  0.16791849806E+04  0.25500000920E-02 0.  1.
    10030    2    1    2    0    0  0.00000000000E+00  0.00000000000E+00 -0.15457753735E+03  0.32037924238E+04  0.32000611994E+04 0.  0.
        4    1    3    3  502    0  0.14731287656E+04 -0.28198643761E+03 -0.63513823660E+03  0.16288115003E+04  0.12699999809E+01 0.  1.
       -4    1    3    3    0  502 -0.14731287656E+04  0.28198643761E+03  0.48056069925E+03  0.15749809235E+04  0.12699999809E+01 0. -1.
</event>
<event>
 5   0  0.9353994E-08  0.3198002E+04  0.7818609E-02  0.8189345E-01
        2   -1    0    0  501    0  0.00000000000E+00  0.00000000000E+00  0.23550380419E+04  0.23550380419E+04  0.25500000920E-02 0.  1.
       -2   -1    0    0    0  501  0.00000000000E+00  0.00000000000E+00 -0.10856739537E+04  0.10856739537E+04  0.25500000920E-02 0. -1.
    10030    2    1    2    0    0  0.00000000000E+00  0.00000000000E+00  0.12693640882E+04  0.34407119956E+04  0.31980015397E+04 0.  0.
        2    1    3    3  502    0 -0.72646545177E+03  0.30148573062E+03 -0.86315378745E+03  0.11677671682E+04  0.25500000920E-02 0. -1.
       -2    1    3    3    0  502  0.72646545177E+03 -0.30148573062E+03  0.21325178756E+04  0.22729448273E+04  0.25500000920E-02 0.  1.
</event>
<event>
 5   0  0.9353994E-08  0.3199776E+04  0.7818609E-02  0.8188876E-01
        2   -1    0    0  501    0  0.00000000000E+00  0.00000000000E+00  0.23880616925E+04  0.23880616925E+04  0.25500000920E-02 0. -1.
       -2   -1    0    0    0  501  0.00000000000E+00  0.00000000000E+00 -0.10718488649E+04  0.10718488649E+04  0.25500000920E-02 0.  1.
    10030    2    1    2    0    0  0.00000000000E+00  0.00000000000E+00  0.13162128276E+04  0.34599105574E+04  0.31997757512E+04 0.  0.
        2    1    3    3  502    0 -0.74831240125E+03  0.14049062534E+04  0.48406050742E+03  0.16637450543E+04  0.25500000920E-02 0.  1.
       -2    1    3    3    0  502  0.74831240125E+03 -0.14049062534E+04  0.83215232021E+03  0.17961655032E+04  0.25500000920E-02 0. -1.
</event>
<event>
 5   0  0.9329929E-08  0.3200949E+04  0.7818609E-02  0.8188566E-01
       -2   -1    0    0    0  501  0.00000000000E+00  0.00000000000E+00  0.14589021963E+04  0.14589021963E+04  0.25500000920E-02 0. -1.
        2   -1    0    0  501    0  0.00000000000E+00  0.00000000000E+00 -0.17557854124E+04  0.17557854124E+04  0.25500000920E-02 0.  1.
    10030    2    1    2    0    0  0.00000000000E+00  0.00000000000E+00 -0.29688321613E+03  0.32146876088E+04  0.32009493557E+04 0.  0.
        1    1    3    3  502    0 -0.13689217747E+04  0.69001567425E+03  0.31336971429E+03  0.15646945497E+04  0.50400001928E-02 0. -1.
       -1    1    3    3    0  502  0.13689217747E+04 -0.69001567425E+03 -0.61025293041E+03  0.16499930591E+04  0.50400001928E-02 0.  1.
</event>
<event>
 5   0  0.9157524E-08  0.3198956E+04  0.7818609E-02  0.8189093E-01
        2   -1    0    0  501    0  0.00000000000E+00  0.00000000000E+00  0.19889618137E+04  0.19889618137E+04  0.25500000920E-02 0.  1.
       -2   -1    0    0    0  501  0.00000000000E+00  0.00000000000E+00 -0.12862636486E+04  0.12862636486E+04  0.25500000920E-02 0. -1.
    10030    2    1    2    0    0  0.00000000000E+00  0.00000000000E+00  0.70269816512E+03  0.32752254624E+04  0.31989556293E+04 0.  0.
        5    1    3    3  502    0  0.27953866695E+03 -0.15660171945E+04  0.52192090014E+03  0.16742088387E+04  0.46999998093E+01 0.  1.
       -5    1    3    3    0  502 -0.27953866695E+03  0.15660171945E+04  0.18077726498E+03  0.16010166236E+04  0.46999998093E+01 0. -1.
</event>
<event>
 5   0  0.3427667E-08  0.3199791E+04  0.7818609E-02  0.8188872E-01
        1   -1    0    0  501    0  0.00000000000E+00  0.00000000000E+00  0.10812834206E+04  0.10812834206E+04  0.50400001928E-02 0. -1.
       -1   -1    0    0    0  501  0.00000000000E+00  0.00000000000E+00 -0.23672482515E+04  0.23672482515E+04  0.50400001928E-02 0.  1.
    10030    2    1    2    0    0  0.00000000000E+00  0.00000000000E+00 -0.12859648309E+04  0.34485316721E+04  0.31997914224E+04 0.  0.
        2    1    3    3  502    0  0.10618450765E+03 -0.27299967156E+03 -0.23381018837E+04  0.23563795086E+04  0.25500000920E-02 0.  1.
       -2    1    3    3    0  502 -0.10618450765E+03  0.27299967156E+03  0.10521370528E+04  0.10921521634E+04  0.25500000920E-02 0. -1.
</event>
<event>
 5   0  0.3270966E-08  0.3179552E+04  0.7818609E-02  0.8194238E-01
       -1   -1    0    0    0  501  0.00000000000E+00  0.00000000000E+00  0.17666011059E+04  0.17666011059E+04  0.50400001928E-02 0.  1.
        1   -1    0    0  501    0  0.00000000000E+00  0.00000000000E+00 -0.14306500989E+04  0.14306500990E+04  0.50400001928E-02 0. -1.
    10030    2    1    2    0    0  0.00000000000E+00  0.00000000000E+00  0.33595100695E+03  0.31972512049E+04  0.31795521993E+04 0.  0.
        3    1    3    3  502    0  0.40762775096E+03 -0.23558980313E+03  0.16948894571E+04  0.17590660081E+04  0.10100000352E+00 0.  1.
       -3    1    3    3    0  502 -0.40762775096E+03  0.23558980313E+03 -0.13589384502E+04  0.14381851968E+04  0.10100000352E+00 0. -1.
</event>
<event>
 5   0  0.3343140E-08  0.3199734E+04  0.7818609E-02  0.8188887E-01
       -1   -1    0    0    0  501  0.00000000000E+00  0.00000000000E+00  0.17217524142E+04  0.17217524142E+04  0.50400001928E-02 0.  1.
        1   -1    0    0  501    0  0.00000000000E+00  0.00000000000E+00 -0.14866102187E+04  0.14866102187E+04  0.50400001928E-02 0. -1.
    10030    2    1    2    0    0  0.00000000000E+00  0.00000000000E+00  0.23514219548E+03  0.32083626329E+04  0.31997341971E+04 0.  0.
        1    1    3    3  502    0  0.91917433045E+03  0.73939765484E+03 -0.96607648416E+03  0.15247603467E+04  0.50400001928E-02 0. -1.
       -1    1    3    3    0  502 -0.91917433045E+03 -0.73939765484E+03  0.12012186796E+04  0.16836022862E+04  0.50400001928E-02 0.  1.
</event>
<event>
 5   0  0.3427667E-08  0.3200379E+04  0.7818609E-02  0.8188717E-01
       -1   -1    0    0    0  501  0.00000000000E+00  0.00000000000E+00  0.11498632802E+04  0.11498632802E+04  0.50400001928E-02 0.  1.
        1   -1    0    0  501    0  0.00000000000E+00  0.00000000000E+00 -0.22268792981E+04  0.22268792981E+04  0.50400001928E-02 0. -1.
    10030    2    1    2    0    0  0.00000000000E+00  0.00000000000E+00 -0.10770160179E+04  0.33767425783E+04  0.32003791865E+04 0.  0.
        2    1    3    3  502    0  0.11540934806E+04 -0.11081231452E+04 -0.56717251868E+03  0.16975138682E+04  0.25500000920E-02 0. -1.
       -2    1    3    3    0  502 -0.11540934806E+04  0.11081231452E+04 -0.50984349924E+03  0.16792287100E+04  0.25500000920E-02 0.  1.
</event>
<event>
 5   0  0.9707721E-08  0.3201209E+04  0.7818609E-02  0.8188498E-01
       -2   -1    0    0    0  501  0.00000000000E+00  0.00000000000E+00  0.14395198139E+04  0.14395198139E+04  0.25500000920E-02 0.  1.
        2   -1    0    0  501    0  0.00000000000E+00  0.00000000000E+00 -0.17797150621E+04  0.17797150621E+04  0.25500000920E-02 0. -1.
    10030    2    1    2    0    0  0.00000000000E+00  0.00000000000E+00 -0.34019524817E+03  0.32192348760E+04  0.32012092059E+04 0.  0.
        3    1    3    3  502    0 -0.54216374274E+03 -0.98082014353E+03 -0.13193297794E+04  0.17310634751E+04  0.10100000352E+00 0. -1.
       -3    1    3    3    0  502  0.54216374274E+03  0.98082014353E+03  0.97913453122E+03  0.14881714009E+04  0.10100000352E+00 0.  1.
</event>
<event>
 5   0  0.3427667E-08  0.3199949E+04  0.7818609E-02  0.8188831E-01
       -1   -1    0    0    0  501  0.00000000000E+00  0.00000000000E+00  0.11971276368E+04  0.11971276368E+04  0.50400001928E-02 0.  1.
        1   -1    0    0  501    0  0.00000000000E+00  0.00000000000E+00 -0.21383832035E+04  0.21383832035E+04  0.50400001928E-02 0. -1.
    10030    2    1    2    0    0  0.00000000000E+00  0.00000000000E+00 -0.94125556668E+03  0.33355108402E+04  0.31999485189E+04 0.  0.
        2    1    3    3  502    0 -0.16423478373E+03  0.21275805615E+03  0.11734278064E+04  0.12038155471E+04  0.25500000920E-02 0.  1.
       -2    1    3    3    0  502  0.16423478373E+03 -0.21275805615E+03 -0.21146833730E+04  0.21316952932E+04  0.25500000920E-02 0. -1.
</event>
<event>
 5   0  0.9157524E-08  0.3205956E+04  0.7818609E-02  0.8187246E-01
       -2   -1    0    0    0  501  0.00000000000E+00  0.00000000000E+00  0.18692522374E+04  0.18692522374E+04  0.25500000920E-02 0. -1.
        2   -1    0    0  501    0  0.00000000000E+00  0.00000000000E+00 -0.13746348477E+04  0.13746348477E+04  0.25500000920E-02 0.  1.
    10030    2    1    2    0    0  0.00000000000E+00  0.00000000000E+00  0.49461738969E+03  0.32438870851E+04  0.32059564967E+04 0.  0.
        5    1    3    3  502    0  0.33975585869E+03  0.56493309071E+03 -0.12311197289E+04  0.13965175679E+04  0.46999998093E+01 0.  1.
       -5    1    3    3    0  502 -0.33975585869E+03 -0.56493309071E+03  0.17257371186E+04  0.18473695172E+04  0.46999998093E+01 0. -1.
</event>
<event>
 5   0  0.9329929E-08  0.3201137E+04  0.7818609E-02  0.8188517E-01
       -2   -1    0    0    0  501  0.00000000000E+00  0.00000000000E+00  0.16887622779E+04  0.16887622779E+04  0.25500000920E-02 0. -1.
        2   -1    0    0  501    0  0.00000000000E+00  0.00000000000E+00 -0.15169808941E+04  0.15169808941E+04  0.25500000920E-02 0.  1.
    10030    2    1    2    0    0  0.00000000000E+00  0.00000000000E+00  0.17178138386E+03  0.32057431720E+04  0.32011373668E+04 0.  0.
        1    1    3    3  502    0  0.98247055051E+03  0.66711469291E+03 -0.98874680329E+03  0.15452865874E+04  0.50400001928E-02 0.  1.
       -1    1    3    3    0  502 -0.98247055051E+03 -0.66711469291E+03  0.11605281872E+04  0.16604565846E+04  0.50400001928E-02 0. -1.
</event>
<event>
 5   0  0.3283581E-08  0.3199590E+04  0.7818609E-02  0.8188925E-01
       -1   -1    0    0    0  501  0.00000000000E+00  0.00000000000E+00  0.10033942142E+04  0.10033942142E+04  0.50400001928E-02 0. -1.
        1   -1    0    0  501    0  0.00000000000E+00  0.00000000000E+00 -0.25506870995E+04  0.25506870995E+04  0.50400001928E-02 0.  1.
    10030    2    1    2    0    0  0.00000000000E+00  0.00000000000E+00 -0.15472928852E+04  0.35540813137E+04  0.31995903975E+04 0.  0.
        5    1    3    3  502    0  0.46515541253E+03 -0.11982750884E+04  0.28428646665E+03  0.13164625442E+04  0.46999998093E+01 0. -1.
       -5    1    3    3    0  502 -0.46515541253E+03  0.11982750884E+04 -0.18315793519E+04  0.22376187695E+04  0.46999998093E+01 0.  1.
</event>
<event>
 5   0  0.3270966E-08  0.3176726E+04  0.7818609E-02  0.8194991E-01
       -1   -1    0    0    0  501  0.00000000000E+00  0.00000000000E+00  0.13230759934E+04  0.13230759934E+04  0.50400001928E-02 0. -1.
        1   -1    0    0  501    0  0.00000000000E+00  0.00000000000E+00 -0.19068421248E+04  0.19068421248E+04  0.50400001928E-02 0.  1.
    10030    2    1    2    0    0  0.00000000000E+00  0.00000000000E+00 -0.58376613145E+03  0.32299181182E+04  0.31767260118E+04 0.  0.
        3    1    3    3  502    0  0.13588452485E+04 -0.58159932697E+03 -0.88315187506E+03  0.17218232869E+04  0.10100000352E+00 0.  1.
       -3    1    3    3    0  502 -0.13588452485E+04  0.58159932697E+03  0.29938574361E+03  0.15080948313E+04  0.10100000352E+00 0. -1.
</event>
<event>
 5   0  0.3343140E-08  0.3202307E+04  0.7818609E-02  0.8188208E-01
        1   -1    0    0  501    0  0.00000000000E+00  0.00000000000E+00  0.87805914416E+03  0.87805914418E+03  0.50400001928E-02 0.  1.
       -1   -1    0    0    0  501  0.00000000000E+00  0.00000000000E+00 -0.29197260083E+04  0.29197260083E+04  0.50400001928E-02 0. -1.
    10030    2    1    2    0    0  0.00000000000E+00  0.00000000000E+00 -0.20416668642E+04  0.37977851525E+04  0.32023067436E+04 0.  0.
        1    1    3    3  502    0  0.12082525502E+04 -0.97070574816E+03 -0.14975042723E+04  0.21551480042E+04  0.50400001928E-02 0. -1.
       -1    1    3    3    0  502 -0.12082525502E+04  0.97070574816E+03 -0.54416259184E+03  0.16426371483E+04  0.50400001928E-02 0.  1.
</event>
<event>
 5   0  0.3283581E-08  0.3200890E+04  0.7818609E-02  0.8188582E-01
        1   -1    0    0  501    0  0.00000000000E+00  0.00000000000E+00  0.24261339002E+04  0.24261339002E+04  0.50400001928E-02 0.  1.
       -1   -1    0    0    0  501  0.00000000000E+00  0.00000000000E+00 -0.10557639563E+04  0.10557639564E+04  0.50400001928E-02 0. -1.
    10030    2    1    2    0    0  0.00000000000E+00  0.00000000000E+00  0.13703699438E+04  0.34818978565E+04  0.32008903293E+04 0.  0.
        5    1    3    3  502    0 -0.64612449300E+03 -0.14235902824E+04  0.10577694420E+04  0.18875869344E+04  0.46999998093E+01 0. -1.
       -5    1    3    3    0  502  0.64612449300E+03  0.14235902824E+04  0.31260050183E+03  0.15943109221E+04  0.46999998093E+01 0.  1.
</event>
<event>
 5   0  0.9353994E-08  0.3201654E+04  0.7818609E-02  0.8188381E-01
       -2   -1    0    0    0  501  0.00000000000E+00  0.00000000000E+00  0.11697372598E+04  0.11697372598E+04  0.25500000920E-02 0. -1.
        2   -1    0    0  501    0  0.00000000000E+00  0.00000000000E+00 -0.21907879820E+04  0.21907879820E+04  0.25500000920E-02 0.  1.
    10030    2    1    2    0    0  0.00000000000E+00  0.00000000000E+00 -0.10210507222E+04  0.33605252419E+04  0.32016535296E+04 0.  0.
        2    1    3    3  502    0 -0.10226816648E+04 -0.17848668683E+03  0.76851146335E+03  0.12916443606E+04  0.25500000920E-02 0. -1.
       -2    1    3    3    0  502  0.10226816648E+04  0.17848668683E+03 -0.17895621856E+04  0.20688808813E+04  0.25500000920E-02 0.  1.
</event>
<event>
 5   0  0.3427667E-08  0.3200433E+04  0.7818609E-02  0.8188703E-01
       -1   -1    0    0    0  501  0.00000000000E+00  0.00000000000E+00  0.23188494838E+04  0.23188494838E+04  0.50400001928E-02 0. -1.
        1   -1    0    0  501    0  0.00000000000E+00  0.00000000000E+00 -0.11042947289E+04  0.11042947290E+04  0.50400001928E-02 0.  1.
    10030    2    1    2    0    0  0.00000000000E+00  0.00000000000E+00  0.12145547548E+04  0.34231442127E+04  0.32004332595E+04 0.  0.
        2    1    3    3  502    0  0.12769304336E+04 -0.28959216107E+03  0.15912273679E+04  0.20606842282E+04  0.25500000920E-02 0. -1.
       -2    1    3    3    0  502 -0.12769304336E+04  0.28959216107E+03 -0.37667261308E+03  0.13624599845E+04  0.25500000920E-02 0.  1.
</event>
<event>
 5   0  0.9157524E-08  0.3200161E+04  0.7818609E-02  0.8188775E-01
        2   -1    0    0  501    0  0.00000000000E+00  0.00000000000E+00  0.24077867244E+04  0.24077867244E+04  0.25500000920E-02 0.  1.
       -2   -1    0    0    0  501  0.00000000000E+00  0.00000000000E+00 -0.10633241392E+04  0.10633241392E+04  0.25500000920E-02 0. -1.
    10030    2    1    2    0    0  0.00000000000E+00  0.00000000000E+00  0.13444625852E+04  0.34711108636E+04  0.32001610873E+04 0.  0.
        5    1    3    3  502    0  0.11565691495E+04  0.85341366507E+03 -0.90335948031E+02  0.14401908745E+04  0.46999998093E+01 0. -1.
       -5    1    3    3    0  502 -0.11565691495E+04 -0.85341366507E+03  0.14347985332E+04  0.20309199891E+04  0.46999998093E+01 0.  1.
</event>
<event>
 5   0  0.3343140E-08  0.3200864E+04  0.7818609E-02  0.8188589E-01
        1   -1    0    0  501    0  0.00000000000E+00  0.00000000000E+00  0.18469749078E+04  0.18469749078E+04  0.50400001928E-02 0.  1.
       -1   -1    0    0    0  501  0.00000000000E+00  0.00000000000E+00 -0.13867986230E+04  0.13867986230E+04  0.50400001928E-02 0. -1.
    10030    2    1    2    0    0  0.00000000000E+00  0.00000000000E+00  0.46017628483E+03  0.32337735309E+04  0.32008637953E+04 0.  0.
        1    1    3    3  502    0  0.24095621083E+02  0.13226640771E+04 -0.67992901119E+03  0.14873884227E+04  0.50400001928E-02 0. -1.
       -1    1    3    3    0  502 -0.24095621083E+02 -0.13226640771E+04  0.11401052960E+04  0.17463851081E+04  0.50400001928E-02 0.  1.
</event>
<event>
 5   0  0.9707721E-08  0.3200663E+04  0.7818609E-02  0.8188642E-01
       -2   -1    0    0    0  501  0.00000000000E+00  0.00000000000E+00  0.15212800199E+04  0.15212800199E+04  0.25500000920E-02 0. -1.
        2   -1    0    0  501    0  0.00000000000E+00  0.00000000000E+00 -0.16834908588E+04  0.16834908588E+04  0.25500000920E-02 0.  1.
    10030    2    1    2    0    0  0.00000000000E+00  0.00000000000E+00 -0.16221083890E+03  0.32047708787E+04  0.32006630608E+04 0.  0.
        3    1    3    3  502    0  0.70278275829E+03  0.12091192359E+04 -0.86004218936E+03  0.16418116547E+04  0.10100000352E+00 0.  1.
       -3    1    3    3    0  502 -0.70278275829E+03 -0.12091192359E+04  0.69783135046E+03  0.15629592240E+04  0.10100000352E+00 0. -1.
</event>
<event>
 5   0  0.9157524E-08  0.3198800E+04  0.7818609E-02  0.8189134E-01
        2   -1    0    0  501    0  0.00000000000E+00  0.00000000000E+00  0.17687968822E+04  0.17687968822E+04  0.25500000920E-02 0. -1.
       -2   -1    0    0    0  501  0.00000000000E+00  0.00000000000E+00 -0.14462266125E+04  0.14462266125E+04  0.25500000920E-02 0.  1.
    10030    2    1    2    0    0  0.00000000000E+00  0.00000000000E+00  0.32257026969E+03  0.32150234948E+04  0.31988004772E+04 0.  0.
        5    1    3    3  502    0 -0.12354849328E+04 -0.41743517228E+03  0.10919314425E+04  0.17008855068E+04  0.46999998093E+01 0. -1.
       -5    1    3    3    0  502  0.12354849328E+04  0.41743517228E+03 -0.76936117281E+03  0.15141379879E+04  0.46999998093E+01 0.  1.
</event>
<event>
 5   0  0.9157524E-08  0.3200862E+04  0.7818609E-02  0.8188590E-01
       -2   -1    0    0    0  501  0.00000000000E+00  0.00000000000E+00  0.11791973103E+04  0.11791973103E+04  0.25500000920E-02 0.  1.
        2   -1    0    0  501    0  0.00000000000E+00  0.00000000000E+00 -0.21721378690E+04  0.21721378690E+04  0.25500000920E-02 0. -1.
    10030    2    1    2    0    0  0.00000000000E+00  0.00000000000E+00 -0.99294055865E+03  0.33513351793E+04  0.32008618419E+04 0.  0.
        5    1    3    3  502    0  0.13602741720E+04  0.45668343568E+03  0.24569048714E+03  0.14557786538E+04  0.46999998093E+01 0.  1.
       -5    1    3    3    0  502 -0.13602741720E+04 -0.45668343568E+03 -0.12386310458E+04  0.18955565254E+04  0.46999998093E+01 0. -1.
</event>
<event>
 5   0  0.9707721E-08  0.3200231E+04  0.7818609E-02  0.8188756E-01
        2   -1    0    0  501    0  0.00000000000E+00  0.00000000000E+00  0.15322454704E+04  0.15322454704E+04  0.25500000920E-02 0. -1.
       -2   -1    0    0    0  501  0.00000000000E+00  0.00000000000E+00 -0.16709921772E+04  0.16709921772E+04  0.25500000920E-02 0.  1.
    10030    2    1    2    0    0  0.00000000000E+00  0.00000000000E+00 -0.13874670680E+03  0.32032376476E+04  0.32002313632E+04 0.  0.
        3    1    3    3  502    0  0.58215398905E+02 -0.73724920229E+03 -0.14896653607E+04  0.16631380928E+04  0.10100000352E+00 0.  1.
       -3    1    3    3    0  502 -0.58215398905E+02  0.73724920229E+03  0.13509186539E+04  0.15400995547E+04  0.10100000352E+00 0. -1.
</event>
<event>
 5   0  0.3343140E-08  0.3208650E+04  0.7818609E-02  0.8186537E-01
        1   -1    0    0  501    0  0.00000000000E+00  0.00000000000E+00  0.16376132947E+04  0.16376132947E+04  0.50400001928E-02 0.  1.
       -1   -1    0    0    0  501  0.00000000000E+00  0.00000000000E+00 -0.15717130182E+04  0.15717130183E+04  0.50400001928E-02 0. -1.
    10030    2    1    2    0    0  0.00000000000E+00  0.00000000000E+00  0.65900276454E+02  0.32093263130E+04  0.32086496438E+04 0.  0.
        1    1    3    3  502    0 -0.20958507474E+03  0.34914179940E+02 -0.15575780442E+04  0.15720032657E+04  0.50400001928E-02 0. -1.
       -1    1    3    3    0  502  0.20958507474E+03 -0.34914179940E+02  0.16234783207E+04  0.16373230473E+04  0.50400001928E-02 0.  1.
</event>
<event>
 5   0  0.3220147E-08  0.3187223E+04  0.7818609E-02  0.8192200E-01
       -1   -1    0    0    0  501  0.00000000000E+00  0.00000000000E+00  0.14272970933E+04  0.14272970933E+04  0.50400001928E-02 0. -1.
        1   -1    0    0  501    0  0.00000000000E+00  0.00000000000E+00 -0.17793057412E+04  0.17793057412E+04  0.50400001928E-02 0.  1.
    10030    2    1    2    0    0  0.00000000000E+00  0.00000000000E+00 -0.35200864789E+03  0.32066028346E+04  0.31872231880E+04 0.  0.
        4    1    3    3  502    0  0.43815226014E+03 -0.24675539925E+03  0.13453844384E+04  0.14362891527E+04  0.12699999809E+01 0. -1.
       -4    1    3    3    0  502 -0.43815226014E+03  0.24675539925E+03 -0.16973930863E+04  0.17703136819E+04  0.12699999809E+01 0.  1.
</event>
<event>
 5   0  0.3283581E-08  0.3194231E+04  0.7818609E-02  0.8190343E-01
        1   -1    0    0  501    0  0.00000000000E+00  0.00000000000E+00  0.21573439873E+04  0.21573439873E+04  0.50400001928E-02 0.  1.
       -1   -1    0    0    0  501  0.00000000000E+00  0.00000000000E+00 -0.11823692206E+04  0.11823692206E+04  0.50400001928E-02 0. -1.
    10030    2    1    2    0    0  0.00000000000E+00  0.00000000000E+00  0.97497476674E+03  0.33397132079E+04  0.31942305044E+04 0.  0.
        5    1    3    3  502    0 -0.43274664744E+02 -0.11696320300E+03  0.21522380656E+04  0.21558533968E+04  0.46999998093E+01 0.  1.
       -5    1    3    3    0  502  0.43274664744E+02  0.11696320300E+03 -0.11772632989E+04  0.11838598111E+04  0.46999998093E+01 0. -1.
</event>
<event>
 5   0  0.9353994E-08  0.3200225E+04  0.7818609E-02  0.8188758E-01
       -2   -1    0    0    0  501  0.00000000000E+00  0.00000000000E+00  0.97360534991E+03  0.97360534991E+03  0.25500000920E-02 0.  1.
        2   -1    0    0  501    0  0.00000000000E+00  0.00000000000E+00 -0.26297724348E+04  0.26297724348E+04  0.25500000920E-02 0. -1.
    10030    2    1    2    0    0  0.00000000000E+00  0.00000000000E+00 -0.16561670849E+04  0.36033777847E+04  0.32002253118E+04 0.  0.
        2    1    3    3  502    0  0.85041351255E+03 -0.10336854568E+04 -0.18152583181E+04  0.22554093925E+04  0.25500000920E-02 0. -1.
       -2    1    3    3    0  502 -0.85041351255E+03  0.10336854568E+04  0.15909123325E+03  0.13479683923E+04  0.25500000920E-02 0.  1.
</event>
<event>
 5   0  0.3270966E-08  0.3200722E+04  0.7818609E-02  0.8188626E-01
       -1   -1    0    0    0  501  0.00000000000E+00  0.00000000000E+00  0.18110021984E+04  0.18110021984E+04  0.50400001928E-02 0. -1.
        1   -1    0    0  501    0  0.00000000000E+00  0.00000000000E+00 -0.14142200667E+04  0.14142200667E+04  0.50400001928E-02 0.  1.
    10030    2    1    2    0    0  0.00000000000E+00  0.00000000000E+00  0.39678213170E+03  0.32252222651E+04  0.32007221997E+04 0.  0.
        3    1    3    3  502    0  0.10888568068E+04 -0.11728129709E+04  0.20594708080E+03  0.16135407093E+04  0.10100000352E+00 0. -1.
       -3    1    3    3    0  502 -0.10888568068E+04  0.11728129709E+04  0.19083505090E+03  0.16116815558E+04  0.10100000352E+00 0.  1.
</event>
<event>
 5   0  0.3220147E-08  0.3200725E+04  0.7818609E-02  0.8188626E-01
        1   -1    0    0  501    0  0.00000000000E+00  0.00000000000E+00  0.12075405380E+04  0.12075405380E+04  0.50400001928E-02 0. -1.
       -1   -1    0    0    0  501  0.00000000000E+00  0.00000000000E+00 -0.21209729507E+04  0.21209729507E+04  0.50400001928E-02 0.  1.
    10030    2    1    2    0    0  0.00000000000E+00  0.00000000000E+00 -0.91343241272E+03  0.33285134887E+04  0.32007254290E+04 0.  0.
        4    1    3    3  502    0  0.13187318353E+04  0.81692609706E+03 -0.47644527418E+02  0.15519966222E+04  0.12699999809E+01 0. -1.
       -4    1    3    3    0  502 -0.13187318353E+04 -0.81692609706E+03 -0.86578788530E+03  0.17765168665E+04  0.12699999809E+01 0.  1.
</event>
<event>
 5   0  0.9727083E-08  0.3200699E+04  0.7818609E-02  0.8188632E-01
       -2   -1    0    0    0  501  0.00000000000E+00  0.00000000000E+00  0.11796356067E+04  0.11796356067E+04  0.25500000920E-02 0.  1.
        2   -1    0    0  501    0  0.00000000000E+00  0.00000000000E+00 -0.21711104141E+04  0.21711104141E+04  0.25500000920E-02 0. -1.
    10030    2    1    2    0    0  0.00000000000E+00  0.00000000000E+00 -0.99147480740E+03  0.33507460209E+04  0.32006993927E+04 0.  0.
        4    1    3    3  502    0  0.95210227978E+03  0.30873037516E+02  0.85049634818E+03  0.12770268387E+04  0.12699999809E+01 0.  1.
       -4    1    3    3    0  502 -0.95210227978E+03 -0.30873037516E+02 -0.18419711556E+04  0.20737191822E+04  0.12699999809E+01 0. -1.
</event>
<event>
 5   0  0.3220147E-08  0.3199974E+04  0.7818609E-02  0.8188824E-01
        1   -1    0    0  501    0  0.00000000000E+00  0.00000000000E+00  0.29256961039E+04  0.29256961039E+04  0.50400001928E-02 0.  1.
       -1   -1    0    0    0  501  0.00000000000E+00  0.00000000000E+00 -0.87499146293E+03  0.87499146294E+03  0.50400001928E-02 0. -1.
    10030    2    1    2    0    0  0.00000000000E+00  0.00000000000E+00  0.20507046409E+04  0.38006875668E+04  0.31999744462E+04 0.  0.
        4    1    3    3  502    0 -0.62639817086E+03 -0.11770869162E+03  0.27684071011E+04  0.28408290154E+04  0.12699999809E+01 0.  1.
       -4    1    3    3    0  502  0.62639817086E+03  0.11770869162E+03 -0.71770246014E+03  0.95985855142E+03  0.12699999809E+01 0. -1.
</event>
<event>
 5   0  0.3220147E-08  0.3199946E+04  0.7818609E-02  0.8188832E-01
        1   -1    0    0  501    0  0.00000000000E+00  0.00000000000E+00  0.18481745035E+04  0.18481745035E+04  0.50400001928E-02 0.  1.
       -1   -1    0    0    0  501  0.00000000000E+00  0.00000000000E+00 -0.13851035324E+04  0.13851035324E+04  0.50400001928E-02 0. -1.
    10030    2    1    2    0    0  0.00000000000E+00  0.00000000000E+00  0.46307097107E+03  0.32332780359E+04  0.31999456454E+04 0.  0.
        4    1    3    3  502    0  0.57841321944E+03  0.10272850657E+03 -0.12721858344E+04  0.14012756362E+04  0.12699999809E+01 0. -1.
       -4    1    3    3    0  502 -0.57841321944E+03 -0.10272850657E+03  0.17352568055E+04  0.18320023997E+04  0.12699999809E+01 0.  1.
</event>
<event>
 5   0  0.3343140E-08  0.3198392E+04  0.7818609E-02  0.8189242E-01
        1   -1    0    0  501    0  0.00000000000E+00  0.00000000000E+00  0.16565599026E+04  0.16565599027E+04  0.50400001928E-02 0.  1.
       -1   -1    0    0    0  501  0.00000000000E+00  0.00000000000E+00 -0.15438184621E+04  0.15438184621E+04  0.50400001928E-02 0. -1.
    10030    2    1    2    0    0  0.00000000000E+00  0.00000000000E+00  0.11274144053E+03  0.32003783648E+04  0.31983919468E+04 0.  0.
        1    1    3    3  502    0 -0.13811274275E+03  0.15888731862E+04 -0.61323033306E+02  0.15960431216E+04  0.50400001928E-02 0.  1.
       -1    1    3    3    0  502  0.13811274275E+03 -0.15888731862E+04  0.17406447384E+03  0.16043352432E+04  0.50400001928E-02 0. -1.
</event>
<event>
 5   0  0.9329929E-08  0.3198429E+04  0.7818609E-02  0.8189232E-01
        2   -1    0    0  501    0  0.00000000000E+00  0.00000000000E+00  0.21391097617E+04  0.21391097617E+04  0.25500000920E-02 0.  1.
       -2   -1    0    0    0  501  0.00000000000E+00  0.00000000000E+00 -0.11955846869E+04  0.11955846869E+04  0.25500000920E-02 0. -1.
    10030    2    1    2    0    0  0.00000000000E+00  0.00000000000E+00  0.94352507477E+03  0.33346944486E+04  0.31984289110E+04 0.  0.
        1    1    3    3  502    0  0.75867318232E+03 -0.10366287012E+04 -0.52134315854E+03  0.13863559250E+04  0.50400001928E-02 0. -1.
       -1    1    3    3    0  502 -0.75867318232E+03  0.10366287012E+04  0.14648682333E+04  0.19483385236E+04  0.50400001928E-02 0.  1.
</event>
<event>
 5   0  0.3270966E-08  0.3201440E+04  0.7818609E-02  0.8188437E-01
       -1   -1    0    0    0  501  0.00000000000E+00  0.00000000000E+00  0.16935329142E+04  0.16935329142E+04  0.50400001928E-02 0.  1.
        1   -1    0    0  501    0  0.00000000000E+00  0.00000000000E+00 -0.15129932008E+04  0.15129932009E+04  0.50400001928E-02 0. -1.
    10030    2    1    2    0    0  0.00000000000E+00  0.00000000000E+00  0.18053971338E+03  0.32065261151E+04  0.32014395416E+04 0.  0.
        3    1    3    3  502    0  0.10136639226E+02 -0.12138324642E+04 -0.95484947367E+03  0.15444188325E+04  0.10100000352E+00 0. -1.
       -3    1    3    3    0  502 -0.10136639226E+02  0.12138324642E+04  0.11353891871E+04  0.16621072826E+04  0.10100000352E+00 0.  1.
</event>
<event>
 5   0  0.9353994E-08  0.3199587E+04  0.7818609E-02  0.8188926E-01
        2   -1    0    0  501    0  0.00000000000E+00  0.00000000000E+00  0.15063683529E+04  0.15063683529E+04  0.25500000920E-02 0.  1.
       -2   -1    0    0    0  501  0.00000000000E+00  0.00000000000E+00 -0.16990128886E+04  0.16990128886E+04  0.25500000920E-02 0. -1.
    10030    2    1    2    0    0  0.00000000000E+00  0.00000000000E+00 -0.19264453570E+03  0.32053812415E+04  0.31995870024E+04 0.  0.
        2    1    3    3  502    0 -0.89961117673E+03 -0.11550784642E+04  0.54969644179E+03  0.15638646699E+04  0.25500000920E-02 0.  1.
       -2    1    3    3    0  502  0.89961117673E+03  0.11550784642E+04 -0.74234097749E+03  0.16415165715E+04  0.25500000920E-02 0. -1.
</event>
<event>
 5   0  0.9707721E-08  0.3199959E+04  0.7818609E-02  0.8188828E-01
        2   -1    0    0  501    0  0.00000000000E+00  0.00000000000E+00  0.16667968544E+04  0.16667968544E+04  0.25500000920E-02 0. -1.
       -2   -1    0    0    0  501  0.00000000000E+00  0.00000000000E+00 -0.15358409647E+04  0.15358409647E+04  0.25500000920E-02 0.  1.
    10030    2    1    2    0    0  0.00000000000E+00  0.00000000000E+00  0.13095588968E+03  0.32026378191E+04  0.31999593052E+04 0.  0.
        3    1    3    3  502    0  0.10119813788E+04  0.42284861628E+03 -0.11004124255E+04  0.15536456416E+04  0.10100000352E+00 0.  1.
       -3    1    3    3    0  502 -0.10119813788E+04 -0.42284861628E+03  0.12313683152E+04  0.16489921774E+04  0.10100000352E+00 0. -1.
</event>
<event>
 5   0  0.3283581E-08  0.3199863E+04  0.7818609E-02  0.8188853E-01
       -1   -1    0    0    0  501  0.00000000000E+00  0.00000000000E+00  0.28570212249E+04  0.28570212249E+04  0.50400001928E-02 0.  1.
        1   -1    0    0  501    0  0.00000000000E+00  0.00000000000E+00 -0.89596135370E+03  0.89596135372E+03  0.50400001928E-02 0. -1.
    10030    2    1    2    0    0  0.00000000000E+00  0.00000000000E+00  0.19610598712E+04  0.37529825786E+04  0.31998628747E+04 0.  0.
        5    1    3    3  502    0 -0.39312554698E+03  0.15463232960E+04  0.11197747386E+04  0.19492513914E+04  0.46999998093E+01 0.  1.
       -5    1    3    3    0  502  0.39312554698E+03 -0.15463232960E+04  0.84128513256E+03  0.18037311872E+04  0.46999998093E+01 0. -1.
</event>
<event>
 5   0  0.9727083E-08  0.3199812E+04  0.7818609E-02  0.8188867E-01
       -2   -1    0    0    0  501  0.00000000000E+00  0.00000000000E+00  0.15114678457E+04  0.15114678457E+04  0.25500000920E-02 0. -1.
        2   -1    0    0  501    0  0.00000000000E+00  0.00000000000E+00 -0.16935190948E+04  0.16935190948E+04  0.25500000920E-02 0.  1.
    10030    2    1    2    0    0  0.00000000000E+00  0.00000000000E+00 -0.18205124914E+03  0.32049869404E+04  0.31998122806E+04 0.  0.
        4    1    3    3  502    0  0.14992358053E+04  0.55011843810E+03 -0.18792787508E+03  0.16079977597E+04  0.12699999809E+01 0. -1.
       -4    1    3    3    0  502 -0.14992358053E+04 -0.55011843810E+03  0.58766259416E+01  0.15969891808E+04  0.12699999809E+01 0.  1.
</event>
<event>
 5   0  0.9727083E-08  0.3204384E+04  0.7818609E-02  0.8187660E-01
       -2   -1    0    0    0  501  0.00000000000E+00  0.00000000000E+00  0.14654703132E+04  0.14654703132E+04  0.25500000920E-02 0.  1.
        2   -1    0    0  501    0  0.00000000000E+00  0.00000000000E+00 -0.17516691044E+04  0.17516691044E+04  0.25500000920E-02 0. -1.
    10030    2    1    2    0    0  0.00000000000E+00  0.00000000000E+00 -0.28619879117E+03  0.32171394176E+04  0.32043839164E+04 0.  0.
        4    1    3    3  502    0 -0.78685254353E+03 -0.36413495992E+03 -0.14957882115E+04  0.17289057756E+04  0.12699999809E+01 0. -1.
       -4    1    3    3    0  502  0.78685254353E+03  0.36413495992E+03  0.12095894203E+04  0.14882336419E+04  0.12699999809E+01 0.  1.
</event>
<event>
 5   0  0.9353994E-08  0.3197738E+04  0.7818609E-02  0.8189415E-01
        2   -1    0    0  501    0  0.00000000000E+00  0.00000000000E+00  0.17518507509E+04  0.17518507509E+04  0.25500000920E-02 0. -1.
       -2   -1    0    0    0  501  0.00000000000E+00  0.00000000000E+00 -0.14592463822E+04  0.14592463822E+04  0.25500000920E-02 0.  1.
    10030    2    1    2    0    0  0.00000000000E+00  0.00000000000E+00  0.29260436871E+03  0.32110971331E+04  0.31977378695E+04 0.  0.
        2    1    3    3  502    0 -0.91413372553E+02 -0.38044008613E+03 -0.14104294302E+04  0.14636947227E+04  0.25500000920E-02 0.  1.
       -2    1    3    3    0  502  0.91413372553E+02  0.38044008613E+03  0.17030337989E+04  0.17474024104E+04  0.25500000920E-02 0. -1.
</event>
<event>
 5   0  0.3283581E-08  0.3203069E+04  0.7818609E-02  0.8188007E-01
        1   -1    0    0  501    0  0.00000000000E+00  0.00000000000E+00  0.11277797944E+04  0.11277797945E+04  0.50400001928E-02 0.  1.
       -1   -1    0    0    0  501  0.00000000000E+00  0.00000000000E+00 -0.22743026306E+04  0.22743026306E+04  0.50400001928E-02 0. -1.
    10030    2    1    2    0    0  0.00000000000E+00  0.00000000000E+00 -0.11465228361E+04  0.34020824250E+04  0.32030688742E+04 0.  0.
        5    1    3    3  502    0 -0.61925715107E+03 -0.10867209514E+04  0.48910894942E+03  0.13430158226E+04  0.46999998093E+01 0.  1.
       -5    1    3    3    0  502  0.61925715107E+03  0.10867209514E+04 -0.16356317855E+04  0.20590666024E+04  0.46999998093E+01 0. -1.
</event>
<event>
 5   0  0.9707721E-08  0.3201851E+04  0.7818609E-02  0.8188329E-01
       -2   -1    0    0    0  501  0.00000000000E+00  0.00000000000E+00  0.14816196105E+04  0.14816196105E+04  0.25500000920E-02 0.  1.
        2   -1    0    0  501    0  0.00000000000E+00  0.00000000000E+00 -0.17298383049E+04  0.17298383049E+04  0.25500000920E-02 0. -1.
    10030    2    1    2    0    0  0.00000000000E+00  0.00000000000E+00 -0.24821869437E+03  0.32114579154E+04  0.32018509369E+04 0.  0.
        3    1    3    3  502    0 -0.48201907072E+03 -0.89015878151E+03 -0.13680876213E+04  0.17018780187E+04  0.10100000352E+00 0. -1.
       -3    1    3    3    0  502  0.48201907072E+03  0.89015878151E+03  0.11198689269E+04  0.15095798967E+04  0.10100000352E+00 0.  1.
</event>
<event>
 5   0  0.3080500E-08  0.3192687E+04  0.7818609E-02  0.8190751E-01
       -3   -1    0    0    0  501  0.00000000000E+00  0.00000000000E+00  0.98758782222E+03  0.98758782738E+03  0.10100000352E+00 0.  1.
        3   -1    0    0  501    0  0.00000000000E+00  0.00000000000E+00 -0.25803409017E+04  0.25803409037E+04  0.10100000352E+00 0. -1.
    10030    2    1    2    0    0  0.00000000000E+00  0.00000000000E+00 -0.15927530795E+04  0.35679287311E+04  0.31926874350E+04 0.  0.
        3    1    3    3  502    0 -0.70055053852E+03  0.12917340472E+04 -0.99404711014E+02  0.14728303407E+04  0.10100000352E+00 0.  1.
       -3    1    3    3    0  502  0.70055053852E+03 -0.12917340472E+04 -0.14933483685E+04  0.20950983904E+04  0.10100000352E+00 0. -1.
</event>
<event>
 5   0  0.3270966E-08  0.3201283E+04  0.7818609E-02  0.8188478E-01
        1   -1    0    0  501    0  0.00000000000E+00  0.00000000000E+00  0.19026245494E+04  0.19026245494E+04  0.50400001928E-02 0. -1.
       -1   -1    0    0    0  501  0.00000000000E+00  0.00000000000E+00 -0.13465888731E+04  0.13465888731E+04  0.50400001928E-02 0.  1.
    10030    2    1    2    0    0  0.00000000000E+00  0.00000000000E+00  0.55603567636E+03  0.32492134225E+04  0.32012828978E+04 0.  0.
        3    1    3    3  502    0  0.57586200493E+03  0.74248488662E+03  0.15932402877E+04  0.18496798318E+04  0.10100000352E+00 0. -1.
       -3    1    3    3    0  502 -0.57586200493E+03 -0.74248488662E+03 -0.10372046113E+04  0.13995335907E+04  0.10100000352E+00 0.  1.
</event>
<event>
 5   0  0.9727083E-08  0.3204112E+04  0.7818609E-02  0.8187732E-01
       -2   -1    0    0    0  501  0.00000000000E+00  0.00000000000E+00  0.13138533294E+04  0.13138533294E+04  0.25500000920E-02 0.  1.
        2   -1    0    0  501    0  0.00000000000E+00  0.00000000000E+00 -0.19534781377E+04  0.19534781377E+04  0.25500000920E-02 0. -1.
    10030    2    1    2    0    0  0.00000000000E+00  0.00000000000E+00 -0.63962480837E+03  0.32673314671E+04  0.32041122047E+04 0.  0.
        4    1    3    3  502    0 -0.21185405552E+03 -0.13459575024E+04 -0.11791122763E+04  0.18018854326E+04  0.12699999809E+01 0. -1.
       -4    1    3    3    0  502  0.21185405552E+03  0.13459575024E+04  0.53948746795E+03  0.14654460345E+04  0.12699999809E+01 0.  1.
</event>
<event>
 5   0  0.3220147E-08  0.3189742E+04  0.7818609E-02  0.8191532E-01
        1   -1    0    0  501    0  0.00000000000E+00  0.00000000000E+00  0.16972711340E+04  0.16972711340E+04  0.50400001928E-02 0. -1.
       -1   -1    0    0    0  501  0.00000000000E+00  0.00000000000E+00 -0.14986484728E+04  0.14986484728E+04  0.50400001928E-02 0.  1.
    10030    2    1    2    0    0  0.00000000000E+00  0.00000000000E+00  0.19862266122E+03  0.31959196068E+04  0.31897415525E+04 0.  0.
        4    1    3    3  502    0 -0.57084401726E+03  0.29186086693E+03  0.15624703944E+04  0.16888934259E+04  0.12699999809E+01 0. -1.
       -4    1    3    3    0  502  0.57084401726E+03 -0.29186086693E+03 -0.13638477332E+04  0.15070261809E+04  0.12699999809E+01 0.  1.
</event>
<event>
 5   0  0.3270966E-08  0.3202915E+04  0.7818609E-02  0.8188048E-01
       -1   -1    0    0    0  501  0.00000000000E+00  0.00000000000E+00  0.11453370524E+04  0.11453370524E+04  0.50400001928E-02 0.  1.
        1   -1    0    0  501    0  0.00000000000E+00  0.00000000000E+00 -0.22392240488E+04  0.22392240488E+04  0.50400001928E-02 0. -1.
    10030    2    1    2    0    0  0.00000000000E+00  0.00000000000E+00 -0.10938869965E+04  0.33845611012E+04  0.32029150921E+04 0.  0.
        3    1    3    3  502    0 -0.67211572908E+03 -0.20096675565E+03 -0.20682204876E+04  0.21839558571E+04  0.10100000352E+00 0. -1.
       -3    1    3    3    0  502  0.67211572908E+03  0.20096675565E+03  0.97433349112E+03  0.12006052441E+04  0.10100000352E+00 0.  1.
</event>
<event>
 5   0  0.9353994E-08  0.3200699E+04  0.7818609E-02  0.8188633E-01
        2   -1    0    0  501    0  0.00000000000E+00  0.00000000000E+00  0.18160824540E+04  0.18160824540E+04  0.25500000920E-02 0.  1.
       -2   -1    0    0    0  501  0.00000000000E+00  0.00000000000E+00 -0.14102438041E+04  0.14102438042E+04  0.25500000920E-02 0. -1.
    10030    2    1    2    0    0  0.00000000000E+00  0.00000000000E+00  0.40583864984E+03  0.32263262581E+04  0.32006993164E+04 0.  0.
        2    1    3    3  502    0  0.36706449909E+03 -0.43188663737E+03  0.17115172793E+04  0.18029292308E+04  0.25500000920E-02 0.  1.
       -2    1    3    3    0  502 -0.36706449909E+03  0.43188663737E+03 -0.13056786294E+04  0.14233970273E+04  0.25500000920E-02 0. -1.
</event>
<event>
 5   0  0.3270966E-08  0.3199009E+04  0.7818609E-02  0.8189079E-01
        1   -1    0    0  501    0  0.00000000000E+00  0.00000000000E+00  0.23045835573E+04  0.23045835573E+04  0.50400001928E-02 0. -1.
       -1   -1    0    0    0  501  0.00000000000E+00  0.00000000000E+00 -0.11101419224E+04  0.11101419224E+04  0.50400001928E-02 0.  1.
    10030    2    1    2    0    0  0.00000000000E+00  0.00000000000E+00  0.11944416348E+04  0.34147254797E+04  0.31990091095E+04 0.  0.
        3    1    3    3  502    0  0.52032613208E+03 -0.15121024239E+04  0.55990972534E+03  0.16943116404E+04  0.10100000352E+00 0.  1.
       -3    1    3    3    0  502 -0.52032613208E+03  0.15121024239E+04  0.63453190951E+03  0.17204138393E+04  0.10100000352E+00 0. -1.
</event>
<event>
 5   0  0.9727083E-08  0.3201262E+04  0.7818609E-02  0.8188484E-01
        2   -1    0    0  501    0  0.00000000000E+00  0.00000000000E+00  0.30636278095E+04  0.30636278095E+04  0.25500000920E-02 0. -1.
       -2   -1    0    0    0  501  0.00000000000E+00  0.00000000000E+00 -0.83626959963E+03  0.83626959964E+03  0.25500000920E-02 0.  1.
    10030    2    1    2    0    0  0.00000000000E+00  0.00000000000E+00  0.22273582099E+04  0.38998974092E+04  0.32012615024E+04 0.  0.
        4    1    3    3  502    0  0.51437815350E+03  0.15145347362E+04  0.10404141165E+04  0.19081046876E+04  0.12699999809E+01 0.  1.
       -4    1    3    3    0  502 -0.51437815350E+03 -0.15145347362E+04  0.11869440934E+04  0.19917927216E+04  0.12699999809E+01 0. -1.
</event>
<event>
 5   0  0.9329929E-08  0.3217800E+04  0.7818609E-02  0.8184132E-01
       -2   -1    0    0    0  501  0.00000000000E+00  0.00000000000E+00  0.14529926286E+04  0.14529926286E+04  0.25500000920E-02 0.  1.
        2   -1    0    0  501    0  0.00000000000E+00  0.00000000000E+00 -0.17815363019E+04  0.17815363019E+04  0.25500000920E-02 0. -1.
    10030    2    1    2    0    0  0.00000000000E+00  0.00000000000E+00 -0.32854367335E+03  0.32345289305E+04  0.32177999405E+04 0.  0.
        1    1    3    3  502    0 -0.22341096098E+03 -0.50300032027E+03 -0.16839641309E+04  0.17716255173E+04  0.50400001928E-02 0. -1.
       -1    1    3    3    0  502  0.22341096098E+03  0.50300032027E+03  0.13554204575E+04  0.14629034132E+04  0.50400001928E-02 0.  1.
</event>
<event>
 5   0  0.9329929E-08  0.3194048E+04  0.7818609E-02  0.8190391E-01
       -2   -1    0    0    0  501  0.00000000000E+00  0.00000000000E+00  0.21665927474E+04  0.21665927474E+04  0.25500000920E-02 0.  1.
        2   -1    0    0  501    0  0.00000000000E+00  0.00000000000E+00 -0.11771871162E+04  0.11771871162E+04  0.25500000920E-02 0. -1.
    10030    2    1    2    0    0  0.00000000000E+00  0.00000000000E+00  0.98940563119E+03  0.33437798635E+04  0.31940476316E+04 0.  0.
        1    1    3    3  502    0  0.10784642514E+04 -0.11582722082E+04  0.71875785486E+03  0.17381865561E+04  0.50400001928E-02 0.  1.
       -1    1    3    3    0  502 -0.10784642514E+04  0.11582722082E+04  0.27064777633E+03  0.16055933074E+04  0.50400001928E-02 0. -1.
</event>
<event>
 5   0  0.9707721E-08  0.3198979E+04  0.7818609E-02  0.8189087E-01
        2   -1    0    0  501    0  0.00000000000E+00  0.00000000000E+00  0.16718762096E+04  0.16718762096E+04  0.25500000920E-02 0. -1.
       -2   -1    0    0    0  501  0.00000000000E+00  0.00000000000E+00 -0.15302364188E+04  0.15302364188E+04  0.25500000920E-02 0.  1.
    10030    2    1    2    0    0  0.00000000000E+00  0.00000000000E+00  0.14163979072E+03  0.32021126284E+04  0.31989785017E+04 0.  0.
        3    1    3    3  502    0  0.56401410985E+03 -0.90552629312E+03 -0.11221010574E+04  0.15482895650E+04  0.10100000352E+00 0.  1.
       -3    1    3    3    0  502 -0.56401410985E+03  0.90552629312E+03  0.12637408482E+04  0.16538230634E+04  0.10100000352E+00 0. -1.
</event>
<event>
 5   0  0.9157524E-08  0.3205888E+04  0.7818609E-02  0.8187264E-01
       -2   -1    0    0    0  501  0.00000000000E+00  0.00000000000E+00  0.97281144405E+03  0.97281144405E+03  0.25500000920E-02 0.  1.
        2   -1    0    0  501    0  0.00000000000E+00  0.00000000000E+00 -0.26412402861E+04  0.26412402861E+04  0.25500000920E-02 0. -1.
    10030    2    1    2    0    0  0.00000000000E+00  0.00000000000E+00 -0.16684288421E+04  0.36140517302E+04  0.32058875694E+04 0.  0.
        5    1    3    3  502    0  0.49978004095E+03 -0.12355721395E+04  0.16966004558E+03  0.13435867007E+04  0.46999998093E+01 0.  1.
       -5    1    3    3    0  502 -0.49978004095E+03  0.12355721395E+04 -0.18380888877E+04  0.22704650295E+04  0.46999998093E+01 0. -1.
</event>
<event>
 5   0  0.3270966E-08  0.3196434E+04  0.7818609E-02  0.8189759E-01
        1   -1    0    0  501    0  0.00000000000E+00  0.00000000000E+00  0.19982069600E+04  0.19982069600E+04  0.50400001928E-02 0.  1.
       -1   -1    0    0    0  501  0.00000000000E+00  0.00000000000E+00 -0.12782950534E+04  0.12782950534E+04  0.50400001928E-02 0. -1.
    10030    2    1    2    0    0  0.00000000000E+00  0.00000000000E+00  0.71991190653E+03  0.32765020134E+04  0.31964343088E+04 0.  0.
        3    1    3    3  502    0  0.97104820068E+03  0.12127905521E+04 -0.24270029148E+02  0.15538290047E+04  0.10100000352E+00 0. -1.
       -3    1    3    3    0  502 -0.97104820068E+03 -0.12127905521E+04  0.74418193568E+03  0.17226730087E+04  0.10100000352E+00 0.  1.
</event>
<event>
 5   0  0.3220147E-08  0.3211698E+04  0.7818609E-02  0.8185735E-01
       -1   -1    0    0    0  501  0.00000000000E+00  0.00000000000E+00  0.16122077323E+04  0.16122077323E+04  0.50400001928E-02 0. -1.
        1   -1    0    0  501    0  0.00000000000E+00  0.00000000000E+00 -0.15995153681E+04  0.15995153681E+04  0.50400001928E-02 0.  1.
    10030    2    1    2    0    0  0.00000000000E+00  0.00000000000E+00  0.12692364110E+02  0.32117231004E+04  0.32116980209E+04 0.  0.
        4    1    3    3  502    0  0.80131512977E+03 -0.11043257564E+04  0.85317515988E+03  0.16092081219E+04  0.12699999809E+01 0. -1.
       -4    1    3    3    0  502 -0.80131512977E+03  0.11043257564E+04 -0.84048279577E+03  0.16025149785E+04  0.12699999809E+01 0.  1.
</event>
<event>
 5   0  0.9727083E-08  0.3201137E+04  0.7818609E-02  0.8188517E-01
        2   -1    0    0  501    0  0.00000000000E+00  0.00000000000E+00  0.19103857110E+04  0.19103857110E+04  0.25500000920E-02 0. -1.
       -2   -1    0    0    0  501  0.00000000000E+00  0.00000000000E+00 -0.13409961536E+04  0.13409961536E+04  0.25500000920E-02 0.  1.
    10030    2    1    2    0    0  0.00000000000E+00  0.00000000000E+00  0.56938955746E+03  0.32513818646E+04  0.32011372293E+04 0.  0.
        4    1    3    3  502    0  0.98997153210E+03 -0.48011254793E+03 -0.89599065495E+03  0.14189265519E+04  0.12699999809E+01 0.  1.
       -4    1    3    3    0  502 -0.98997153210E+03  0.48011254793E+03  0.14653802124E+04  0.18324553127E+04  0.12699999809E+01 0. -1.
</event>
<event>
 5   0  0.3270966E-08  0.3197920E+04  0.7818609E-02  0.8189367E-01
        1   -1    0    0  501    0  0.00000000000E+00  0.00000000000E+00  0.23730750200E+04  0.23730750201E+04  0.50400001928E-02 0. -1.
       -1   -1    0    0    0  501  0.00000000000E+00  0.00000000000E+00 -0.10773670318E+04  0.10773670318E+04  0.50400001928E-02 0.  1.
    10030    2    1    2    0    0  0.00000000000E+00  0.00000000000E+00  0.12957079883E+04  0.34504420518E+04  0.31979198180E+04 0.  0.
        3    1    3    3  502    0  0.12063106154E+04  0.23678604375E+03  0.17510496385E+04  0.21394924113E+04  0.10100000352E+00 0. -1.
       -3    1    3    3    0  502 -0.12063106154E+04 -0.23678604375E+03 -0.45534165024E+03  0.13109496405E+04  0.10100000352E+00 0.  1.
</event>
<event>
 5   0  0.3427667E-08  0.3210685E+04  0.7818609E-02  0.8186001E-01
        1   -1    0    0  501    0  0.00000000000E+00  0.00000000000E+00  0.16428329955E+04  0.16428329955E+04  0.50400001928E-02 0. -1.
       -1   -1    0    0    0  501  0.00000000000E+00  0.00000000000E+00 -0.15687074993E+04  0.15687074993E+04  0.50400001928E-02 0.  1.
    10030    2    1    2    0    0  0.00000000000E+00  0.00000000000E+00  0.74125496161E+02  0.32115404948E+04  0.32106849363E+04 0.  0.
        2    1    3    3  502    0 -0.37803395260E+02 -0.77620620022E+03  0.14421431813E+04  0.16382008782E+04  0.25500000920E-02 0. -1.
       -2    1    3    3    0  502  0.37803395260E+02  0.77620620022E+03 -0.13680176852E+04  0.15733396165E+04  0.25500000920E-02 0.  1.
</event>
<event>
 5   0  0.3283581E-08  0.3200174E+04  0.7818609E-02  0.8188771E-01
       -1   -1    0    0    0  501  0.00000000000E+00  0.00000000000E+00  0.86195315277E+03  0.86195315279E+03  0.50400001928E-02 0. -1.
        1   -1    0    0  501    0  0.00000000000E+00  0.00000000000E+00 -0.29703215561E+04  0.29703215561E+04  0.50400001928E-02 0.  1.
    10030    2    1    2    0    0  0.00000000000E+00  0.00000000000E+00 -0.21083684034E+04  0.38322747089E+04  0.32001737641E+04 0.  0.
        5    1    3    3  502    0 -0.74246314412E+03 -0.92574542669E+03 -0.23394983233E+04  0.26232671633E+04  0.46999998093E+01 0.  1.
       -5    1    3    3    0  502  0.74246314412E+03  0.92574542669E+03  0.23112991996E+03  0.12090075456E+04  0.46999998093E+01 0. -1.
</event>
<event>
 5   0  0.3270966E-08  0.3200564E+04  0.7818609E-02  0.8188668E-01
        1   -1    0    0  501    0  0.00000000000E+00  0.00000000000E+00  0.14520568934E+04  0.14520568934E+04  0.50400001928E-02 0.  1.
       -1   -1    0    0    0  501  0.00000000000E+00  0.00000000000E+00 -0.17636377816E+04  0.17636377816E+04  0.50400001928E-02 0. -1.
    10030    2    1    2    0    0  0.00000000000E+00  0.00000000000E+00 -0.31158088821E+03  0.32156946750E+04  0.32005639492E+04 0.  0.
        3    1    3    3  502    0  0.47616264469E+02 -0.92782166218E+03  0.11533591194E+04  0.14809988568E+04  0.10100000352E+00 0.  1.
       -3    1    3    3    0  502 -0.47616264469E+02  0.92782166218E+03 -0.14649400076E+04  0.17346958181E+04  0.10100000352E+00 0. -1.
</event>
<event>
 5   0  0.3283581E-08  0.3199880E+04  0.7818609E-02  0.8188849E-01
       -1   -1    0    0    0  501  0.00000000000E+00  0.00000000000E+00  0.20905104270E+04  0.20905104270E+04  0.50400001928E-02 0. -1.
        1   -1    0    0  501    0  0.00000000000E+00  0.00000000000E+00 -0.12244898469E+04  0.12244898469E+04  0.50400001928E-02 0.  1.
    10030    2    1    2    0    0  0.00000000000E+00  0.00000000000E+00  0.86602058003E+03  0.33150002739E+04  0.31998804932E+04 0.  0.
        5    1    3    3  502    0 -0.78457421199E+03 -0.18935003581E+03 -0.99812881248E+03  0.12836250802E+04  0.46999998093E+01 0.  1.
       -5    1    3    3    0  502  0.78457421199E+03  0.18935003581E+03  0.18641493925E+04  0.20313751937E+04  0.46999998093E+01 0. -1.
</event>
<event>
 5   0  0.3427667E-08  0.3200780E+04  0.7818609E-02  0.8188611E-01
        1   -1    0    0  501    0  0.00000000000E+00  0.00000000000E+00  0.86682488385E+03  0.86682488386E+03  0.50400001928E-02 0. -1.
       -1   -1    0    0    0  501  0.00000000000E+00  0.00000000000E+00 -0.29547462574E+04  0.29547462574E+04  0.50400001928E-02 0.  1.
    10030    2    1    2    0    0  0.00000000000E+00  0.00000000000E+00 -0.20879213736E+04  0.38215711413E+04  0.32007796434E+04 0.  0.
        2    1    3    3  502    0 -0.15470570116E+03 -0.72826240739E+03 -0.27353913070E+04  0.28349013370E+04  0.25500000920E-02 0.  1.
       -2    1    3    3    0  502  0.15470570116E+03  0.72826240739E+03  0.64746993344E+03  0.98666980430E+03  0.25500000920E-02 0. -1.
</event>
<event>
 5   0  0.3427667E-08  0.3198959E+04  0.7818609E-02  0.8189092E-01
       -1   -1    0    0    0  501  0.00000000000E+00  0.00000000000E+00  0.15050916802E+04  0.15050916802E+04  0.50400001928E-02 0. -1.
        1   -1    0    0  501    0  0.00000000000E+00  0.00000000000E+00 -0.16997861029E+04  0.16997861029E+04  0.50400001928E-02 0.  1.
    10030    2    1    2    0    0  0.00000000000E+00  0.00000000000E+00 -0.19469442267E+03  0.32048777831E+04  0.31989585315E+04 0.  0.
        2    1    3    3  502    0  0.16497083084E+03 -0.76169572833E+03 -0.14966916122E+04  0.16874482331E+04  0.25500000920E-02 0.  1.
       -2    1    3    3    0  502 -0.16497083084E+03  0.76169572833E+03  0.13019971895E+04  0.15174295500E+04  0.25500000920E-02 0. -1.
</event>
<event>
 5   0  0.9157524E-08  0.3199612E+04  0.7818609E-02  0.8188920E-01
       -2   -1    0    0    0  501  0.00000000000E+00  0.00000000000E+00  0.16029204020E+04  0.16029204020E+04  0.25500000920E-02 0.  1.
        2   -1    0    0  501    0  0.00000000000E+00  0.00000000000E+00 -0.15966976041E+04  0.15966976041E+04  0.25500000920E-02 0. -1.
    10030    2    1    2    0    0  0.00000000000E+00  0.00000000000E+00  0.62227979694E+01  0.31996180061E+04  0.31996119549E+04 0.  0.
        5    1    3    3  502    0 -0.24020311167E+03 -0.11333121883E+04  0.11064099211E+04  0.16019547604E+04  0.46999998093E+01 0.  1.
       -5    1    3    3    0  502  0.24020311167E+03  0.11333121883E+04 -0.11001871231E+04  0.15976632457E+04  0.46999998093E+01 0. -1.
</event>
<event>
 5   0  0.3270966E-08  0.3201879E+04  0.7818609E-02  0.8188321E-01
       -1   -1    0    0    0  501  0.00000000000E+00  0.00000000000E+00  0.12038726562E+04  0.12038726563E+04  0.50400001928E-02 0. -1.
        1   -1    0    0  501    0  0.00000000000E+00  0.00000000000E+00 -0.21289681305E+04  0.21289681305E+04  0.50400001928E-02 0.  1.
    10030    2    1    2    0    0  0.00000000000E+00  0.00000000000E+00 -0.92509547429E+03  0.33328407868E+04  0.32018785226E+04 0.  0.
        3    1    3    3  502    0 -0.11959462154E+04 -0.63975716311E+03  0.42278791372E+03  0.14206780804E+04  0.10100000352E+00 0. -1.
       -3    1    3    3    0  502  0.11959462154E+04  0.63975716311E+03 -0.13478833880E+04  0.19121627064E+04  0.10100000352E+00 0.  1.
</event>
<event>
 5   0  0.9157524E-08  0.3197368E+04  0.7818609E-02  0.8189513E-01
        2   -1    0    0  501    0  0.00000000000E+00  0.00000000000E+00  0.27135500088E+04  0.27135500088E+04  0.25500000920E-02 0.  1.
       -2   -1    0    0    0  501  0.00000000000E+00  0.00000000000E+00 -0.94186220914E+03  0.94186220914E+03  0.25500000920E-02 0. -1.
    10030    2    1    2    0    0  0.00000000000E+00  0.00000000000E+00  0.17716877996E+04  0.36554122179E+04  0.31973677961E+04 0.  0.
        5    1    3    3  502    0 -0.51277812667E+03 -0.61341251209E+02  0.26155516307E+04  0.26660526212E+04  0.46999998093E+01 0.  1.
       -5    1    3    3    0  502  0.51277812667E+03  0.61341251209E+02 -0.84386383104E+03  0.98935959672E+03  0.46999998093E+01 0. -1.
</event>
<event>
 5   0  0.3270966E-08  0.3197724E+04  0.7818609E-02  0.8189419E-01
       -1   -1    0    0    0  501  0.00000000000E+00  0.00000000000E+00  0.10503627468E+04  0.10503627468E+04  0.50400001928E-02 0.  1.
        1   -1    0    0  501    0  0.00000000000E+00  0.00000000000E+00 -0.24337869939E+04  0.24337869939E+04  0.50400001928E-02 0. -1.
    10030    2    1    2    0    0  0.00000000000E+00  0.00000000000E+00 -0.13834242471E+04  0.34841497408E+04  0.31977236855E+04 0.  0.
        3    1    3    3  502    0 -0.15714891225E+04  0.27281467034E+03 -0.57061134310E+03  0.16939903251E+04  0.10100000352E+00 0.  1.
       -3    1    3    3    0  502  0.15714891225E+04 -0.27281467034E+03 -0.81281290403E+03  0.17901594157E+04  0.10100000352E+00 0. -1.
</event>
<event>
 5   0  0.9727083E-08  0.3199682E+04  0.7818609E-02  0.8188901E-01
        2   -1    0    0  501    0  0.00000000000E+00  0.00000000000E+00  0.28104582564E+04  0.28104582564E+04  0.25500000920E-02 0. -1.
       -2   -1    0    0    0  501  0.00000000000E+00  0.00000000000E+00 -0.91070255473E+03  0.91070255473E+03  0.25500000920E-02 0.  1.
    10030    2    1    2    0    0  0.00000000000E+00  0.00000000000E+00  0.18997557017E+04  0.37211608111E+04  0.31996821805E+04 0.  0.
        4    1    3    3  502    0 -0.44611032946E+03  0.65671302783E+03 -0.66544974910E+03  0.10359109076E+04  0.12699999809E+01 0.  1.
       -4    1    3    3    0  502  0.44611032946E+03 -0.65671302783E+03  0.25652054508E+04  0.26852499036E+04  0.12699999809E+01 0. -1.
</event>
<event>
 5   0  0.3220147E-08  0.3201222E+04  0.7818609E-02  0.8188494E-01
       -1   -1    0    0    0  501  0.00000000000E+00  0.00000000000E+00  0.10602790481E+04  0.10602790481E+04  0.50400001928E-02 0.  1.
        1   -1    0    0  501    0  0.00000000000E+00  0.00000000000E+00 -0.24163038081E+04  0.24163038081E+04  0.50400001928E-02 0. -1.
    10030    2    1    2    0    0  0.00000000000E+00  0.00000000000E+00 -0.13560247600E+04  0.34765828562E+04  0.32012224550E+04 0.  0.
        4    1    3    3  502    0  0.68066926999E+03 -0.14423734605E+04 -0.82453552540E+03  0.17954420905E+04  0.12699999809E+01 0.  1.
       -4    1    3    3    0  502 -0.68066926999E+03  0.14423734605E+04 -0.53148923462E+03  0.16811407657E+04  0.12699999809E+01 0. -1.
</event>
<event>
 5   0  0.9727083E-08  0.3199725E+04  0.7818609E-02  0.8188890E-01
       -2   -1    0    0    0  501  0.00000000000E+00  0.00000000000E+00  0.14360044656E+04  0.14360044656E+04  0.25500000920E-02 0. -1.
        2   -1    0    0  501    0  0.00000000000E+00  0.00000000000E+00 -0.17824180906E+04  0.17824180906E+04  0.25500000920E-02 0.  1.
    10030    2    1    2    0    0  0.00000000000E+00  0.00000000000E+00 -0.34641362498E+03  0.32184225562E+04  0.31997251992E+04 0.  0.
        4    1    3    3  502    0 -0.15431092763E+04 -0.27313035859E+03 -0.49722626886E+03  0.16440869827E+04  0.12699999809E+01 0.  1.
       -4    1    3    3    0  502  0.15431092763E+04  0.27313035859E+03  0.15081264388E+03  0.15743355735E+04  0.12699999809E+01 0. -1.
</event>
<event>
 5   0  0.9353994E-08  0.3200355E+04  0.7818609E-02  0.8188723E-01
        2   -1    0    0  501    0  0.00000000000E+00  0.00000000000E+00  0.10239206627E+04  0.10239206627E+04  0.25500000920E-02 0.  1.
       -2   -1    0    0    0  501  0.00000000000E+00  0.00000000000E+00 -0.25007481075E+04  0.25007481075E+04  0.25500000920E-02 0. -1.
    10030    2    1    2    0    0  0.00000000000E+00  0.00000000000E+00 -0.14768274448E+04  0.35246687702E+04  0.32003547675E+04 0.  0.
        2    1    3    3  502    0  0.71461646716E+03 -0.83128078078E+02  0.83575876392E+03  0.11027600301E+04  0.25500000920E-02 0.  1.
       -2    1    3    3    0  502 -0.71461646716E+03  0.83128078078E+02 -0.23125862087E+04  0.24219087401E+04  0.25500000920E-02 0. -1.
</event>
<event>
 5   0  0.3343140E-08  0.3199932E+04  0.7818609E-02  0.8188835E-01
       -1   -1    0    0    0  501  0.00000000000E+00  0.00000000000E+00  0.18253649425E+04  0.18253649425E+04  0.50400001928E-02 0.  1.
        1   -1    0    0  501    0  0.00000000000E+00  0.00000000000E+00 -0.14023997241E+04  0.14023997241E+04  0.50400001928E-02 0. -1.
    10030    2    1    2    0    0  0.00000000000E+00  0.00000000000E+00  0.42296521840E+03  0.32277646666E+04  0.31999320567E+04 0.  0.
        1    1    3    3  502    0  0.52774445298E+03  0.12614790484E+04 -0.62643373284E+03  0.15040820519E+04  0.50400001928E-02 0. -1.
       -1    1    3    3    0  502 -0.52774445298E+03 -0.12614790484E+04  0.10493989512E+04  0.17236826147E+04  0.50400001928E-02 0.  1.
</event>
<event>
 5   0  0.3343140E-08  0.3203212E+04  0.7818609E-02  0.8187969E-01
       -1   -1    0    0    0  501  0.00000000000E+00  0.00000000000E+00  0.15153855980E+04  0.15153855980E+04  0.50400001928E-02 0.  1.
        1   -1    0    0  501    0  0.00000000000E+00  0.00000000000E+00 -0.16927324501E+04  0.16927324501E+04  0.50400001928E-02 0. -1.
    10030    2    1    2    0    0  0.00000000000E+00  0.00000000000E+00 -0.17734685212E+03  0.32081180481E+04  0.32032123727E+04 0.  0.
        1    1    3    3  502    0 -0.91462942700E+03 -0.11806920908E+04 -0.66797223635E+03  0.16360830390E+04  0.50400001928E-02 0. -1.
       -1    1    3    3    0  502  0.91462942700E+03  0.11806920908E+04  0.49062538423E+03  0.15720350091E+04  0.50400001928E-02 0.  1.
</event>
<event>
 5   0  0.9157524E-08  0.3199559E+04  0.7818609E-02  0.8188934E-01
        2   -1    0    0  501    0  0.00000000000E+00  0.00000000000E+00  0.99739491366E+03  0.99739491366E+03  0.25500000920E-02 0.  1.
       -2   -1    0    0    0  501  0.00000000000E+00  0.00000000000E+00 -0.25659795083E+04  0.25659795083E+04  0.25500000920E-02 0. -1.
    10030    2    1    2    0    0  0.00000000000E+00  0.00000000000E+00 -0.15685845946E+04  0.35633744220E+04  0.31995592885E+04 0.  0.
        5    1    3    3  502    0  0.55593859986E+03  0.12885565632E+04 -0.16396221871E+04  0.21582003498E+04  0.46999998093E+01 0. -1.
       -5    1    3    3    0  502 -0.55593859986E+03 -0.12885565632E+04  0.71037592465E+02  0.14051740721E+04  0.46999998093E+01 0.  1.
</event>
<event>
 5   0  0.9707721E-08  0.3198486E+04  0.7818609E-02  0.8189217E-01
        2   -1    0    0  501    0  0.00000000000E+00  0.00000000000E+00  0.12864727752E+04  0.12864727752E+04  0.25500000920E-02 0. -1.
       -2   -1    0    0    0  501  0.00000000000E+00  0.00000000000E+00 -0.19880541333E+04  0.19880541333E+04  0.25500000920E-02 0.  1.
    10030    2    1    2    0    0  0.00000000000E+00  0.00000000000E+00 -0.70158135813E+03  0.32745269085E+04  0.31984855904E+04 0.  0.
        3    1    3    3  502    0 -0.35441080967E+03 -0.11999414953E+04  0.66893715613E+03  0.14187824157E+04  0.10100000352E+00 0. -1.
       -3    1    3    3    0  502  0.35441080967E+03  0.11999414953E+04 -0.13705185143E+04  0.18557444927E+04  0.10100000352E+00 0.  1.
</event>
<event>
 5   0  0.9157524E-08  0.3199391E+04  0.7818609E-02  0.8188978E-01
        2   -1    0    0  501    0  0.00000000000E+00  0.00000000000E+00  0.26249773309E+04  0.26249773309E+04  0.25500000920E-02 0.  1.
       -2   -1    0    0    0  501  0.00000000000E+00  0.00000000000E+00 -0.97487516530E+03  0.97487516531E+03  0.25500000920E-02 0. -1.
    10030    2    1    2    0    0  0.00000000000E+00  0.00000000000E+00  0.16501021656E+04  0.35998524962E+04  0.31993906979E+04 0.  0.
        5    1    3    3  502    0 -0.19881927769E+03 -0.11726566571E+04  0.20286919835E+04  0.23516517588E+04  0.46999998093E+01 0.  1.
       -5    1    3    3    0  502  0.19881927769E+03  0.11726566571E+04 -0.37858981791E+03  0.12482007374E+04  0.46999998093E+01 0. -1.
</event>
<event>
 5   0  0.3427667E-08  0.3200233E+04  0.7818609E-02  0.8188756E-01
        1   -1    0    0  501    0  0.00000000000E+00  0.00000000000E+00  0.16260551436E+04  0.16260551436E+04  0.50400001928E-02 0. -1.
       -1   -1    0    0    0  501  0.00000000000E+00  0.00000000000E+00 -0.15745915616E+04  0.15745915616E+04  0.50400001928E-02 0.  1.
    10030    2    1    2    0    0  0.00000000000E+00  0.00000000000E+00  0.51463582069E+02  0.32006467052E+04  0.32002329339E+04 0.  0.
        2    1    3    3  502    0  0.38135206228E+03  0.66067374500E+03 -0.13810251720E+04  0.15777039388E+04  0.25500000920E-02 0.  1.
       -2    1    3    3    0  502 -0.38135206228E+03 -0.66067374500E+03  0.14324887540E+04  0.16229427665E+04  0.25500000920E-02 0. -1.
</event>
<event>
 5   0  0.9727083E-08  0.3200331E+04  0.7818609E-02  0.8188730E-01
        2   -1    0    0  501    0  0.00000000000E+00  0.00000000000E+00  0.21450705602E+04  0.21450705602E+04  0.25500000920E-02 0. -1.
       -2   -1    0    0    0  501  0.00000000000E+00  0.00000000000E+00 -0.11936805671E+04  0.11936805671E+04  0.25500000920E-02 0.  1.
    10030    2    1    2    0    0  0.00000000000E+00  0.00000000000E+00  0.95138999310E+03  0.33387511274E+04  0.32003306347E+04 0.  0.
        4    1    3    3  502    0 -0.82519007679E+03 -0.13652807003E+04  0.34540382907E+03  0.16322485937E+04  0.12699999809E+01 0.  1.
       -4    1    3    3    0  502  0.82519007679E+03  0.13652807003E+04  0.60598616403E+03  0.17065025337E+04  0.12699999809E+01 0. -1.
</event>
<event>
 5   0  0.3343140E-08  0.3207088E+04  0.7818609E-02  0.8186948E-01
       -1   -1    0    0    0  501  0.00000000000E+00  0.00000000000E+00  0.96164748254E+03  0.96164748256E+03  0.50400001928E-02 0. -1.
        1   -1    0    0  501    0  0.00000000000E+00  0.00000000000E+00 -0.26739047067E+04  0.26739047068E+04  0.50400001928E-02 0.  1.
    10030    2    1    2    0    0  0.00000000000E+00  0.00000000000E+00 -0.17122572242E+04  0.36355521893E+04  0.32070882307E+04 0.  0.
        1    1    3    3  502    0  0.39623146889E+03  0.20465460016E+03 -0.26021916451E+04  0.26401295877E+04  0.50400001928E-02 0.  1.
       -1    1    3    3    0  502 -0.39623146889E+03 -0.20465460016E+03  0.88993442086E+03  0.99542260159E+03  0.50400001928E-02 0. -1.
</event>
<event>
 5   0  0.9707721E-08  0.3202323E+04  0.7818609E-02  0.8188204E-01
        2   -1    0    0  501    0  0.00000000000E+00  0.00000000000E+00  0.15489584420E+04  0.15489584420E+04  0.25500000920E-02 0. -1.
       -2   -1    0    0    0  501  0.00000000000E+00  0.00000000000E+00 -0.16551243865E+04  0.16551243865E+04  0.25500000920E-02 0.  1.
    10030    2    1    2    0    0  0.00000000000E+00  0.00000000000E+00 -0.10616594448E+03  0.32040828286E+04  0.32023234634E+04 0.  0.
        3    1    3    3  502    0  0.10560119135E+04  0.11989833097E+04 -0.15800594045E+03  0.16055179929E+04  0.10100000352E+00 0.  1.
       -3    1    3    3    0  502 -0.10560119135E+04 -0.11989833097E+04  0.51839995967E+02  0.15985648356E+04  0.10100000352E+00 0. -1.
</event>
<event>
 5   0  0.3343140E-08  0.3215044E+04  0.7818609E-02  0.8184855E-01
       -1   -1    0    0    0  501  0.00000000000E+00  0.00000000000E+00  0.80499945424E+03  0.80499945426E+03  0.50400001928E-02 0. -1.
        1   -1    0    0  501    0  0.00000000000E+00  0.00000000000E+00 -0.32100977719E+04  0.32100977719E+04  0.50400001928E-02 0.  1.
    10030    2    1    2    0    0  0.00000000000E+00  0.00000000000E+00 -0.24050983176E+04  0.40150972261E+04  0.32150439838E+04 0.  0.
        1    1    3    3  502    0  0.97496697774E+03 -0.81213611921E+03  0.29956463965E+02  0.12692608375E+04  0.50400001928E-02 0. -1.
       -1    1    3    3    0  502 -0.97496697774E+03  0.81213611921E+03 -0.24350547816E+04  0.27458363886E+04  0.50400001928E-02 0.  1.
</event>
<event>
 5   0  0.9157524E-08  0.3202990E+04  0.7818609E-02  0.8188028E-01
        2   -1    0    0  501    0  0.00000000000E+00  0.00000000000E+00  0.13477848874E+04  0.13477848874E+04  0.25500000920E-02 0. -1.
       -2   -1    0    0    0  501  0.00000000000E+00  0.00000000000E+00 -0.19029639983E+04  0.19029639983E+04  0.25500000920E-02 0.  1.
    10030    2    1    2    0    0  0.00000000000E+00  0.00000000000E+00 -0.55517911088E+03  0.32507488857E+04  0.32029899271E+04 0.  0.
        5    1    3    3  502    0 -0.73477542358E+03 -0.65501384271E+03  0.10045066470E+04  0.14064116578E+04  0.46999998093E+01 0. -1.
       -5    1    3    3    0  502  0.73477542358E+03  0.65501384271E+03 -0.15596857579E+04  0.18443372280E+04  0.46999998093E+01 0.  1.
</event>
<event>
 5   0  0.3220147E-08  0.3200290E+04  0.7818609E-02  0.8188741E-01
       -1   -1    0    0    0  501  0.00000000000E+00  0.00000000000E+00  0.99100684313E+03  0.99100684314E+03  0.50400001928E-02 0. -1.
        1   -1    0    0  501    0  0.00000000000E+00  0.00000000000E+00 -0.25836996794E+04  0.25836996794E+04  0.50400001928E-02 0.  1.
    10030    2    1    2    0    0  0.00000000000E+00  0.00000000000E+00 -0.15926928363E+04  0.35747065225E+04  0.32002900262E+04 0.  0.
        4    1    3    3  502    0  0.10986002686E+04  0.69786626101E+03 -0.18361253111E+04  0.22506216117E+04  0.12699999809E+01 0.  1.
       -4    1    3    3    0  502 -0.10986002686E+04 -0.69786626101E+03  0.24343247481E+03  0.13240849108E+04  0.12699999809E+01 0. -1.
</event>
<event>
 5   0  0.9353994E-08  0.3200774E+04  0.7818609E-02  0.8188613E-01
       -2   -1    0    0    0  501  0.00000000000E+00  0.00000000000E+00  0.19467369965E+04  0.19467369965E+04  0.25500000920E-02 0. -1.
        2   -1    0    0  501    0  0.00000000000E+00  0.00000000000E+00 -0.13156574507E+04  0.13156574507E+04  0.25500000920E-02 0.  1.
    10030    2    1    2    0    0  0.00000000000E+00  0.00000000000E+00  0.63107954581E+03  0.32623944472E+04  0.32007743025E+04 0.  0.
        2    1    3    3  502    0  0.14457911316E+04 -0.68582001841E+03  0.34004297355E+03  0.16359371375E+04  0.25500000920E-02 0.  1.
       -2    1    3    3    0  502 -0.14457911316E+04  0.68582001841E+03  0.29103657226E+03  0.16264573097E+04  0.25500000920E-02 0. -1.
</event>
<event>
 5   0  0.9707721E-08  0.3199653E+04  0.7818609E-02  0.8188909E-01
        2   -1    0    0  501    0  0.00000000000E+00  0.00000000000E+00  0.25806371242E+04  0.25806371242E+04  0.25500000920E-02 0.  1.
       -2   -1    0    0    0  501  0.00000000000E+00  0.00000000000E+00 -0.99178819498E+03  0.99178819498E+03  0.25500000920E-02 0. -1.
    10030    2    1    2    0    0  0.00000000000E+00  0.00000000000E+00  0.15888489293E+04  0.35724253192E+04  0.31996533783E+04 0.  0.
        3    1    3    3  502    0 -0.10295707087E+04  0.69409354941E+03 -0.33189703106E+03  0.12852771487E+04  0.10100000352E+00 0. -1.
       -3    1    3    3    0  502  0.10295707087E+04 -0.69409354941E+03  0.19207459603E+04  0.22871481705E+04  0.10100000352E+00 0.  1.
</event>
<event>
 5   0  0.3283581E-08  0.3196643E+04  0.7818609E-02  0.8189704E-01
       -1   -1    0    0    0  501  0.00000000000E+00  0.00000000000E+00  0.22670144219E+04  0.22670144219E+04  0.50400001928E-02 0. -1.
        1   -1    0    0  501    0  0.00000000000E+00  0.00000000000E+00 -0.11268705646E+04  0.11268705646E+04  0.50400001928E-02 0.  1.
    10030    2    1    2    0    0  0.00000000000E+00  0.00000000000E+00  0.11401438573E+04  0.33938849865E+04  0.31966431277E+04 0.  0.
        5    1    3    3  502    0 -0.13929183965E+04 -0.78364945463E+03  0.58788844294E+03  0.17029277842E+04  0.46999998093E+01 0.  1.
       -5    1    3    3    0  502  0.13929183965E+04  0.78364945463E+03  0.55225541438E+03  0.16909572022E+04  0.46999998093E+01 0. -1.
</event>
<event>
 5   0  0.3080500E-08  0.3200479E+04  0.7818609E-02  0.8188691E-01
        4   -1    0    0  501    0  0.00000000000E+00  0.00000000000E+00  0.14153362862E+04  0.14153368560E+04  0.12699999809E+01 0.  1.
       -4   -1    0    0    0  501  0.00000000000E+00  0.00000000000E+00 -0.18092977432E+04  0.18092981889E+04  0.12699999809E+01 0. -1.
    10030    2    1    2    0    0  0.00000000000E+00  0.00000000000E+00 -0.39396145695E+03  0.32246350450E+04  0.32004789553E+04 0.  0.
        4    1    3    3  502    0 -0.83453910587E+03 -0.14947567802E+03  0.11704534506E+04  0.14452547839E+04  0.12699999809E+01 0.  1.
       -4    1    3    3    0  502  0.83453910587E+03  0.14947567802E+03 -0.15644149075E+04  0.17793802610E+04  0.12699999809E+01 0. -1.
</event>
<event>
 5   0  0.9727083E-08  0.3197617E+04  0.7818609E-02  0.8189447E-01
        2   -1    0    0  501    0  0.00000000000E+00  0.00000000000E+00  0.17670302326E+04  0.17670302326E+04  0.25500000920E-02 0. -1.
       -2   -1    0    0    0  501  0.00000000000E+00  0.00000000000E+00 -0.14466013288E+04  0.14466013288E+04  0.25500000920E-02 0.  1.
    10030    2    1    2    0    0  0.00000000000E+00  0.00000000000E+00  0.32042890380E+03  0.32136315614E+04  0.31976167891E+04 0.  0.
        4    1    3    3  502    0 -0.53102581953E+03  0.69422640162E+00  0.16758116119E+04  0.17579348892E+04  0.12699999809E+01 0. -1.
       -4    1    3    3    0  502  0.53102581953E+03 -0.69422640162E+00 -0.13553827081E+04  0.14556966722E+04  0.12699999809E+01 0.  1.
</event>
<event>
 5   0  0.9353994E-08  0.3198926E+04  0.7818609E-02  0.8189101E-01
       -2   -1    0    0    0  501  0.00000000000E+00  0.00000000000E+00  0.11405174286E+04  0.11405174286E+04  0.25500000920E-02 0.  1.
        2   -1    0    0  501    0  0.00000000000E+00  0.00000000000E+00 -0.22430894486E+04  0.22430894486E+04  0.25500000920E-02 0. -1.
    10030    2    1    2    0    0  0.00000000000E+00  0.00000000000E+00 -0.11025720200E+04  0.33836068773E+04  0.31989264513E+04 0.  0.
        2    1    3    3  502    0 -0.14897670508E+04 -0.58002127381E+03 -0.49890887378E+03  0.16747359816E+04  0.25500000920E-02 0. -1.
       -2    1    3    3    0  502  0.14897670508E+04  0.58002127381E+03 -0.60366314619E+03  0.17088708956E+04  0.25500000920E-02 0.  1.
</event>
<event>
 5   0  0.3427667E-08  0.3199398E+04  0.7818609E-02  0.8188976E-01
        1   -1    0    0  501    0  0.00000000000E+00  0.00000000000E+00  0.20572364165E+04  0.20572364165E+04  0.50400001928E-02 0. -1.
       -1   -1    0    0    0  501  0.00000000000E+00  0.00000000000E+00 -0.12439196470E+04  0.12439196470E+04  0.50400001928E-02 0.  1.
    10030    2    1    2    0    0  0.00000000000E+00  0.00000000000E+00  0.81331676946E+03  0.33011560635E+04  0.31993979415E+04 0.  0.
        2    1    3    3  502    0 -0.53791397300E+03 -0.37225376509E+03 -0.10996052193E+04  0.12794748713E+04  0.25500000920E-02 0.  1.
       -2    1    3    3    0  502  0.53791397300E+03  0.37225376509E+03  0.19129219887E+04  0.20216811922E+04  0.25500000920E-02 0. -1.
</event>
<event>
 5   0  0.9353994E-08  0.3198886E+04  0.7818609E-02  0.8189111E-01
        2   -1    0    0  501    0  0.00000000000E+00  0.00000000000E+00  0.20364266069E+04  0.20364266069E+04  0.25500000920E-02 0. -1.
       -2   -1    0    0    0  501  0.00000000000E+00  0.00000000000E+00 -0.12562288927E+04  0.12562288927E+04  0.25500000920E-02 0.  1.
    10030    2    1    2    0    0  0.00000000000E+00  0.00000000000E+00  0.78019771429E+03  0.32926554996E+04  0.31988860195E+04 0.  0.
        2    1    3    3  502    0  0.14460196786E+04  0.58250167953E+03  0.75826624043E+03  0.17335653460E+04  0.25500000920E-02 0. -1.
       -2    1    3    3    0  502 -0.14460196786E+04 -0.58250167953E+03  0.21931473861E+02  0.15590901536E+04  0.25500000920E-02 0.  1.
</event>
<event>
 5   0  0.9157524E-08  0.3199618E+04  0.7818609E-02  0.8188918E-01
       -2   -1    0    0    0  501  0.00000000000E+00  0.00000000000E+00  0.24228960808E+04  0.24228960808E+04  0.25500000920E-02 0. -1.
        2   -1    0    0  501    0  0.00000000000E+00  0.00000000000E+00 -0.10563345457E+04  0.10563345457E+04  0.25500000920E-02 0.  1.
    10030    2    1    2    0    0  0.00000000000E+00  0.00000000000E+00  0.13665615351E+04  0.34792306265E+04  0.31996179964E+04 0.  0.
        5    1    3    3  502    0  0.47011169499E+03  0.41914392067E+03  0.22824014109E+04  0.23677130152E+04  0.46999998093E+01 0. -1.
       -5    1    3    3    0  502 -0.47011169499E+03 -0.41914392067E+03 -0.91583987578E+03  0.11115176112E+04  0.46999998093E+01 0.  1.
</event>
<event>
 5   0  0.9727083E-08  0.3200389E+04  0.7818609E-02  0.8188715E-01
       -2   -1    0    0    0  501  0.00000000000E+00  0.00000000000E+00  0.16591030476E+04  0.16591030476E+04  0.25500000920E-02 0.  1.
        2   -1    0    0  501    0  0.00000000000E+00  0.00000000000E+00 -0.15433772664E+04  0.15433772664E+04  0.25500000920E-02 0. -1.
    10030    2    1    2    0    0  0.00000000000E+00  0.00000000000E+00  0.11572578118E+03  0.32024803141E+04  0.32003886804E+04 0.  0.
        4    1    3    3  502    0 -0.12561741784E+04  0.31422998924E+02 -0.93357187798E+03  0.15654133753E+04  0.12699999809E+01 0. -1.
       -4    1    3    3    0  502  0.12561741784E+04 -0.31422998924E+02  0.10492976592E+04  0.16370669387E+04  0.12699999809E+01 0.  1.
</event>
<event>
 5   0  0.9353994E-08  0.3200070E+04  0.7818609E-02  0.8188799E-01
       -2   -1    0    0    0  501  0.00000000000E+00  0.00000000000E+00  0.10460891833E+04  0.10460891833E+04  0.25500000920E-02 0. -1.
        2   -1    0    0  501    0  0.00000000000E+00  0.00000000000E+00 -0.24473174944E+04  0.24473174944E+04  0.25500000920E-02 0.  1.
    10030    2    1    2    0    0  0.00000000000E+00  0.00000000000E+00 -0.14012283111E+04  0.34934066777E+04  0.32000702236E+04 0.  0.
        2    1    3    3  502    0 -0.10113418710E+04  0.10112900879E+04  0.82493184607E+02  0.14325938529E+04  0.25500000920E-02 0. -1.
       -2    1    3    3    0  502  0.10113418710E+04 -0.10112900879E+04 -0.14837214957E+04  0.20608128248E+04  0.25500000920E-02 0.  1.
</event>
<event>
 5   0  0.9157524E-08  0.3199196E+04  0.7818609E-02  0.8189030E-01
        2   -1    0    0  501    0  0.00000000000E+00  0.00000000000E+00  0.14325448584E+04  0.14325448584E+04  0.25500000920E-02 0. -1.
       -2   -1    0    0    0  501  0.00000000000E+00  0.00000000000E+00 -0.17861316798E+04  0.17861316798E+04  0.25500000920E-02 0.  1.
    10030    2    1    2    0    0  0.00000000000E+00  0.00000000000E+00 -0.35358682145E+03  0.32186765382E+04  0.31991959954E+04 0.  0.
        5    1    3    3  502    0 -0.78953979142E+03 -0.13416914215E+04 -0.54670425524E+03  0.16499747227E+04  0.46999998093E+01 0.  1.
       -5    1    3    3    0  502  0.78953979142E+03  0.13416914215E+04  0.19311743380E+03  0.15687018155E+04  0.46999998093E+01 0. -1.
</event>
<event>
 5   0  0.3343140E-08  0.3197490E+04  0.7818609E-02  0.8189480E-01
        1   -1    0    0  501    0  0.00000000000E+00  0.00000000000E+00  0.20303217387E+04  0.20303217387E+04  0.50400001928E-02 0.  1.
       -1   -1    0    0    0  501  0.00000000000E+00  0.00000000000E+00 -0.12589070119E+04  0.12589070119E+04  0.50400001928E-02 0. -1.
    10030    2    1    2    0    0  0.00000000000E+00  0.00000000000E+00  0.77141472680E+03  0.32892287506E+04  0.31974904368E+04 0.  0.
        1    1    3    3  502    0 -0.13914626113E+04 -0.47211833632E+03 -0.26238604018E+03  0.14926186238E+04  0.50400001928E-02 0. -1.
       -1    1    3    3    0  502  0.13914626113E+04  0.47211833632E+03  0.10338007670E+04  0.17966101268E+04  0.50400001928E-02 0.  1.
</event>
<event>
 5   0  0.9707721E-08  0.3191739E+04  0.7818609E-02  0.8191002E-01
       -2   -1    0    0    0  501  0.00000000000E+00  0.00000000000E+00  0.11671252700E+04  0.11671252700E+04  0.25500000920E-02 0. -1.
        2   -1    0    0  501    0  0.00000000000E+00  0.00000000000E+00 -0.21821133696E+04  0.21821133696E+04  0.25500000920E-02 0.  1.
    10030    2    1    2    0    0  0.00000000000E+00  0.00000000000E+00 -0.10149880995E+04  0.33492386396E+04  0.31917391220E+04 0.  0.
        3    1    3    3  502    0  0.33494408591E+03  0.64038739004E+03  0.98557304050E+03  0.12221447453E+04  0.10100000352E+00 0. -1.
       -3    1    3    3    0  502 -0.33494408591E+03 -0.64038739004E+03 -0.20005611400E+04  0.21270938943E+04  0.10100000352E+00 0.  1.
</event>
<event>
 5   0  0.3343140E-08  0.3200243E+04  0.7818609E-02  0.8188753E-01
        1   -1    0    0  501    0  0.00000000000E+00  0.00000000000E+00  0.17667411992E+04  0.17667411992E+04  0.50400001928E-02 0.  1.
       -1   -1    0    0    0  501  0.00000000000E+00  0.00000000000E+00 -0.14492156227E+04  0.14492156227E+04  0.50400001928E-02 0. -1.
    10030    2    1    2    0    0  0.00000000000E+00  0.00000000000E+00  0.31752557653E+03  0.32159568219E+04  0.32002430828E+04 0.  0.
        1    1    3    3  502    0  0.95314014789E+03  0.68177326437E+03  0.12536528968E+04  0.17160817321E+04  0.50400001928E-02 0.  1.
       -1    1    3    3    0  502 -0.95314014789E+03 -0.68177326437E+03 -0.93612732024E+03  0.14998750899E+04  0.50400001928E-02 0. -1.
</event>
<event>
 5   0  0.9353994E-08  0.3199204E+04  0.7818609E-02  0.8189027E-01
        2   -1    0    0  501    0  0.00000000000E+00  0.00000000000E+00  0.26515903537E+04  0.26515903537E+04  0.25500000920E-02 0. -1.
       -2   -1    0    0    0  501  0.00000000000E+00  0.00000000000E+00 -0.96497809952E+03  0.96497809953E+03  0.25500000920E-02 0.  1.
    10030    2    1    2    0    0  0.00000000000E+00  0.00000000000E+00  0.16866122541E+04  0.36165684532E+04  0.31992040386E+04 0.  0.
        2    1    3    3  502    0 -0.66775218807E+03  0.47275980837E+03 -0.71054306893E+03  0.10836356740E+04  0.25500000920E-02 0.  1.
       -2    1    3    3    0  502  0.66775218807E+03 -0.47275980837E+03  0.23971553231E+04  0.25329327792E+04  0.25500000920E-02 0. -1.
</event>
<event>
 5   0  0.9157524E-08  0.3202768E+04  0.7818609E-02  0.8188086E-01
       -2   -1    0    0    0  501  0.00000000000E+00  0.00000000000E+00  0.12444017143E+04  0.12444017143E+04  0.25500000920E-02 0.  1.
        2   -1    0    0  501    0  0.00000000000E+00  0.00000000000E+00 -0.20607742969E+04  0.20607742969E+04  0.25500000920E-02 0. -1.
    10030    2    1    2    0    0  0.00000000000E+00  0.00000000000E+00 -0.81637258257E+03  0.33051760112E+04  0.32027682201E+04 0.  0.
        5    1    3    3  502    0  0.21281454816E+03  0.58630578623E+03  0.11138853594E+04  0.12766390213E+04  0.46999998093E+01 0.  1.
       -5    1    3    3    0  502 -0.21281454816E+03 -0.58630578623E+03 -0.19302579420E+04  0.20285369899E+04  0.46999998093E+01 0. -1.
</event>
<event>
 5   0  0.3270966E-08  0.3200063E+04  0.7818609E-02  0.8188801E-01
       -1   -1    0    0    0  501  0.00000000000E+00  0.00000000000E+00  0.20866905084E+04  0.20866905084E+04  0.50400001928E-02 0. -1.
        1   -1    0    0  501    0  0.00000000000E+00  0.00000000000E+00 -0.12268710975E+04  0.12268710975E+04  0.50400001928E-02 0.  1.
    10030    2    1    2    0    0  0.00000000000E+00  0.00000000000E+00  0.85981941091E+03  0.33135616058E+04  0.32000626707E+04 0.  0.
        3    1    3    3  502    0 -0.64200024857E+02  0.14489677591E+04 -0.26967964067E+03  0.14752478873E+04  0.10100000352E+00 0.  1.
       -3    1    3    3    0  502  0.64200024857E+02 -0.14489677591E+04  0.11294990516E+04  0.18383137186E+04  0.10100000352E+00 0. -1.
</event>
<event>
 5   0  0.3343140E-08  0.3205216E+04  0.7818609E-02  0.8187441E-01
        1   -1    0    0  501    0  0.00000000000E+00  0.00000000000E+00  0.28324394697E+04  0.28324394697E+04  0.50400001928E-02 0. -1.
       -1   -1    0    0    0  501  0.00000000000E+00  0.00000000000E+00 -0.90676314855E+03  0.90676314857E+03  0.50400001928E-02 0.  1.
    10030    2    1    2    0    0  0.00000000000E+00  0.00000000000E+00  0.19256763211E+04  0.37392026183E+04  0.32052155819E+04 0.  0.
        1    1    3    3  502    0 -0.74013799583E+03 -0.13261832598E+04  0.36594789252E+03  0.15622049006E+04  0.50400001928E-02 0.  1.
       -1    1    3    3    0  502  0.74013799583E+03  0.13261832598E+04  0.15597284286E+04  0.21769977176E+04  0.50400001928E-02 0. -1.
</event>
<event>
 5   0  0.3283581E-08  0.3195250E+04  0.7818609E-02  0.8190073E-01
        1   -1    0    0  501    0  0.00000000000E+00  0.00000000000E+00  0.14834543849E+04  0.14834543849E+04  0.50400001928E-02 0.  1.
       -1   -1    0    0    0  501  0.00000000000E+00  0.00000000000E+00 -0.17205823449E+04  0.17205823449E+04  0.50400001928E-02 0. -1.
    10030    2    1    2    0    0  0.00000000000E+00  0.00000000000E+00 -0.23712796001E+03  0.32040367299E+04  0.31952498646E+04 0.  0.
        5    1    3    3  502    0  0.11466148738E+04  0.10944942835E+04  0.81332986360E+02  0.15872241650E+04  0.46999998093E+01 0. -1.
       -5    1    3    3    0  502 -0.11466148738E+04 -0.10944942835E+04 -0.31846094637E+03  0.16168125648E+04  0.46999998093E+01 0.  1.
</event>
<event>
 5   0  0.3080500E-08  0.3199440E+04  0.7818609E-02  0.8188965E-01
        3   -1    0    0  501    0  0.00000000000E+00  0.00000000000E+00  0.90823381361E+03  0.90823381923E+03  0.10100000352E+00 0. -1.
       -3   -1    0    0    0  501  0.00000000000E+00  0.00000000000E+00 -0.28176708866E+04  0.28176708884E+04  0.10100000352E+00 0.  1.
    10030    2    1    2    0    0  0.00000000000E+00  0.00000000000E+00 -0.19094370730E+04  0.37259047077E+04  0.31994399439E+04 0.  0.
        3    1    3    3  502    0  0.14473160385E+04  0.67069005441E+03 -0.81422200945E+03  0.17909512431E+04  0.10100000352E+00 0. -1.
       -3    1    3    3    0  502 -0.14473160385E+04 -0.67069005441E+03 -0.10952150636E+04  0.19349534646E+04  0.10100000352E+00 0.  1.
</event>
<event>
 5   0  0.3270966E-08  0.3203950E+04  0.7818609E-02  0.8187775E-01
       -1   -1    0    0    0  501  0.00000000000E+00  0.00000000000E+00  0.11605940441E+04  0.11605940441E+04  0.50400001928E-02 0.  1.
        1   -1    0    0  501    0  0.00000000000E+00  0.00000000000E+00 -0.22112157204E+04  0.22112157204E+04  0.50400001928E-02 0. -1.
    10030    2    1    2    0    0  0.00000000000E+00  0.00000000000E+00 -0.10506216763E+04  0.33718097646E+04  0.32039499343E+04 0.  0.
        3    1    3    3  502    0 -0.10074980296E+04  0.39944843906E+03  0.71620452793E+03  0.12990613039E+04  0.10100000352E+00 0.  1.
       -3    1    3    3    0  502  0.10074980296E+04 -0.39944843906E+03 -0.17668262042E+04  0.20727484607E+04  0.10100000352E+00 0. -1.
</event>
<event>
 5   0  0.9157524E-08  0.3200158E+04  0.7818609E-02  0.8188775E-01
        2   -1    0    0  501    0  0.00000000000E+00  0.00000000000E+00  0.10920475453E+04  0.10920475453E+04  0.25500000920E-02 0.  1.
       -2   -1    0    0    0  501  0.00000000000E+00  0.00000000000E+00 -0.23444519061E+04  0.23444519061E+04  0.25500000920E-02 0. -1.
    10030    2    1    2    0    0  0.00000000000E+00  0.00000000000E+00 -0.12524043608E+04  0.34364994515E+04  0.32001580894E+04 0.  0.
        5    1    3    3  502    0 -0.12764447658E+03 -0.15123092541E+03 -0.23312518527E+04  0.23396412537E+04  0.46999998093E+01 0. -1.
       -5    1    3    3    0  502  0.12764447658E+03  0.15123092541E+03  0.10788474919E+04  0.10968581978E+04  0.46999998093E+01 0.  1.
</event>
<event>
 5   0  0.3080500E-08  0.3199487E+04  0.7818609E-02  0.8188953E-01
       -3   -1    0    0    0  501  0.00000000000E+00  0.00000000000E+00  0.18806988139E+04  0.18806988166E+04  0.10100000352E+00 0.  1.
        3   -1    0    0  501    0  0.00000000000E+00  0.00000000000E+00 -0.13607595966E+04  0.13607596003E+04  0.10100000352E+00 0. -1.
    10030    2    1    2    0    0  0.00000000000E+00  0.00000000000E+00  0.51993921727E+03  0.32414584169E+04  0.31994868149E+04 0.  0.
        3    1    3    3  502    0  0.15381588559E+04  0.31854594171E+03  0.56688721165E+03  0.16699596713E+04  0.10100000352E+00 0.  1.
       -3    1    3    3    0  502 -0.15381588559E+04 -0.31854594171E+03 -0.46947994381E+02  0.15714987456E+04  0.10100000352E+00 0. -1.
</event>
<event>
 5   0  0.9157524E-08  0.3200039E+04  0.7818609E-02  0.8188807E-01
        2   -1    0    0  501    0  0.00000000000E+00  0.00000000000E+00  0.18927934852E+04  0.18927934852E+04  0.25500000920E-02 0. -1.
       -2   -1    0    0    0  501  0.00000000000E+00  0.00000000000E+00 -0.13525315933E+04  0.13525315933E+04  0.25500000920E-02 0.  1.
    10030    2    1    2    0    0  0.00000000000E+00  0.00000000000E+00  0.54026189190E+03  0.32453250786E+04  0.32000393676E+04 0.  0.
        5    1    3    3  502    0 -0.92169440201E+03  0.95708214686E+03 -0.63383836540E+03  0.14721752511E+04  0.46999998093E+01 0.  1.
       -5    1    3    3    0  502  0.92169440201E+03 -0.95708214686E+03  0.11741002573E+04  0.17731498275E+04  0.46999998093E+01 0. -1.
</event>
<event>
 5   0  0.3343140E-08  0.3194272E+04  0.7818609E-02  0.8190332E-01
       -1   -1    0    0    0  501  0.00000000000E+00  0.00000000000E+00  0.19532086214E+04  0.19532086214E+04  0.50400001928E-02 0.  1.
        1   -1    0    0  501    0  0.00000000000E+00  0.00000000000E+00 -0.13059757103E+04  0.13059757103E+04  0.50400001928E-02 0. -1.
    10030    2    1    2    0    0  0.00000000000E+00  0.00000000000E+00  0.64723291112E+03  0.32591843317E+04  0.31942717584E+04 0.  0.
        1    1    3    3  502    0  0.13323231885E+04 -0.61419437239E+03 -0.32049922589E+03  0.15016789136E+04  0.50400001928E-02 0.  1.
       -1    1    3    3    0  502 -0.13323231885E+04  0.61419437239E+03  0.96773213700E+03  0.17575054181E+04  0.50400001928E-02 0. -1.
</event>
<event>
 5   0  0.3283581E-08  0.3199851E+04  0.7818609E-02  0.8188856E-01
        1   -1    0    0  501    0  0.00000000000E+00  0.00000000000E+00  0.23614861914E+04  0.23614861914E+04  0.50400001928E-02 0. -1.
       -1   -1    0    0    0  501  0.00000000000E+00  0.00000000000E+00 -0.10839622440E+04  0.10839622440E+04  0.50400001928E-02 0.  1.
    10030    2    1    2    0    0  0.00000000000E+00  0.00000000000E+00  0.12775239474E+04  0.34454484354E+04  0.31998511661E+04 0.  0.
        5    1    3    3  502    0  0.22690744924E+03 -0.31074693930E+03 -0.10333934395E+04  0.11027124474E+04  0.46999998093E+01 0.  1.
       -5    1    3    3    0  502 -0.22690744924E+03  0.31074693930E+03  0.23109173869E+04  0.23427359881E+04  0.46999998093E+01 0. -1.
</event>
<event>
 5   0  0.9707721E-08  0.3199025E+04  0.7818609E-02  0.8189075E-01
       -2   -1    0    0    0  501  0.00000000000E+00  0.00000000000E+00  0.12435615679E+04  0.12435615679E+04  0.25500000920E-02 0.  1.
        2   -1    0    0  501    0  0.00000000000E+00  0.00000000000E+00 -0.20573495187E+04  0.20573495187E+04  0.25500000920E-02 0. -1.
    10030    2    1    2    0    0  0.00000000000E+00  0.00000000000E+00 -0.81378795078E+03  0.33009110866E+04  0.31990253473E+04 0.  0.
        3    1    3    3  502    0  0.13897954248E+04 -0.72831242886E+03 -0.72738312735E+03  0.17294671263E+04  0.10100000352E+00 0. -1.
       -3    1    3    3    0  502 -0.13897954248E+04  0.72831242886E+03 -0.86404823436E+02  0.15714439603E+04  0.10100000352E+00 0.  1.
</event>
<event>
 5   0  0.9157524E-08  0.3199703E+04  0.7818609E-02  0.8188896E-01
        2   -1    0    0  501    0  0.00000000000E+00  0.00000000000E+00  0.90460024542E+03  0.90460024543E+03  0.25500000920E-02 0.  1.
       -2   -1    0    0    0  501  0.00000000000E+00  0.00000000000E+00 -0.28294537752E+04  0.28294537752E+04  0.25500000920E-02 0. -1.
    10030    2    1    2    0    0  0.00000000000E+00  0.00000000000E+00 -0.19248535297E+04  0.37340540206E+04  0.31997028483E+04 0.  0.
        5    1    3    3  502    0 -0.75458091670E+03 -0.75802943814E+03  0.42601003437E+03  0.11513069219E+04  0.46999998093E+01 0.  1.
       -5    1    3    3    0  502  0.75458091670E+03  0.75802943814E+03 -0.23508635641E+04  0.25827470987E+04  0.46999998093E+01 0. -1.
</event>
<event>
 5   0  0.9727083E-08  0.3199596E+04  0.7818609E-02  0.8188924E-01
        2   -1    0    0  501    0  0.00000000000E+00  0.00000000000E+00  0.28692604205E+04  0.28692604205E+04  0.25500000920E-02 0. -1.
       -2   -1    0    0    0  501  0.00000000000E+00  0.00000000000E+00 -0.89199070685E+03  0.89199070685E+03  0.25500000920E-02 0.  1.
    10030    2    1    2    0    0  0.00000000000E+00  0.00000000000E+00  0.19772697136E+04  0.37612511273E+04  0.31995959936E+04 0.  0.
        4    1    3    3  502    0  0.34745197265E+03  0.62313581082E+02 -0.84563838876E+03  0.91635787394E+03  0.12699999809E+01 0.  1.
       -4    1    3    3    0  502 -0.34745197265E+03 -0.62313581082E+02  0.28229081024E+04  0.28448932534E+04  0.12699999809E+01 0. -1.
</event>
<event>
 5   0  0.3270966E-08  0.3199743E+04  0.7818609E-02  0.8188885E-01
       -1   -1    0    0    0  501  0.00000000000E+00  0.00000000000E+00  0.13875836124E+04  0.13875836124E+04  0.50400001928E-02 0.  1.
        1   -1    0    0  501    0  0.00000000000E+00  0.00000000000E+00 -0.18446372616E+04  0.18446372616E+04  0.50400001928E-02 0. -1.
    10030    2    1    2    0    0  0.00000000000E+00  0.00000000000E+00 -0.45705364919E+03  0.32322208740E+04  0.31997427616E+04 0.  0.
        3    1    3    3  502    0  0.12424085565E+04 -0.86841545805E+03 -0.74544744936E+03  0.16892058309E+04  0.10100000352E+00 0. -1.
       -3    1    3    3    0  502 -0.12424085565E+04  0.86841545805E+03  0.28839380017E+03  0.15430150431E+04  0.10100000352E+00 0.  1.
</event>
<event>
 5   0  0.3220147E-08  0.3199959E+04  0.7818609E-02  0.8188828E-01
        1   -1    0    0  501    0  0.00000000000E+00  0.00000000000E+00  0.24744461327E+04  0.24744461328E+04  0.50400001928E-02 0.  1.
       -1   -1    0    0    0  501  0.00000000000E+00  0.00000000000E+00 -0.10345481835E+04  0.10345481835E+04  0.50400001928E-02 0. -1.
    10030    2    1    2    0    0  0.00000000000E+00  0.00000000000E+00  0.14398979492E+04  0.35089943163E+04  0.31999585946E+04 0.  0.
        4    1    3    3  502    0  0.54642435744E+03  0.12383577915E+04  0.16554646238E+04  0.21383812409E+04  0.12699999809E+01 0.  1.
       -4    1    3    3    0  502 -0.54642435744E+03 -0.12383577915E+04 -0.21556667452E+03  0.13706130753E+04  0.12699999809E+01 0. -1.
</event>
<event>
 5   0  0.3220147E-08  0.3200078E+04  0.7818609E-02  0.8188797E-01
        1   -1    0    0  501    0  0.00000000000E+00  0.00000000000E+00  0.16541146892E+04  0.16541146892E+04  0.50400001928E-02 0. -1.
       -1   -1    0    0    0  501  0.00000000000E+00  0.00000000000E+00 -0.15477313666E+04  0.15477313666E+04  0.50400001928E-02 0.  1.
    10030    2    1    2    0    0  0.00000000000E+00  0.00000000000E+00  0.10638332252E+03  0.32018460558E+04  0.32000782418E+04 0.  0.
        4    1    3    3  502    0  0.88683220164E+03  0.11047775058E+03  0.13811199621E+04  0.16450442699E+04  0.12699999809E+01 0. -1.
       -4    1    3    3    0  502 -0.88683220164E+03 -0.11047775058E+03 -0.12747366396E+04  0.15568017859E+04  0.12699999809E+01 0.  1.
</event>
<event>
 5   0  0.3220147E-08  0.3200101E+04  0.7818609E-02  0.8188790E-01
       -1   -1    0    0    0  501  0.00000000000E+00  0.00000000000E+00  0.16101673775E+04  0.16101673776E+04  0.50400001928E-02 0.  1.
        1   -1    0    0  501    0  0.00000000000E+00  0.00000000000E+00 -0.15899975971E+04  0.15899975971E+04  0.50400001928E-02 0. -1.
    10030    2    1    2    0    0  0.00000000000E+00  0.00000000000E+00  0.20169780433E+02  0.32001649747E+04  0.32001014117E+04 0.  0.
        4    1    3    3  502    0  0.50280663168E+03 -0.11158211447E+04  0.10407795652E+04  0.16065786791E+04  0.12699999809E+01 0.  1.
       -4    1    3    3    0  502 -0.50280663168E+03  0.11158211447E+04 -0.10206097848E+04  0.15935862956E+04  0.12699999809E+01 0. -1.
</event>
<event>
 5   0  0.3343140E-08  0.3197542E+04  0.7818609E-02  0.8189467E-01
        1   -1    0    0  501    0  0.00000000000E+00  0.00000000000E+00  0.17845687292E+04  0.17845687292E+04  0.50400001928E-02 0. -1.
       -1   -1    0    0    0  501  0.00000000000E+00  0.00000000000E+00 -0.14323174956E+04  0.14323174956E+04  0.50400001928E-02 0.  1.
    10030    2    1    2    0    0  0.00000000000E+00  0.00000000000E+00  0.35225123356E+03  0.32168862248E+04  0.31975421892E+04 0.  0.
        1    1    3    3  502    0 -0.12008025554E+04  0.97966340550E+03  0.57144277446E+03  0.16517306105E+04  0.50400001928E-02 0. -1.
       -1    1    3    3    0  502  0.12008025554E+04 -0.97966340550E+03 -0.21919154090E+03  0.15651556143E+04  0.50400001928E-02 0.  1.
</event>
<event>
 5   0  0.3283581E-08  0.3199176E+04  0.7818609E-02  0.8189035E-01
        1   -1    0    0  501    0  0.00000000000E+00  0.00000000000E+00  0.15025544431E+04  0.15025544431E+04  0.50400001928E-02 0.  1.
       -1   -1    0    0    0  501  0.00000000000E+00  0.00000000000E+00 -0.17028877311E+04  0.17028877311E+04  0.50400001928E-02 0. -1.
    10030    2    1    2    0    0  0.00000000000E+00  0.00000000000E+00 -0.20033328801E+03  0.32054421743E+04  0.31991758480E+04 0.  0.
        5    1    3    3  502    0  0.15378428232E+04 -0.21090947777E+02 -0.54063442559E+03  0.16302493825E+04  0.46999998093E+01 0. -1.
       -5    1    3    3    0  502 -0.15378428232E+04  0.21090947777E+02  0.34030113759E+03  0.15751927918E+04  0.46999998093E+01 0.  1.
</event>
<event>
 5   0  0.9727083E-08  0.3199694E+04  0.7818609E-02  0.8188898E-01
        2   -1    0    0  501    0  0.00000000000E+00  0.00000000000E+00  0.20533239822E+04  0.20533239822E+04  0.25500000920E-02 0. -1.
       -2   -1    0    0    0  501  0.00000000000E+00  0.00000000000E+00 -0.12465208722E+04  0.12465208722E+04  0.25500000920E-02 0.  1.
    10030    2    1    2    0    0  0.00000000000E+00  0.00000000000E+00  0.80680310998E+03  0.32998448545E+04  0.31996944862E+04 0.  0.
        4    1    3    3  502    0 -0.14901893727E+04  0.23809552633E+03 -0.14440781352E+03  0.15159845236E+04  0.12699999809E+01 0.  1.
       -4    1    3    3    0  502  0.14901893727E+04 -0.23809552633E+03  0.95121092351E+03  0.17838603309E+04  0.12699999809E+01 0. -1.
</event>
<event>
 5   0  0.3283581E-08  0.3199901E+04  0.7818609E-02  0.8188843E-01
       -1   -1    0    0    0  501  0.00000000000E+00  0.00000000000E+00  0.12647697072E+04  0.12647697072E+04  0.50400001928E-02 0.  1.
        1   -1    0    0  501    0  0.00000000000E+00  0.00000000000E+00 -0.20239584796E+04  0.20239584796E+04  0.50400001928E-02 0. -1.
    10030    2    1    2    0    0  0.00000000000E+00  0.00000000000E+00 -0.75918877245E+03  0.32887281868E+04  0.31999008570E+04 0.  0.
        5    1    3    3  502    0 -0.85961344329E+03  0.12351858255E+04  0.17881103480E+03  0.15154586010E+04  0.46999998093E+01 0. -1.
       -5    1    3    3    0  502  0.85961344329E+03 -0.12351858255E+04 -0.93799980726E+03  0.17732695857E+04  0.46999998093E+01 0.  1.
</event>
<event>
 5   0  0.9727083E-08  0.3199242E+04  0.7818609E-02  0.8189017E-01
        2   -1    0    0  501    0  0.00000000000E+00  0.00000000000E+00  0.26586275178E+04  0.26586275178E+04  0.25500000920E-02 0.  1.
       -2   -1    0    0    0  501  0.00000000000E+00  0.00000000000E+00 -0.96244687230E+03  0.96244687230E+03  0.25500000920E-02 0. -1.
    10030    2    1    2    0    0  0.00000000000E+00  0.00000000000E+00  0.16961806455E+04  0.36210743901E+04  0.31992422472E+04 0.  0.
        4    1    3    3  502    0 -0.11013574716E+02  0.11537743392E+04 -0.40590435569E+03  0.12231420537E+04  0.12699999809E+01 0. -1.
       -4    1    3    3    0  502  0.11013574716E+02 -0.11537743392E+04  0.21020850012E+04  0.23979323364E+04  0.12699999809E+01 0.  1.
</event>
<event>
 5   0  0.3343140E-08  0.3214624E+04  0.7818609E-02  0.8184966E-01
       -1   -1    0    0    0  501  0.00000000000E+00  0.00000000000E+00  0.15591300090E+04  0.15591300090E+04  0.50400001928E-02 0.  1.
        1   -1    0    0  501    0  0.00000000000E+00  0.00000000000E+00 -0.16569825965E+04  0.16569825965E+04  0.50400001928E-02 0. -1.
    10030    2    1    2    0    0  0.00000000000E+00  0.00000000000E+00 -0.97852587559E+02  0.32161126055E+04  0.32146236424E+04 0.  0.
        1    1    3    3  502    0  0.52989295266E+03  0.91544187068E+03 -0.12597062213E+04  0.16448951711E+04  0.50400001928E-02 0. -1.
       -1    1    3    3    0  502 -0.52989295266E+03 -0.91544187068E+03  0.11618536338E+04  0.15712174344E+04  0.50400001928E-02 0.  1.
</event>
<event>
 5   0  0.9329929E-08  0.3200081E+04  0.7818609E-02  0.8188796E-01
        2   -1    0    0  501    0  0.00000000000E+00  0.00000000000E+00  0.29300552619E+04  0.29300552619E+04  0.25500000920E-02 0. -1.
       -2   -1    0    0    0  501  0.00000000000E+00  0.00000000000E+00 -0.87374801751E+03  0.87374801751E+03  0.25500000920E-02 0.  1.
    10030    2    1    2    0    0  0.00000000000E+00  0.00000000000E+00  0.20563072444E+04  0.38038032794E+04  0.32000812342E+04 0.  0.
        1    1    3    3  502    0  0.45372699949E+03  0.11234963630E+04 -0.21399020660E+03  0.12304080934E+04  0.50400001928E-02 0.  1.
       -1    1    3    3    0  502 -0.45372699949E+03 -0.11234963630E+04  0.22702974510E+04  0.25733951861E+04  0.50400001928E-02 0. -1.
</event>
<event>
 5   0  0.3270966E-08  0.3198561E+04  0.7818609E-02  0.8189197E-01
        1   -1    0    0  501    0  0.00000000000E+00  0.00000000000E+00  0.11471117423E+04  0.11471117423E+04  0.50400001928E-02 0. -1.
       -1   -1    0    0    0  501  0.00000000000E+00  0.00000000000E+00 -0.22296854115E+04  0.22296854115E+04  0.50400001928E-02 0.  1.
    10030    2    1    2    0    0  0.00000000000E+00  0.00000000000E+00 -0.10825736692E+04  0.33767971538E+04  0.31985611247E+04 0.  0.
        3    1    3    3  502    0  0.67901751309E+03 -0.69098208663E+02  0.98563399121E+03  0.11988801943E+04  0.10100000352E+00 0. -1.
       -3    1    3    3    0  502 -0.67901751309E+03  0.69098208663E+02 -0.20682076604E+04  0.21779169595E+04  0.10100000352E+00 0.  1.
</event>
<event>
 5   0  0.9353994E-08  0.3200447E+04  0.7818609E-02  0.8188699E-01
        2   -1    0    0  501    0  0.00000000000E+00  0.00000000000E+00  0.16422510092E+04  0.16422510092E+04  0.25500000920E-02 0. -1.
       -2   -1    0    0    0  501  0.00000000000E+00  0.00000000000E+00 -0.15592710749E+04  0.15592710749E+04  0.25500000920E-02 0.  1.
    10030    2    1    2    0    0  0.00000000000E+00  0.00000000000E+00  0.82979934291E+02  0.32015220840E+04  0.32004465290E+04 0.  0.
        2    1    3    3  502    0  0.72347228655E+03 -0.11231220214E+04 -0.83965750244E+03  0.15779226679E+04  0.25500000920E-02 0. -1.
       -2    1    3    3    0  502 -0.72347228655E+03  0.11231220214E+04  0.92263743673E+03  0.16235994161E+04  0.25500000920E-02 0.  1.
</event>
<event>
 5   0  0.3343140E-08  0.3198766E+04  0.7818609E-02  0.8189143E-01
        1   -1    0    0  501    0  0.00000000000E+00  0.00000000000E+00  0.16321860115E+04  0.16321860115E+04  0.50400001928E-02 0.  1.
       -1   -1    0    0    0  501  0.00000000000E+00  0.00000000000E+00 -0.15672393305E+04  0.15672393305E+04  0.50400001928E-02 0. -1.
    10030    2    1    2    0    0  0.00000000000E+00  0.00000000000E+00  0.64946680957E+02  0.31994253420E+04  0.31987660820E+04 0.  0.
        1    1    3    3  502    0 -0.71020529866E+03  0.14243144455E+04  0.19050244112E+03  0.16029205801E+04  0.50400001928E-02 0.  1.
       -1    1    3    3    0  502  0.71020529866E+03 -0.14243144455E+04 -0.12555576016E+03  0.15965047619E+04  0.50400001928E-02 0. -1.
</event>
<event>
 5   0  0.3270966E-08  0.3200138E+04  0.7818609E-02  0.8188781E-01
        1   -1    0    0  501    0  0.00000000000E+00  0.00000000000E+00  0.28381045946E+04  0.28381045947E+04  0.50400001928E-02 0. -1.
       -1   -1    0    0    0  501  0.00000000000E+00  0.00000000000E+00 -0.90208824011E+03  0.90208824013E+03  0.50400001928E-02 0.  1.
    10030    2    1    2    0    0  0.00000000000E+00  0.00000000000E+00  0.19360163545E+04  0.37401928348E+04  0.32001379839E+04 0.  0.
        3    1    3    3  502    0 -0.30057589307E+03  0.15303733328E+04  0.55013384177E+03  0.16537943219E+04  0.10100000352E+00 0.  1.
       -3    1    3    3    0  502  0.30057589307E+03 -0.15303733328E+04  0.13858825128E+04  0.20863985129E+04  0.10100000352E+00 0. -1.
</event>
<event>
 5   0  0.3343140E-08  0.3199498E+04  0.7818609E-02  0.8188950E-01
       -1   -1    0    0    0  501  0.00000000000E+00  0.00000000000E+00  0.17381339463E+04  0.17381339463E+04  0.50400001928E-02 0. -1.
        1   -1    0    0  501    0  0.00000000000E+00  0.00000000000E+00 -0.14723819835E+04  0.14723819835E+04  0.50400001928E-02 0.  1.
    10030    2    1    2    0    0  0.00000000000E+00  0.00000000000E+00  0.26575196279E+03  0.32105159298E+04  0.31994981528E+04 0.  0.
        1    1    3    3  502    0 -0.13704264900E+04 -0.52308611026E+03 -0.50768681068E+03  0.15522350792E+04  0.50400001928E-02 0.  1.
       -1    1    3    3    0  502  0.13704264900E+04  0.52308611026E+03  0.77343877347E+03  0.16582808506E+04  0.50400001928E-02 0. -1.
</event>
<event>
 5   0  0.9157524E-08  0.3200580E+04  0.7818609E-02  0.8188664E-01
        2   -1    0    0  501    0  0.00000000000E+00  0.00000000000E+00  0.22731239200E+04  0.22731239200E+04  0.25500000920E-02 0.  1.
       -2   -1    0    0    0  501  0.00000000000E+00  0.00000000000E+00 -0.11266119494E+04  0.11266119494E+04  0.25500000920E-02 0. -1.
    10030    2    1    2    0    0  0.00000000000E+00  0.00000000000E+00  0.11465119705E+04  0.33997358694E+04  0.32005803041E+04 0.  0.
        5    1    3    3  502    0  0.14200055737E+04 -0.55021020261E+03  0.50970304000E+02  0.15237346089E+04  0.46999998093E+01 0. -1.
       -5    1    3    3    0  502 -0.14200055737E+04  0.55021020261E+03  0.10955416665E+04  0.18760012605E+04  0.46999998093E+01 0.  1.
</event>
<event>
 5   0  0.9707721E-08  0.3201394E+04  0.7818609E-02  0.8188449E-01
        2   -1    0    0  501    0  0.00000000000E+00  0.00000000000E+00  0.20403486959E+04  0.20403486959E+04  0.25500000920E-02 0.  1.
       -2   -1    0    0    0  501  0.00000000000E+00  0.00000000000E+00 -0.12557805622E+04  0.12557805622E+04  0.25500000920E-02 0. -1.
    10030    2    1    2    0    0  0.00000000000E+00  0.00000000000E+00  0.78456813373E+03  0.32961292581E+04  0.32013935918E+04 0.  0.
        3    1    3    3  502    0  0.79637366918E+03  0.13612727589E+04  0.67416612149E+03  0.17151602009E+04  0.10100000352E+00 0.  1.
       -3    1    3    3    0  502 -0.79637366918E+03 -0.13612727589E+04  0.11040201224E+03  0.15809690572E+04  0.10100000352E+00 0. -1.
</event>
<event>
 5   0  0.9329929E-08  0.3199538E+04  0.7818609E-02  0.8188939E-01
        2   -1    0    0  501    0  0.00000000000E+00  0.00000000000E+00  0.18999674346E+04  0.18999674346E+04  0.25500000920E-02 0. -1.
       -2   -1    0    0    0  501  0.00000000000E+00  0.00000000000E+00 -0.13470028904E+04  0.13470028904E+04  0.25500000920E-02 0.  1.
    10030    2    1    2    0    0  0.00000000000E+00  0.00000000000E+00  0.55296454427E+03  0.32469703250E+04  0.31995384830E+04 0.  0.
        1    1    3    3  502    0 -0.37744420156E+03  0.15364658833E+04  0.36180701672E+02  0.15825613982E+04  0.50400001928E-02 0.  1.
       -1    1    3    3    0  502  0.37744420156E+03 -0.15364658833E+04  0.51678384260E+03  0.16644089268E+04  0.50400001928E-02 0. -1.
</event>
<event>
 5   0  0.3427667E-08  0.3203724E+04  0.7818609E-02  0.8187834E-01
        1   -1    0    0  501    0  0.00000000000E+00  0.00000000000E+00  0.22047555247E+04  0.22047555247E+04  0.50400001928E-02 0.  1.
       -1   -1    0    0    0  501  0.00000000000E+00  0.00000000000E+00 -0.11638302376E+04  0.11638302376E+04  0.50400001928E-02 0. -1.
    10030    2    1    2    0    0  0.00000000000E+00  0.00000000000E+00  0.10409252871E+04  0.33685857624E+04  0.32037235501E+04 0.  0.
        2    1    3    3  502    0 -0.11030787410E+04 -0.35441431176E+03 -0.64260987940E+03  0.13248923240E+04  0.25500000920E-02 0. -1.
       -2    1    3    3    0  502  0.11030787410E+04  0.35441431176E+03  0.16835351665E+04  0.20436934383E+04  0.25500000920E-02 0.  1.
</event>
<event>
 5   0  0.3343140E-08  0.3201491E+04  0.7818609E-02  0.8188424E-01
        1   -1    0    0  501    0  0.00000000000E+00  0.00000000000E+00  0.22547574231E+04  0.22547574231E+04  0.50400001928E-02 0. -1.
       -1   -1    0    0    0  501  0.00000000000E+00  0.00000000000E+00 -0.11364353751E+04  0.11364353751E+04  0.50400001928E-02 0.  1.
    10030    2    1    2    0    0  0.00000000000E+00  0.00000000000E+00  0.11183220480E+04  0.33911927983E+04  0.32014909639E+04 0.  0.
        1    1    3    3  502    0  0.13525753996E+04  0.84895712965E+03  0.44217370497E+03  0.16570172012E+04  0.50400001928E-02 0.  1.
       -1    1    3    3    0  502 -0.13525753996E+04 -0.84895712965E+03  0.67614834304E+03  0.17341755971E+04  0.50400001928E-02 0. -1.
</event>
<event>
 5   0  0.9157524E-08  0.3200117E+04  0.7818609E-02  0.8188786E-01
       -2   -1    0    0    0  501  0.00000000000E+00  0.00000000000E+00  0.11412440531E+04  0.11412440531E+04  0.25500000920E-02 0. -1.
        2   -1    0    0  501    0  0.00000000000E+00  0.00000000000E+00 -0.22433301952E+04  0.22433301952E+04  0.25500000920E-02 0.  1.
    10030    2    1    2    0    0  0.00000000000E+00  0.00000000000E+00 -0.11020861421E+04  0.33845742483E+04  0.32001170256E+04 0.  0.
        5    1    3    3  502    0  0.10122849643E+04 -0.12345458002E+04 -0.43841067187E+03  0.16556117265E+04  0.46999998093E+01 0. -1.
       -5    1    3    3    0  502 -0.10122849643E+04  0.12345458002E+04 -0.66367547025E+03  0.17289625218E+04  0.46999998093E+01 0.  1.
</event>
<event>
 5   0  0.3283581E-08  0.3199943E+04  0.7818609E-02  0.8188832E-01
        1   -1    0    0  501    0  0.00000000000E+00  0.00000000000E+00  0.19298759259E+04  0.19298759259E+04  0.50400001928E-02 0. -1.
       -1   -1    0    0    0  501  0.00000000000E+00  0.00000000000E+00 -0.13264625678E+04  0.13264625678E+04  0.50400001928E-02 0.  1.
    10030    2    1    2    0    0  0.00000000000E+00  0.00000000000E+00  0.60341335809E+03  0.32563384937E+04  0.31999426096E+04 0.  0.
        5    1    3    3  502    0  0.94933964974E+03  0.12746240592E+03  0.16058519847E+04  0.18698329129E+04  0.46999998093E+01 0. -1.
       -5    1    3    3    0  502 -0.94933964974E+03 -0.12746240592E+03 -0.10024386266E+04  0.13865055808E+04  0.46999998093E+01 0.  1.
</event>
<event>
 5   0  0.3220147E-08  0.3200333E+04  0.7818609E-02  0.8188729E-01
       -1   -1    0    0    0  501  0.00000000000E+00  0.00000000000E+00  0.14483709723E+04  0.14483709723E+04  0.50400001928E-02 0. -1.
        1   -1    0    0  501    0  0.00000000000E+00  0.00000000000E+00 -0.17678711615E+04  0.17678711615E+04  0.50400001928E-02 0.  1.
    10030    2    1    2    0    0  0.00000000000E+00  0.00000000000E+00 -0.31950018919E+03  0.32162421337E+04  0.32003332783E+04 0.  0.
        4    1    3    3  502    0 -0.81900479765E+03 -0.12972344131E+04 -0.61692429177E+03  0.16535365662E+04  0.12699999809E+01 0.  1.
       -4    1    3    3    0  502  0.81900479765E+03  0.12972344131E+04  0.29742410258E+03  0.15627055675E+04  0.12699999809E+01 0. -1.
</event>
<event>
 5   0  0.9157524E-08  0.3199382E+04  0.7818609E-02  0.8188980E-01
       -2   -1    0    0    0  501  0.00000000000E+00  0.00000000000E+00  0.11279178011E+04  0.11279178011E+04  0.25500000920E-02 0. -1.
        2   -1    0    0  501    0  0.00000000000E+00  0.00000000000E+00 -0.22687929307E+04  0.22687929307E+04  0.25500000920E-02 0.  1.
    10030    2    1    2    0    0  0.00000000000E+00  0.00000000000E+00 -0.11408751296E+04  0.33967107319E+04  0.31993823989E+04 0.  0.
        5    1    3    3  502    0 -0.13456323590E+04 -0.74329156502E+03 -0.10067572384E+03  0.15405734282E+04  0.46999998093E+01 0. -1.
       -5    1    3    3    0  502  0.13456323590E+04  0.74329156502E+03 -0.10401994057E+04  0.18561373037E+04  0.46999998093E+01 0.  1.
</event>
<event>
 5   0  0.3080500E-08  0.3200517E+04  0.7818609E-02  0.8188681E-01
       -3   -1    0    0    0  501  0.00000000000E+00  0.00000000000E+00  0.16696700729E+04  0.16696700759E+04  0.10100000352E+00 0. -1.
        3   -1    0    0  501    0  0.00000000000E+00  0.00000000000E+00 -0.15337328696E+04  0.15337328729E+04  0.10100000352E+00 0.  1.
    10030    2    1    2    0    0  0.00000000000E+00  0.00000000000E+00  0.13593720328E+03  0.32034029488E+04  0.32005173846E+04 0.  0.
        4    1    3    3  502    0 -0.11157836301E+04 -0.10848535404E+04 -0.30512202326E+03  0.15858692807E+04  0.12699999809E+01 0.  1.
       -4    1    3    3    0  502  0.11157836301E+04  0.10848535404E+04  0.44105922654E+03  0.16175336682E+04  0.12699999809E+01 0. -1.
</event>
<event>
 5   0  0.9157524E-08  0.3201080E+04  0.7818609E-02  0.8188532E-01
       -2   -1    0    0    0  501  0.00000000000E+00  0.00000000000E+00  0.11930742435E+04  0.11930742435E+04  0.25500000920E-02 0.  1.
        2   -1    0    0  501    0  0.00000000000E+00  0.00000000000E+00 -0.21471661544E+04  0.21471661544E+04  0.25500000920E-02 0. -1.
    10030    2    1    2    0    0  0.00000000000E+00  0.00000000000E+00 -0.95409191098E+03  0.33402403979E+04  0.32010802147E+04 0.  0.
        5    1    3    3  502    0 -0.11742962693E+04  0.10518925171E+04 -0.18889445753E+03  0.15878138435E+04  0.46999998093E+01 0.  1.
       -5    1    3    3    0  502  0.11742962693E+04 -0.10518925171E+04 -0.76519745344E+03  0.17524265544E+04  0.46999998093E+01 0. -1.
</event>
<event>
 5   0  0.9727083E-08  0.3200004E+04  0.7818609E-02  0.8188816E-01
       -2   -1    0    0    0  501  0.00000000000E+00  0.00000000000E+00  0.86862087124E+03  0.86862087124E+03  0.25500000920E-02 0.  1.
        2   -1    0    0  501    0  0.00000000000E+00  0.00000000000E+00 -0.29472089370E+04  0.29472089370E+04  0.25500000920E-02 0. -1.
    10030    2    1    2    0    0  0.00000000000E+00  0.00000000000E+00 -0.20785880658E+04  0.38158298083E+04  0.32000044966E+04 0.  0.
        4    1    3    3  502    0  0.20133993648E+03  0.94868945985E+03  0.47818605235E+03  0.10813015189E+04  0.12699999809E+01 0.  1.
       -4    1    3    3    0  502 -0.20133993648E+03 -0.94868945985E+03 -0.25567741181E+04  0.27345282894E+04  0.12699999809E+01 0. -1.
</event>
<event>
 5   0  0.9329929E-08  0.3198438E+04  0.7818609E-02  0.8189230E-01
        2   -1    0    0  501    0  0.00000000000E+00  0.00000000000E+00  0.94198135241E+03  0.94198135241E+03  0.25500000920E-02 0.  1.
       -2   -1    0    0    0  501  0.00000000000E+00  0.00000000000E+00 -0.27150238394E+04  0.27150238394E+04  0.25500000920E-02 0. -1.
    10030    2    1    2    0    0  0.00000000000E+00  0.00000000000E+00 -0.17730424869E+04  0.36570051918E+04  0.31984382614E+04 0.  0.
        1    1    3    3  502    0  0.77529242592E+03 -0.13561481781E+04 -0.49495075367E+03  0.16386556915E+04  0.50400001928E-02 0.  1.
       -1    1    3    3    0  502 -0.77529242592E+03  0.13561481781E+04 -0.12780917333E+04  0.20183495003E+04  0.50400001928E-02 0. -1.
</event>
<event>
 5   0  0.9329929E-08  0.3208009E+04  0.7818609E-02  0.8186705E-01
        2   -1    0    0  501    0  0.00000000000E+00  0.00000000000E+00  0.27733803244E+04  0.27733803244E+04  0.25500000920E-02 0.  1.
       -2   -1    0    0    0  501  0.00000000000E+00  0.00000000000E+00 -0.92768759583E+03  0.92768759583E+03  0.25500000920E-02 0. -1.
    10030    2    1    2    0    0  0.00000000000E+00  0.00000000000E+00  0.18456927286E+04  0.37010679203E+04  0.32080090558E+04 0.  0.
        1    1    3    3  502    0  0.14025947820E+04  0.70926098039E+03  0.12922224645E+04  0.20347388429E+04  0.50400001928E-02 0. -1.
       -1    1    3    3    0  502 -0.14025947820E+04 -0.70926098039E+03  0.55347026407E+03  0.16663290774E+04  0.50400001928E-02 0.  1.
</event>
<event>
 5   0  0.3427667E-08  0.3199522E+04  0.7818609E-02  0.8188943E-01
        1   -1    0    0  501    0  0.00000000000E+00  0.00000000000E+00  0.19901545243E+04  0.19901545243E+04  0.50400001928E-02 0.  1.
       -1   -1    0    0    0  501  0.00000000000E+00  0.00000000000E+00 -0.12859482099E+04  0.12859482099E+04  0.50400001928E-02 0. -1.
    10030    2    1    2    0    0  0.00000000000E+00  0.00000000000E+00  0.70420631442E+03  0.32761027342E+04  0.31995222443E+04 0.  0.
        2    1    3    3  502    0 -0.57151358785E+03 -0.13483317219E+04 -0.30721034293E+03  0.14963303139E+04  0.25500000920E-02 0. -1.
       -2    1    3    3    0  502  0.57151358785E+03  0.13483317219E+04  0.10114166574E+04  0.17797724203E+04  0.25500000920E-02 0.  1.
</event>
<event>
 5   0  0.9329929E-08  0.3199353E+04  0.7818609E-02  0.8188988E-01
       -2   -1    0    0    0  501  0.00000000000E+00  0.00000000000E+00  0.11685790209E+04  0.11685790209E+04  0.25500000920E-02 0. -1.
        2   -1    0    0  501    0  0.00000000000E+00  0.00000000000E+00 -0.21898090415E+04  0.21898090416E+04  0.25500000920E-02 0.  1.
    10030    2    1    2    0    0  0.00000000000E+00  0.00000000000E+00 -0.10212300207E+04  0.33583880624E+04  0.31993530006E+04 0.  0.
        1    1    3    3  502    0  0.62488863802E+03  0.36270064827E+03 -0.20087691033E+04  0.21347578037E+04  0.50400001928E-02 0.  1.
       -1    1    3    3    0  502 -0.62488863802E+03 -0.36270064827E+03  0.98753908263E+03  0.12236302587E+04  0.50400001928E-02 0. -1.
</event>
<event>
 5   0  0.3283581E-08  0.3195093E+04  0.7818609E-02  0.8190114E-01
        1   -1    0    0  501    0  0.00000000000E+00  0.00000000000E+00  0.13608870399E+04  0.13608870399E+04  0.50400001928E-02 0.  1.
       -1   -1    0    0    0  501  0.00000000000E+00  0.00000000000E+00 -0.18753616865E+04  0.18753616865E+04  0.50400001928E-02 0. -1.
    10030    2    1    2    0    0  0.00000000000E+00  0.00000000000E+00 -0.51447464666E+03  0.32362487264E+04  0.31950933722E+04 0.  0.
        5    1    3    3  502    0 -0.67472110760E+03 -0.10444056137E+04 -0.12732035523E+04  0.17796350847E+04  0.46999998093E+01 0. -1.
       -5    1    3    3    0  502  0.67472110760E+03  0.10444056137E+04  0.75872890568E+03  0.14566136417E+04  0.46999998093E+01 0.  1.
</event>
<event>
 5   0  0.3270966E-08  0.3200046E+04  0.7818609E-02  0.8188805E-01
        1   -1    0    0  501    0  0.00000000000E+00  0.00000000000E+00  0.22813466970E+04  0.22813466970E+04  0.50400001928E-02 0.  1.
       -1   -1    0    0    0  501  0.00000000000E+00  0.00000000000E+00 -0.11221765871E+04  0.11221765871E+04  0.50400001928E-02 0. -1.
    10030    2    1    2    0    0  0.00000000000E+00  0.00000000000E+00  0.11591701100E+04  0.34035232841E+04  0.32000461562E+04 0.  0.
        3    1    3    3  502    0 -0.14641105019E+04  0.45501604444E+03  0.92868585104E+02  0.15359960113E+04  0.10100000352E+00 0. -1.
       -3    1    3    3    0  502  0.14641105019E+04 -0.45501604444E+03  0.10663015249E+04  0.18675272728E+04  0.10100000352E+00 0.  1.
</event>
<event>
 5   0  0.9727083E-08  0.3198473E+04  0.7818609E-02  0.8189221E-01
        2   -1    0    0  501    0  0.00000000000E+00  0.00000000000E+00  0.15266628878E+04  0.15266628878E+04  0.25500000920E-02 0.  1.
       -2   -1    0    0    0  501  0.00000000000E+00  0.00000000000E+00 -0.16752600924E+04  0.16752600924E+04  0.25500000920E-02 0. -1.
    10030    2    1    2    0    0  0.00000000000E+00  0.00000000000E+00 -0.14859720456E+03  0.32019229802E+04  0.31984730172E+04 0.  0.
        4    1    3    3  502    0 -0.30065401271E+03  0.21956666570E+02  0.14979625082E+04  0.15279948362E+04  0.12699999809E+01 0.  1.
       -4    1    3    3    0  502  0.30065401271E+03 -0.21956666570E+02 -0.16465597128E+04  0.16739281440E+04  0.12699999809E+01 0. -1.
</event>
<event>
 5   0  0.3343140E-08  0.3198019E+04  0.7818609E-02  0.8189340E-01
       -1   -1    0    0    0  501  0.00000000000E+00  0.00000000000E+00  0.18012008581E+04  0.18012008582E+04  0.50400001928E-02 0.  1.
        1   -1    0    0  501    0  0.00000000000E+00  0.00000000000E+00 -0.14195150751E+04  0.14195150751E+04  0.50400001928E-02 0. -1.
    10030    2    1    2    0    0  0.00000000000E+00  0.00000000000E+00  0.38168578308E+03  0.32207159332E+04  0.31980192441E+04 0.  0.
        1    1    3    3  502    0 -0.15652928020E+04  0.11266318035E+03 -0.11792267445E+03  0.15737662804E+04  0.50400001928E-02 0.  1.
       -1    1    3    3    0  502  0.15652928020E+04 -0.11266318035E+03  0.49960845753E+03  0.16469496528E+04  0.50400001928E-02 0. -1.
</event>
<event>
 5   0  0.9707721E-08  0.3200551E+04  0.7818609E-02  0.8188672E-01
       -2   -1    0    0    0  501  0.00000000000E+00  0.00000000000E+00  0.89715205654E+03  0.89715205655E+03  0.25500000920E-02 0.  1.
        2   -1    0    0  501    0  0.00000000000E+00  0.00000000000E+00 -0.28544560234E+04  0.28544560234E+04  0.25500000920E-02 0. -1.
    10030    2    1    2    0    0  0.00000000000E+00  0.00000000000E+00 -0.19573039668E+04  0.37516080799E+04  0.32005506349E+04 0.  0.
        3    1    3    3  502    0 -0.66781838984E+03 -0.13706001238E+04 -0.40878284369E+03  0.15784896340E+04  0.10100000352E+00 0. -1.
       -3    1    3    3    0  502  0.66781838984E+03  0.13706001238E+04 -0.15485211231E+04  0.21731184459E+04  0.10100000352E+00 0.  1.
</event>
<event>
 5   0  0.9707721E-08  0.3200139E+04  0.7818609E-02  0.8188780E-01
        2   -1    0    0  501    0  0.00000000000E+00  0.00000000000E+00  0.23064838212E+04  0.23064838212E+04  0.25500000920E-02 0.  1.
       -2   -1    0    0    0  501  0.00000000000E+00  0.00000000000E+00 -0.11100109100E+04  0.11100109100E+04  0.25500000920E-02 0. -1.
    10030    2    1    2    0    0  0.00000000000E+00  0.00000000000E+00  0.11964729113E+04  0.34164947312E+04  0.32001388753E+04 0.  0.
        3    1    3    3  502    0  0.59101364144E+03  0.46040343183E+03  0.21076675863E+04  0.22368574181E+04  0.10100000352E+00 0.  1.
       -3    1    3    3    0  502 -0.59101364144E+03 -0.46040343183E+03 -0.91119467506E+03  0.11796373131E+04  0.10100000352E+00 0. -1.
</event>
<event>
 5   0  0.9707721E-08  0.3200707E+04  0.7818609E-02  0.8188631E-01
       -2   -1    0    0    0  501  0.00000000000E+00  0.00000000000E+00  0.18704941297E+04  0.18704941297E+04  0.25500000920E-02 0. -1.
        2   -1    0    0  501    0  0.00000000000E+00  0.00000000000E+00 -0.13692270609E+04  0.13692270609E+04  0.25500000920E-02 0.  1.
    10030    2    1    2    0    0  0.00000000000E+00  0.00000000000E+00  0.50126706881E+03  0.32397211907E+04  0.32007069093E+04 0.  0.
        3    1    3    3  502    0 -0.13245587468E+04  0.87874999727E+03  0.62699291471E+02  0.15907823995E+04  0.10100000352E+00 0.  1.
       -3    1    3    3    0  502  0.13245587468E+04 -0.87874999727E+03  0.43856777733E+03  0.16489387911E+04  0.10100000352E+00 0. -1.
</event>
<event>
 5   0  0.3427667E-08  0.3201157E+04  0.7818609E-02  0.8188512E-01
        1   -1    0    0  501    0  0.00000000000E+00  0.00000000000E+00  0.23522485793E+04  0.23522485793E+04  0.50400001928E-02 0. -1.
       -1   -1    0    0    0  501  0.00000000000E+00  0.00000000000E+00 -0.10891075491E+04  0.10891075491E+04  0.50400001928E-02 0.  1.
    10030    2    1    2    0    0  0.00000000000E+00  0.00000000000E+00  0.12631410303E+04  0.34413561284E+04  0.32011570940E+04 0.  0.
        2    1    3    3  502    0  0.13800878227E+04 -0.25767758073E+03  0.14578883366E+04  0.20239759228E+04  0.25500000920E-02 0. -1.
       -2    1    3    3    0  502 -0.13800878227E+04  0.25767758073E+03 -0.19474730632E+03  0.14173802056E+04  0.25500000920E-02 0.  1.
</event>
<event>
 5   0  0.9157524E-08  0.3203150E+04  0.7818609E-02  0.8187986E-01
       -2   -1    0    0    0  501  0.00000000000E+00  0.00000000000E+00  0.11414507638E+04  0.11414507638E+04  0.25500000920E-02 0.  1.
        2   -1    0    0  501    0  0.00000000000E+00  0.00000000000E+00 -0.22471774452E+04  0.22471774452E+04  0.25500000920E-02 0. -1.
    10030    2    1    2    0    0  0.00000000000E+00  0.00000000000E+00 -0.11057266814E+04  0.33886282090E+04  0.32031499566E+04 0.  0.
        5    1    3    3  502    0 -0.12077382324E+04 -0.15445928003E+03  0.54783123137E+03  0.13351518473E+04  0.46999998093E+01 0.  1.
       -5    1    3    3    0  502  0.12077382324E+04  0.15445928003E+03 -0.16535579127E+04  0.20534763617E+04  0.46999998093E+01 0. -1.
</event>
<event>
 5   0  0.9157524E-08  0.3200414E+04  0.7818609E-02  0.8188708E-01
        2   -1    0    0  501    0  0.00000000000E+00  0.00000000000E+00  0.23243505122E+04  0.23243505122E+04  0.25500000920E-02 0.  1.
       -2   -1    0    0    0  501  0.00000000000E+00  0.00000000000E+00 -0.11016678017E+04  0.11016678017E+04  0.25500000920E-02 0. -1.
    10030    2    1    2    0    0  0.00000000000E+00  0.00000000000E+00  0.12226827106E+04  0.34260183139E+04  0.32004137977E+04 0.  0.
        5    1    3    3  502    0 -0.90416929432E+03 -0.76253834407E+03  0.17651181256E+04  0.21247707939E+04  0.46999998093E+01 0.  1.
       -5    1    3    3    0  502  0.90416929432E+03  0.76253834407E+03 -0.54243541509E+03  0.13012475201E+04  0.46999998093E+01 0. -1.
</event>
<event>
 5   0  0.9727083E-08  0.3199395E+04  0.7818609E-02  0.8188977E-01
       -2   -1    0    0    0  501  0.00000000000E+00  0.00000000000E+00  0.99088125698E+03  0.99088125698E+03  0.25500000920E-02 0. -1.
        2   -1    0    0  501    0  0.00000000000E+00  0.00000000000E+00 -0.25825820740E+04  0.25825820740E+04  0.25500000920E-02 0.  1.
    10030    2    1    2    0    0  0.00000000000E+00  0.00000000000E+00 -0.15917008171E+04  0.35734633310E+04  0.31993950502E+04 0.  0.
        4    1    3    3  502    0 -0.18933895402E+03 -0.26817514700E+03  0.95285419228E+03  0.10078193656E+04  0.12699999809E+01 0. -1.
       -4    1    3    3    0  502  0.18933895402E+03  0.26817514700E+03 -0.25445550093E+04  0.25656439654E+04  0.12699999809E+01 0.  1.
</event>
<event>
 5   0  0.9727083E-08  0.3199942E+04  0.7818609E-02  0.8188833E-01
        2   -1    0    0  501    0  0.00000000000E+00  0.00000000000E+00  0.10687565569E+04  0.10687565569E+04  0.25500000920E-02 0. -1.
       -2   -1    0    0    0  501  0.00000000000E+00  0.00000000000E+00 -0.23952197695E+04  0.23952197695E+04  0.25500000920E-02 0.  1.
    10030    2    1    2    0    0  0.00000000000E+00  0.00000000000E+00 -0.13264632126E+04  0.34639763263E+04  0.31999417706E+04 0.  0.
        4    1    3    3  502    0 -0.96547911267E+03 -0.53572005825E+03  0.59022196638E+03  0.12520021886E+04  0.12699999809E+01 0. -1.
       -4    1    3    3    0  502  0.96547911267E+03  0.53572005825E+03 -0.19166851790E+04  0.22119741377E+04  0.12699999809E+01 0.  1.
</event>
<event>
 5   0  0.3220147E-08  0.3203466E+04  0.7818609E-02  0.8187903E-01
        1   -1    0    0  501    0  0.00000000000E+00  0.00000000000E+00  0.16721592064E+04  0.16721592064E+04  0.50400001928E-02 0. -1.
       -1   -1    0    0    0  501  0.00000000000E+00  0.00000000000E+00 -0.15342724903E+04  0.15342724903E+04  0.50400001928E-02 0.  1.
    10030    2    1    2    0    0  0.00000000000E+00  0.00000000000E+00  0.13788671609E+03  0.32064316968E+04  0.32034655421E+04 0.  0.
        4    1    3    3  502    0  0.36541822218E+02 -0.12182792780E+04 -0.97125252714E+03  0.15584841316E+04  0.12699999809E+01 0.  1.
       -4    1    3    3    0  502 -0.36541822218E+02  0.12182792780E+04  0.11091392432E+04  0.16479475652E+04  0.12699999809E+01 0. -1.
</event>
<event>
 5   0  0.9707721E-08  0.3199718E+04  0.7818609E-02  0.8188892E-01
       -2   -1    0    0    0  501  0.00000000000E+00  0.00000000000E+00  0.19514491880E+04  0.19514491880E+04  0.25500000920E-02 0.  1.
        2   -1    0    0  501    0  0.00000000000E+00  0.00000000000E+00 -0.13116144079E+04  0.13116144079E+04  0.25500000920E-02 0. -1.
    10030    2    1    2    0    0  0.00000000000E+00  0.00000000000E+00  0.63983478009E+03  0.32630635959E+04  0.31997180321E+04 0.  0.
        3    1    3    3  502    0 -0.12891709214E+04 -0.94739742410E+03  0.32504862657E+03  0.16325379517E+04  0.10100000352E+00 0.  1.
       -3    1    3    3    0  502  0.12891709214E+04  0.94739742410E+03  0.31478615352E+03  0.16305256442E+04  0.10100000352E+00 0. -1.
</event>
<event>
 5   0  0.3220147E-08  0.3198018E+04  0.7818609E-02  0.8189341E-01
        1   -1    0    0  501    0  0.00000000000E+00  0.00000000000E+00  0.18740132917E+04  0.18740132917E+04  0.50400001928E-02 0.  1.
       -1   -1    0    0    0  501  0.00000000000E+00  0.00000000000E+00 -0.13643607205E+04  0.13643607205E+04  0.50400001928E-02 0. -1.
    10030    2    1    2    0    0  0.00000000000E+00  0.00000000000E+00  0.50965257113E+03  0.32383740122E+04  0.31980182144E+04 0.  0.
        4    1    3    3  502    0 -0.87524225309E+03  0.13379816148E+04  0.27931218000E+03  0.16230405755E+04  0.12699999809E+01 0.  1.
       -4    1    3    3    0  502  0.87524225309E+03 -0.13379816148E+04  0.23034039113E+03  0.16153334367E+04  0.12699999809E+01 0. -1.
</event>
<event>
 5   0  0.9329929E-08  0.3199720E+04  0.7818609E-02  0.8188891E-01
       -2   -1    0    0    0  501  0.00000000000E+00  0.00000000000E+00  0.16069325228E+04  0.16069325228E+04  0.25500000920E-02 0. -1.
        2   -1    0    0  501    0  0.00000000000E+00  0.00000000000E+00 -0.15928182400E+04  0.15928182400E+04  0.25500000920E-02 0.  1.
    10030    2    1    2    0    0  0.00000000000E+00  0.00000000000E+00  0.14114282814E+02  0.31997507628E+04  0.31997196332E+04 0.  0.
        1    1    3    3  502    0  0.44948563644E+03 -0.87267620390E+03 -0.12562644298E+04  0.15943027980E+04  0.50400001928E-02 0.  1.
       -1    1    3    3    0  502 -0.44948563644E+03  0.87267620390E+03  0.12703787126E+04  0.16054479648E+04  0.50400001928E-02 0. -1.
</event>
<event>
 5   0  0.9353994E-08  0.3199449E+04  0.7818609E-02  0.8188963E-01
       -2   -1    0    0    0  501  0.00000000000E+00  0.00000000000E+00  0.14861781398E+04  0.14861781398E+04  0.25500000920E-02 0. -1.
        2   -1    0    0  501    0  0.00000000000E+00  0.00000000000E+00 -0.17219464007E+04  0.17219464007E+04  0.25500000920E-02 0.  1.
    10030    2    1    2    0    0  0.00000000000E+00  0.00000000000E+00 -0.23576826089E+03  0.32081245405E+04  0.31994493893E+04 0.  0.
        2    1    3    3  502    0  0.14272168391E+04  0.37900378229E+03 -0.73479808372E+03  0.16493998898E+04  0.25500000920E-02 0.  1.
       -2    1    3    3    0  502 -0.14272168391E+04 -0.37900378229E+03  0.49902982283E+03  0.15587246507E+04  0.25500000920E-02 0. -1.
</event>
<event>
 5   0  0.3220147E-08  0.3200339E+04  0.7818609E-02  0.8188728E-01
       -1   -1    0    0    0  501  0.00000000000E+00  0.00000000000E+00  0.16163003906E+04  0.16163003906E+04  0.50400001928E-02 0.  1.
        1   -1    0    0  501    0  0.00000000000E+00  0.00000000000E+00 -0.15841997968E+04  0.15841997968E+04  0.50400001928E-02 0. -1.
    10030    2    1    2    0    0  0.00000000000E+00  0.00000000000E+00  0.32100593845E+02  0.32005001874E+04  0.32003392010E+04 0.  0.
        4    1    3    3  502    0 -0.75754427801E+03 -0.12720328440E+04 -0.59110481703E+03  0.15941604081E+04  0.12699999809E+01 0. -1.
       -4    1    3    3    0  502  0.75754427801E+03  0.12720328440E+04  0.62320541087E+03  0.16063397792E+04  0.12699999809E+01 0.  1.
</event>
<event>
 5   0  0.3427667E-08  0.3198829E+04  0.7818609E-02  0.8189127E-01
        1   -1    0    0  501    0  0.00000000000E+00  0.00000000000E+00  0.18697721294E+04  0.18697721294E+04  0.50400001928E-02 0. -1.
       -1   -1    0    0    0  501  0.00000000000E+00  0.00000000000E+00 -0.13681485437E+04  0.13681485437E+04  0.50400001928E-02 0.  1.
    10030    2    1    2    0    0  0.00000000000E+00  0.00000000000E+00  0.50162358577E+03  0.32379206731E+04  0.31988285455E+04 0.  0.
        2    1    3    3  502    0 -0.36450957032E+03  0.84606184585E+03 -0.10726211372E+04  0.14139320981E+04  0.25500000920E-02 0.  1.
       -2    1    3    3    0  502  0.36450957032E+03 -0.84606184585E+03  0.15742447230E+04  0.18239885750E+04  0.25500000920E-02 0. -1.
</event>
<event>
 5   0  0.9727083E-08  0.3200163E+04  0.7818609E-02  0.8188774E-01
        2   -1    0    0  501    0  0.00000000000E+00  0.00000000000E+00  0.18442780709E+04  0.18442780709E+04  0.25500000920E-02 0.  1.
       -2   -1    0    0    0  501  0.00000000000E+00  0.00000000000E+00 -0.13882187762E+04  0.13882187762E+04  0.25500000920E-02 0. -1.
    10030    2    1    2    0    0  0.00000000000E+00  0.00000000000E+00  0.45605929467E+03  0.32324968471E+04  0.32001633999E+04 0.  0.
        4    1    3    3  502    0 -0.36912040485E+03  0.14904095723E+04 -0.22672938354E+03  0.15520883972E+04  0.12699999809E+01 0. -1.
       -4    1    3    3    0  502  0.36912040485E+03 -0.14904095723E+04  0.68278867821E+03  0.16804084499E+04  0.12699999809E+01 0.  1.
</event>
<event>
 5   0  0.9727083E-08  0.3200207E+04  0.7818609E-02  0.8188763E-01
       -2   -1    0    0    0  501  0.00000000000E+00  0.00000000000E+00  0.11933301227E+04  0.11933301227E+04  0.25500000920E-02 0.  1.
        2   -1    0    0  501    0  0.00000000000E+00  0.00000000000E+00 -0.21455343417E+04  0.21455343417E+04  0.25500000920E-02 0. -1.
    10030    2    1    2    0    0  0.00000000000E+00  0.00000000000E+00 -0.95220421907E+03  0.33388644644E+04  0.32002067178E+04 0.  0.
        4    1    3    3  502    0 -0.72364709412E+03  0.11136220375E+04  0.45504086356E+03  0.14038813909E+04  0.12699999809E+01 0.  1.
       -4    1    3    3    0  502  0.72364709412E+03 -0.11136220375E+04 -0.14072450826E+04  0.19349830735E+04  0.12699999809E+01 0. -1.
</event>
<event>
 5   0  0.3220147E-08  0.3200377E+04  0.7818609E-02  0.8188718E-01
       -1   -1    0    0    0  501  0.00000000000E+00  0.00000000000E+00  0.12835721548E+04  0.12835721548E+04  0.50400001928E-02 0. -1.
        1   -1    0    0  501    0  0.00000000000E+00  0.00000000000E+00 -0.19949039546E+04  0.19949039546E+04  0.50400001928E-02 0.  1.
    10030    2    1    2    0    0  0.00000000000E+00  0.00000000000E+00 -0.71133179976E+03  0.32784761094E+04  0.32003769575E+04 0.  0.
        4    1    3    3  502    0 -0.10949225213E+04  0.11419783089E+04 -0.60159043769E+03  0.16925963645E+04  0.12699999809E+01 0.  1.
       -4    1    3    3    0  502  0.10949225213E+04 -0.11419783089E+04 -0.10974136207E+03  0.15858797448E+04  0.12699999809E+01 0. -1.
</event>
<event>
 5   0  0.3427667E-08  0.3200289E+04  0.7818609E-02  0.8188741E-01
       -1   -1    0    0    0  501  0.00000000000E+00  0.00000000000E+00  0.11008628313E+04  0.11008628313E+04  0.50400001928E-02 0. -1.
        1   -1    0    0  501    0  0.00000000000E+00  0.00000000000E+00 -0.23258684148E+04  0.23258684148E+04  0.50400001928E-02 0.  1.
    10030    2    1    2    0    0  0.00000000000E+00  0.00000000000E+00 -0.12250055835E+04  0.34267312461E+04  0.32002887921E+04 0.  0.
        2    1    3    3  502    0 -0.32179538049E+03  0.18437456623E+02 -0.22907480760E+04  0.23133134147E+04  0.25500000920E-02 0.  1.
       -2    1    3    3    0  502  0.32179538049E+03 -0.18437456623E+02  0.10657424926E+04  0.11134178314E+04  0.25500000920E-02 0. -1.
</event>
<event>
 5   0  0.9157524E-08  0.3185097E+04  0.7818609E-02  0.8192764E-01
        2   -1    0    0  501    0  0.00000000000E+00  0.00000000000E+00  0.22616879216E+04  0.22616879216E+04  0.25500000920E-02 0.  1.
       -2   -1    0    0    0  501  0.00000000000E+00  0.00000000000E+00 -0.11213796468E+04  0.11213796468E+04  0.25500000920E-02 0. -1.
    10030    2    1    2    0    0  0.00000000000E+00  0.00000000000E+00  0.11403082749E+04  0.33830675684E+04  0.31850970488E+04 0.  0.
        5    1    3    3  502    0  0.25196959161E+03  0.68899553414E+03 -0.93120342079E+03  0.11854810931E+04  0.46999998093E+01 0. -1.
       -5    1    3    3    0  502 -0.25196959161E+03 -0.68899553414E+03  0.20715116957E+04  0.21975864753E+04  0.46999998093E+01 0.  1.
</event>
<event>
 5   0  0.9157524E-08  0.3200635E+04  0.7818609E-02  0.8188650E-01
       -2   -1    0    0    0  501  0.00000000000E+00  0.00000000000E+00  0.25359167359E+04  0.25359167359E+04  0.25500000920E-02 0.  1.
        2   -1    0    0  501    0  0.00000000000E+00  0.00000000000E+00 -0.10098974171E+04  0.10098974171E+04  0.25500000920E-02 0. -1.
    10030    2    1    2    0    0  0.00000000000E+00  0.00000000000E+00  0.15260193188E+04  0.35458141529E+04  0.32006347879E+04 0.  0.
        5    1    3    3  502    0 -0.71086020096E+03  0.82204353133E+02  0.23487851500E+04  0.24553805309E+04  0.46999998093E+01 0.  1.
       -5    1    3    3    0  502  0.71086020096E+03 -0.82204353133E+02 -0.82276583118E+03  0.10904336220E+04  0.46999998093E+01 0. -1.
</event>
<event>
 5   0  0.3283581E-08  0.3199874E+04  0.7818609E-02  0.8188850E-01
        1   -1    0    0  501    0  0.00000000000E+00  0.00000000000E+00  0.16242698087E+04  0.16242698087E+04  0.50400001928E-02 0. -1.
       -1   -1    0    0    0  501  0.00000000000E+00  0.00000000000E+00 -0.15759686113E+04  0.15759686113E+04  0.50400001928E-02 0.  1.
    10030    2    1    2    0    0  0.00000000000E+00  0.00000000000E+00  0.48301197399E+02  0.32002384201E+04  0.31998738943E+04 0.  0.
        5    1    3    3  502    0 -0.15731520769E+04  0.22419489655E+03 -0.16216430650E+03  0.15973071592E+04  0.46999998093E+01 0. -1.
       -5    1    3    3    0  502  0.15731520769E+04 -0.22419489655E+03  0.21046550390E+03  0.16029312608E+04  0.46999998093E+01 0.  1.
</event>
<event>
 5   0  0.9353994E-08  0.3199438E+04  0.7818609E-02  0.8188966E-01
       -2   -1    0    0    0  501  0.00000000000E+00  0.00000000000E+00  0.13097084593E+04  0.13097084593E+04  0.25500000920E-02 0. -1.
        2   -1    0    0  501    0  0.00000000000E+00  0.00000000000E+00 -0.19539471880E+04  0.19539471880E+04  0.25500000920E-02 0.  1.
    10030    2    1    2    0    0  0.00000000000E+00  0.00000000000E+00 -0.64423872876E+03  0.32636556473E+04  0.31994381764E+04 0.  0.
        2    1    3    3  502    0  0.20640970337E+03  0.56323560048E+03 -0.18348760384E+04  0.19304427947E+04  0.25500000920E-02 0.  1.
       -2    1    3    3    0  502 -0.20640970337E+03 -0.56323560048E+03  0.11906373096E+04  0.13332128526E+04  0.25500000920E-02 0. -1.
</event>
<event>
 5   0  0.3220147E-08  0.3200172E+04  0.7818609E-02  0.8188772E-01
        1   -1    0    0  501    0  0.00000000000E+00  0.00000000000E+00  0.18951452674E+04  0.18951452674E+04  0.50400001928E-02 0. -1.
       -1   -1    0    0    0  501  0.00000000000E+00  0.00000000000E+00 -0.13509651557E+04  0.13509651557E+04  0.50400001928E-02 0.  1.
    10030    2    1    2    0    0  0.00000000000E+00  0.00000000000E+00  0.54418011171E+03  0.32461104231E+04  0.32001720087E+04 0.  0.
        4    1    3    3  502    0  0.15501521815E+04 -0.35746904663E+03  0.97816597680E+02  0.15938398931E+04  0.12699999809E+01 0. -1.
       -4    1    3    3    0  502 -0.15501521815E+04  0.35746904663E+03  0.44636351403E+03  0.16522705301E+04  0.12699999809E+01 0.  1.
</event>
<event>
 5   0  0.9707721E-08  0.3199385E+04  0.7818609E-02  0.8188980E-01
        2   -1    0    0  501    0  0.00000000000E+00  0.00000000000E+00  0.24201677230E+04  0.24201677230E+04  0.25500000920E-02 0. -1.
       -2   -1    0    0    0  501  0.00000000000E+00  0.00000000000E+00 -0.10573713260E+04  0.10573713260E+04  0.25500000920E-02 0.  1.
    10030    2    1    2    0    0  0.00000000000E+00  0.00000000000E+00  0.13627963971E+04  0.34775390490E+04  0.31993849124E+04 0.  0.
        3    1    3    3  502    0  0.13857055236E+04 -0.73150338121E+03  0.10314855704E+04  0.18759636156E+04  0.10100000352E+00 0. -1.
       -3    1    3    3    0  502 -0.13857055236E+04  0.73150338121E+03  0.33131082666E+03  0.16015754334E+04  0.10100000352E+00 0.  1.
</event>
<event>
 5   0  0.9157524E-08  0.3194836E+04  0.7818609E-02  0.8190182E-01
        2   -1    0    0  501    0  0.00000000000E+00  0.00000000000E+00  0.22888064921E+04  0.22888064921E+04  0.25500000920E-02 0. -1.
       -2   -1    0    0    0  501  0.00000000000E+00  0.00000000000E+00 -0.11148795147E+04  0.11148795147E+04  0.25500000920E-02 0.  1.
    10030    2    1    2    0    0  0.00000000000E+00  0.00000000000E+00  0.11739269774E+04  0.34036860067E+04  0.31948355019E+04 0.  0.
        5    1    3    3  502    0 -0.57364919692E+03  0.54837675344E+03 -0.89000038899E+03  0.11924400393E+04  0.46999998093E+01 0.  1.
       -5    1    3    3    0  502  0.57364919692E+03 -0.54837675344E+03  0.20639273664E+04  0.22112459675E+04  0.46999998093E+01 0. -1.
</event>
<event>
 5   0  0.9353994E-08  0.3198777E+04  0.7818609E-02  0.8189140E-01
        2   -1    0    0  501    0  0.00000000000E+00  0.00000000000E+00  0.28260869522E+04  0.28260869522E+04  0.25500000920E-02 0. -1.
       -2   -1    0    0    0  501  0.00000000000E+00  0.00000000000E+00 -0.90515365987E+03  0.90515365987E+03  0.25500000920E-02 0.  1.
    10030    2    1    2    0    0  0.00000000000E+00  0.00000000000E+00  0.19209332923E+04  0.37312406120E+04  0.31987766086E+04 0.  0.
        2    1    3    3  502    0  0.11490551009E+04 -0.11115309026E+04  0.10153568691E+04  0.18938791260E+04  0.25500000920E-02 0.  1.
       -2    1    3    3    0  502 -0.11490551009E+04  0.11115309026E+04  0.90557642320E+03  0.18373614861E+04  0.25500000920E-02 0. -1.
</event>
<event>
 5   0  0.3270966E-08  0.3198764E+04  0.7818609E-02  0.8189144E-01
       -1   -1    0    0    0  501  0.00000000000E+00  0.00000000000E+00  0.18318858171E+04  0.18318858171E+04  0.50400001928E-02 0. -1.
        1   -1    0    0  501    0  0.00000000000E+00  0.00000000000E+00 -0.13963880662E+04  0.13963880662E+04  0.50400001928E-02 0.  1.
    10030    2    1    2    0    0  0.00000000000E+00  0.00000000000E+00  0.43549775084E+03  0.32282738833E+04  0.31987644450E+04 0.  0.
        3    1    3    3  502    0  0.53100195888E+03  0.14921065741E+04 -0.71937717049E+01  0.15837919274E+04  0.10100000352E+00 0.  1.
       -3    1    3    3    0  502 -0.53100195888E+03 -0.14921065741E+04  0.44269152254E+03  0.16444819559E+04  0.10100000352E+00 0. -1.
</event>
<event>
 5   0  0.9353994E-08  0.3202560E+04  0.7818609E-02  0.8188141E-01
       -2   -1    0    0    0  501  0.00000000000E+00  0.00000000000E+00  0.11954084217E+04  0.11954084217E+04  0.25500000920E-02 0.  1.
        2   -1    0    0  501    0  0.00000000000E+00  0.00000000000E+00 -0.21449558374E+04  0.21449558374E+04  0.25500000920E-02 0. -1.
    10030    2    1    2    0    0  0.00000000000E+00  0.00000000000E+00 -0.94954741568E+03  0.33403642591E+04  0.32025603958E+04 0.  0.
        2    1    3    3  502    0 -0.20092385587E+03  0.13033277252E+04  0.47264183927E+03  0.14008653980E+04  0.25500000920E-02 0.  1.
       -2    1    3    3    0  502  0.20092385587E+03 -0.13033277252E+04 -0.14221892549E+04  0.19394988611E+04  0.25500000920E-02 0. -1.
</event>
<event>
 5   0  0.3283581E-08  0.3200345E+04  0.7818609E-02  0.8188726E-01
       -1   -1    0    0    0  501  0.00000000000E+00  0.00000000000E+00  0.11858217048E+04  0.11858217048E+04  0.50400001928E-02 0.  1.
        1   -1    0    0  501    0  0.00000000000E+00  0.00000000000E+00 -0.21593060571E+04  0.21593060571E+04  0.50400001928E-02 0. -1.
    10030    2    1    2    0    0  0.00000000000E+00  0.00000000000E+00 -0.97348435229E+03  0.33451277620E+04  0.32003449751E+04 0.  0.
        5    1    3    3  502    0 -0.23896067087E+03 -0.10122503019E+04  0.78432136569E+03  0.13026645657E+04  0.46999998093E+01 0.  1.
       -5    1    3    3    0  502  0.23896067087E+03  0.10122503019E+04 -0.17578057180E+04  0.20424631963E+04  0.46999998093E+01 0. -1.
</event>
<event>
 5   0  0.3220147E-08  0.3203825E+04  0.7818609E-02  0.8187808E-01
       -1   -1    0    0    0  501  0.00000000000E+00  0.00000000000E+00  0.26431555121E+04  0.26431555121E+04  0.50400001928E-02 0.  1.
        1   -1    0    0  501    0  0.00000000000E+00  0.00000000000E+00 -0.97085624915E+03  0.97085624916E+03  0.50400001928E-02 0. -1.
    10030    2    1    2    0    0  0.00000000000E+00  0.00000000000E+00  0.16722992629E+04  0.36140117613E+04  0.32038252427E+04 0.  0.
        4    1    3    3  502    0 -0.72177775463E+03 -0.13047349419E+04  0.14966265460E+04  0.21126260972E+04  0.12699999809E+01 0. -1.
       -4    1    3    3    0  502  0.72177775463E+03  0.13047349419E+04  0.17567271696E+03  0.15013856640E+04  0.12699999809E+01 0.  1.
</event>
<event>
 5   0  0.9707721E-08  0.3197232E+04  0.7818609E-02  0.8189549E-01
       -2   -1    0    0    0  501  0.00000000000E+00  0.00000000000E+00  0.16611753838E+04  0.16611753838E+04  0.25500000920E-02 0.  1.
        2   -1    0    0  501    0  0.00000000000E+00  0.00000000000E+00 -0.15384126917E+04  0.15384126917E+04  0.25500000920E-02 0. -1.
    10030    2    1    2    0    0  0.00000000000E+00  0.00000000000E+00  0.12276269207E+03  0.31995880755E+04  0.31972321114E+04 0.  0.
        3    1    3    3  502    0  0.99120291168E+03 -0.12448939226E+04 -0.91470172868E+02  0.15939293878E+04  0.10100000352E+00 0. -1.
       -3    1    3    3    0  502 -0.99120291168E+03  0.12448939226E+04  0.21423286494E+03  0.16056586877E+04  0.10100000352E+00 0.  1.
</event>
<event>
 5   0  0.3270966E-08  0.3200457E+04  0.7818609E-02  0.8188697E-01
       -1   -1    0    0    0  501  0.00000000000E+00  0.00000000000E+00  0.11505518153E+04  0.11505518154E+04  0.50400001928E-02 0. -1.
        1   -1    0    0  501    0  0.00000000000E+00  0.00000000000E+00 -0.22256544927E+04  0.22256544927E+04  0.50400001928E-02 0.  1.
    10030    2    1    2    0    0  0.00000000000E+00  0.00000000000E+00 -0.10751026773E+04  0.33762063080E+04  0.32004567280E+04 0.  0.
        3    1    3    3  502    0  0.52334948253E+03  0.11061181200E+04  0.55025817839E+03  0.13417063946E+04  0.10100000352E+00 0. -1.
       -3    1    3    3    0  502 -0.52334948253E+03 -0.11061181200E+04 -0.16253608557E+04  0.20344999134E+04  0.10100000352E+00 0.  1.
</event>
<event>
 5   0  0.3427667E-08  0.3199091E+04  0.7818609E-02  0.8189057E-01
        1   -1    0    0  501    0  0.00000000000E+00  0.00000000000E+00  0.22421923657E+04  0.22421923657E+04  0.50400001928E-02 0. -1.
       -1   -1    0    0    0  501  0.00000000000E+00  0.00000000000E+00 -0.11410909327E+04  0.11410909327E+04  0.50400001928E-02 0.  1.
    10030    2    1    2    0    0  0.00000000000E+00  0.00000000000E+00  0.11011014330E+04  0.33832832984E+04  0.31990907320E+04 0.  0.
        2    1    3    3  502    0  0.44367130836E+00  0.14748239849E+04  0.12054283718E+04  0.19047738823E+04  0.25500000920E-02 0. -1.
       -2    1    3    3    0  502 -0.44367130836E+00 -0.14748239849E+04 -0.10432693878E+03  0.14785094161E+04  0.25500000920E-02 0.  1.
</event>
<event>
 5   0  0.3427667E-08  0.3199363E+04  0.7818609E-02  0.8188985E-01
       -1   -1    0    0    0  501  0.00000000000E+00  0.00000000000E+00  0.13185795222E+04  0.13185795222E+04  0.50400001928E-02 0.  1.
        1   -1    0    0  501    0  0.00000000000E+00  0.00000000000E+00 -0.19407102650E+04  0.19407102650E+04  0.50400001928E-02 0. -1.
    10030    2    1    2    0    0  0.00000000000E+00  0.00000000000E+00 -0.62213074288E+03  0.32592897872E+04  0.31993629453E+04 0.  0.
        2    1    3    3  502    0  0.65268509664E+03 -0.13772480433E+04 -0.80614216672E+03  0.17241447738E+04  0.25500000920E-02 0. -1.
       -2    1    3    3    0  502 -0.65268509664E+03  0.13772480433E+04  0.18401142384E+03  0.15351450134E+04  0.25500000920E-02 0.  1.
</event>
<event>
 5   0  0.9727083E-08  0.3197518E+04  0.7818609E-02  0.8189473E-01
       -2   -1    0    0    0  501  0.00000000000E+00  0.00000000000E+00  0.18081864528E+04  0.18081864528E+04  0.25500000920E-02 0. -1.
        2   -1    0    0  501    0  0.00000000000E+00  0.00000000000E+00 -0.14135882178E+04  0.14135882178E+04  0.25500000920E-02 0.  1.
    10030    2    1    2    0    0  0.00000000000E+00  0.00000000000E+00  0.39459823501E+03  0.32217746706E+04  0.31975184535E+04 0.  0.
        4    1    3    3  502    0  0.19436543601E+03  0.42345088819E+03 -0.13436621581E+04  0.14221526590E+04  0.12699999809E+01 0.  1.
       -4    1    3    3    0  502 -0.19436543601E+03 -0.42345088819E+03  0.17382603931E+04  0.17996220116E+04  0.12699999809E+01 0. -1.
</event>
<event>
 5   0  0.3343140E-08  0.3200313E+04  0.7818609E-02  0.8188735E-01
       -1   -1    0    0    0  501  0.00000000000E+00  0.00000000000E+00  0.10814037907E+04  0.10814037907E+04  0.50400001928E-02 0.  1.
        1   -1    0    0  501    0  0.00000000000E+00  0.00000000000E+00 -0.23677562941E+04  0.23677562941E+04  0.50400001928E-02 0. -1.
    10030    2    1    2    0    0  0.00000000000E+00  0.00000000000E+00 -0.12863525033E+04  0.34491600848E+04  0.32003128797E+04 0.  0.
        1    1    3    3  502    0 -0.11566431859E+04 -0.42269792309E+03 -0.17443907443E+04  0.21352742359E+04  0.50400001928E-02 0. -1.
       -1    1    3    3    0  502  0.11566431859E+04  0.42269792309E+03  0.45803824095E+03  0.13138858489E+04  0.50400001928E-02 0.  1.
</event>
<event>
 5   0  0.3343140E-08  0.3200324E+04  0.7818609E-02  0.8188732E-01
        1   -1    0    0  501    0  0.00000000000E+00  0.00000000000E+00  0.22171503502E+04  0.22171503502E+04  0.50400001928E-02 0. -1.
       -1   -1    0    0    0  501  0.00000000000E+00  0.00000000000E+00 -0.11548689613E+04  0.11548689613E+04  0.50400001928E-02 0.  1.
    10030    2    1    2    0    0  0.00000000000E+00  0.00000000000E+00  0.10622813889E+04  0.33720193116E+04  0.32003238099E+04 0.  0.
        1    1    3    3  502    0 -0.41986470232E+03 -0.76359739700E+02 -0.10938043017E+04  0.11741060550E+04  0.50400001928E-02 0.  1.
       -1    1    3    3    0  502  0.41986470232E+03  0.76359739700E+02  0.21560856906E+04  0.21979132565E+04  0.50400001928E-02 0. -1.
</event>
<event>
 5   0  0.9157524E-08  0.3200541E+04  0.7818609E-02  0.8188674E-01
       -2   -1    0    0    0  501  0.00000000000E+00  0.00000000000E+00  0.10569161959E+04  0.10569161959E+04  0.25500000920E-02 0.  1.
        2   -1    0    0  501    0  0.00000000000E+00  0.00000000000E+00 -0.24229601388E+04  0.24229601388E+04  0.25500000920E-02 0. -1.
    10030    2    1    2    0    0  0.00000000000E+00  0.00000000000E+00 -0.13660439429E+04  0.34798763347E+04  0.32005410872E+04 0.  0.
        5    1    3    3  502    0 -0.39904669621E+03 -0.76673302524E+03  0.78126512088E+03  0.11651244899E+04  0.46999998093E+01 0.  1.
       -5    1    3    3    0  502  0.39904669621E+03  0.76673302524E+03 -0.21473090638E+04  0.23147518448E+04  0.46999998093E+01 0. -1.
</event>
<event>
 5   0  0.9329929E-08  0.3200412E+04  0.7818609E-02  0.8188708E-01
        2   -1    0    0  501    0  0.00000000000E+00  0.00000000000E+00  0.18019707119E+04  0.18019707119E+04  0.25500000920E-02 0. -1.
       -2   -1    0    0    0  501  0.00000000000E+00  0.00000000000E+00 -0.14210323478E+04  0.14210323478E+04  0.25500000920E-02 0.  1.
    10030    2    1    2    0    0  0.00000000000E+00  0.00000000000E+00  0.38093836412E+03  0.32230030597E+04  0.32004116431E+04 0.  0.
        1    1    3    3  502    0  0.21373398001E+03 -0.11328564530E+04  0.13080835022E+04  0.17435964001E+04  0.50400001928E-02 0. -1.
       -1    1    3    3    0  502 -0.21373398001E+03  0.11328564530E+04 -0.92714513812E+03  0.14794066596E+04  0.50400001928E-02 0.  1.
</event>
<event>
 5   0  0.9329929E-08  0.3213809E+04  0.7818609E-02  0.8185180E-01
        2   -1    0    0  501    0  0.00000000000E+00  0.00000000000E+00  0.21276489365E+04  0.21276489365E+04  0.25500000920E-02 0.  1.
       -2   -1    0    0    0  501  0.00000000000E+00  0.00000000000E+00 -0.12136130840E+04  0.12136130840E+04  0.25500000920E-02 0. -1.
    10030    2    1    2    0    0  0.00000000000E+00  0.00000000000E+00  0.91403585249E+03  0.33412620205E+04  0.32138093207E+04 0.  0.
        1    1    3    3  502    0  0.35427169406E+03  0.59859495399E+03  0.19630218579E+04  0.20826135423E+04  0.50400001928E-02 0.  1.
       -1    1    3    3    0  502 -0.35427169406E+03 -0.59859495399E+03 -0.10489860054E+04  0.12586484782E+04  0.50400001928E-02 0. -1.
</event>
<event>
 5   0  0.3270966E-08  0.3199888E+04  0.7818609E-02  0.8188847E-01
       -1   -1    0    0    0  501  0.00000000000E+00  0.00000000000E+00  0.22142001872E+04  0.22142001872E+04  0.50400001928E-02 0. -1.
        1   -1    0    0  501    0  0.00000000000E+00  0.00000000000E+00 -0.11560929058E+04  0.11560929058E+04  0.50400001928E-02 0.  1.
    10030    2    1    2    0    0  0.00000000000E+00  0.00000000000E+00  0.10581072814E+04  0.33702930930E+04  0.31998882034E+04 0.  0.
        3    1    3    3  502    0 -0.84081056643E+03 -0.13131409406E+04  0.90664105792E+03  0.18036905379E+04  0.10100000352E+00 0. -1.
       -3    1    3    3    0  502  0.84081056643E+03  0.13131409406E+04  0.15146622348E+03  0.15666025551E+04  0.10100000352E+00 0.  1.
</event>
<event>
 5   0  0.9157524E-08  0.3201033E+04  0.7818609E-02  0.8188544E-01
        2   -1    0    0  501    0  0.00000000000E+00  0.00000000000E+00  0.23463775639E+04  0.23463775639E+04  0.25500000920E-02 0. -1.
       -2   -1    0    0    0  501  0.00000000000E+00  0.00000000000E+00 -0.10917478781E+04  0.10917478781E+04  0.25500000920E-02 0.  1.
    10030    2    1    2    0    0  0.00000000000E+00  0.00000000000E+00  0.12546296858E+04  0.34381254420E+04  0.32010327875E+04 0.  0.
        5    1    3    3  502    0 -0.48015159093E+03  0.53181806948E+03 -0.90986106056E+03  0.11581214310E+04  0.46999998093E+01 0.  1.
       -5    1    3    3    0  502  0.48015159093E+03 -0.53181806948E+03  0.21644907464E+04  0.22800040110E+04  0.46999998093E+01 0. -1.
</event>
<event>
 5   0  0.9353994E-08  0.3219952E+04  0.7818609E-02  0.8183568E-01
       -2   -1    0    0    0  501  0.00000000000E+00  0.00000000000E+00  0.12171145644E+04  0.12171145644E+04  0.25500000920E-02 0. -1.
        2   -1    0    0  501    0  0.00000000000E+00  0.00000000000E+00 -0.21296462663E+04  0.21296462663E+04  0.25500000920E-02 0.  1.
    10030    2    1    2    0    0  0.00000000000E+00  0.00000000000E+00 -0.91253170191E+03  0.33467608307E+04  0.32199524765E+04 0.  0.
        2    1    3    3  502    0  0.27894602115E+03 -0.10068005765E+04 -0.17294835037E+04  0.20205374219E+04  0.25500000920E-02 0.  1.
       -2    1    3    3    0  502 -0.27894602115E+03  0.10068005765E+04  0.81695180178E+03  0.13262234088E+04  0.25500000920E-02 0. -1.
</event>
<event>
 5   0  0.3283581E-08  0.3200183E+04  0.7818609E-02  0.8188769E-01
       -1   -1    0    0    0  501  0.00000000000E+00  0.00000000000E+00  0.20301319155E+04  0.20301319155E+04  0.50400001928E-02 0.  1.
        1   -1    0    0  501    0  0.00000000000E+00  0.00000000000E+00 -0.12611458824E+04  0.12611458824E+04  0.50400001928E-02 0. -1.
    10030    2    1    2    0    0  0.00000000000E+00  0.00000000000E+00  0.76898603318E+03  0.32912777979E+04  0.32001828110E+04 0.  0.
        5    1    3    3  502    0 -0.99420070150E+03  0.20029045518E+03  0.16573491453E+04  0.19430336026E+04  0.46999998093E+01 0.  1.
       -5    1    3    3    0  502  0.99420070150E+03 -0.20029045518E+03 -0.88836311213E+03  0.13482441953E+04  0.46999998093E+01 0. -1.
</event>
<event>
 5   0  0.9329929E-08  0.3200611E+04  0.7818609E-02  0.8188656E-01
        2   -1    0    0  501    0  0.00000000000E+00  0.00000000000E+00  0.18462135667E+04  0.18462135667E+04  0.25500000920E-02 0.  1.
       -2   -1    0    0    0  501  0.00000000000E+00  0.00000000000E+00 -0.13871510134E+04  0.13871510134E+04  0.25500000920E-02 0. -1.
    10030    2    1    2    0    0  0.00000000000E+00  0.00000000000E+00  0.45906255325E+03  0.32333645801E+04  0.32006105793E+04 0.  0.
        1    1    3    3  502    0  0.64037461094E+03  0.47995745584E+03  0.16295483020E+04  0.18154521393E+04  0.50400001928E-02 0.  1.
       -1    1    3    3    0  502 -0.64037461094E+03 -0.47995745584E+03 -0.11704857487E+04  0.14179124408E+04  0.50400001928E-02 0. -1.
</event>
<event>
 5   0  0.9727083E-08  0.3200688E+04  0.7818609E-02  0.8188636E-01
       -2   -1    0    0    0  501  0.00000000000E+00  0.00000000000E+00  0.18766464035E+04  0.18766464035E+04  0.25500000920E-02 0. -1.
        2   -1    0    0  501    0  0.00000000000E+00  0.00000000000E+00 -0.13647220693E+04  0.13647220693E+04  0.25500000920E-02 0.  1.
    10030    2    1    2    0    0  0.00000000000E+00  0.00000000000E+00  0.51192433416E+03  0.32413684728E+04  0.32006879030E+04 0.  0.
        4    1    3    3  502    0 -0.16042407180E+03  0.97448358718E+03 -0.10193066820E+04  0.14192751211E+04  0.12699999809E+01 0.  1.
       -4    1    3    3    0  502  0.16042407180E+03 -0.97448358718E+03  0.15312310162E+04  0.18220933517E+04  0.12699999809E+01 0. -1.
</event>
<event>
 5   0  0.9329929E-08  0.3198801E+04  0.7818609E-02  0.8189134E-01
       -2   -1    0    0    0  501  0.00000000000E+00  0.00000000000E+00  0.14005754419E+04  0.14005754419E+04  0.25500000920E-02 0. -1.
        2   -1    0    0  501    0  0.00000000000E+00  0.00000000000E+00 -0.18264504154E+04  0.18264504154E+04  0.25500000920E-02 0.  1.
    10030    2    1    2    0    0  0.00000000000E+00  0.00000000000E+00 -0.42587497354E+03  0.32270258573E+04  0.31988007738E+04 0.  0.
        1    1    3    3  502    0  0.13548235720E+04  0.40361581184E+03 -0.96762183711E+03  0.17131096446E+04  0.50400001928E-02 0.  1.
       -1    1    3    3    0  502 -0.13548235720E+04 -0.40361581184E+03  0.54174686356E+03  0.15139162127E+04  0.50400001928E-02 0. -1.
</event>
<event>
 5   0  0.9353994E-08  0.3197793E+04  0.7818609E-02  0.8189400E-01
       -2   -1    0    0    0  501  0.00000000000E+00  0.00000000000E+00  0.10851864313E+04  0.10851864313E+04  0.25500000920E-02 0. -1.
        2   -1    0    0  501    0  0.00000000000E+00  0.00000000000E+00 -0.23557891441E+04  0.23557891441E+04  0.25500000920E-02 0.  1.
    10030    2    1    2    0    0  0.00000000000E+00  0.00000000000E+00 -0.12706027128E+04  0.34409755754E+04  0.31977932479E+04 0.  0.
        2    1    3    3  502    0  0.11741895039E+04  0.86657509990E+03 -0.13382796215E+04  0.19800671050E+04  0.25500000920E-02 0.  1.
       -2    1    3    3    0  502 -0.11741895039E+04 -0.86657509990E+03  0.67676908679E+02  0.14609084704E+04  0.25500000920E-02 0. -1.
</event>
<event>
 5   0  0.3427667E-08  0.3200004E+04  0.7818609E-02  0.8188816E-01
        1   -1    0    0  501    0  0.00000000000E+00  0.00000000000E+00  0.19826988578E+04  0.19826988578E+04  0.50400001928E-02 0.  1.
       -1   -1    0    0    0  501  0.00000000000E+00  0.00000000000E+00 -0.12911724072E+04  0.12911724073E+04  0.50400001928E-02 0. -1.
    10030    2    1    2    0    0  0.00000000000E+00  0.00000000000E+00  0.69152645059E+03  0.32738712651E+04  0.32000037857E+04 0.  0.
        2    1    3    3  502    0 -0.95378217493E+03 -0.60245550019E+03 -0.81504353606E+03  0.13917431633E+04  0.25500000920E-02 0. -1.
       -2    1    3    3    0  502  0.95378217493E+03  0.60245550019E+03  0.15065699866E+04  0.18821281018E+04  0.25500000920E-02 0.  1.
</event>
<event>
 5   0  0.3427667E-08  0.3197604E+04  0.7818609E-02  0.8189450E-01
        1   -1    0    0  501    0  0.00000000000E+00  0.00000000000E+00  0.28145832636E+04  0.28145832636E+04  0.50400001928E-02 0.  1.
       -1   -1    0    0    0  501  0.00000000000E+00  0.00000000000E+00 -0.90818701262E+03  0.90818701264E+03  0.50400001928E-02 0. -1.
    10030    2    1    2    0    0  0.00000000000E+00  0.00000000000E+00  0.19063962510E+04  0.37227702762E+04  0.31976040818E+04 0.  0.
        2    1    3    3  502    0  0.89055559169E+03  0.64692738662E+03  0.23031933518E+04  0.25527052162E+04  0.25500000920E-02 0.  1.
       -2    1    3    3    0  502 -0.89055559169E+03 -0.64692738662E+03 -0.39679710078E+03  0.11700650600E+04  0.25500000920E-02 0. -1.
</event>
<event>
 5   0  0.9329929E-08  0.3200973E+04  0.7818609E-02  0.8188560E-01
       -2   -1    0    0    0  501  0.00000000000E+00  0.00000000000E+00  0.95230228207E+03  0.95230228208E+03  0.25500000920E-02 0. -1.
        2   -1    0    0  501    0  0.00000000000E+00  0.00000000000E+00 -0.26898570106E+04  0.26898570106E+04  0.25500000920E-02 0.  1.
    10030    2    1    2    0    0  0.00000000000E+00  0.00000000000E+00 -0.17375547286E+04  0.36421592927E+04  0.32009729581E+04 0.  0.
        1    1    3    3  502    0  0.22220831325E+03 -0.34699094291E+03 -0.26284721167E+04  0.26605722913E+04  0.50400001928E-02 0.  1.
       -1    1    3    3    0  502 -0.22220831325E+03  0.34699094291E+03  0.89091738811E+03  0.98158700144E+03  0.50400001928E-02 0. -1.
</event>
<event>
 5   0  0.3343140E-08  0.3202259E+04  0.7818609E-02  0.8188221E-01
       -1   -1    0    0    0  501  0.00000000000E+00  0.00000000000E+00  0.19448888160E+04  0.19448888160E+04  0.50400001928E-02 0.  1.
        1   -1    0    0  501    0  0.00000000000E+00  0.00000000000E+00 -0.13181294165E+04  0.13181294165E+04  0.50400001928E-02 0. -1.
    10030    2    1    2    0    0  0.00000000000E+00  0.00000000000E+00  0.62675939948E+03  0.32630182325E+04  0.32022586780E+04 0.  0.
        1    1    3    3  502    0  0.63801845666E+03 -0.67683837884E+03  0.16413484758E+04  0.18865848937E+04  0.50400001928E-02 0.  1.
       -1    1    3    3    0  502 -0.63801845666E+03  0.67683837884E+03 -0.10145890764E+04  0.13764333387E+04  0.50400001928E-02 0. -1.
</event>
<event>
 5   0  0.3283581E-08  0.3200384E+04  0.7818609E-02  0.8188716E-01
        1   -1    0    0  501    0  0.00000000000E+00  0.00000000000E+00  0.15116831027E+04  0.15116831027E+04  0.50400001928E-02 0. -1.
       -1   -1    0    0    0  501  0.00000000000E+00  0.00000000000E+00 -0.16938828194E+04  0.16938828194E+04  0.50400001928E-02 0.  1.
    10030    2    1    2    0    0  0.00000000000E+00  0.00000000000E+00 -0.18219971666E+03  0.32055659221E+04  0.32003837496E+04 0.  0.
        5    1    3    3  502    0  0.16661182813E+03  0.14510464473E+04 -0.74583763809E+03  0.16399973066E+04  0.46999998093E+01 0.  1.
       -5    1    3    3    0  502 -0.16661182813E+03 -0.14510464473E+04  0.56363792143E+03  0.15655686155E+04  0.46999998093E+01 0. -1.
</event>
<event>
 5   0  0.9329929E-08  0.3195359E+04  0.7818609E-02  0.8190044E-01
        2   -1    0    0  501    0  0.00000000000E+00  0.00000000000E+00  0.18429711627E+04  0.18429711627E+04  0.25500000920E-02 0.  1.
       -2   -1    0    0    0  501  0.00000000000E+00  0.00000000000E+00 -0.13850354008E+04  0.13850354008E+04  0.25500000920E-02 0. -1.
    10030    2    1    2    0    0  0.00000000000E+00  0.00000000000E+00  0.45793576188E+03  0.32280065636E+04  0.31953593245E+04 0.  0.
        1    1    3    3  502    0 -0.40265954363E+03  0.14900308990E+04 -0.18786574879E+03  0.15548698748E+04  0.50400001928E-02 0. -1.
       -1    1    3    3    0  502  0.40265954363E+03 -0.14900308990E+04  0.64580151067E+03  0.16731366888E+04  0.50400001928E-02 0.  1.
</event>
<event>
 5   0  0.3220147E-08  0.3198986E+04  0.7818609E-02  0.8189085E-01
        1   -1    0    0  501    0  0.00000000000E+00  0.00000000000E+00  0.15565418939E+04  0.15565418939E+04  0.50400001928E-02 0.  1.
       -1   -1    0    0    0  501  0.00000000000E+00  0.00000000000E+00 -0.16436296344E+04  0.16436296344E+04  0.50400001928E-02 0. -1.
    10030    2    1    2    0    0  0.00000000000E+00  0.00000000000E+00 -0.87087740566E+02  0.32001715283E+04  0.31989863294E+04 0.  0.
        4    1    3    3  502    0 -0.18556507441E+03  0.12538303659E+04 -0.10195342521E+04  0.16266458396E+04  0.12699999809E+01 0. -1.
       -4    1    3    3    0  502  0.18556507441E+03 -0.12538303659E+04  0.93244651155E+03  0.15735256887E+04  0.12699999809E+01 0.  1.
</event>
<event>
 5   0  0.9353994E-08  0.3200262E+04  0.7818609E-02  0.8188748E-01
        2   -1    0    0  501    0  0.00000000000E+00  0.00000000000E+00  0.19494433761E+04  0.19494433761E+04  0.25500000920E-02 0. -1.
       -2   -1    0    0    0  501  0.00000000000E+00  0.00000000000E+00 -0.13134106444E+04  0.13134106444E+04  0.25500000920E-02 0.  1.
    10030    2    1    2    0    0  0.00000000000E+00  0.00000000000E+00  0.63603273171E+03  0.32628540204E+04  0.32002622897E+04 0.  0.
        2    1    3    3  502    0 -0.11313591873E+04  0.32012611279E+03  0.14245849246E+04  0.18471319786E+04  0.25500000920E-02 0. -1.
       -2    1    3    3    0  502  0.11313591873E+04 -0.32012611279E+03 -0.78855219291E+03  0.14157220419E+04  0.25500000920E-02 0.  1.
</event>
<event>
 5   0  0.3220147E-08  0.3199036E+04  0.7818609E-02  0.8189072E-01
       -1   -1    0    0    0  501  0.00000000000E+00  0.00000000000E+00  0.17433658572E+04  0.17433658572E+04  0.50400001928E-02 0.  1.
        1   -1    0    0  501    0  0.00000000000E+00  0.00000000000E+00 -0.14675390581E+04  0.14675390581E+04  0.50400001928E-02 0. -1.
    10030    2    1    2    0    0  0.00000000000E+00  0.00000000000E+00  0.27582679913E+03  0.32109049153E+04  0.31990357847E+04 0.  0.
        4    1    3    3  502    0  0.87387549433E+03  0.10715796634E+03 -0.12024493119E+04  0.14903110984E+04  0.12699999809E+01 0. -1.
       -4    1    3    3    0  502 -0.87387549433E+03 -0.10715796634E+03  0.14782761111E+04  0.17205938169E+04  0.12699999809E+01 0.  1.
</event>
<event>
 5   0  0.3343140E-08  0.3199247E+04  0.7818609E-02  0.8189016E-01
        1   -1    0    0  501    0  0.00000000000E+00  0.00000000000E+00  0.23034920063E+04  0.23034920063E+04  0.50400001928E-02 0.  1.
       -1   -1    0    0    0  501  0.00000000000E+00  0.00000000000E+00 -0.11108328675E+04  0.11108328675E+04  0.50400001928E-02 0. -1.
    10030    2    1    2    0    0  0.00000000000E+00  0.00000000000E+00  0.11926591388E+04  0.34143248737E+04  0.31992465554E+04 0.  0.
        1    1    3    3  502    0  0.79882647257E+03 -0.56048856028E+03  0.19490270103E+04  0.21796737018E+04  0.50400001928E-02 0.  1.
       -1    1    3    3    0  502 -0.79882647257E+03  0.56048856028E+03 -0.75636787143E+03  0.12346511720E+04  0.50400001928E-02 0. -1.
</event>
<event>
 5   0  0.9157524E-08  0.3201322E+04  0.7818609E-02  0.8188468E-01
       -2   -1    0    0    0  501  0.00000000000E+00  0.00000000000E+00  0.15409489598E+04  0.15409489598E+04  0.25500000920E-02 0. -1.
        2   -1    0    0  501    0  0.00000000000E+00  0.00000000000E+00 -0.16626866042E+04  0.16626866042E+04  0.25500000920E-02 0.  1.
    10030    2    1    2    0    0  0.00000000000E+00  0.00000000000E+00 -0.12173764447E+03  0.32036355640E+04  0.32013217228E+04 0.  0.
        5    1    3    3  502    0 -0.26617923883E+03  0.10786321397E+04 -0.12140013016E+04  0.16456366337E+04  0.46999998093E+01 0.  1.
       -5    1    3    3    0  502  0.26617923883E+03 -0.10786321397E+04  0.10922636571E+04  0.15579989302E+04  0.46999998093E+01 0. -1.
</event>
<event>
 5   0  0.3270966E-08  0.3199636E+04  0.7818609E-02  0.8188913E-01
        1   -1    0    0  501    0  0.00000000000E+00  0.00000000000E+00  0.20452508268E+04  0.20452508268E+04  0.50400001928E-02 0.  1.
       -1   -1    0    0    0  501  0.00000000000E+00  0.00000000000E+00 -0.12513951642E+04  0.12513951642E+04  0.50400001928E-02 0. -1.
    10030    2    1    2    0    0  0.00000000000E+00  0.00000000000E+00  0.79385566259E+03  0.32966459910E+04  0.31996356006E+04 0.  0.
        3    1    3    3  502    0 -0.11015940222E+04 -0.34238250872E+03 -0.74513897086E+03  0.13733052349E+04  0.10100000352E+00 0. -1.
       -3    1    3    3    0  502  0.11015940222E+04  0.34238250872E+03  0.15389946334E+04  0.19233407561E+04  0.10100000352E+00 0.  1.
</event>
<event>
 5   0  0.3283581E-08  0.3217893E+04  0.7818609E-02  0.8184108E-01
        1   -1    0    0  501    0  0.00000000000E+00  0.00000000000E+00  0.19384619510E+04  0.19384619510E+04  0.50400001928E-02 0.  1.
       -1   -1    0    0    0  501  0.00000000000E+00  0.00000000000E+00 -0.13354450557E+04  0.13354450557E+04  0.50400001928E-02 0. -1.
    10030    2    1    2    0    0  0.00000000000E+00  0.00000000000E+00  0.60301689528E+03  0.32739070067E+04  0.32178933656E+04 0.  0.
        5    1    3    3  502    0 -0.39354552322E+03  0.15600571045E+04  0.29583553612E+03  0.16359086168E+04  0.46999998093E+01 0. -1.
       -5    1    3    3    0  502  0.39354552322E+03 -0.15600571045E+04  0.30718135916E+03  0.16379983899E+04  0.46999998093E+01 0.  1.
</event>
<event>
 5   0  0.9353994E-08  0.3200662E+04  0.7818609E-02  0.8188642E-01
       -2   -1    0    0    0  501  0.00000000000E+00  0.00000000000E+00  0.15779214849E+04  0.15779214849E+04  0.25500000920E-02 0. -1.
        2   -1    0    0  501    0  0.00000000000E+00  0.00000000000E+00 -0.16230584931E+04  0.16230584931E+04  0.25500000920E-02 0.  1.
    10030    2    1    2    0    0  0.00000000000E+00  0.00000000000E+00 -0.45137008218E+02  0.32009799780E+04  0.32006617238E+04 0.  0.
        2    1    3    3  502    0  0.20229635946E+03  0.53739520533E+03  0.14713475604E+04  0.15794242835E+04  0.25500000920E-02 0. -1.
       -2    1    3    3    0  502 -0.20229635946E+03 -0.53739520533E+03 -0.15164845686E+04  0.16215556946E+04  0.25500000920E-02 0.  1.
</event>
<event>
 5   0  0.9727083E-08  0.3199108E+04  0.7818609E-02  0.8189053E-01
        2   -1    0    0  501    0  0.00000000000E+00  0.00000000000E+00  0.21278459194E+04  0.21278459194E+04  0.25500000920E-02 0.  1.
       -2   -1    0    0    0  501  0.00000000000E+00  0.00000000000E+00 -0.12024239105E+04  0.12024239105E+04  0.25500000920E-02 0. -1.
    10030    2    1    2    0    0  0.00000000000E+00  0.00000000000E+00  0.92542200893E+03  0.33302698299E+04  0.31991078827E+04 0.  0.
        4    1    3    3  502    0  0.13004940160E+04 -0.53328196278E+03 -0.33206801718E+03  0.14442801385E+04  0.12699999809E+01 0. -1.
       -4    1    3    3    0  502 -0.13004940160E+04  0.53328196278E+03  0.12574900261E+04  0.18859896914E+04  0.12699999809E+01 0.  1.
</event>
<event>
 5   0  0.3270966E-08  0.3204147E+04  0.7818609E-02  0.8187723E-01
       -1   -1    0    0    0  501  0.00000000000E+00  0.00000000000E+00  0.19186705203E+04  0.19186705203E+04  0.50400001928E-02 0.  1.
        1   -1    0    0  501    0  0.00000000000E+00  0.00000000000E+00 -0.13377178853E+04  0.13377178853E+04  0.50400001928E-02 0. -1.
    10030    2    1    2    0    0  0.00000000000E+00  0.00000000000E+00  0.58095263497E+03  0.32563884056E+04  0.32041472320E+04 0.  0.
        3    1    3    3  502    0 -0.29534039349E+03 -0.12539339833E+04 -0.67745061982E+03  0.14555121899E+04  0.10100000352E+00 0. -1.
       -3    1    3    3    0  502  0.29534039349E+03  0.12539339833E+04  0.12584032548E+04  0.18008762157E+04  0.10100000352E+00 0.  1.
</event>
<event>
 5   0  0.9353994E-08  0.3197834E+04  0.7818609E-02  0.8189389E-01
        2   -1    0    0  501    0  0.00000000000E+00  0.00000000000E+00  0.19967733621E+04  0.19967733621E+04  0.25500000920E-02 0.  1.
       -2   -1    0    0    0  501  0.00000000000E+00  0.00000000000E+00 -0.12803333985E+04  0.12803333985E+04  0.25500000920E-02 0. -1.
    10030    2    1    2    0    0  0.00000000000E+00  0.00000000000E+00  0.71643996364E+03  0.32771067605E+04  0.31978340324E+04 0.  0.
        2    1    3    3  502    0 -0.36630707994E+03 -0.16431523538E+03  0.19442800671E+04  0.19852972958E+04  0.25500000920E-02 0.  1.
       -2    1    3    3    0  502  0.36630707994E+03  0.16431523538E+03 -0.12278401035E+04  0.12918094647E+04  0.25500000920E-02 0. -1.
</event>
<event>
 5   0  0.9727083E-08  0.3198798E+04  0.7818609E-02  0.8189135E-01
       -2   -1    0    0    0  501  0.00000000000E+00  0.00000000000E+00  0.26186695476E+04  0.26186695476E+04  0.25500000920E-02 0.  1.
        2   -1    0    0  501    0  0.00000000000E+00  0.00000000000E+00 -0.97686111097E+03  0.97686111098E+03  0.25500000920E-02 0. -1.
    10030    2    1    2    0    0  0.00000000000E+00  0.00000000000E+00  0.16418084366E+04  0.35955306586E+04  0.31987975513E+04 0.  0.
        4    1    3    3  502    0  0.14803170536E+04  0.60545209505E+03  0.83529929387E+03  0.18043384777E+04  0.12699999809E+01 0.  1.
       -4    1    3    3    0  502 -0.14803170536E+04 -0.60545209505E+03  0.80650914274E+03  0.17911921809E+04  0.12699999809E+01 0. -1.
</event>
<event>
 5   0  0.9707721E-08  0.3199334E+04  0.7818609E-02  0.8188993E-01
       -2   -1    0    0    0  501  0.00000000000E+00  0.00000000000E+00  0.13844614078E+04  0.13844614078E+04  0.25500000920E-02 0.  1.
        2   -1    0    0  501    0  0.00000000000E+00  0.00000000000E+00 -0.18483250231E+04  0.18483250231E+04  0.25500000920E-02 0. -1.
    10030    2    1    2    0    0  0.00000000000E+00  0.00000000000E+00 -0.46386361529E+03  0.32327864310E+04  0.31993340955E+04 0.  0.
        3    1    3    3  502    0  0.45522461964E+03 -0.14095304132E+04  0.37847832714E+03  0.15288071476E+04  0.10100000352E+00 0.  1.
       -3    1    3    3    0  502 -0.45522461964E+03  0.14095304132E+04 -0.84234194243E+03  0.17039792834E+04  0.10100000352E+00 0. -1.
</event>
<event>
 5   0  0.3283581E-08  0.3199300E+04  0.7818609E-02  0.8189002E-01
       -1   -1    0    0    0  501  0.00000000000E+00  0.00000000000E+00  0.13368195462E+04  0.13368195462E+04  0.50400001928E-02 0. -1.
        1   -1    0    0  501    0  0.00000000000E+00  0.00000000000E+00 -0.19141546472E+04  0.19141546472E+04  0.50400001928E-02 0.  1.
    10030    2    1    2    0    0  0.00000000000E+00  0.00000000000E+00 -0.57733510100E+03  0.32509741934E+04  0.31992995151E+04 0.  0.
        5    1    3    3  502    0 -0.96479431267E+03  0.20056441591E+03  0.99176570588E+03  0.13980970839E+04  0.46999998093E+01 0. -1.
       -5    1    3    3    0  502  0.96479431267E+03 -0.20056441591E+03 -0.15691008069E+04  0.18528771095E+04  0.46999998093E+01 0.  1.
</event>
<event>
 5   0  0.9353994E-08  0.3175376E+04  0.7818609E-02  0.8195351E-01
       -2   -1    0    0    0  501  0.00000000000E+00  0.00000000000E+00  0.24355484835E+04  0.24355484835E+04  0.25500000920E-02 0.  1.
        2   -1    0    0  501    0  0.00000000000E+00  0.00000000000E+00 -0.10349837510E+04  0.10349837510E+04  0.25500000920E-02 0. -1.
    10030    2    1    2    0    0  0.00000000000E+00  0.00000000000E+00  0.14005647324E+04  0.34705322345E+04  0.31753759495E+04 0.  0.
        2    1    3    3  502    0  0.13118009569E+03  0.12312511227E+04 -0.38585286093E+03  0.12969464040E+04  0.25500000920E-02 0. -1.
       -2    1    3    3    0  502 -0.13118009569E+03 -0.12312511227E+04  0.17864175934E+04  0.21735858305E+04  0.25500000920E-02 0.  1.
</event>
<event>
 5   0  0.3080500E-08  0.3196030E+04  0.7818609E-02  0.8189866E-01
        3   -1    0    0  501    0  0.00000000000E+00  0.00000000000E+00  0.12896809615E+04  0.12896809655E+04  0.10100000352E+00 0.  1.
       -3   -1    0    0    0  501  0.00000000000E+00  0.00000000000E+00 -0.19800652347E+04  0.19800652373E+04  0.10100000352E+00 0. -1.
    10030    2    1    2    0    0  0.00000000000E+00  0.00000000000E+00 -0.69038427317E+03  0.32697462027E+04  0.31960303168E+04 0.  0.
        1    1    3    3  502    0 -0.52514508182E+03  0.14949261944E+04 -0.13287041074E+03  0.15900428389E+04  0.50400001928E-02 0.  1.
       -1    1    3    3    0  502  0.52514508182E+03 -0.14949261944E+04 -0.55751386243E+03  0.16797033638E+04  0.50400001928E-02 0. -1.
</event>
<event>
 5   0  0.3220147E-08  0.3201896E+04  0.7818609E-02  0.8188317E-01
        1   -1    0    0  501    0  0.00000000000E+00  0.00000000000E+00  0.28370452226E+04  0.28370452226E+04  0.50400001928E-02 0. -1.
       -1   -1    0    0    0  501  0.00000000000E+00  0.00000000000E+00 -0.90341710190E+03  0.90341710191E+03  0.50400001928E-02 0.  1.
    10030    2    1    2    0    0  0.00000000000E+00  0.00000000000E+00  0.19336281207E+04  0.37404623245E+04  0.32018964212E+04 0.  0.
        4    1    3    3  502    0  0.10642238161E+03 -0.13724001977E+04  0.11866465235E+02  0.13765719930E+04  0.12699999809E+01 0.  1.
       -4    1    3    3    0  502 -0.10642238161E+03  0.13724001977E+04  0.19217616555E+04  0.23638903315E+04  0.12699999809E+01 0. -1.
</event>
<event>
 5   0  0.9353994E-08  0.3200282E+04  0.7818609E-02  0.8188743E-01
       -2   -1    0    0    0  501  0.00000000000E+00  0.00000000000E+00  0.16945418846E+04  0.16945418846E+04  0.25500000920E-02 0. -1.
        2   -1    0    0  501    0  0.00000000000E+00  0.00000000000E+00 -0.15109987433E+04  0.15109987433E+04  0.25500000920E-02 0.  1.
    10030    2    1    2    0    0  0.00000000000E+00  0.00000000000E+00  0.18354314128E+03  0.32055406279E+04  0.32002816489E+04 0.  0.
        2    1    3    3  502    0  0.81303982301E+02 -0.13677559823E+04 -0.73607548223E+03  0.15553693710E+04  0.25500000920E-02 0.  1.
       -2    1    3    3    0  502 -0.81303982301E+02  0.13677559823E+04  0.91961862351E+03  0.16501712570E+04  0.25500000920E-02 0. -1.
</event>
<event>
 5   0  0.3283581E-08  0.3198290E+04  0.7818609E-02  0.8189269E-01
       -1   -1    0    0    0  501  0.00000000000E+00  0.00000000000E+00  0.16573244205E+04  0.16573244205E+04  0.50400001928E-02 0.  1.
        1   -1    0    0  501    0  0.00000000000E+00  0.00000000000E+00 -0.15430076165E+04  0.15430076165E+04  0.50400001928E-02 0. -1.
    10030    2    1    2    0    0  0.00000000000E+00  0.00000000000E+00  0.11431680399E+03  0.32003320370E+04  0.31982896704E+04 0.  0.
        5    1    3    3  502    0 -0.25811981512E+03 -0.15547694132E+04  0.32808644244E+03  0.16098436480E+04  0.46999998093E+01 0.  1.
       -5    1    3    3    0  502  0.25811981512E+03  0.15547694132E+04 -0.21376963845E+03  0.15904883890E+04  0.46999998093E+01 0. -1.
</event>
<event>
 5   0  0.3283581E-08  0.3190654E+04  0.7818609E-02  0.8191290E-01
       -1   -1    0    0    0  501  0.00000000000E+00  0.00000000000E+00  0.13049860321E+04  0.13049860321E+04  0.50400001928E-02 0.  1.
        1   -1    0    0  501    0  0.00000000000E+00  0.00000000000E+00 -0.19502650224E+04  0.19502650224E+04  0.50400001928E-02 0. -1.
    10030    2    1    2    0    0  0.00000000000E+00  0.00000000000E+00 -0.64527899030E+03  0.32552510545E+04  0.31906542358E+04 0.  0.
        5    1    3    3  502    0  0.12753119993E+04  0.75427753472E+03  0.28067966011E+03  0.15080313181E+04  0.46999998093E+01 0.  1.
       -5    1    3    3    0  502 -0.12753119993E+04 -0.75427753472E+03 -0.92595865041E+03  0.17472197364E+04  0.46999998093E+01 0. -1.
</event>
<event>
 5   0  0.3270966E-08  0.3200278E+04  0.7818609E-02  0.8188744E-01
       -1   -1    0    0    0  501  0.00000000000E+00  0.00000000000E+00  0.12706707959E+04  0.12706707959E+04  0.50400001928E-02 0.  1.
        1   -1    0    0  501    0  0.00000000000E+00  0.00000000000E+00 -0.20150335655E+04  0.20150335655E+04  0.50400001928E-02 0. -1.
    10030    2    1    2    0    0  0.00000000000E+00  0.00000000000E+00 -0.74436276958E+03  0.32857043614E+04  0.32002776783E+04 0.  0.
        3    1    3    3  502    0 -0.73004847393E+02 -0.71409818211E+03  0.10960902798E+04  0.13102212917E+04  0.10100000352E+00 0.  1.
       -3    1    3    3    0  502  0.73004847393E+02  0.71409818211E+03 -0.18404530494E+04  0.19754830697E+04  0.10100000352E+00 0. -1.
</event>
<event>
 5   0  0.3427667E-08  0.3196559E+04  0.7818609E-02  0.8189726E-01
       -1   -1    0    0    0  501  0.00000000000E+00  0.00000000000E+00  0.15826950186E+04  0.15826950186E+04  0.50400001928E-02 0.  1.
        1   -1    0    0  501    0  0.00000000000E+00  0.00000000000E+00 -0.16140177911E+04  0.16140177911E+04  0.50400001928E-02 0. -1.
    10030    2    1    2    0    0  0.00000000000E+00  0.00000000000E+00 -0.31322772498E+02  0.31967128097E+04  0.31965593490E+04 0.  0.
        2    1    3    3  502    0  0.19552186947E+02  0.67069308209E+03 -0.14663469035E+04  0.16125708480E+04  0.25500000920E-02 0. -1.
       -2    1    3    3    0  502 -0.19552186947E+02 -0.67069308209E+03  0.14350241310E+04  0.15841419617E+04  0.25500000920E-02 0.  1.
</event>
<event>
 5   0  0.9157524E-08  0.3198586E+04  0.7818609E-02  0.8189191E-01
       -2   -1    0    0    0  501  0.00000000000E+00  0.00000000000E+00  0.17328581367E+04  0.17328581367E+04  0.25500000920E-02 0.  1.
        2   -1    0    0  501    0  0.00000000000E+00  0.00000000000E+00 -0.14760226228E+04  0.14760226228E+04  0.25500000920E-02 0. -1.
    10030    2    1    2    0    0  0.00000000000E+00  0.00000000000E+00  0.25683551388E+03  0.32088807595E+04  0.31985858200E+04 0.  0.
        5    1    3    3  502    0  0.11485139249E+04 -0.38680267166E+03  0.11753354470E+04  0.16882345943E+04  0.46999998093E+01 0.  1.
       -5    1    3    3    0  502 -0.11485139249E+04  0.38680267166E+03 -0.91849993311E+03  0.15206461652E+04  0.46999998093E+01 0. -1.
</event>
<event>
 5   0  0.3220147E-08  0.3200630E+04  0.7818609E-02  0.8188651E-01
       -1   -1    0    0    0  501  0.00000000000E+00  0.00000000000E+00  0.84523505659E+03  0.84523505660E+03  0.50400001928E-02 0.  1.
        1   -1    0    0  501    0  0.00000000000E+00  0.00000000000E+00 -0.30299362525E+04  0.30299362526E+04  0.50400001928E-02 0. -1.
    10030    2    1    2    0    0  0.00000000000E+00  0.00000000000E+00 -0.21847011960E+04  0.38751713092E+04  0.32006301504E+04 0.  0.
        4    1    3    3  502    0  0.96964627394E+03  0.22478037690E+03  0.42484688094E+03  0.10822368500E+04  0.12699999809E+01 0.  1.
       -4    1    3    3    0  502 -0.96964627394E+03 -0.22478037690E+03 -0.26095480769E+04  0.27929344591E+04  0.12699999809E+01 0. -1.
</event>
<event>
 5   0  0.3283581E-08  0.3202797E+04  0.7818609E-02  0.8188079E-01
       -1   -1    0    0    0  501  0.00000000000E+00  0.00000000000E+00  0.14421915081E+04  0.14421915081E+04  0.50400001928E-02 0.  1.
        1   -1    0    0  501    0  0.00000000000E+00  0.00000000000E+00 -0.17781808222E+04  0.17781808222E+04  0.50400001928E-02 0. -1.
    10030    2    1    2    0    0  0.00000000000E+00  0.00000000000E+00 -0.33598931414E+03  0.32203723303E+04  0.32027970786E+04 0.  0.
        5    1    3    3  502    0 -0.14342211236E+04  0.68982210567E+03 -0.34676349413E+03  0.16288375547E+04  0.46999998093E+01 0. -1.
       -5    1    3    3    0  502  0.14342211236E+04 -0.68982210567E+03  0.10774179992E+02  0.15915347756E+04  0.46999998093E+01 0.  1.
</event>
<event>
 5   0  0.9353994E-08  0.3199818E+04  0.7818609E-02  0.8188865E-01
        2   -1    0    0  501    0  0.00000000000E+00  0.00000000000E+00  0.21527761331E+04  0.21527761331E+04  0.25500000920E-02 0.  1.
       -2   -1    0    0    0  501  0.00000000000E+00  0.00000000000E+00 -0.11890272370E+04  0.11890272370E+04  0.25500000920E-02 0. -1.
    10030    2    1    2    0    0  0.00000000000E+00  0.00000000000E+00  0.96374889611E+03  0.33418033702E+04  0.31998184058E+04 0.  0.
        2    1    3    3  502    0 -0.11636289873E+04 -0.65593228091E+03 -0.43778455444E+03  0.14056795130E+04  0.25500000920E-02 0. -1.
       -2    1    3    3    0  502  0.11636289873E+04  0.65593228091E+03  0.14015334505E+04  0.19361238572E+04  0.25500000920E-02 0.  1.
</event>
<event>
 5   0  0.3427667E-08  0.3198453E+04  0.7818609E-02  0.8189226E-01
       -1   -1    0    0    0  501  0.00000000000E+00  0.00000000000E+00  0.14650748153E+04  0.14650748153E+04  0.50400001928E-02 0.  1.
        1   -1    0    0  501    0  0.00000000000E+00  0.00000000000E+00 -0.17456615416E+04  0.17456615416E+04  0.50400001928E-02 0. -1.
    10030    2    1    2    0    0  0.00000000000E+00  0.00000000000E+00 -0.28058672629E+03  0.32107363568E+04  0.31984526012E+04 0.  0.
        2    1    3    3  502    0  0.63478969338E+03  0.97953576479E+03 -0.12376873554E+04  0.17012696021E+04  0.25500000920E-02 0. -1.
       -2    1    3    3    0  502 -0.63478969338E+03 -0.97953576479E+03  0.95710062912E+03  0.15094667547E+04  0.25500000920E-02 0.  1.
</event>
<event>
 5   0  0.9157524E-08  0.3199780E+04  0.7818609E-02  0.8188875E-01
        2   -1    0    0  501    0  0.00000000000E+00  0.00000000000E+00  0.22555756561E+04  0.22555756561E+04  0.25500000920E-02 0. -1.
       -2   -1    0    0    0  501  0.00000000000E+00  0.00000000000E+00 -0.11348090835E+04  0.11348090835E+04  0.25500000920E-02 0.  1.
    10030    2    1    2    0    0  0.00000000000E+00  0.00000000000E+00  0.11207665725E+04  0.33903847396E+04  0.31997798319E+04 0.  0.
        5    1    3    3  502    0  0.56173984669E+03 -0.14791515498E+04  0.81153600510E+03  0.17782164492E+04  0.46999998093E+01 0.  1.
       -5    1    3    3    0  502 -0.56173984669E+03  0.14791515498E+04  0.30923056744E+03  0.16121682904E+04  0.46999998093E+01 0. -1.
</event>
<event>
 5   0  0.3343140E-08  0.3198114E+04  0.7818609E-02  0.8189315E-01
       -1   -1    0    0    0  501  0.00000000000E+00  0.00000000000E+00  0.15865848568E+04  0.15865848568E+04  0.50400001928E-02 0.  1.
        1   -1    0    0  501    0  0.00000000000E+00  0.00000000000E+00 -0.16116269922E+04  0.16116269922E+04  0.50400001928E-02 0. -1.
    10030    2    1    2    0    0  0.00000000000E+00  0.00000000000E+00 -0.25042135400E+02  0.31982118489E+04  0.31981138069E+04 0.  0.
        1    1    3    3  502    0 -0.10493696192E+04 -0.17302279388E+03  0.11816133135E+04  0.15897558013E+04  0.50400001928E-02 0.  1.
       -1    1    3    3    0  502  0.10493696192E+04  0.17302279388E+03 -0.12066554489E+04  0.16084560477E+04  0.50400001928E-02 0. -1.
</event>
<event>
 5   0  0.9707721E-08  0.3200816E+04  0.7818609E-02  0.8188602E-01
        2   -1    0    0  501    0  0.00000000000E+00  0.00000000000E+00  0.20453360405E+04  0.20453360405E+04  0.25500000920E-02 0.  1.
       -2   -1    0    0    0  501  0.00000000000E+00  0.00000000000E+00 -0.12522663333E+04  0.12522663333E+04  0.25500000920E-02 0. -1.
    10030    2    1    2    0    0  0.00000000000E+00  0.00000000000E+00  0.79306970722E+03  0.32976023739E+04  0.32008158109E+04 0.  0.
        3    1    3    3  502    0 -0.25446554644E+02 -0.69058699418E+03  0.18837032662E+04  0.20064635379E+04  0.10100000352E+00 0.  1.
       -3    1    3    3    0  502  0.25446554644E+02  0.69058699418E+03 -0.10906335589E+04  0.12911388360E+04  0.10100000352E+00 0. -1.
</event>
<event>
 5   0  0.9157524E-08  0.3200058E+04  0.7818609E-02  0.8188802E-01
       -2   -1    0    0    0  501  0.00000000000E+00  0.00000000000E+00  0.11203934653E+04  0.11203934653E+04  0.25500000920E-02 0. -1.
        2   -1    0    0  501    0  0.00000000000E+00  0.00000000000E+00 -0.22849942551E+04  0.22849942551E+04  0.25500000920E-02 0.  1.
    10030    2    1    2    0    0  0.00000000000E+00  0.00000000000E+00 -0.11646007898E+04  0.34053877205E+04  0.32000578943E+04 0.  0.
        5    1    3    3  502    0 -0.63578403501E+03 -0.74783674973E+02 -0.21427648311E+04  0.22363535384E+04  0.46999998093E+01 0.  1.
       -5    1    3    3    0  502  0.63578403501E+03  0.74783674973E+02  0.97816404128E+03  0.11690341821E+04  0.46999998093E+01 0. -1.
</event>
<event>
 5   0  0.3343140E-08  0.3200191E+04  0.7818609E-02  0.8188767E-01
        1   -1    0    0  501    0  0.00000000000E+00  0.00000000000E+00  0.22244468818E+04  0.22244468818E+04  0.50400001928E-02 0.  1.
       -1   -1    0    0    0  501  0.00000000000E+00  0.00000000000E+00 -0.11509849693E+04  0.11509849694E+04  0.50400001928E-02 0. -1.
    10030    2    1    2    0    0  0.00000000000E+00  0.00000000000E+00  0.10734619124E+04  0.33754318511E+04  0.32001905731E+04 0.  0.
        1    1    3    3  502    0 -0.13644066607E+04 -0.18707255118E+03 -0.32256046294E+03  0.14144422673E+04  0.50400001928E-02 0. -1.
       -1    1    3    3    0  502  0.13644066607E+04  0.18707255118E+03  0.13960223754E+04  0.19609895838E+04  0.50400001928E-02 0.  1.
</event>
<event>
 5   0  0.9353994E-08  0.3199573E+04  0.7818609E-02  0.8188930E-01
        2   -1    0    0  501    0  0.00000000000E+00  0.00000000000E+00  0.20472200900E+04  0.20472200900E+04  0.25500000920E-02 0.  1.
       -2   -1    0    0    0  501  0.00000000000E+00  0.00000000000E+00 -0.12501426334E+04  0.12501426334E+04  0.25500000920E-02 0. -1.
    10030    2    1    2    0    0  0.00000000000E+00  0.00000000000E+00  0.79707745656E+03  0.32973627234E+04  0.31995731681E+04 0.  0.
        2    1    3    3  502    0  0.16933215199E+02 -0.86199157173E+02 -0.12476551484E+04  0.12507439377E+04  0.25500000920E-02 0. -1.
       -2    1    3    3    0  502 -0.16933215199E+02  0.86199157173E+02  0.20447326049E+04  0.20466187857E+04  0.25500000920E-02 0.  1.
</event>
<event>
 5   0  0.9157524E-08  0.3199312E+04  0.7818609E-02  0.8188999E-01
       -2   -1    0    0    0  501  0.00000000000E+00  0.00000000000E+00  0.22242449897E+04  0.22242449897E+04  0.25500000920E-02 0. -1.
        2   -1    0    0  501    0  0.00000000000E+00  0.00000000000E+00 -0.11504577219E+04  0.11504577219E+04  0.25500000920E-02 0.  1.
    10030    2    1    2    0    0  0.00000000000E+00  0.00000000000E+00  0.10737872678E+04  0.33747027116E+04  0.31993123160E+04 0.  0.
        5    1    3    3  502    0 -0.50366670806E+03 -0.65618490264E+03  0.19811203833E+04  0.21468858476E+04  0.46999998093E+01 0. -1.
       -5    1    3    3    0  502  0.50366670806E+03  0.65618490264E+03 -0.90733311549E+03  0.12278168641E+04  0.46999998093E+01 0.  1.
</event>
<event>
 5   0  0.3427667E-08  0.3202938E+04  0.7818609E-02  0.8188042E-01
       -1   -1    0    0    0  501  0.00000000000E+00  0.00000000000E+00  0.18306559331E+04  0.18306559331E+04  0.50400001928E-02 0.  1.
        1   -1    0    0  501    0  0.00000000000E+00  0.00000000000E+00 -0.14009749022E+04  0.14009749022E+04  0.50400001928E-02 0. -1.
    10030    2    1    2    0    0  0.00000000000E+00  0.00000000000E+00  0.42968103090E+03  0.32316308353E+04  0.32029380368E+04 0.  0.
        2    1    3    3  502    0  0.30238308258E+03 -0.92408996087E+03  0.14987672675E+04  0.17865276675E+04  0.25500000920E-02 0.  1.
       -2    1    3    3    0  502 -0.30238308258E+03  0.92408996087E+03 -0.10690862366E+04  0.14451031679E+04  0.25500000920E-02 0. -1.
</event>
<event>
 5   0  0.9157524E-08  0.3201370E+04  0.7818609E-02  0.8188455E-01
       -2   -1    0    0    0  501  0.00000000000E+00  0.00000000000E+00  0.17324671649E+04  0.17324671649E+04  0.25500000920E-02 0. -1.
        2   -1    0    0  501    0  0.00000000000E+00  0.00000000000E+00 -0.14789273224E+04  0.14789273224E+04  0.25500000920E-02 0.  1.
    10030    2    1    2    0    0  0.00000000000E+00  0.00000000000E+00  0.25353984256E+03  0.32113944873E+04  0.32013703474E+04 0.  0.
        5    1    3    3  502    0  0.69360140438E+03  0.44691634152E+03 -0.12491494285E+04  0.14970683048E+04  0.46999998093E+01 0.  1.
       -5    1    3    3    0  502 -0.69360140438E+03 -0.44691634152E+03  0.15026892711E+04  0.17143261825E+04  0.46999998093E+01 0. -1.
</event>
<event>
 5   0  0.3220147E-08  0.3197799E+04  0.7818609E-02  0.8189399E-01
        1   -1    0    0  501    0  0.00000000000E+00  0.00000000000E+00  0.16029975771E+04  0.16029975771E+04  0.50400001928E-02 0.  1.
       -1   -1    0    0    0  501  0.00000000000E+00  0.00000000000E+00 -0.15948121994E+04  0.15948121994E+04  0.50400001928E-02 0. -1.
    10030    2    1    2    0    0  0.00000000000E+00  0.00000000000E+00  0.81853776891E+01  0.31978097765E+04  0.31977993005E+04 0.  0.
        4    1    3    3  502    0  0.14264649312E+04  0.25486421399E+03  0.67990590534E+03  0.16006347555E+04  0.12699999809E+01 0.  1.
       -4    1    3    3    0  502 -0.14264649312E+04 -0.25486421399E+03 -0.67172052765E+03  0.15971750210E+04  0.12699999809E+01 0. -1.
</event>
<event>
 5   0  0.3283581E-08  0.3200040E+04  0.7818609E-02  0.8188807E-01
        1   -1    0    0  501    0  0.00000000000E+00  0.00000000000E+00  0.22095224623E+04  0.22095224623E+04  0.50400001928E-02 0. -1.
       -1   -1    0    0    0  501  0.00000000000E+00  0.00000000000E+00 -0.11586501373E+04  0.11586501373E+04  0.50400001928E-02 0.  1.
    10030    2    1    2    0    0  0.00000000000E+00  0.00000000000E+00  0.10508723250E+04  0.33681725996E+04  0.32000396899E+04 0.  0.
        5    1    3    3  502    0 -0.44879105247E+03 -0.74496932361E+03  0.19389984551E+04  0.21251187734E+04  0.46999998093E+01 0. -1.
       -5    1    3    3    0  502  0.44879105247E+03  0.74496932361E+03 -0.88812613012E+03  0.12430538262E+04  0.46999998093E+01 0.  1.
</event>
<event>
 5   0  0.3283581E-08  0.3200989E+04  0.7818609E-02  0.8188556E-01
       -1   -1    0    0    0  501  0.00000000000E+00  0.00000000000E+00  0.17461789966E+04  0.17461789966E+04  0.50400001928E-02 0. -1.
        1   -1    0    0  501    0  0.00000000000E+00  0.00000000000E+00 -0.14669649264E+04  0.14669649264E+04  0.50400001928E-02 0.  1.
    10030    2    1    2    0    0  0.00000000000E+00  0.00000000000E+00  0.27921407016E+03  0.32131439231E+04  0.32009894366E+04 0.  0.
        5    1    3    3  502    0  0.75612945758E+03 -0.13819413610E+04 -0.14442953909E+03  0.15818899025E+04  0.46999998093E+01 0.  1.
       -5    1    3    3    0  502 -0.75612945758E+03  0.13819413610E+04  0.42364360925E+03  0.16312540205E+04  0.46999998093E+01 0. -1.
</event>
<event>
 5   0  0.3080500E-08  0.3198845E+04  0.7818609E-02  0.8189122E-01
       -3   -1    0    0    0  501  0.00000000000E+00  0.00000000000E+00  0.77273224571E+03  0.77273225231E+03  0.10100000352E+00 0.  1.
        3   -1    0    0  501    0  0.00000000000E+00  0.00000000000E+00 -0.33105277797E+04  0.33105277812E+04  0.10100000352E+00 0. -1.
    10030    2    1    2    0    0  0.00000000000E+00  0.00000000000E+00 -0.25377955340E+04  0.40832600335E+04  0.31988445303E+04 0.  0.
        3    1    3    3  502    0 -0.14292133502E+04  0.57818501951E+03 -0.18122687250E+04  0.23793416441E+04  0.10100000352E+00 0. -1.
       -3    1    3    3    0  502  0.14292133502E+04 -0.57818501951E+03 -0.72552680896E+03  0.17039183895E+04  0.10100000352E+00 0.  1.
</event>
<event>
 5   0  0.9707721E-08  0.3197011E+04  0.7818609E-02  0.8189607E-01
        2   -1    0    0  501    0  0.00000000000E+00  0.00000000000E+00  0.20247976226E+04  0.20247976227E+04  0.25500000920E-02 0.  1.
       -2   -1    0    0    0  501  0.00000000000E+00  0.00000000000E+00 -0.12619631529E+04  0.12619631529E+04  0.25500000920E-02 0. -1.
    10030    2    1    2    0    0  0.00000000000E+00  0.00000000000E+00  0.76283446973E+03  0.32867607756E+04  0.31970110991E+04 0.  0.
        3    1    3    3  502    0  0.14625880374E+04  0.33332433023E+03  0.94914359247E+03  0.17751457533E+04  0.10100000352E+00 0.  1.
       -3    1    3    3    0  502 -0.14625880374E+04 -0.33332433023E+03 -0.18630912274E+03  0.15116150223E+04  0.10100000352E+00 0. -1.
</event>
<event>
 5   0  0.3283581E-08  0.3199102E+04  0.7818609E-02  0.8189054E-01
        1   -1    0    0  501    0  0.00000000000E+00  0.00000000000E+00  0.11845258713E+04  0.11845258713E+04  0.50400001928E-02 0.  1.
       -1   -1    0    0    0  501  0.00000000000E+00  0.00000000000E+00 -0.21599889380E+04  0.21599889380E+04  0.50400001928E-02 0. -1.
    10030    2    1    2    0    0  0.00000000000E+00  0.00000000000E+00 -0.97546306673E+03  0.33445148092E+04  0.31991016106E+04 0.  0.
        5    1    3    3  502    0  0.56480673293E+03 -0.94262592332E+03  0.72742219080E+03  0.13178449873E+04  0.46999998093E+01 0.  1.
       -5    1    3    3    0  502 -0.56480673293E+03  0.94262592332E+03 -0.17028852575E+04  0.20266698219E+04  0.46999998093E+01 0. -1.
</event>
<event>
 5   0  0.3283581E-08  0.3201315E+04  0.7818609E-02  0.8188470E-01
       -1   -1    0    0    0  501  0.00000000000E+00  0.00000000000E+00  0.10605583534E+04  0.10605583534E+04  0.50400001928E-02 0. -1.
        1   -1    0    0  501    0  0.00000000000E+00  0.00000000000E+00 -0.24158071391E+04  0.24158071391E+04  0.50400001928E-02 0.  1.
    10030    2    1    2    0    0  0.00000000000E+00  0.00000000000E+00 -0.13552487857E+04  0.34763654924E+04  0.32013150057E+04 0.  0.
        5    1    3    3  502    0 -0.10361737440E+04  0.54216473818E+03 -0.18644506269E+04  0.22008627538E+04  0.46999998093E+01 0.  1.
       -5    1    3    3    0  502  0.10361737440E+04 -0.54216473818E+03  0.50920184116E+03  0.12755027386E+04  0.46999998093E+01 0. -1.
</event>
<event>
 5   0  0.9707721E-08  0.3199887E+04  0.7818609E-02  0.8188847E-01
       -2   -1    0    0    0  501  0.00000000000E+00  0.00000000000E+00  0.10593651926E+04  0.10593651926E+04  0.25500000920E-02 0.  1.
        2   -1    0    0  501    0  0.00000000000E+00  0.00000000000E+00 -0.24163716257E+04  0.24163716257E+04  0.25500000920E-02 0. -1.
    10030    2    1    2    0    0  0.00000000000E+00  0.00000000000E+00 -0.13570064331E+04  0.34757368184E+04  0.31998874935E+04 0.  0.
        3    1    3    3  502    0  0.10099633768E+04  0.10051885510E+04 -0.14688178370E+04  0.20464251499E+04  0.10100000352E+00 0. -1.
       -3    1    3    3    0  502 -0.10099633768E+04 -0.10051885510E+04  0.11181140393E+03  0.14293116685E+04  0.10100000352E+00 0.  1.
</event>
<event>
 5   0  0.9329929E-08  0.3199400E+04  0.7818609E-02  0.8188976E-01
        2   -1    0    0  501    0  0.00000000000E+00  0.00000000000E+00  0.25531128139E+04  0.25531128139E+04  0.25500000920E-02 0. -1.
       -2   -1    0    0    0  501  0.00000000000E+00  0.00000000000E+00 -0.10023214618E+04  0.10023214618E+04  0.25500000920E-02 0.  1.
    10030    2    1    2    0    0  0.00000000000E+00  0.00000000000E+00  0.15507913521E+04  0.35554342758E+04  0.31993997987E+04 0.  0.
        1    1    3    3  502    0 -0.56435770577E+02 -0.11258641579E+04  0.20367295557E+04  0.23278793743E+04  0.50400001928E-02 0. -1.
       -1    1    3    3    0  502  0.56435770577E+02  0.11258641579E+04 -0.48593820364E+03  0.12275549014E+04  0.50400001928E-02 0.  1.
</event>
<event>
 5   0  0.9727083E-08  0.3201865E+04  0.7818609E-02  0.8188325E-01
        2   -1    0    0  501    0  0.00000000000E+00  0.00000000000E+00  0.21600694858E+04  0.21600694858E+04  0.25500000920E-02 0.  1.
       -2   -1    0    0    0  501  0.00000000000E+00  0.00000000000E+00 -0.11865288676E+04  0.11865288676E+04  0.25500000920E-02 0. -1.
    10030    2    1    2    0    0  0.00000000000E+00  0.00000000000E+00  0.97354061825E+03  0.33465983534E+04  0.32018649571E+04 0.  0.
        4    1    3    3  502    0 -0.14348204282E+04  0.65635214875E+03  0.20345404048E+03  0.15908811910E+04  0.12699999809E+01 0. -1.
       -4    1    3    3    0  502  0.14348204282E+04 -0.65635214875E+03  0.77008657777E+03  0.17557171624E+04  0.12699999809E+01 0.  1.
</event>
<event>
 5   0  0.3427667E-08  0.3200269E+04  0.7818609E-02  0.8188746E-01
        1   -1    0    0  501    0  0.00000000000E+00  0.00000000000E+00  0.15958243130E+04  0.15958243130E+04  0.50400001928E-02 0.  1.
       -1   -1    0    0    0  501  0.00000000000E+00  0.00000000000E+00 -0.16044559688E+04  0.16044559688E+04  0.50400001928E-02 0. -1.
    10030    2    1    2    0    0  0.00000000000E+00  0.00000000000E+00 -0.86316558040E+01  0.32002802818E+04  0.32002686413E+04 0.  0.
        2    1    3    3  502    0 -0.11984428410E+04 -0.60381712357E+01  0.10559371227E+04  0.15972804731E+04  0.25500000920E-02 0. -1.
       -2    1    3    3    0  502  0.11984428410E+04  0.60381712357E+01 -0.10645687785E+04  0.16029998087E+04  0.25500000920E-02 0.  1.
</event>
<event>
 5   0  0.9157524E-08  0.3201173E+04  0.7818609E-02  0.8188508E-01
        2   -1    0    0  501    0  0.00000000000E+00  0.00000000000E+00  0.16329120763E+04  0.16329120763E+04  0.25500000920E-02 0. -1.
       -2   -1    0    0    0  501  0.00000000000E+00  0.00000000000E+00 -0.15689006049E+04  0.15689006049E+04  0.25500000920E-02 0.  1.
    10030    2    1    2    0    0  0.00000000000E+00  0.00000000000E+00  0.64011471315E+02  0.32018126812E+04  0.32011727503E+04 0.  0.
        5    1    3    3  502    0  0.12049293057E+04  0.85792567939E+03 -0.57964210461E+03  0.15886781180E+04  0.46999998093E+01 0.  1.
       -5    1    3    3    0  502 -0.12049293057E+04 -0.85792567939E+03  0.64365357593E+03  0.16131345632E+04  0.46999998093E+01 0. -1.
</event>
<event>
 5   0  0.3220147E-08  0.3200269E+04  0.7818609E-02  0.8188746E-01
        1   -1    0    0  501    0  0.00000000000E+00  0.00000000000E+00  0.22618916128E+04  0.22618916128E+04  0.50400001928E-02 0. -1.
       -1   -1    0    0    0  501  0.00000000000E+00  0.00000000000E+00 -0.11319863430E+04  0.11319863430E+04  0.50400001928E-02 0.  1.
    10030    2    1    2    0    0  0.00000000000E+00  0.00000000000E+00  0.11299052698E+04  0.33938779558E+04  0.32002689981E+04 0.  0.
        4    1    3    3  502    0 -0.70671602932E+03 -0.12387221919E+04 -0.20458340231E+03  0.14407415439E+04  0.12699999809E+01 0.  1.
       -4    1    3    3    0  502  0.70671602932E+03  0.12387221919E+04  0.13344886721E+04  0.19531364120E+04  0.12699999809E+01 0. -1.
</event>
<event>
 5   0  0.9329929E-08  0.3191684E+04  0.7818609E-02  0.8191017E-01
        2   -1    0    0  501    0  0.00000000000E+00  0.00000000000E+00  0.13860970818E+04  0.13860970818E+04  0.25500000920E-02 0. -1.
       -2   -1    0    0    0  501  0.00000000000E+00  0.00000000000E+00 -0.18373251389E+04  0.18373251389E+04  0.25500000920E-02 0.  1.
    10030    2    1    2    0    0  0.00000000000E+00  0.00000000000E+00 -0.45122805705E+03  0.32234222207E+04  0.31916835767E+04 0.  0.
        1    1    3    3  502    0 -0.62976469976E+03 -0.61812187021E+03 -0.15685104734E+04  0.17996953433E+04  0.50400001928E-02 0.  1.
       -1    1    3    3    0  502  0.62976469976E+03  0.61812187021E+03  0.11172824164E+04  0.14237268774E+04  0.50400001928E-02 0. -1.
</event>
<event>
 5   0  0.9157524E-08  0.3199504E+04  0.7818609E-02  0.8188948E-01
       -2   -1    0    0    0  501  0.00000000000E+00  0.00000000000E+00  0.15311659938E+04  0.15311659938E+04  0.25500000920E-02 0. -1.
        2   -1    0    0  501    0  0.00000000000E+00  0.00000000000E+00 -0.16714105566E+04  0.16714105566E+04  0.25500000920E-02 0.  1.
    10030    2    1    2    0    0  0.00000000000E+00  0.00000000000E+00 -0.14024456280E+03  0.32025765505E+04  0.31995043404E+04 0.  0.
        5    1    3    3  502    0 -0.22688366437E+03 -0.15444980090E+04 -0.42007867104E+03  0.16166132738E+04  0.46999998093E+01 0. -1.
       -5    1    3    3    0  502  0.22688366437E+03  0.15444980090E+04  0.27983410825E+03  0.15859632767E+04  0.46999998093E+01 0.  1.
</event>
<event>
 5   0  0.9353994E-08  0.3199726E+04  0.7818609E-02  0.8188890E-01
       -2   -1    0    0    0  501  0.00000000000E+00  0.00000000000E+00  0.12139353008E+04  0.12139353008E+04  0.25500000920E-02 0.  1.
        2   -1    0    0  501    0  0.00000000000E+00  0.00000000000E+00 -0.21084827058E+04  0.21084827058E+04  0.25500000920E-02 0. -1.
    10030    2    1    2    0    0  0.00000000000E+00  0.00000000000E+00 -0.89454740501E+03  0.33224180065E+04  0.31997259805E+04 0.  0.
        2    1    3    3  502    0  0.11360692924E+04  0.99290744256E+03 -0.99969150199E+03  0.18099452273E+04  0.25500000920E-02 0. -1.
       -2    1    3    3    0  502 -0.11360692924E+04 -0.99290744256E+03  0.10514409698E+03  0.15124727792E+04  0.25500000920E-02 0.  1.
</event>
<event>
 5   0  0.3343140E-08  0.3200211E+04  0.7818609E-02  0.8188761E-01
       -1   -1    0    0    0  501  0.00000000000E+00  0.00000000000E+00  0.15341587453E+04  0.15341587453E+04  0.50400001928E-02 0.  1.
        1   -1    0    0  501    0  0.00000000000E+00  0.00000000000E+00 -0.16688871429E+04  0.16688871429E+04  0.50400001928E-02 0. -1.
    10030    2    1    2    0    0  0.00000000000E+00  0.00000000000E+00 -0.13472839763E+03  0.32030458882E+04  0.32002111213E+04 0.  0.
        1    1    3    3  502    0 -0.27971569024E+03  0.67401747296E+03 -0.14926331019E+04  0.16614734419E+04  0.50400001928E-02 0. -1.
       -1    1    3    3    0  502  0.27971569024E+03 -0.67401747296E+03  0.13579047043E+04  0.15415724463E+04  0.50400001928E-02 0.  1.
</event>
<event>
 5   0  0.3220147E-08  0.3194955E+04  0.7818609E-02  0.8190151E-01
       -1   -1    0    0    0  501  0.00000000000E+00  0.00000000000E+00  0.22182636106E+04  0.22182636107E+04  0.50400001928E-02 0. -1.
        1   -1    0    0  501    0  0.00000000000E+00  0.00000000000E+00 -0.11504200347E+04  0.11504200347E+04  0.50400001928E-02 0.  1.
    10030    2    1    2    0    0  0.00000000000E+00  0.00000000000E+00  0.10678435759E+04  0.33686836454E+04  0.31949553362E+04 0.  0.
        4    1    3    3  502    0 -0.76653798046E+01  0.48320827331E+03 -0.10714962925E+04  0.11754381783E+04  0.12699999809E+01 0.  1.
       -4    1    3    3    0  502  0.76653798046E+01 -0.48320827331E+03  0.21393398684E+04  0.21932454671E+04  0.12699999809E+01 0. -1.
</event>
<event>
 5   0  0.9353994E-08  0.3199639E+04  0.7818609E-02  0.8188912E-01
        2   -1    0    0  501    0  0.00000000000E+00  0.00000000000E+00  0.28008308899E+04  0.28008308899E+04  0.25500000920E-02 0. -1.
       -2   -1    0    0    0  501  0.00000000000E+00  0.00000000000E+00 -0.91380832819E+03  0.91380832819E+03  0.25500000920E-02 0.  1.
    10030    2    1    2    0    0  0.00000000000E+00  0.00000000000E+00  0.18870225617E+04  0.37146392181E+04  0.31996391003E+04 0.  0.
        2    1    3    3  502    0 -0.10522609173E+04  0.14613312181E+03  0.23322077642E+04  0.25627721285E+04  0.25500000920E-02 0. -1.
       -2    1    3    3    0  502  0.10522609173E+04 -0.14613312181E+03 -0.44518520248E+03  0.11518670895E+04  0.25500000920E-02 0.  1.
</event>
<event>
 5   0  0.9157524E-08  0.3199329E+04  0.7818609E-02  0.8188995E-01
        2   -1    0    0  501    0  0.00000000000E+00  0.00000000000E+00  0.25624567977E+04  0.25624567977E+04  0.25500000920E-02 0.  1.
       -2   -1    0    0    0  501  0.00000000000E+00  0.00000000000E+00 -0.99862199470E+03  0.99862199470E+03  0.25500000920E-02 0. -1.
    10030    2    1    2    0    0  0.00000000000E+00  0.00000000000E+00  0.15638348030E+04  0.35610787924E+04  0.31993285037E+04 0.  0.
        5    1    3    3  502    0 -0.56722387019E+03 -0.52531831159E+03  0.23406938769E+04  0.24650704174E+04  0.46999998093E+01 0.  1.
       -5    1    3    3    0  502  0.56722387019E+03  0.52531831159E+03 -0.77685907389E+03  0.10960083750E+04  0.46999998093E+01 0. -1.
</event>
<event>
 5   0  0.3343140E-08  0.3199687E+04  0.7818609E-02  0.8188900E-01
        1   -1    0    0  501    0  0.00000000000E+00  0.00000000000E+00  0.25168255837E+04  0.25168255837E+04  0.50400001928E-02 0.  1.
       -1   -1    0    0    0  501  0.00000000000E+00  0.00000000000E+00 -0.10169553378E+04  0.10169553378E+04  0.50400001928E-02 0. -1.
    10030    2    1    2    0    0  0.00000000000E+00  0.00000000000E+00  0.14998702459E+04  0.35337809215E+04  0.31996869920E+04 0.  0.
        1    1    3    3  502    0 -0.15848995606E+04 -0.10316508385E+03  0.96222865392E+03  0.18569958627E+04  0.50400001928E-02 0.  1.
       -1    1    3    3    0  502  0.15848995606E+04  0.10316508385E+03  0.53764159200E+03  0.16767850588E+04  0.50400001928E-02 0. -1.
</event>
<event>
 5   0  0.3427667E-08  0.3195236E+04  0.7818609E-02  0.8190077E-01
        1   -1    0    0  501    0  0.00000000000E+00  0.00000000000E+00  0.19103031268E+04  0.19103031268E+04  0.50400001928E-02 0. -1.
       -1   -1    0    0    0  501  0.00000000000E+00  0.00000000000E+00 -0.13361141498E+04  0.13361141498E+04  0.50400001928E-02 0.  1.
    10030    2    1    2    0    0  0.00000000000E+00  0.00000000000E+00  0.57418897704E+03  0.32464172766E+04  0.31952358524E+04 0.  0.
        2    1    3    3  502    0  0.14797589950E+03 -0.92391355409E+03 -0.10285880381E+04  0.13905058340E+04  0.25500000920E-02 0.  1.
       -2    1    3    3    0  502 -0.14797589950E+03  0.92391355409E+03  0.16027770152E+04  0.18559114426E+04  0.25500000920E-02 0. -1.
</event>
<event>
 5   0  0.9727083E-08  0.3199180E+04  0.7818609E-02  0.8189034E-01
       -2   -1    0    0    0  501  0.00000000000E+00  0.00000000000E+00  0.13344114354E+04  0.13344114354E+04  0.25500000920E-02 0.  1.
        2   -1    0    0  501    0  0.00000000000E+00  0.00000000000E+00 -0.19174653679E+04  0.19174653679E+04  0.25500000920E-02 0. -1.
    10030    2    1    2    0    0  0.00000000000E+00  0.00000000000E+00 -0.58305393258E+03  0.32518768033E+04  0.31991797161E+04 0.  0.
        4    1    3    3  502    0 -0.64151618816E+03 -0.13031243509E+04  0.38959275756E+03  0.15038152225E+04  0.12699999809E+01 0.  1.
       -4    1    3    3    0  502  0.64151618816E+03  0.13031243509E+04 -0.97264669014E+03  0.17480615808E+04  0.12699999809E+01 0. -1.
</event>
<event>
 5   0  0.3080500E-08  0.3201134E+04  0.7818609E-02  0.8188518E-01
       -3   -1    0    0    0  501  0.00000000000E+00  0.00000000000E+00  0.16810522924E+04  0.16810522954E+04  0.10100000352E+00 0.  1.
        3   -1    0    0  501    0  0.00000000000E+00  0.00000000000E+00 -0.15239350413E+04  0.15239350447E+04  0.10100000352E+00 0. -1.
    10030    2    1    2    0    0  0.00000000000E+00  0.00000000000E+00  0.15711725107E+03  0.32049873401E+04  0.32011338647E+04 0.  0.
        4    1    3    3  502    0 -0.91090325747E+03 -0.13097883007E+04 -0.50136978104E+02  0.15961846593E+04  0.12699999809E+01 0. -1.
       -4    1    3    3    0  502  0.91090325747E+03  0.13097883007E+04  0.20725422917E+03  0.16088026807E+04  0.12699999809E+01 0.  1.
</event>
<event>
 5   0  0.9727083E-08  0.3200452E+04  0.7818609E-02  0.8188698E-01
        2   -1    0    0  501    0  0.00000000000E+00  0.00000000000E+00  0.20269089397E+04  0.20269089397E+04  0.25500000920E-02 0.  1.
       -2   -1    0    0    0  501  0.00000000000E+00  0.00000000000E+00 -0.12633633987E+04  0.12633633987E+04  0.25500000920E-02 0. -1.
    10030    2    1    2    0    0  0.00000000000E+00  0.00000000000E+00  0.76354554101E+03  0.32902723384E+04  0.32004515725E+04 0.  0.
        4    1    3    3  502    0 -0.40557923654E+03  0.91473478945E+03 -0.90206877108E+03  0.13472059727E+04  0.12699999809E+01 0. -1.
       -4    1    3    3    0  502  0.40557923654E+03 -0.91473478945E+03  0.16656143121E+04  0.19430663657E+04  0.12699999809E+01 0.  1.
</event>
<event>
 5   0  0.9727083E-08  0.3200058E+04  0.7818609E-02  0.8188802E-01
       -2   -1    0    0    0  501  0.00000000000E+00  0.00000000000E+00  0.13957529976E+04  0.13957529976E+04  0.25500000920E-02 0.  1.
        2   -1    0    0  501    0  0.00000000000E+00  0.00000000000E+00 -0.18342013453E+04  0.18342013453E+04  0.25500000920E-02 0. -1.
    10030    2    1    2    0    0  0.00000000000E+00  0.00000000000E+00 -0.43844834768E+03  0.32299543428E+04  0.32000575156E+04 0.  0.
        4    1    3    3  502    0 -0.35076457702E+03  0.68069024046E+02 -0.17934172291E+04  0.18286651282E+04  0.12699999809E+01 0. -1.
       -4    1    3    3    0  502  0.35076457702E+03 -0.68069024046E+02  0.13549688814E+04  0.14012892146E+04  0.12699999809E+01 0.  1.
</event>
<event>
 5   0  0.9707721E-08  0.3195497E+04  0.7818609E-02  0.8190008E-01
        2   -1    0    0  501    0  0.00000000000E+00  0.00000000000E+00  0.14026513048E+04  0.14026513048E+04  0.25500000920E-02 0. -1.
       -2   -1    0    0    0  501  0.00000000000E+00  0.00000000000E+00 -0.18199816269E+04  0.18199816269E+04  0.25500000920E-02 0.  1.
    10030    2    1    2    0    0  0.00000000000E+00  0.00000000000E+00 -0.41733032213E+03  0.32226329317E+04  0.31954965835E+04 0.  0.
        3    1    3    3  502    0  0.14815822558E+04 -0.48909530413E+03  0.13849553647E+03  0.15663592248E+04  0.10100000352E+00 0.  1.
       -3    1    3    3    0  502 -0.14815822558E+04  0.48909530413E+03 -0.55582585860E+03  0.16562737070E+04  0.10100000352E+00 0. -1.
</event>
<event>
 5   0  0.3427667E-08  0.3194928E+04  0.7818609E-02  0.8190158E-01
        1   -1    0    0  501    0  0.00000000000E+00  0.00000000000E+00  0.23663141176E+04  0.23663141176E+04  0.50400001928E-02 0. -1.
       -1   -1    0    0    0  501  0.00000000000E+00  0.00000000000E+00 -0.10784246218E+04  0.10784246218E+04  0.50400001928E-02 0.  1.
    10030    2    1    2    0    0  0.00000000000E+00  0.00000000000E+00  0.12878894958E+04  0.34447387394E+04  0.31949281102E+04 0.  0.
        2    1    3    3  502    0  0.96558472910E+02 -0.13879450140E+04  0.14902903982E+04  0.20387938522E+04  0.25500000920E-02 0.  1.
       -2    1    3    3    0  502 -0.96558472910E+02  0.13879450140E+04 -0.20240090245E+03  0.14059448872E+04  0.25500000920E-02 0. -1.
</event>
<event>
 5   0  0.3343140E-08  0.3199770E+04  0.7818609E-02  0.8188878E-01
        1   -1    0    0  501    0  0.00000000000E+00  0.00000000000E+00  0.22385222440E+04  0.22385222440E+04  0.50400001928E-02 0.  1.
       -1   -1    0    0    0  501  0.00000000000E+00  0.00000000000E+00 -0.11434469961E+04  0.11434469961E+04  0.50400001928E-02 0. -1.
    10030    2    1    2    0    0  0.00000000000E+00  0.00000000000E+00  0.10950752479E+04  0.33819692401E+04  0.31997697015E+04 0.  0.
        1    1    3    3  502    0  0.56220167616E+03 -0.14974419007E+04  0.51049088477E+03  0.16789889559E+04  0.50400001928E-02 0.  1.
       -1    1    3    3    0  502 -0.56220167616E+03  0.14974419007E+04  0.58458436317E+03  0.17029802842E+04  0.50400001928E-02 0. -1.
</event>
<event>
 5   0  0.3283581E-08  0.3203253E+04  0.7818609E-02  0.8187959E-01
       -1   -1    0    0    0  501  0.00000000000E+00  0.00000000000E+00  0.19284752110E+04  0.19284752110E+04  0.50400001928E-02 0. -1.
        1   -1    0    0  501    0  0.00000000000E+00  0.00000000000E+00 -0.13301740261E+04  0.13301740261E+04  0.50400001928E-02 0.  1.
    10030    2    1    2    0    0  0.00000000000E+00  0.00000000000E+00  0.59830118489E+03  0.32586492372E+04  0.32032531188E+04 0.  0.
        5    1    3    3  502    0  0.52751728049E+03  0.11309933982E+03  0.18332482564E+04  0.19109911569E+04  0.46999998093E+01 0. -1.
       -5    1    3    3    0  502 -0.52751728049E+03 -0.11309933982E+03 -0.12349470715E+04  0.13476580803E+04  0.46999998093E+01 0.  1.
</event>
<event>
 5   0  0.9329929E-08  0.3199972E+04  0.7818609E-02  0.8188825E-01
        2   -1    0    0  501    0  0.00000000000E+00  0.00000000000E+00  0.19027312920E+04  0.19027312920E+04  0.25500000920E-02 0.  1.
       -2   -1    0    0    0  501  0.00000000000E+00  0.00000000000E+00 -0.13454108112E+04  0.13454108112E+04  0.25500000920E-02 0. -1.
    10030    2    1    2    0    0  0.00000000000E+00  0.00000000000E+00  0.55732048084E+03  0.32481421032E+04  0.31999720318E+04 0.  0.
        1    1    3    3  502    0 -0.26299677498E+03  0.85481150339E+03 -0.10679927165E+04  0.13930105716E+04  0.50400001928E-02 0. -1.
       -1    1    3    3    0  502  0.26299677498E+03 -0.85481150339E+03  0.16253131974E+04  0.18551315316E+04  0.50400001928E-02 0.  1.
</event>
<event>
 5   0  0.9157524E-08  0.3203817E+04  0.7818609E-02  0.8187810E-01
        2   -1    0    0  501    0  0.00000000000E+00  0.00000000000E+00  0.22879748923E+04  0.22879748923E+04  0.25500000920E-02 0. -1.
       -2   -1    0    0    0  501  0.00000000000E+00  0.00000000000E+00 -0.11215645588E+04  0.11215645588E+04  0.25500000920E-02 0.  1.
    10030    2    1    2    0    0  0.00000000000E+00  0.00000000000E+00  0.11664103335E+04  0.34095394511E+04  0.32038174422E+04 0.  0.
        5    1    3    3  502    0 -0.11432119528E+04  0.33379933251E+02  0.17768509606E+04  0.21131183628E+04  0.46999998093E+01 0. -1.
       -5    1    3    3    0  502  0.11432119528E+04 -0.33379933251E+02 -0.61044062715E+03  0.12964210883E+04  0.46999998093E+01 0.  1.
</event>
<event>
 5   0  0.9727083E-08  0.3200411E+04  0.7818609E-02  0.8188709E-01
        2   -1    0    0  501    0  0.00000000000E+00  0.00000000000E+00  0.15588127525E+04  0.15588127525E+04  0.25500000920E-02 0.  1.
       -2   -1    0    0    0  501  0.00000000000E+00  0.00000000000E+00 -0.16426974080E+04  0.16426974080E+04  0.25500000920E-02 0. -1.
    10030    2    1    2    0    0  0.00000000000E+00  0.00000000000E+00 -0.83884655472E+02  0.32015101605E+04  0.32004110162E+04 0.  0.
        4    1    3    3  502    0  0.56601447352E+01  0.14666718368E+04 -0.68208220621E+03  0.16175277627E+04  0.12699999809E+01 0. -1.
       -4    1    3    3    0  502 -0.56601447352E+01 -0.14666718368E+04  0.59819755074E+03  0.15839823978E+04  0.12699999809E+01 0.  1.
</event>
<event>
 5   0  0.3283581E-08  0.3199550E+04  0.7818609E-02  0.8188936E-01
       -1   -1    0    0    0  501  0.00000000000E+00  0.00000000000E+00  0.15746183343E+04  0.15746183343E+04  0.50400001928E-02 0.  1.
        1   -1    0    0  501    0  0.00000000000E+00  0.00000000000E+00 -0.16253333398E+04  0.16253333398E+04  0.50400001928E-02 0. -1.
    10030    2    1    2    0    0  0.00000000000E+00  0.00000000000E+00 -0.50715005551E+02  0.31999516741E+04  0.31995497659E+04 0.  0.
        5    1    3    3  502    0 -0.96460577689E+02 -0.46117452224E+03  0.15036481309E+04  0.15757431182E+04  0.46999998093E+01 0.  1.
       -5    1    3    3    0  502  0.96460577689E+02  0.46117452224E+03 -0.15543631365E+04  0.16242085559E+04  0.46999998093E+01 0. -1.
</event>
<event>
 5   0  0.3270966E-08  0.3206196E+04  0.7818609E-02  0.8187183E-01
        1   -1    0    0  501    0  0.00000000000E+00  0.00000000000E+00  0.21226979183E+04  0.21226979183E+04  0.50400001928E-02 0. -1.
       -1   -1    0    0    0  501  0.00000000000E+00  0.00000000000E+00 -0.12106870160E+04  0.12106870160E+04  0.50400001928E-02 0.  1.
    10030    2    1    2    0    0  0.00000000000E+00  0.00000000000E+00  0.91201090226E+03  0.33333849343E+04  0.32061957573E+04 0.  0.
        3    1    3    3  502    0  0.10994869132E+04 -0.43962361491E+03  0.15795140393E+04  0.19740833330E+04  0.10100000352E+00 0. -1.
       -3    1    3    3    0  502 -0.10994869132E+04  0.43962361491E+03 -0.66750313704E+03  0.13593016013E+04  0.10100000352E+00 0.  1.
</event>
<event>
 5   0  0.3427667E-08  0.3198873E+04  0.7818609E-02  0.8189115E-01
        1   -1    0    0  501    0  0.00000000000E+00  0.00000000000E+00  0.16235355124E+04  0.16235355124E+04  0.50400001928E-02 0. -1.
       -1   -1    0    0    0  501  0.00000000000E+00  0.00000000000E+00 -0.15756956232E+04  0.15756956232E+04  0.50400001928E-02 0.  1.
    10030    2    1    2    0    0  0.00000000000E+00  0.00000000000E+00  0.47839889216E+02  0.31992311356E+04  0.31988734273E+04 0.  0.
        2    1    3    3  502    0 -0.41224845575E+03  0.63795321997E+03  0.14316513921E+04  0.16206661620E+04  0.25500000920E-02 0. -1.
       -2    1    3    3    0  502  0.41224845575E+03 -0.63795321997E+03 -0.13838115029E+04  0.15785649736E+04  0.25500000920E-02 0.  1.
</event>
<event>
 5   0  0.3427667E-08  0.3197504E+04  0.7818609E-02  0.8189477E-01
        1   -1    0    0  501    0  0.00000000000E+00  0.00000000000E+00  0.31221953850E+04  0.31221953850E+04  0.50400001928E-02 0.  1.
       -1   -1    0    0    0  501  0.00000000000E+00  0.00000000000E+00 -0.81865711579E+03  0.81865711581E+03  0.50400001928E-02 0. -1.
    10030    2    1    2    0    0  0.00000000000E+00  0.00000000000E+00  0.23035382693E+04  0.39408525009E+04  0.31975036944E+04 0.  0.
        2    1    3    3  502    0  0.14421051292E+04  0.89674303872E+02  0.30835545511E+03  0.14774274165E+04  0.25500000920E-02 0. -1.
       -2    1    3    3    0  502 -0.14421051292E+04 -0.89674303872E+02  0.19951828141E+04  0.24634250843E+04  0.25500000920E-02 0.  1.
</event>
<event>
 5   0  0.3283581E-08  0.3193802E+04  0.7818609E-02  0.8190456E-01
        1   -1    0    0  501    0  0.00000000000E+00  0.00000000000E+00  0.15797960531E+04  0.15797960531E+04  0.50400001928E-02 0. -1.
       -1   -1    0    0    0  501  0.00000000000E+00  0.00000000000E+00 -0.16141910334E+04  0.16141910334E+04  0.50400001928E-02 0.  1.
    10030    2    1    2    0    0  0.00000000000E+00  0.00000000000E+00 -0.34394980309E+02  0.31939870864E+04  0.31938018870E+04 0.  0.
        5    1    3    3  502    0  0.97506947738E+03  0.20052616738E+03  0.12315138954E+04  0.15835465873E+04  0.46999998093E+01 0. -1.
       -5    1    3    3    0  502 -0.97506947738E+03 -0.20052616738E+03 -0.12659088758E+04  0.16104404991E+04  0.46999998093E+01 0.  1.
</event>
<event>
 5   0  0.9329929E-08  0.3200481E+04  0.7818609E-02  0.8188690E-01
       -2   -1    0    0    0  501  0.00000000000E+00  0.00000000000E+00  0.16801097971E+04  0.16801097971E+04  0.25500000920E-02 0.  1.
        2   -1    0    0  501    0  0.00000000000E+00  0.00000000000E+00 -0.15241681226E+04  0.15241681226E+04  0.25500000920E-02 0. -1.
    10030    2    1    2    0    0  0.00000000000E+00  0.00000000000E+00  0.15594167452E+03  0.32042779197E+04  0.32004810858E+04 0.  0.
        1    1    3    3  502    0 -0.23529229731E+03  0.55806101042E+03  0.15609353997E+04  0.16743099709E+04  0.50400001928E-02 0.  1.
       -1    1    3    3    0  502  0.23529229731E+03 -0.55806101042E+03 -0.14049937252E+04  0.15299679488E+04  0.50400001928E-02 0. -1.
</event>
<event>
 5   0  0.3220147E-08  0.3196166E+04  0.7818609E-02  0.8189830E-01
       -1   -1    0    0    0  501  0.00000000000E+00  0.00000000000E+00  0.19854993502E+04  0.19854993502E+04  0.50400001928E-02 0. -1.
        1   -1    0    0  501    0  0.00000000000E+00  0.00000000000E+00 -0.12862607449E+04  0.12862607449E+04  0.50400001928E-02 0.  1.
    10030    2    1    2    0    0  0.00000000000E+00  0.00000000000E+00  0.69923860528E+03  0.32717600952E+04  0.31961663744E+04 0.  0.
        4    1    3    3  502    0 -0.41932427179E+02 -0.50721080261E+03  0.19003234685E+04  0.19672956119E+04  0.12699999809E+01 0. -1.
       -4    1    3    3    0  502  0.41932427179E+02  0.50721080261E+03 -0.12010848632E+04  0.13044644833E+04  0.12699999809E+01 0.  1.
</event>
<event>
 5   0  0.3343140E-08  0.3200088E+04  0.7818609E-02  0.8188794E-01
        1   -1    0    0  501    0  0.00000000000E+00  0.00000000000E+00  0.18161397889E+04  0.18161397889E+04  0.50400001928E-02 0.  1.
       -1   -1    0    0    0  501  0.00000000000E+00  0.00000000000E+00 -0.14096602598E+04  0.14096602598E+04  0.50400001928E-02 0. -1.
    10030    2    1    2    0    0  0.00000000000E+00  0.00000000000E+00  0.40647952902E+03  0.32258000487E+04  0.32000875530E+04 0.  0.
        1    1    3    3  502    0  0.15889157648E+04 -0.38642377909E+01  0.13386756069E+02  0.15889768548E+04  0.50400001928E-02 0. -1.
       -1    1    3    3    0  502 -0.15889157648E+04  0.38642377909E+01  0.39309277295E+03  0.16368231939E+04  0.50400001928E-02 0.  1.
</event>
<event>
 5   0  0.9727083E-08  0.3201988E+04  0.7818609E-02  0.8188292E-01
        2   -1    0    0  501    0  0.00000000000E+00  0.00000000000E+00  0.19740400964E+04  0.19740400964E+04  0.25500000920E-02 0.  1.
       -2   -1    0    0    0  501  0.00000000000E+00  0.00000000000E+00 -0.12984448227E+04  0.12984448227E+04  0.25500000920E-02 0. -1.
    10030    2    1    2    0    0  0.00000000000E+00  0.00000000000E+00  0.67559527370E+03  0.32724849191E+04  0.32019882217E+04 0.  0.
        4    1    3    3  502    0  0.40023569119E+03  0.15419518167E+04  0.17499031706E+03  0.16026313480E+04  0.12699999809E+01 0.  1.
       -4    1    3    3    0  502 -0.40023569119E+03 -0.15419518167E+04  0.50060495663E+03  0.16698535711E+04  0.12699999809E+01 0. -1.
</event>
<event>
 5   0  0.3283581E-08  0.3200716E+04  0.7818609E-02  0.8188628E-01
        1   -1    0    0  501    0  0.00000000000E+00  0.00000000000E+00  0.22989438011E+04  0.22989438011E+04  0.50400001928E-02 0. -1.
       -1   -1    0    0    0  501  0.00000000000E+00  0.00000000000E+00 -0.11140530655E+04  0.11140530655E+04  0.50400001928E-02 0.  1.
    10030    2    1    2    0    0  0.00000000000E+00  0.00000000000E+00  0.11848907356E+04  0.34129968666E+04  0.32007157881E+04 0.  0.
        5    1    3    3  502    0  0.13178534549E+04  0.32411779423E+03 -0.31194064683E+03  0.13925225781E+04  0.46999998093E+01 0.  1.
       -5    1    3    3    0  502 -0.13178534549E+04 -0.32411779423E+03  0.14968313825E+04  0.20204742886E+04  0.46999998093E+01 0. -1.
</event>
<event>
 5   0  0.3283581E-08  0.3200205E+04  0.7818609E-02  0.8188763E-01
        1   -1    0    0  501    0  0.00000000000E+00  0.00000000000E+00  0.19197570465E+04  0.19197570465E+04  0.50400001928E-02 0.  1.
       -1   -1    0    0    0  501  0.00000000000E+00  0.00000000000E+00 -0.13336732008E+04  0.13336732008E+04  0.50400001928E-02 0. -1.
    10030    2    1    2    0    0  0.00000000000E+00  0.00000000000E+00  0.58608384575E+03  0.32534302473E+04  0.32002053215E+04 0.  0.
        5    1    3    3  502    0 -0.32061706567E+03  0.37749275354E+01 -0.13006711854E+04  0.13396182946E+04  0.46999998093E+01 0. -1.
       -5    1    3    3    0  502  0.32061706567E+03 -0.37749275354E+01  0.18867550311E+04  0.19138119527E+04  0.46999998093E+01 0.  1.
</event>
<event>
 5   0  0.3220147E-08  0.3200443E+04  0.7818609E-02  0.8188700E-01
        1   -1    0    0  501    0  0.00000000000E+00  0.00000000000E+00  0.18226296259E+04  0.18226296260E+04  0.50400001928E-02 0. -1.
       -1   -1    0    0    0  501  0.00000000000E+00  0.00000000000E+00 -0.14049525646E+04  0.14049525646E+04  0.50400001928E-02 0.  1.
    10030    2    1    2    0    0  0.00000000000E+00  0.00000000000E+00  0.41767706139E+03  0.32275821905E+04  0.32004425739E+04 0.  0.
        4    1    3    3  502    0 -0.10576518728E+04 -0.49551538242E+02 -0.10011792930E+04  0.14572043195E+04  0.12699999809E+01 0.  1.
       -4    1    3    3    0  502  0.10576518728E+04  0.49551538242E+02  0.14188563544E+04  0.17703778711E+04  0.12699999809E+01 0. -1.
</event>
<event>
 5   0  0.9329929E-08  0.3199266E+04  0.7818609E-02  0.8189011E-01
        2   -1    0    0  501    0  0.00000000000E+00  0.00000000000E+00  0.11126451906E+04  0.11126451906E+04  0.25500000920E-02 0.  1.
       -2   -1    0    0    0  501  0.00000000000E+00  0.00000000000E+00 -0.22997674661E+04  0.22997674661E+04  0.25500000920E-02 0. -1.
    10030    2    1    2    0    0  0.00000000000E+00  0.00000000000E+00 -0.11871222755E+04  0.34124126566E+04  0.31992656723E+04 0.  0.
        1    1    3    3  502    0  0.15869224803E+04 -0.12028018739E+03 -0.42145774471E+03  0.16463343866E+04  0.50400001928E-02 0.  1.
       -1    1    3    3    0  502 -0.15869224803E+04  0.12028018739E+03 -0.76566453080E+03  0.17660782700E+04  0.50400001928E-02 0. -1.
</event>
<event>
 5   0  0.3220147E-08  0.3205982E+04  0.7818609E-02  0.8187239E-01
        1   -1    0    0  501    0  0.00000000000E+00  0.00000000000E+00  0.26434670985E+04  0.26434670985E+04  0.50400001928E-02 0.  1.
       -1   -1    0    0    0  501  0.00000000000E+00  0.00000000000E+00 -0.97204902602E+03  0.97204902604E+03  0.50400001928E-02 0. -1.
    10030    2    1    2    0    0  0.00000000000E+00  0.00000000000E+00  0.16714180725E+04  0.36155161245E+04  0.32059816709E+04 0.  0.
        4    1    3    3  502    0 -0.15534804311E+03 -0.83163253564E+03 -0.69977212334E+03  0.10979200000E+04  0.12699999809E+01 0. -1.
       -4    1    3    3    0  502  0.15534804311E+03  0.83163253564E+03  0.23711901958E+04  0.25175961246E+04  0.12699999809E+01 0.  1.
</event>
<event>
 5   0  0.9329929E-08  0.3203533E+04  0.7818609E-02  0.8187885E-01
        2   -1    0    0  501    0  0.00000000000E+00  0.00000000000E+00  0.18358486822E+04  0.18358486822E+04  0.25500000920E-02 0. -1.
       -2   -1    0    0    0  501  0.00000000000E+00  0.00000000000E+00 -0.13975313759E+04  0.13975313759E+04  0.25500000920E-02 0.  1.
    10030    2    1    2    0    0  0.00000000000E+00  0.00000000000E+00  0.43831730627E+03  0.32333800580E+04  0.32035331337E+04 0.  0.
        1    1    3    3  502    0  0.16145777924E+03  0.21461952411E+03  0.18129610808E+04  0.18327460368E+04  0.50400001928E-02 0. -1.
       -1    1    3    3    0  502 -0.16145777924E+03 -0.21461952411E+03 -0.13746437746E+04  0.14006340213E+04  0.50400001928E-02 0.  1.
</event>
<event>
 5   0  0.9707721E-08  0.3200442E+04  0.7818609E-02  0.8188701E-01
        2   -1    0    0  501    0  0.00000000000E+00  0.00000000000E+00  0.17612104855E+04  0.17612104855E+04  0.25500000920E-02 0. -1.
       -2   -1    0    0    0  501  0.00000000000E+00  0.00000000000E+00 -0.14539469546E+04  0.14539469546E+04  0.25500000920E-02 0.  1.
    10030    2    1    2    0    0  0.00000000000E+00  0.00000000000E+00  0.30726353088E+03  0.32151574400E+04  0.32004416081E+04 0.  0.
        3    1    3    3  502    0 -0.69881292639E+03 -0.12464404684E+04 -0.56992524827E+03  0.15384304164E+04  0.10100000352E+00 0.  1.
       -3    1    3    3    0  502  0.69881292639E+03  0.12464404684E+04  0.87718877915E+03  0.16767270236E+04  0.10100000352E+00 0. -1.
</event>
<event>
 5   0  0.9707721E-08  0.3199993E+04  0.7818609E-02  0.8188819E-01
       -2   -1    0    0    0  501  0.00000000000E+00  0.00000000000E+00  0.13518614441E+04  0.13518614441E+04  0.25500000920E-02 0.  1.
        2   -1    0    0  501    0  0.00000000000E+00  0.00000000000E+00 -0.18936772468E+04  0.18936772468E+04  0.25500000920E-02 0. -1.
    10030    2    1    2    0    0  0.00000000000E+00  0.00000000000E+00 -0.54181580265E+03  0.32455386909E+04  0.31999932860E+04 0.  0.
        3    1    3    3  502    0 -0.79893991828E+03  0.71395345789E+03 -0.14760773332E+04  0.18239624001E+04  0.10100000352E+00 0.  1.
       -3    1    3    3    0  502  0.79893991828E+03 -0.71395345789E+03  0.93426153056E+03  0.14215762909E+04  0.10100000352E+00 0. -1.
</event>
<event>
 5   0  0.3343140E-08  0.3200161E+04  0.7818609E-02  0.8188775E-01
        1   -1    0    0  501    0  0.00000000000E+00  0.00000000000E+00  0.23122948333E+04  0.23122948333E+04  0.50400001928E-02 0. -1.
       -1   -1    0    0    0  501  0.00000000000E+00  0.00000000000E+00 -0.11072367038E+04  0.11072367038E+04  0.50400001928E-02 0.  1.
    10030    2    1    2    0    0  0.00000000000E+00  0.00000000000E+00  0.12050581294E+04  0.34195315371E+04  0.32001610644E+04 0.  0.
        1    1    3    3  502    0  0.43172315758E+03  0.88416298269E+03  0.19508207444E+04  0.21849097559E+04  0.50400001928E-02 0. -1.
       -1    1    3    3    0  502 -0.43172315758E+03 -0.88416298269E+03 -0.74576261492E+03  0.12346217812E+04  0.50400001928E-02 0.  1.
</event>
<event>
 5   0  0.3283581E-08  0.3199440E+04  0.7818609E-02  0.8188965E-01
       -1   -1    0    0    0  501  0.00000000000E+00  0.00000000000E+00  0.16117180623E+04  0.16117180623E+04  0.50400001928E-02 0. -1.
        1   -1    0    0  501    0  0.00000000000E+00  0.00000000000E+00 -0.15878116678E+04  0.15878116678E+04  0.50400001928E-02 0.  1.
    10030    2    1    2    0    0  0.00000000000E+00  0.00000000000E+00  0.23906394550E+02  0.31995297301E+04  0.31994404164E+04 0.  0.
        5    1    3    3  502    0  0.73202377634E+03 -0.10646687594E+04  0.95522089611E+03  0.16068128164E+04  0.46999998093E+01 0. -1.
       -5    1    3    3    0  502 -0.73202377634E+03  0.10646687594E+04 -0.93131450156E+03  0.15927169137E+04  0.46999998093E+01 0.  1.
</event>
<event>
 5   0  0.9707721E-08  0.3193584E+04  0.7818609E-02  0.8190514E-01
       -2   -1    0    0    0  501  0.00000000000E+00  0.00000000000E+00  0.13972383286E+04  0.13972383286E+04  0.25500000920E-02 0.  1.
        2   -1    0    0  501    0  0.00000000000E+00  0.00000000000E+00 -0.18248461265E+04  0.18248461265E+04  0.25500000920E-02 0. -1.
    10030    2    1    2    0    0  0.00000000000E+00  0.00000000000E+00 -0.42760779783E+03  0.32220844551E+04  0.31935841631E+04 0.  0.
        3    1    3    3  502    0 -0.89505710152E+02  0.44109752840E+03  0.13319149956E+04  0.14059074889E+04  0.10100000352E+00 0.  1.
       -3    1    3    3    0  502  0.89505710152E+02 -0.44109752840E+03 -0.17595227934E+04  0.18161769662E+04  0.10100000352E+00 0. -1.
</event>
<event>
 5   0  0.3283581E-08  0.3200761E+04  0.7818609E-02  0.8188616E-01
        1   -1    0    0  501    0  0.00000000000E+00  0.00000000000E+00  0.18741344570E+04  0.18741344570E+04  0.50400001928E-02 0.  1.
       -1   -1    0    0    0  501  0.00000000000E+00  0.00000000000E+00 -0.13666134691E+04  0.13666134691E+04  0.50400001928E-02 0. -1.
    10030    2    1    2    0    0  0.00000000000E+00  0.00000000000E+00  0.50752098787E+03  0.32407479261E+04  0.32007607794E+04 0.  0.
        5    1    3    3  502    0 -0.67982359185E+03 -0.10561506939E+04  0.12579069915E+04  0.17776294590E+04  0.46999998093E+01 0. -1.
       -5    1    3    3    0  502  0.67982359185E+03  0.10561506939E+04 -0.75038600362E+03  0.14631184671E+04  0.46999998093E+01 0.  1.
</event>
<event>
 5   0  0.9353994E-08  0.3199440E+04  0.7818609E-02  0.8188965E-01
        2   -1    0    0  501    0  0.00000000000E+00  0.00000000000E+00  0.17496108552E+04  0.17496108552E+04  0.25500000920E-02 0.  1.
       -2   -1    0    0    0  501  0.00000000000E+00  0.00000000000E+00 -0.14626707655E+04  0.14626707655E+04  0.25500000920E-02 0. -1.
    10030    2    1    2    0    0  0.00000000000E+00  0.00000000000E+00  0.28694008969E+03  0.32122816206E+04  0.31994403566E+04 0.  0.
        2    1    3    3  502    0 -0.11914020606E+04 -0.98807623827E+02 -0.92376516028E+03  0.15108090176E+04  0.25500000920E-02 0. -1.
       -2    1    3    3    0  502  0.11914020606E+04  0.98807623827E+02  0.12107052500E+04  0.17014726030E+04  0.25500000920E-02 0.  1.
</event>
<event>
 5   0  0.3270966E-08  0.3200484E+04  0.7818609E-02  0.8188689E-01
       -1   -1    0    0    0  501  0.00000000000E+00  0.00000000000E+00  0.10128744545E+04  0.10128744546E+04  0.50400001928E-02 0.  1.
        1   -1    0    0  501    0  0.00000000000E+00  0.00000000000E+00 -0.25282248569E+04  0.25282248570E+04  0.50400001928E-02 0. -1.
    10030    2    1    2    0    0  0.00000000000E+00  0.00000000000E+00 -0.15153504024E+04  0.35410993115E+04  0.32004839465E+04 0.  0.
        3    1    3    3  502    0  0.10529287928E+04 -0.12003181691E+04 -0.63979218443E+03  0.17201037176E+04  0.10100000352E+00 0. -1.
       -3    1    3    3    0  502 -0.10529287928E+04  0.12003181691E+04 -0.87555821797E+03  0.18209955939E+04  0.10100000352E+00 0.  1.
</event>
<event>
 5   0  0.3343140E-08  0.3199817E+04  0.7818609E-02  0.8188865E-01
        1   -1    0    0  501    0  0.00000000000E+00  0.00000000000E+00  0.12155720539E+04  0.12155720539E+04  0.50400001928E-02 0. -1.
       -1   -1    0    0    0  501  0.00000000000E+00  0.00000000000E+00 -0.21057637124E+04  0.21057637124E+04  0.50400001928E-02 0.  1.
    10030    2    1    2    0    0  0.00000000000E+00  0.00000000000E+00 -0.89019165848E+03  0.33213357663E+04  0.31998171954E+04 0.  0.
        1    1    3    3  502    0  0.72414610534E+02  0.15055708133E+04  0.11167025152E+03  0.15114422235E+04  0.50400001928E-02 0. -1.
       -1    1    3    3    0  502 -0.72414610534E+02 -0.15055708133E+04 -0.10018619100E+04  0.18098935429E+04  0.50400001928E-02 0.  1.
</event>
<event>
 5   0  0.3220147E-08  0.3199865E+04  0.7818609E-02  0.8188853E-01
       -1   -1    0    0    0  501  0.00000000000E+00  0.00000000000E+00  0.13157453171E+04  0.13157453171E+04  0.50400001928E-02 0. -1.
        1   -1    0    0  501    0  0.00000000000E+00  0.00000000000E+00 -0.19455009788E+04  0.19455009788E+04  0.50400001928E-02 0.  1.
    10030    2    1    2    0    0  0.00000000000E+00  0.00000000000E+00 -0.62975566172E+03  0.32612462959E+04  0.31998648736E+04 0.  0.
        4    1    3    3  502    0 -0.29437930649E+03 -0.10789449760E+04 -0.14809405431E+04  0.18557930764E+04  0.12699999809E+01 0.  1.
       -4    1    3    3    0  502  0.29437930649E+03  0.10789449760E+04  0.85118488137E+03  0.14054532196E+04  0.12699999809E+01 0. -1.
</event>
<event>
 5   0  0.9727083E-08  0.3200534E+04  0.7818609E-02  0.8188676E-01
        2   -1    0    0  501    0  0.00000000000E+00  0.00000000000E+00  0.25646068608E+04  0.25646068608E+04  0.25500000920E-02 0.  1.
       -2   -1    0    0    0  501  0.00000000000E+00  0.00000000000E+00 -0.99853664201E+03  0.99853664201E+03  0.25500000920E-02 0. -1.
    10030    2    1    2    0    0  0.00000000000E+00  0.00000000000E+00  0.15660702188E+04  0.35631435029E+04  0.32005336573E+04 0.  0.
        4    1    3    3  502    0 -0.92091994590E+02 -0.42323119279E+03 -0.93203690600E+03  0.10277645572E+04  0.12699999809E+01 0. -1.
       -4    1    3    3    0  502  0.92091994590E+02  0.42323119279E+03  0.24981071248E+04  0.25353789456E+04  0.12699999809E+01 0.  1.
</event>
<event>
 5   0  0.3270966E-08  0.3188662E+04  0.7818609E-02  0.8191818E-01
        1   -1    0    0  501    0  0.00000000000E+00  0.00000000000E+00  0.18984725418E+04  0.18984725418E+04  0.50400001928E-02 0. -1.
       -1   -1    0    0    0  501  0.00000000000E+00  0.00000000000E+00 -0.13389136357E+04  0.13389136357E+04  0.50400001928E-02 0.  1.
    10030    2    1    2    0    0  0.00000000000E+00  0.00000000000E+00  0.55955890610E+03  0.32373861775E+04  0.31886616460E+04 0.  0.
        3    1    3    3  502    0 -0.27082025890E+03 -0.14227265095E+04 -0.39703769037E+03  0.15017101155E+04  0.10100000352E+00 0.  1.
       -3    1    3    3    0  502  0.27082025890E+03  0.14227265095E+04  0.95659659647E+03  0.17356760619E+04  0.10100000352E+00 0. -1.
</event>
<event>
 5   0  0.3283581E-08  0.3199824E+04  0.7818609E-02  0.8188864E-01
       -1   -1    0    0    0  501  0.00000000000E+00  0.00000000000E+00  0.10797869950E+04  0.10797869950E+04  0.50400001928E-02 0. -1.
        1   -1    0    0  501    0  0.00000000000E+00  0.00000000000E+00 -0.23705770171E+04  0.23705770171E+04  0.50400001928E-02 0.  1.
    10030    2    1    2    0    0  0.00000000000E+00  0.00000000000E+00 -0.12907900222E+04  0.34503640121E+04  0.31998238912E+04 0.  0.
        5    1    3    3  502    0 -0.56394710166E+03 -0.14938523907E+04 -0.53721615513E+03  0.16847120187E+04  0.46999998093E+01 0. -1.
       -5    1    3    3    0  502  0.56394710166E+03  0.14938523907E+04 -0.75357386703E+03  0.17656519934E+04  0.46999998093E+01 0.  1.
</event>
<event>
 5   0  0.3220147E-08  0.3199445E+04  0.7818609E-02  0.8188964E-01
        1   -1    0    0  501    0  0.00000000000E+00  0.00000000000E+00  0.12844421307E+04  0.12844421307E+04  0.50400001928E-02 0.  1.
       -1   -1    0    0    0  501  0.00000000000E+00  0.00000000000E+00 -0.19923921365E+04  0.19923921365E+04  0.50400001928E-02 0. -1.
    10030    2    1    2    0    0  0.00000000000E+00  0.00000000000E+00 -0.70795000580E+03  0.32768342671E+04  0.31994452024E+04 0.  0.
        4    1    3    3  502    0  0.12634404142E+04 -0.38734861551E+03 -0.12773306684E+04  0.18379052967E+04  0.12699999809E+01 0. -1.
       -4    1    3    3    0  502 -0.12634404142E+04  0.38734861551E+03  0.56938066262E+03  0.14389289705E+04  0.12699999809E+01 0.  1.
</event>
<event>
 5   0  0.9353994E-08  0.3210790E+04  0.7818609E-02  0.8185973E-01
        2   -1    0    0  501    0  0.00000000000E+00  0.00000000000E+00  0.98341363611E+03  0.98341363612E+03  0.25500000920E-02 0.  1.
       -2   -1    0    0    0  501  0.00000000000E+00  0.00000000000E+00 -0.26207627678E+04  0.26207627678E+04  0.25500000920E-02 0. -1.
    10030    2    1    2    0    0  0.00000000000E+00  0.00000000000E+00 -0.16373491317E+04  0.36041764040E+04  0.32107904590E+04 0.  0.
        2    1    3    3  502    0 -0.13269972121E+04 -0.72000130333E+03 -0.14314207452E+04  0.20804539955E+04  0.25500000920E-02 0. -1.
       -2    1    3    3    0  502  0.13269972121E+04  0.72000130333E+03 -0.20592838654E+03  0.15237224085E+04  0.25500000920E-02 0.  1.
</event>
<event>
 5   0  0.9727083E-08  0.3191775E+04  0.7818609E-02  0.8190993E-01
       -2   -1    0    0    0  501  0.00000000000E+00  0.00000000000E+00  0.14278097768E+04  0.14278097768E+04  0.25500000920E-02 0. -1.
        2   -1    0    0  501    0  0.00000000000E+00  0.00000000000E+00 -0.17837508871E+04  0.17837508871E+04  0.25500000920E-02 0.  1.
    10030    2    1    2    0    0  0.00000000000E+00  0.00000000000E+00 -0.35594111039E+03  0.32115606639E+04  0.31917750271E+04 0.  0.
        4    1    3    3  502    0 -0.69900354806E+02 -0.66222842625E+03 -0.16372791675E+04  0.17675172512E+04  0.12699999809E+01 0.  1.
       -4    1    3    3    0  502  0.69900354806E+02  0.66222842625E+03  0.12813380571E+04  0.14440434127E+04  0.12699999809E+01 0. -1.
</event>
<event>
 5   0  0.9727083E-08  0.3205805E+04  0.7818609E-02  0.8187286E-01
        2   -1    0    0  501    0  0.00000000000E+00  0.00000000000E+00  0.16246855995E+04  0.16246855995E+04  0.25500000920E-02 0. -1.
       -2   -1    0    0    0  501  0.00000000000E+00  0.00000000000E+00 -0.15814109787E+04  0.15814109787E+04  0.25500000920E-02 0.  1.
    10030    2    1    2    0    0  0.00000000000E+00  0.00000000000E+00  0.43274620833E+02  0.32060965782E+04  0.32058045130E+04 0.  0.
        4    1    3    3  502    0  0.25439847264E+03 -0.71160971111E+03  0.14353385426E+04  0.16221298680E+04  0.12699999809E+01 0. -1.
       -4    1    3    3    0  502 -0.25439847264E+03  0.71160971111E+03 -0.13920639218E+04  0.15839667102E+04  0.12699999809E+01 0.  1.
</event>
<event>
 5   0  0.3220147E-08  0.3195592E+04  0.7818609E-02  0.8189982E-01
        1   -1    0    0  501    0  0.00000000000E+00  0.00000000000E+00  0.16902415439E+04  0.16902415439E+04  0.50400001928E-02 0. -1.
       -1   -1    0    0    0  501  0.00000000000E+00  0.00000000000E+00 -0.15104063718E+04  0.15104063718E+04  0.50400001928E-02 0.  1.
    10030    2    1    2    0    0  0.00000000000E+00  0.00000000000E+00  0.17983517211E+03  0.32006479158E+04  0.31955917123E+04 0.  0.
        4    1    3    3  502    0  0.15244166078E+03  0.15882416176E+04  0.17490518320E+03  0.16050991658E+04  0.12699999809E+01 0.  1.
       -4    1    3    3    0  502 -0.15244166078E+03 -0.15882416176E+04  0.49299889083E+01  0.15955487500E+04  0.12699999809E+01 0. -1.
</event>
<event>
 5   0  0.9353994E-08  0.3203874E+04  0.7818609E-02  0.8187795E-01
        2   -1    0    0  501    0  0.00000000000E+00  0.00000000000E+00  0.28393002462E+04  0.28393002462E+04  0.25500000920E-02 0. -1.
       -2   -1    0    0    0  501  0.00000000000E+00  0.00000000000E+00 -0.90381493882E+03  0.90381493882E+03  0.25500000920E-02 0.  1.
    10030    2    1    2    0    0  0.00000000000E+00  0.00000000000E+00  0.19354853073E+04  0.37431151850E+04  0.32038738916E+04 0.  0.
        2    1    3    3  502    0  0.52433786811E+03  0.43475752635E+03  0.26616932936E+04  0.27474634658E+04  0.25500000920E-02 0. -1.
       -2    1    3    3    0  502 -0.52433786811E+03 -0.43475752635E+03 -0.72620798624E+03  0.99565171920E+03  0.25500000920E-02 0.  1.
</event>
<event>
 5   0  0.9727083E-08  0.3195476E+04  0.7818609E-02  0.8190013E-01
        2   -1    0    0  501    0  0.00000000000E+00  0.00000000000E+00  0.21512112288E+04  0.21512112288E+04  0.25500000920E-02 0.  1.
       -2   -1    0    0    0  501  0.00000000000E+00  0.00000000000E+00 -0.11866650130E+04  0.11866650130E+04  0.25500000920E-02 0. -1.
    10030    2    1    2    0    0  0.00000000000E+00  0.00000000000E+00  0.96454621574E+03  0.33378762418E+04  0.31954762405E+04 0.  0.
        4    1    3    3  502    0  0.72917477506E+03  0.11390866188E+04  0.13707973977E+04  0.19256950164E+04  0.12699999809E+01 0.  1.
       -4    1    3    3    0  502 -0.72917477506E+03 -0.11390866188E+04 -0.40625118193E+03  0.14121812254E+04  0.12699999809E+01 0. -1.
</event>
<event>
 5   0  0.9157524E-08  0.3197725E+04  0.7818609E-02  0.8189418E-01
        2   -1    0    0  501    0  0.00000000000E+00  0.00000000000E+00  0.19362796435E+04  0.19362796435E+04  0.25500000920E-02 0.  1.
       -2   -1    0    0    0  501  0.00000000000E+00  0.00000000000E+00 -0.13202438297E+04  0.13202438297E+04  0.25500000920E-02 0. -1.
    10030    2    1    2    0    0  0.00000000000E+00  0.00000000000E+00  0.61603581372E+03  0.32565234732E+04  0.31977249737E+04 0.  0.
        5    1    3    3  502    0  0.79364935713E+03 -0.10326197254E+04  0.12525175698E+04  0.18069325256E+04  0.46999998093E+01 0.  1.
       -5    1    3    3    0  502 -0.79364935713E+03  0.10326197254E+04 -0.63648175610E+03  0.14495909476E+04  0.46999998093E+01 0. -1.
</event>
<event>
 5   0  0.3427667E-08  0.3198594E+04  0.7818609E-02  0.8189189E-01
        1   -1    0    0  501    0  0.00000000000E+00  0.00000000000E+00  0.21407747204E+04  0.21407747204E+04  0.50400001928E-02 0. -1.
       -1   -1    0    0    0  501  0.00000000000E+00  0.00000000000E+00 -0.11947780481E+04  0.11947780481E+04  0.50400001928E-02 0.  1.
    10030    2    1    2    0    0  0.00000000000E+00  0.00000000000E+00  0.94599667235E+03  0.33355527685E+04  0.31985938422E+04 0.  0.
        2    1    3    3  502    0 -0.90835052635E+03 -0.68852436217E+02  0.18437828533E+04  0.20565448079E+04  0.25500000920E-02 0. -1.
       -2    1    3    3    0  502  0.90835052635E+03  0.68852436217E+02 -0.89778618093E+03  0.12790079606E+04  0.25500000920E-02 0.  1.
</event>
<event>
 5   0  0.9157524E-08  0.3201271E+04  0.7818609E-02  0.8188482E-01
       -2   -1    0    0    0  501  0.00000000000E+00  0.00000000000E+00  0.15272017406E+04  0.15272017406E+04  0.25500000920E-02 0.  1.
        2   -1    0    0  501    0  0.00000000000E+00  0.00000000000E+00 -0.16776000822E+04  0.16776000822E+04  0.25500000920E-02 0. -1.
    10030    2    1    2    0    0  0.00000000000E+00  0.00000000000E+00 -0.15039834161E+03  0.32048018228E+04  0.32012708512E+04 0.  0.
        5    1    3    3  502    0  0.94456891691E+02 -0.11131705406E+04  0.10723377769E+04  0.15485480795E+04  0.46999998093E+01 0.  1.
       -5    1    3    3    0  502 -0.94456891691E+02  0.11131705406E+04 -0.12227361185E+04  0.16562537433E+04  0.46999998093E+01 0. -1.
</event>
<event>
 5   0  0.3283581E-08  0.3203359E+04  0.7818609E-02  0.8187931E-01
        1   -1    0    0  501    0  0.00000000000E+00  0.00000000000E+00  0.16124257205E+04  0.16124257206E+04  0.50400001928E-02 0.  1.
       -1   -1    0    0    0  501  0.00000000000E+00  0.00000000000E+00 -0.15910049179E+04  0.15910049179E+04  0.50400001928E-02 0. -1.
    10030    2    1    2    0    0  0.00000000000E+00  0.00000000000E+00  0.21420802622E+02  0.32034306385E+04  0.32033590190E+04 0.  0.
        5    1    3    3  502    0  0.83751820178E+03 -0.13217280076E+04  0.35270269147E+03  0.16040021642E+04  0.46999998093E+01 0. -1.
       -5    1    3    3    0  502 -0.83751820178E+03  0.13217280076E+04 -0.33128188885E+03  0.15994284742E+04  0.46999998093E+01 0.  1.
</event>
<event>
 5   0  0.3427667E-08  0.3199723E+04  0.7818609E-02  0.8188890E-01
        1   -1    0    0  501    0  0.00000000000E+00  0.00000000000E+00  0.15589615530E+04  0.15589615530E+04  0.50400001928E-02 0.  1.
       -1   -1    0    0    0  501  0.00000000000E+00  0.00000000000E+00 -0.16418340875E+04  0.16418340875E+04  0.50400001928E-02 0. -1.
    10030    2    1    2    0    0  0.00000000000E+00  0.00000000000E+00 -0.82872534418E+02  0.32007956405E+04  0.31997226247E+04 0.  0.
        2    1    3    3  502    0  0.62216988932E+03  0.45470717535E+03 -0.14439414672E+04  0.16367104042E+04  0.25500000920E-02 0. -1.
       -2    1    3    3    0  502 -0.62216988932E+03 -0.45470717535E+03  0.13610689328E+04  0.15640852363E+04  0.25500000920E-02 0.  1.
</event>
<event>
 5   0  0.9329929E-08  0.3200542E+04  0.7818609E-02  0.8188674E-01
       -2   -1    0    0    0  501  0.00000000000E+00  0.00000000000E+00  0.30541586326E+04  0.30541586326E+04  0.25500000920E-02 0.  1.
        2   -1    0    0  501    0  0.00000000000E+00  0.00000000000E+00 -0.83848540042E+03  0.83848540042E+03  0.25500000920E-02 0. -1.
    10030    2    1    2    0    0  0.00000000000E+00  0.00000000000E+00  0.22156732322E+04  0.38926440330E+04  0.32005420941E+04 0.  0.
        1    1    3    3  502    0 -0.37515489884E+03  0.98670870810E+03  0.25706374289E+04  0.27789408169E+04  0.50400001928E-02 0.  1.
       -1    1    3    3    0  502  0.37515489884E+03 -0.98670870810E+03 -0.35496419669E+03  0.11137032162E+04  0.50400001928E-02 0. -1.
</event>
<event>
 5   0  0.3220147E-08  0.3212040E+04  0.7818609E-02  0.8185645E-01
        1   -1    0    0  501    0  0.00000000000E+00  0.00000000000E+00  0.11302847897E+04  0.11302847897E+04  0.50400001928E-02 0.  1.
       -1   -1    0    0    0  501  0.00000000000E+00  0.00000000000E+00 -0.22819920862E+04  0.22819920862E+04  0.50400001928E-02 0. -1.
    10030    2    1    2    0    0  0.00000000000E+00  0.00000000000E+00 -0.11517072965E+04  0.34122768759E+04  0.32120404389E+04 0.  0.
        4    1    3    3  502    0  0.41666119838E+03  0.81245396250E+03  0.82772591363E+03  0.12324040719E+04  0.12699999809E+01 0.  1.
       -4    1    3    3    0  502 -0.41666119838E+03 -0.81245396250E+03 -0.19794332101E+04  0.21798728040E+04  0.12699999809E+01 0. -1.
</event>
<event>
 5   0  0.9707721E-08  0.3200601E+04  0.7818609E-02  0.8188658E-01
        2   -1    0    0  501    0  0.00000000000E+00  0.00000000000E+00  0.25444650856E+04  0.25444650856E+04  0.25500000920E-02 0. -1.
       -2   -1    0    0    0  501  0.00000000000E+00  0.00000000000E+00 -0.10064832965E+04  0.10064832965E+04  0.25500000920E-02 0.  1.
    10030    2    1    2    0    0  0.00000000000E+00  0.00000000000E+00  0.15379817891E+04  0.35509483821E+04  0.32006009480E+04 0.  0.
        3    1    3    3  502    0  0.82427524397E+03 -0.65849164752E+03 -0.56602124118E+03  0.11972556049E+04  0.10100000352E+00 0.  1.
       -3    1    3    3    0  502 -0.82427524397E+03  0.65849164752E+03  0.21040030303E+04  0.23536927772E+04  0.10100000352E+00 0. -1.
</event>
<event>
 5   0  0.3283581E-08  0.3201025E+04  0.7818609E-02  0.8188547E-01
       -1   -1    0    0    0  501  0.00000000000E+00  0.00000000000E+00  0.15305104130E+04  0.15305104130E+04  0.50400001928E-02 0.  1.
        1   -1    0    0  501    0  0.00000000000E+00  0.00000000000E+00 -0.16737159730E+04  0.16737159730E+04  0.50400001928E-02 0. -1.
    10030    2    1    2    0    0  0.00000000000E+00  0.00000000000E+00 -0.14320556000E+03  0.32042263860E+04  0.32010246641E+04 0.  0.
        5    1    3    3  502    0 -0.86424370301E+03  0.13329433554E+04  0.12343169820E+03  0.15933965737E+04  0.46999998093E+01 0. -1.
       -5    1    3    3    0  502  0.86424370301E+03 -0.13329433554E+04 -0.26663725820E+03  0.16108298123E+04  0.46999998093E+01 0.  1.
</event>
<event>
 5   0  0.3270966E-08  0.3200418E+04  0.7818609E-02  0.8188707E-01
       -1   -1    0    0    0  501  0.00000000000E+00  0.00000000000E+00  0.85838786569E+03  0.85838786571E+03  0.50400001928E-02 0. -1.
        1   -1    0    0  501    0  0.00000000000E+00  0.00000000000E+00 -0.29831139642E+04  0.29831139642E+04  0.50400001928E-02 0.  1.
    10030    2    1    2    0    0  0.00000000000E+00  0.00000000000E+00 -0.21247260985E+04  0.38415018299E+04  0.32004179907E+04 0.  0.
        3    1    3    3  502    0 -0.38047558851E+03  0.75563909572E+03 -0.26927200873E+04  0.28224977582E+04  0.10100000352E+00 0.  1.
       -3    1    3    3    0  502  0.38047558851E+03 -0.75563909572E+03  0.56799398885E+03  0.10190040716E+04  0.10100000352E+00 0. -1.
</event>
<event>
 5   0  0.3080500E-08  0.3198365E+04  0.7818609E-02  0.8189249E-01
        3   -1    0    0  501    0  0.00000000000E+00  0.00000000000E+00  0.21724022654E+04  0.21724022678E+04  0.10100000352E+00 0.  1.
       -3   -1    0    0    0  501  0.00000000000E+00  0.00000000000E+00 -0.11772150869E+04  0.11772150913E+04  0.10100000352E+00 0. -1.
    10030    2    1    2    0    0  0.00000000000E+00  0.00000000000E+00  0.99518717851E+03  0.33496173590E+04  0.31983650404E+04 0.  0.
        5    1    3    3  502    0  0.13890295741E+04 -0.21695901089E+03  0.12957968053E+04  0.19119586347E+04  0.46999998093E+01 0.  1.
       -5    1    3    3    0  502 -0.13890295741E+04  0.21695901089E+03 -0.30060962676E+03  0.14376587244E+04  0.46999998093E+01 0. -1.
</event>
<event>
 5   0  0.9353994E-08  0.3201506E+04  0.7818609E-02  0.8188420E-01
        2   -1    0    0  501    0  0.00000000000E+00  0.00000000000E+00  0.27253965350E+04  0.27253965350E+04  0.25500000920E-02 0. -1.
       -2   -1    0    0    0  501  0.00000000000E+00  0.00000000000E+00 -0.94019713862E+03  0.94019713862E+03  0.25500000920E-02 0.  1.
    10030    2    1    2    0    0  0.00000000000E+00  0.00000000000E+00  0.17851993964E+04  0.36655936736E+04  0.32015059106E+04 0.  0.
        2    1    3    3  502    0 -0.79111638183E+03  0.30349867184E+03  0.24475678891E+04  0.25900897948E+04  0.25500000920E-02 0. -1.
       -2    1    3    3    0  502  0.79111638183E+03 -0.30349867184E+03 -0.66236849266E+03  0.10755038789E+04  0.25500000920E-02 0.  1.
</event>
<event>
 5   0  0.9157524E-08  0.3200913E+04  0.7818609E-02  0.8188576E-01
        2   -1    0    0  501    0  0.00000000000E+00  0.00000000000E+00  0.17102375453E+04  0.17102375453E+04  0.25500000920E-02 0. -1.
       -2   -1    0    0    0  501  0.00000000000E+00  0.00000000000E+00 -0.14977220292E+04  0.14977220292E+04  0.25500000920E-02 0.  1.
    10030    2    1    2    0    0  0.00000000000E+00  0.00000000000E+00  0.21251551608E+03  0.32079595745E+04  0.32009126491E+04 0.  0.
        5    1    3    3  502    0  0.97015643656E+03 -0.11439999446E+03 -0.11642664106E+04  0.15198122368E+04  0.46999998093E+01 0.  1.
       -5    1    3    3    0  502 -0.97015643656E+03  0.11439999446E+03  0.13767819267E+04  0.16881473377E+04  0.46999998093E+01 0. -1.
</event>
<event>
 5   0  0.3220147E-08  0.3216396E+04  0.7818609E-02  0.8184500E-01
       -1   -1    0    0    0  501  0.00000000000E+00  0.00000000000E+00  0.13602756742E+04  0.13602756742E+04  0.50400001928E-02 0. -1.
        1   -1    0    0  501    0  0.00000000000E+00  0.00000000000E+00 -0.19013062870E+04  0.19013062870E+04  0.50400001928E-02 0.  1.
    10030    2    1    2    0    0  0.00000000000E+00  0.00000000000E+00 -0.54103061279E+03  0.32615819612E+04  0.32163959280E+04 0.  0.
        4    1    3    3  502    0 -0.13861888123E+04  0.58863757532E+02 -0.10951524366E+04  0.17675816353E+04  0.12699999809E+01 0.  1.
       -4    1    3    3    0  502  0.13861888123E+04 -0.58863757532E+02  0.55412182378E+03  0.14940003259E+04  0.12699999809E+01 0. -1.
</event>
<event>
 5   0  0.9727083E-08  0.3198760E+04  0.7818609E-02  0.8189145E-01
       -2   -1    0    0    0  501  0.00000000000E+00  0.00000000000E+00  0.97490807503E+03  0.97490807503E+03  0.25500000920E-02 0. -1.
        2   -1    0    0  501    0  0.00000000000E+00  0.00000000000E+00 -0.26238536500E+04  0.26238536500E+04  0.25500000920E-02 0.  1.
    10030    2    1    2    0    0  0.00000000000E+00  0.00000000000E+00 -0.16489455750E+04  0.35987617251E+04  0.31987598291E+04 0.  0.
        4    1    3    3  502    0  0.11628834819E+04 -0.19241534444E+03 -0.20407194214E+04  0.23566626884E+04  0.12699999809E+01 0.  1.
       -4    1    3    3    0  502 -0.11628834819E+04  0.19241534444E+03  0.39177384643E+03  0.12420990366E+04  0.12699999809E+01 0. -1.
</event>
<event>
 5   0  0.3283581E-08  0.3209516E+04  0.7818609E-02  0.8186309E-01
        1   -1    0    0  501    0  0.00000000000E+00  0.00000000000E+00  0.14369491444E+04  0.14369491444E+04  0.50400001928E-02 0. -1.
       -1   -1    0    0    0  501  0.00000000000E+00  0.00000000000E+00 -0.17921636063E+04  0.17921636063E+04  0.50400001928E-02 0.  1.
    10030    2    1    2    0    0  0.00000000000E+00  0.00000000000E+00 -0.35521446185E+03  0.32291127507E+04  0.32095158269E+04 0.  0.
        5    1    3    3  502    0  0.61130441362E+03  0.13603515083E+04  0.41844283923E+03  0.15489886417E+04  0.46999998093E+01 0.  1.
       -5    1    3    3    0  502 -0.61130441362E+03 -0.13603515083E+04 -0.77365730108E+03  0.16801241091E+04  0.46999998093E+01 0. -1.
</event>
<event>
 5   0  0.9353994E-08  0.3204560E+04  0.7818609E-02  0.8187614E-01
       -2   -1    0    0    0  501  0.00000000000E+00  0.00000000000E+00  0.16054209707E+04  0.16054209707E+04  0.25500000920E-02 0. -1.
        2   -1    0    0  501    0  0.00000000000E+00  0.00000000000E+00 -0.15991450121E+04  0.15991450121E+04  0.25500000920E-02 0.  1.
    10030    2    1    2    0    0  0.00000000000E+00  0.00000000000E+00  0.62759585601E+01  0.32045659828E+04  0.32045598372E+04 0.  0.
        2    1    3    3  502    0  0.10172630768E+04 -0.20261646883E+03 -0.12181028066E+04  0.15998912614E+04  0.25500000920E-02 0.  1.
       -2    1    3    3    0  502 -0.10172630768E+04  0.20261646883E+03  0.12243787651E+04  0.16046747214E+04  0.25500000920E-02 0. -1.
</event>
<event>
 5   0  0.9707721E-08  0.3200768E+04  0.7818609E-02  0.8188615E-01
       -2   -1    0    0    0  501  0.00000000000E+00  0.00000000000E+00  0.11411212557E+04  0.11411212557E+04  0.25500000920E-02 0. -1.
        2   -1    0    0  501    0  0.00000000000E+00  0.00000000000E+00 -0.22444837943E+04  0.22444837943E+04  0.25500000920E-02 0.  1.
    10030    2    1    2    0    0  0.00000000000E+00  0.00000000000E+00 -0.11033625386E+04  0.33856050499E+04  0.32007675115E+04 0.  0.
        3    1    3    3  502    0  0.10081482185E+04 -0.11962827675E+03  0.75691762429E+03  0.12663325216E+04  0.10100000352E+00 0. -1.
       -3    1    3    3    0  502 -0.10081482185E+04  0.11962827675E+03 -0.18602801629E+04  0.21192725284E+04  0.10100000352E+00 0.  1.
</event>
<event>
 5   0  0.3427667E-08  0.3210255E+04  0.7818609E-02  0.8186114E-01
        1   -1    0    0  501    0  0.00000000000E+00  0.00000000000E+00  0.82034852926E+03  0.82034852928E+03  0.50400001928E-02 0. -1.
       -1   -1    0    0    0  501  0.00000000000E+00  0.00000000000E+00 -0.31406588179E+04  0.31406588179E+04  0.50400001928E-02 0.  1.
    10030    2    1    2    0    0  0.00000000000E+00  0.00000000000E+00 -0.23203102886E+04  0.39610073472E+04  0.32102553432E+04 0.  0.
        2    1    3    3  502    0  0.33941012824E+03 -0.86241949816E+03  0.45684636325E+03  0.10332837101E+04  0.25500000920E-02 0. -1.
       -2    1    3    3    0  502 -0.33941012824E+03  0.86241949816E+03 -0.27771566519E+04  0.29277236371E+04  0.25500000920E-02 0.  1.
</event>
<event>
 5   0  0.3283581E-08  0.3198676E+04  0.7818609E-02  0.8189167E-01
        1   -1    0    0  501    0  0.00000000000E+00  0.00000000000E+00  0.12085063304E+04  0.12085063304E+04  0.50400001928E-02 0.  1.
       -1   -1    0    0    0  501  0.00000000000E+00  0.00000000000E+00 -0.21165650543E+04  0.21165650543E+04  0.50400001928E-02 0. -1.
    10030    2    1    2    0    0  0.00000000000E+00  0.00000000000E+00 -0.90805872392E+03  0.33250713847E+04  0.31986761429E+04 0.  0.
        5    1    3    3  502    0 -0.76110469886E+02  0.15961024160E+04 -0.52395132968E+03  0.16816309975E+04  0.46999998093E+01 0. -1.
       -5    1    3    3    0  502  0.76110469886E+02 -0.15961024160E+04 -0.38410739425E+03  0.16434403872E+04  0.46999998093E+01 0.  1.
</event>
<event>
 5   0  0.9707721E-08  0.3198052E+04  0.7818609E-02  0.8189332E-01
       -2   -1    0    0    0  501  0.00000000000E+00  0.00000000000E+00  0.13085834898E+04  0.13085834898E+04  0.25500000920E-02 0. -1.
        2   -1    0    0  501    0  0.00000000000E+00  0.00000000000E+00 -0.19539330782E+04  0.19539330782E+04  0.25500000920E-02 0.  1.
    10030    2    1    2    0    0  0.00000000000E+00  0.00000000000E+00 -0.64534958835E+03  0.32625165680E+04  0.31980522612E+04 0.  0.
        3    1    3    3  502    0  0.53216204339E+03  0.96113059140E+03  0.86260411913E+03  0.13968014643E+04  0.10100000352E+00 0. -1.
       -3    1    3    3    0  502 -0.53216204339E+03 -0.96113059140E+03 -0.15079537075E+04  0.18657151037E+04  0.10100000352E+00 0.  1.
</event>
<event>
 5   0  0.9707721E-08  0.3199798E+04  0.7818609E-02  0.8188870E-01
        2   -1    0    0  501    0  0.00000000000E+00  0.00000000000E+00  0.20446607179E+04  0.20446607179E+04  0.25500000920E-02 0. -1.
       -2   -1    0    0    0  501  0.00000000000E+00  0.00000000000E+00 -0.12518836164E+04  0.12518836164E+04  0.25500000920E-02 0.  1.
    10030    2    1    2    0    0  0.00000000000E+00  0.00000000000E+00  0.79277710145E+03  0.32965443343E+04  0.31997982773E+04 0.  0.
        3    1    3    3  502    0 -0.10847649313E+04  0.11745278407E+04  0.33590542731E+03  0.16337267431E+04  0.10100000352E+00 0. -1.
       -3    1    3    3    0  502  0.10847649313E+04 -0.11745278407E+04  0.45687167413E+03  0.16628175912E+04  0.10100000352E+00 0.  1.
</event>
<event>
 5   0  0.9353994E-08  0.3199286E+04  0.7818609E-02  0.8189006E-01
       -2   -1    0    0    0  501  0.00000000000E+00  0.00000000000E+00  0.13395317715E+04  0.13395317715E+04  0.25500000920E-02 0. -1.
        2   -1    0    0  501    0  0.00000000000E+00  0.00000000000E+00 -0.19102623084E+04  0.19102623084E+04  0.25500000920E-02 0.  1.
    10030    2    1    2    0    0  0.00000000000E+00  0.00000000000E+00 -0.57073053689E+03  0.32497940798E+04  0.31992855789E+04 0.  0.
        2    1    3    3  502    0 -0.11133826276E+04 -0.11121697870E+04  0.60693383353E+01  0.15737151418E+04  0.25500000920E-02 0. -1.
       -2    1    3    3    0  502  0.11133826276E+04  0.11121697870E+04 -0.57679987523E+03  0.16760789381E+04  0.25500000920E-02 0.  1.
</event>
<event>
 5   0  0.3343140E-08  0.3199775E+04  0.7818609E-02  0.8188877E-01
       -1   -1    0    0    0  501  0.00000000000E+00  0.00000000000E+00  0.95044963724E+03  0.95044963725E+03  0.50400001928E-02 0.  1.
        1   -1    0    0  501    0  0.00000000000E+00  0.00000000000E+00 -0.26930833729E+04  0.26930833730E+04  0.50400001928E-02 0. -1.
    10030    2    1    2    0    0  0.00000000000E+00  0.00000000000E+00 -0.17426337357E+04  0.36435330102E+04  0.31997750639E+04 0.  0.
        1    1    3    3  502    0 -0.55604993134E+03 -0.66935953896E+03 -0.24000427516E+04  0.25529275211E+04  0.50400001928E-02 0. -1.
       -1    1    3    3    0  502  0.55604993134E+03  0.66935953896E+03  0.65740901592E+03  0.10906054891E+04  0.50400001928E-02 0.  1.
</event>
<event>
 5   0  0.9727083E-08  0.3198810E+04  0.7818609E-02  0.8189131E-01
       -2   -1    0    0    0  501  0.00000000000E+00  0.00000000000E+00  0.13012196775E+04  0.13012196775E+04  0.25500000920E-02 0.  1.
        2   -1    0    0  501    0  0.00000000000E+00  0.00000000000E+00 -0.19659220845E+04  0.19659220845E+04  0.25500000920E-02 0. -1.
    10030    2    1    2    0    0  0.00000000000E+00  0.00000000000E+00 -0.66470240699E+03  0.32671417621E+04  0.31988100918E+04 0.  0.
        4    1    3    3  502    0  0.49121691592E+03 -0.13153181017E+04  0.45000052146E+03  0.14744008442E+04  0.12699999809E+01 0.  1.
       -4    1    3    3    0  502 -0.49121691592E+03  0.13153181017E+04 -0.11147029285E+04  0.17927409179E+04  0.12699999809E+01 0. -1.
</event>
<event>
 5   0  0.9707721E-08  0.3198913E+04  0.7818609E-02  0.8189104E-01
        2   -1    0    0  501    0  0.00000000000E+00  0.00000000000E+00  0.20382209310E+04  0.20382209310E+04  0.25500000920E-02 0. -1.
       -2   -1    0    0    0  501  0.00000000000E+00  0.00000000000E+00 -0.12551438086E+04  0.12551438086E+04  0.25500000920E-02 0.  1.
    10030    2    1    2    0    0  0.00000000000E+00  0.00000000000E+00  0.78307712244E+03  0.32933647397E+04  0.31989125541E+04 0.  0.
        3    1    3    3  502    0  0.11610444763E+04  0.70261495940E+03 -0.47995917528E+03  0.14394627043E+04  0.10100000352E+00 0.  1.
       -3    1    3    3    0  502 -0.11610444763E+04 -0.70261495940E+03  0.12630362977E+04  0.18539020353E+04  0.10100000352E+00 0. -1.
</event>
<event>
 5   0  0.3427667E-08  0.3203171E+04  0.7818609E-02  0.8187980E-01
        1   -1    0    0  501    0  0.00000000000E+00  0.00000000000E+00  0.14365656902E+04  0.14365656902E+04  0.50400001928E-02 0.  1.
       -1   -1    0    0    0  501  0.00000000000E+00  0.00000000000E+00 -0.17855612198E+04  0.17855612198E+04  0.50400001928E-02 0. -1.
    10030    2    1    2    0    0  0.00000000000E+00  0.00000000000E+00 -0.34899552961E+03  0.32221269100E+04  0.32031709203E+04 0.  0.
        2    1    3    3  502    0  0.89681179211E+03 -0.54763425658E+03  0.10413325542E+04  0.14793742454E+04  0.25500000920E-02 0.  1.
       -2    1    3    3    0  502 -0.89681179211E+03  0.54763425658E+03 -0.13903280838E+04  0.17427526646E+04  0.25500000920E-02 0. -1.
</event>
<event>
 5   0  0.3343140E-08  0.3200329E+04  0.7818609E-02  0.8188730E-01
        1   -1    0    0  501    0  0.00000000000E+00  0.00000000000E+00  0.26343821829E+04  0.26343821829E+04  0.50400001928E-02 0. -1.
       -1   -1    0    0    0  501  0.00000000000E+00  0.00000000000E+00 -0.97196471088E+03  0.97196471090E+03  0.50400001928E-02 0.  1.
    10030    2    1    2    0    0  0.00000000000E+00  0.00000000000E+00  0.16624174720E+04  0.36063468938E+04  0.32003290561E+04 0.  0.
        1    1    3    3  502    0 -0.52327770252E+03 -0.71962940882E+03  0.23299173326E+04  0.24940330424E+04  0.50400001928E-02 0. -1.
       -1    1    3    3    0  502  0.52327770252E+03  0.71962940882E+03 -0.66749986059E+03  0.11123138514E+04  0.50400001928E-02 0.  1.
</event>
<event>
 5   0  0.9329929E-08  0.3201567E+04  0.7818609E-02  0.8188404E-01
       -2   -1    0    0    0  501  0.00000000000E+00  0.00000000000E+00  0.17128055852E+04  0.17128055852E+04  0.25500000920E-02 0.  1.
        2   -1    0    0  501    0  0.00000000000E+00  0.00000000000E+00 -0.14960875864E+04  0.14960875864E+04  0.25500000920E-02 0. -1.
    10030    2    1    2    0    0  0.00000000000E+00  0.00000000000E+00  0.21671799876E+03  0.32088931716E+04  0.32015666002E+04 0.  0.
        1    1    3    3  502    0 -0.14549955295E+01  0.20664415073E+03 -0.14826624495E+04  0.14969942756E+04  0.50400001928E-02 0. -1.
       -1    1    3    3    0  502  0.14549955295E+01 -0.20664415073E+03  0.16993804483E+04  0.17118988960E+04  0.50400001928E-02 0.  1.
</event>
<event>
 5   0  0.3283581E-08  0.3203612E+04  0.7818609E-02  0.8187864E-01
        1   -1    0    0  501    0  0.00000000000E+00  0.00000000000E+00  0.18016403627E+04  0.18016403627E+04  0.50400001928E-02 0. -1.
       -1   -1    0    0    0  501  0.00000000000E+00  0.00000000000E+00 -0.14241372474E+04  0.14241372474E+04  0.50400001928E-02 0.  1.
    10030    2    1    2    0    0  0.00000000000E+00  0.00000000000E+00  0.37750311521E+03  0.32257776101E+04  0.32036124278E+04 0.  0.
        5    1    3    3  502    0 -0.11758637783E+04  0.52812533752E+03  0.11462191371E+04  0.17249383750E+04  0.46999998093E+01 0. -1.
       -5    1    3    3    0  502  0.11758637783E+04 -0.52812533752E+03 -0.76871602186E+03  0.15008392351E+04  0.46999998093E+01 0.  1.
</event>
<event>
 5   0  0.3343140E-08  0.3215673E+04  0.7818609E-02  0.8184690E-01
       -1   -1    0    0    0  501  0.00000000000E+00  0.00000000000E+00  0.14087175538E+04  0.14087175538E+04  0.50400001928E-02 0.  1.
        1   -1    0    0  501    0  0.00000000000E+00  0.00000000000E+00 -0.18351000077E+04  0.18351000078E+04  0.50400001928E-02 0. -1.
    10030    2    1    2    0    0  0.00000000000E+00  0.00000000000E+00 -0.42638245397E+03  0.32438175615E+04  0.32156726163E+04 0.  0.
        1    1    3    3  502    0  0.63341818040E+03 -0.13294667980E+04  0.43777621276E+03  0.15363425955E+04  0.50400001928E-02 0.  1.
       -1    1    3    3    0  502 -0.63341818040E+03  0.13294667980E+04 -0.86415866673E+03  0.17074749660E+04  0.50400001928E-02 0. -1.
</event>
<event>
 5   0  0.9707721E-08  0.3199896E+04  0.7818609E-02  0.8188845E-01
        2   -1    0    0  501    0  0.00000000000E+00  0.00000000000E+00  0.22393285171E+04  0.22393285171E+04  0.25500000920E-02 0.  1.
       -2   -1    0    0    0  501  0.00000000000E+00  0.00000000000E+00 -0.11431252032E+04  0.11431252032E+04  0.25500000920E-02 0. -1.
    10030    2    1    2    0    0  0.00000000000E+00  0.00000000000E+00  0.10962033139E+04  0.33824537203E+04  0.31998955397E+04 0.  0.
        3    1    3    3  502    0 -0.26047401301E+03 -0.80540648065E+01 -0.11205405374E+04  0.11504445600E+04  0.10100000352E+00 0. -1.
       -3    1    3    3    0  502  0.26047401301E+03  0.80540648065E+01  0.22167438513E+04  0.22320091604E+04  0.10100000352E+00 0.  1.
</event>
<event>
 5   0  0.3343140E-08  0.3200235E+04  0.7818609E-02  0.8188755E-01
        1   -1    0    0  501    0  0.00000000000E+00  0.00000000000E+00  0.20181671023E+04  0.20181671023E+04  0.50400001928E-02 0.  1.
       -1   -1    0    0    0  501  0.00000000000E+00  0.00000000000E+00 -0.12686641662E+04  0.12686641662E+04  0.50400001928E-02 0. -1.
    10030    2    1    2    0    0  0.00000000000E+00  0.00000000000E+00  0.74950293608E+03  0.32868312685E+04  0.32002351690E+04 0.  0.
        1    1    3    3  502    0 -0.14354059425E+04 -0.25514771330E+03  0.10520546008E+04  0.17978624693E+04  0.50400001928E-02 0.  1.
       -1    1    3    3    0  502  0.14354059425E+04  0.25514771330E+03 -0.30255166472E+03  0.14889687993E+04  0.50400001928E-02 0. -1.
</event>
<event>
 5   0  0.3343140E-08  0.3199624E+04  0.7818609E-02  0.8188917E-01
       -1   -1    0    0    0  501  0.00000000000E+00  0.00000000000E+00  0.18288304815E+04  0.18288304816E+04  0.50400001928E-02 0. -1.
        1   -1    0    0  501    0  0.00000000000E+00  0.00000000000E+00 -0.13994725850E+04  0.13994725850E+04  0.50400001928E-02 0.  1.
    10030    2    1    2    0    0  0.00000000000E+00  0.00000000000E+00  0.42935789656E+03  0.32283030666E+04  0.31996238039E+04 0.  0.
        1    1    3    3  502    0  0.15497093615E+04  0.30333095840E+03  0.47347232903E+03  0.16485705390E+04  0.50400001928E-02 0. -1.
       -1    1    3    3    0  502 -0.15497093615E+04 -0.30333095840E+03 -0.44114432466E+02  0.15797325276E+04  0.50400001928E-02 0.  1.
</event>
<event>
 5   0  0.3427667E-08  0.3200259E+04  0.7818609E-02  0.8188749E-01
       -1   -1    0    0    0  501  0.00000000000E+00  0.00000000000E+00  0.82844865940E+03  0.82844865942E+03  0.50400001928E-02 0. -1.
        1   -1    0    0  501    0  0.00000000000E+00  0.00000000000E+00 -0.30906138180E+04  0.30906138180E+04  0.50400001928E-02 0.  1.
    10030    2    1    2    0    0  0.00000000000E+00  0.00000000000E+00 -0.22621651586E+04  0.39190624774E+04  0.32002592859E+04 0.  0.
        2    1    3    3  502    0  0.87731064549E+03 -0.13497089130E+03  0.49931324302E+03  0.10184325333E+04  0.25500000920E-02 0. -1.
       -2    1    3    3    0  502 -0.87731064549E+03  0.13497089130E+03 -0.27614784016E+04  0.29006299441E+04  0.25500000920E-02 0.  1.
</event>
<event>
 5   0  0.9329929E-08  0.3199318E+04  0.7818609E-02  0.8188997E-01
        2   -1    0    0  501    0  0.00000000000E+00  0.00000000000E+00  0.17355704810E+04  0.17355704810E+04  0.25500000920E-02 0.  1.
       -2   -1    0    0    0  501  0.00000000000E+00  0.00000000000E+00 -0.14743909836E+04  0.14743909836E+04  0.25500000920E-02 0. -1.
    10030    2    1    2    0    0  0.00000000000E+00  0.00000000000E+00  0.26117949743E+03  0.32099614646E+04  0.31993183452E+04 0.  0.
        1    1    3    3  502    0  0.83103633634E+03 -0.79477257749E+03  0.12463253935E+04  0.16957629047E+04  0.50400001928E-02 0.  1.
       -1    1    3    3    0  502 -0.83103633634E+03  0.79477257749E+03 -0.98514589608E+03  0.15141985599E+04  0.50400001928E-02 0. -1.
</event>
<event>
 5   0  0.3080500E-08  0.3200720E+04  0.7818609E-02  0.8188627E-01
       -3   -1    0    0    0  501  0.00000000000E+00  0.00000000000E+00  0.13458230742E+04  0.13458230780E+04  0.10100000352E+00 0.  1.
        3   -1    0    0  501    0  0.00000000000E+00  0.00000000000E+00 -0.19030378550E+04  0.19030378577E+04  0.10100000352E+00 0. -1.
    10030    2    1    2    0    0  0.00000000000E+00  0.00000000000E+00 -0.55721478080E+03  0.32488609357E+04  0.32007200858E+04 0.  0.
        5    1    3    3  502    0 -0.15244206597E+04  0.41732066622E+03 -0.53361357936E+03  0.16681667867E+04  0.46999998093E+01 0. -1.
       -5    1    3    3    0  502  0.15244206597E+04 -0.41732066622E+03 -0.23601201438E+02  0.15806941491E+04  0.46999998093E+01 0.  1.
</event>
<event>
 5   0  0.9707721E-08  0.3199832E+04  0.7818609E-02  0.8188861E-01
        2   -1    0    0  501    0  0.00000000000E+00  0.00000000000E+00  0.18437929796E+04  0.18437929796E+04  0.25500000920E-02 0.  1.
       -2   -1    0    0    0  501  0.00000000000E+00  0.00000000000E+00 -0.13882965981E+04  0.13882965981E+04  0.25500000920E-02 0. -1.
    10030    2    1    2    0    0  0.00000000000E+00  0.00000000000E+00  0.45549638155E+03  0.32320895777E+04  0.31998321963E+04 0.  0.
        3    1    3    3  502    0  0.39120082451E+03  0.11065033303E+04  0.13260661249E+04  0.17708300548E+04  0.10100000352E+00 0.  1.
       -3    1    3    3    0  502 -0.39120082451E+03 -0.11065033303E+04 -0.87056974336E+03  0.14612595229E+04  0.10100000352E+00 0. -1.
</event>
<event>
 5   0  0.9353994E-08  0.3208595E+04  0.7818609E-02  0.8186551E-01
       -2   -1    0    0    0  501  0.00000000000E+00  0.00000000000E+00  0.17188544106E+04  0.17188544106E+04  0.25500000920E-02 0. -1.
        2   -1    0    0  501    0  0.00000000000E+00  0.00000000000E+00 -0.14973756431E+04  0.14973756431E+04  0.25500000920E-02 0.  1.
    10030    2    1    2    0    0  0.00000000000E+00  0.00000000000E+00  0.22147876746E+03  0.32162300537E+04  0.32085951621E+04 0.  0.
        2    1    3    3  502    0  0.14092029062E+04 -0.76589401143E+03  0.14721637322E+03  0.16106269363E+04  0.25500000920E-02 0.  1.
       -2    1    3    3    0  502 -0.14092029062E+04  0.76589401143E+03  0.74262394243E+02  0.16056031174E+04  0.25500000920E-02 0. -1.
</event>
<event>
 5   0  0.9727083E-08  0.3199988E+04  0.7818609E-02  0.8188820E-01
       -2   -1    0    0    0  501  0.00000000000E+00  0.00000000000E+00  0.12556447639E+04  0.12556447639E+04  0.25500000920E-02 0. -1.
        2   -1    0    0  501    0  0.00000000000E+00  0.00000000000E+00 -0.20387776475E+04  0.20387776475E+04  0.25500000920E-02 0.  1.
    10030    2    1    2    0    0  0.00000000000E+00  0.00000000000E+00 -0.78313288362E+03  0.32944224114E+04  0.31999877986E+04 0.  0.
        4    1    3    3  502    0  0.89164139732E+03  0.21184805879E+03 -0.17417867585E+04  0.19681785250E+04  0.12699999809E+01 0.  1.
       -4    1    3    3    0  502 -0.89164139732E+03 -0.21184805879E+03  0.95865387486E+03  0.13262438864E+04  0.12699999809E+01 0. -1.
</event>
<event>
 5   0  0.9707721E-08  0.3199282E+04  0.7818609E-02  0.8189007E-01
        2   -1    0    0  501    0  0.00000000000E+00  0.00000000000E+00  0.24044646134E+04  0.24044646134E+04  0.25500000920E-02 0. -1.
       -2   -1    0    0    0  501  0.00000000000E+00  0.00000000000E+00 -0.10642086497E+04  0.10642086497E+04  0.25500000920E-02 0.  1.
    10030    2    1    2    0    0  0.00000000000E+00  0.00000000000E+00  0.13402559637E+04  0.34686732630E+04  0.31992824442E+04 0.  0.
        3    1    3    3  502    0 -0.45923549283E+03 -0.15030087750E+04  0.34682545045E+03  0.16094162043E+04  0.10100000352E+00 0.  1.
       -3    1    3    3    0  502  0.45923549283E+03  0.15030087750E+04  0.99343051328E+03  0.18592570587E+04  0.10100000352E+00 0. -1.
</event>
<event>
 5   0  0.3343140E-08  0.3185157E+04  0.7818609E-02  0.8192748E-01
        1   -1    0    0  501    0  0.00000000000E+00  0.00000000000E+00  0.16709176361E+04  0.16709176361E+04  0.50400001928E-02 0. -1.
       -1   -1    0    0    0  501  0.00000000000E+00  0.00000000000E+00 -0.15179121415E+04  0.15179121415E+04  0.50400001928E-02 0.  1.
    10030    2    1    2    0    0  0.00000000000E+00  0.00000000000E+00  0.15300549459E+03  0.31888297777E+04  0.31851569301E+04 0.  0.
        1    1    3    3  502    0 -0.79973939080E+03  0.96157392593E+01  0.14552729219E+04  0.16605706347E+04  0.50400001928E-02 0. -1.
       -1    1    3    3    0  502  0.79973939080E+03 -0.96157392593E+01 -0.13022674273E+04  0.15282591429E+04  0.50400001928E-02 0.  1.
</event>
<event>
 5   0  0.3080500E-08  0.3200169E+04  0.7818609E-02  0.8188772E-01
        3   -1    0    0  501    0  0.00000000000E+00  0.00000000000E+00  0.16972691157E+04  0.16972691187E+04  0.10100000352E+00 0.  1.
       -3   -1    0    0    0  501  0.00000000000E+00  0.00000000000E+00 -0.15084649037E+04  0.15084649071E+04  0.10100000352E+00 0. -1.
    10030    2    1    2    0    0  0.00000000000E+00  0.00000000000E+00  0.18880421194E+03  0.32057340258E+04  0.32001693102E+04 0.  0.
        3    1    3    3  502    0 -0.66607424377E+03 -0.12019698005E+04  0.91551311000E+03  0.16512269875E+04  0.10100000352E+00 0. -1.
       -3    1    3    3    0  502  0.66607424377E+03  0.12019698005E+04 -0.72670889806E+03  0.15545070383E+04  0.10100000352E+00 0.  1.
</event>
<event>
 5   0  0.9727083E-08  0.3199978E+04  0.7818609E-02  0.8188823E-01
       -2   -1    0    0    0  501  0.00000000000E+00  0.00000000000E+00  0.15286935489E+04  0.15286935489E+04  0.25500000920E-02 0. -1.
        2   -1    0    0  501    0  0.00000000000E+00  0.00000000000E+00 -0.16746094877E+04  0.16746094877E+04  0.25500000920E-02 0.  1.
    10030    2    1    2    0    0  0.00000000000E+00  0.00000000000E+00 -0.14591593879E+03  0.32033030367E+04  0.31999779505E+04 0.  0.
        4    1    3    3  502    0  0.53251941073E+02  0.42513659196E+03  0.14701970366E+04  0.15313581653E+04  0.12699999809E+01 0. -1.
       -4    1    3    3    0  502 -0.53251941073E+02 -0.42513659196E+03 -0.16161129754E+04  0.16719448714E+04  0.12699999809E+01 0.  1.
</event>
<event>
 5   0  0.9353994E-08  0.3200042E+04  0.7818609E-02  0.8188806E-01
        2   -1    0    0  501    0  0.00000000000E+00  0.00000000000E+00  0.11622022508E+04  0.11622022508E+04  0.25500000920E-02 0.  1.
       -2   -1    0    0    0  501  0.00000000000E+00  0.00000000000E+00 -0.22027731306E+04  0.22027731306E+04  0.25500000920E-02 0. -1.
    10030    2    1    2    0    0  0.00000000000E+00  0.00000000000E+00 -0.10405708798E+04  0.33649753814E+04  0.32000424313E+04 0.  0.
        2    1    3    3  502    0 -0.13497137781E+04 -0.31773473849E+03  0.31922704015E+03  0.14228803709E+04  0.25500000920E-02 0.  1.
       -2    1    3    3    0  502  0.13497137781E+04  0.31773473849E+03 -0.13597979199E+04  0.19420950105E+04  0.25500000920E-02 0. -1.
</event>
<event>
 5   0  0.3427667E-08  0.3197698E+04  0.7818609E-02  0.8189425E-01
        1   -1    0    0  501    0  0.00000000000E+00  0.00000000000E+00  0.34716205535E+04  0.34716205535E+04  0.50400001928E-02 0. -1.
       -1   -1    0    0    0  501  0.00000000000E+00  0.00000000000E+00 -0.73634705111E+03  0.73634705113E+03  0.50400001928E-02 0.  1.
    10030    2    1    2    0    0  0.00000000000E+00  0.00000000000E+00  0.27352735023E+04  0.42079676046E+04  0.31976976450E+04 0.  0.
        2    1    3    3  502    0 -0.59296399734E+03 -0.43697890398E+03 -0.49976998179E+03  0.89012746243E+03  0.25500000920E-02 0.  1.
       -2    1    3    3    0  502  0.59296399734E+03  0.43697890398E+03  0.32350434841E+04  0.33178401422E+04  0.25500000920E-02 0. -1.
</event>
<event>
 5   0  0.3427667E-08  0.3199935E+04  0.7818609E-02  0.8188834E-01
        1   -1    0    0  501    0  0.00000000000E+00  0.00000000000E+00  0.18653664174E+04  0.18653664174E+04  0.50400001928E-02 0. -1.
       -1   -1    0    0    0  501  0.00000000000E+00  0.00000000000E+00 -0.13723286880E+04  0.13723286880E+04  0.50400001928E-02 0.  1.
    10030    2    1    2    0    0  0.00000000000E+00  0.00000000000E+00  0.49303772936E+03  0.32376951054E+04  0.31999349045E+04 0.  0.
        2    1    3    3  502    0  0.83941161296E+02  0.31839712354E+03 -0.13376751290E+04  0.13776057482E+04  0.25500000920E-02 0.  1.
       -2    1    3    3    0  502 -0.83941161296E+02 -0.31839712354E+03  0.18307128584E+04  0.18600893572E+04  0.25500000920E-02 0. -1.
</event>
<event>
 5   0  0.9329929E-08  0.3199936E+04  0.7818609E-02  0.8188834E-01
        2   -1    0    0  501    0  0.00000000000E+00  0.00000000000E+00  0.97149693281E+03  0.97149693282E+03  0.25500000920E-02 0. -1.
       -2   -1    0    0    0  501  0.00000000000E+00  0.00000000000E+00 -0.26350031321E+04  0.26350031321E+04  0.25500000920E-02 0.  1.
    10030    2    1    2    0    0  0.00000000000E+00  0.00000000000E+00 -0.16635061993E+04  0.36065000649E+04  0.31999359124E+04 0.  0.
        1    1    3    3  502    0  0.92994610950E+03 -0.73992731826E+03 -0.20391246232E+04  0.23601528407E+04  0.50400001928E-02 0.  1.
       -1    1    3    3    0  502 -0.92994610950E+03  0.73992731826E+03  0.37561842386E+03  0.12463472242E+04  0.50400001928E-02 0. -1.
</event>
<event>
 5   0  0.3343140E-08  0.3200474E+04  0.7818609E-02  0.8188692E-01
        1   -1    0    0  501    0  0.00000000000E+00  0.00000000000E+00  0.79002431071E+03  0.79002431073E+03  0.50400001928E-02 0. -1.
       -1   -1    0    0    0  501  0.00000000000E+00  0.00000000000E+00 -0.32413672238E+04  0.32413672238E+04  0.50400001928E-02 0.  1.
    10030    2    1    2    0    0  0.00000000000E+00  0.00000000000E+00 -0.24513429130E+04  0.40313915345E+04  0.32004742816E+04 0.  0.
        1    1    3    3  502    0  0.40618619482E+03  0.10191219381E+04  0.24175555328E+03  0.11234066482E+04  0.50400001928E-02 0. -1.
       -1    1    3    3    0  502 -0.40618619482E+03 -0.10191219381E+04 -0.26930984663E+04  0.29079848863E+04  0.50400001928E-02 0.  1.
</event>
<event>
 5   0  0.3283581E-08  0.3199776E+04  0.7818609E-02  0.8188876E-01
        1   -1    0    0  501    0  0.00000000000E+00  0.00000000000E+00  0.29997004553E+04  0.29997004553E+04  0.50400001928E-02 0.  1.
       -1   -1    0    0    0  501  0.00000000000E+00  0.00000000000E+00 -0.85329881249E+03  0.85329881250E+03  0.50400001928E-02 0. -1.
    10030    2    1    2    0    0  0.00000000000E+00  0.00000000000E+00  0.21464016428E+04  0.38529992678E+04  0.31997755148E+04 0.  0.
        5    1    3    3  502    0 -0.73860338820E+03  0.64576576311E+03  0.25949442696E+04  0.27742217356E+04  0.46999998093E+01 0.  1.
       -5    1    3    3    0  502  0.73860338820E+03 -0.64576576311E+03 -0.44854262682E+03  0.10787775322E+04  0.46999998093E+01 0. -1.
</event>
<event>
 5   0  0.3343140E-08  0.3199057E+04  0.7818609E-02  0.8189066E-01
       -1   -1    0    0    0  501  0.00000000000E+00  0.00000000000E+00  0.16876293510E+04  0.16876293510E+04  0.50400001928E-02 0. -1.
        1   -1    0    0  501    0  0.00000000000E+00  0.00000000000E+00 -0.15160269087E+04  0.15160269087E+04  0.50400001928E-02 0.  1.
    10030    2    1    2    0    0  0.00000000000E+00  0.00000000000E+00  0.17160244232E+03  0.32036562596E+04  0.31990570535E+04 0.  0.
        1    1    3    3  502    0 -0.75133054159E+03 -0.37797275609E+02 -0.13278107250E+04  0.15261086260E+04  0.50400001928E-02 0.  1.
       -1    1    3    3    0  502  0.75133054159E+03  0.37797275609E+02  0.14994131673E+04  0.16775476337E+04  0.50400001928E-02 0. -1.
</event>
<event>
 5   0  0.3270966E-08  0.3197924E+04  0.7818609E-02  0.8189366E-01
        1   -1    0    0  501    0  0.00000000000E+00  0.00000000000E+00  0.18638178434E+04  0.18638178434E+04  0.50400001928E-02 0. -1.
       -1   -1    0    0    0  501  0.00000000000E+00  0.00000000000E+00 -0.13717435192E+04  0.13717435192E+04  0.50400001928E-02 0.  1.
    10030    2    1    2    0    0  0.00000000000E+00  0.00000000000E+00  0.49207432420E+03  0.32355613626E+04  0.31979243566E+04 0.  0.
        3    1    3    3  502    0  0.97654706696E+03 -0.12660496312E+04  0.25860082563E+03  0.16196914027E+04  0.10100000352E+00 0. -1.
       -3    1    3    3    0  502 -0.97654706696E+03  0.12660496312E+04  0.23347349857E+03  0.16158699599E+04  0.10100000352E+00 0.  1.
</event>
<event>
 5   0  0.9707721E-08  0.3201231E+04  0.7818609E-02  0.8188492E-01
        2   -1    0    0  501    0  0.00000000000E+00  0.00000000000E+00  0.17694759147E+04  0.17694759147E+04  0.25500000920E-02 0.  1.
       -2   -1    0    0    0  501  0.00000000000E+00  0.00000000000E+00 -0.14478690172E+04  0.14478690172E+04  0.25500000920E-02 0. -1.
    10030    2    1    2    0    0  0.00000000000E+00  0.00000000000E+00  0.32160689755E+03  0.32173449319E+04  0.32012306093E+04 0.  0.
        3    1    3    3  502    0 -0.49400090040E+03  0.14168361791E+03  0.16843028097E+04  0.17609619821E+04  0.10100000352E+00 0.  1.
       -3    1    3    3    0  502  0.49400090040E+03 -0.14168361791E+03 -0.13626959122E+04  0.14563829498E+04  0.10100000352E+00 0. -1.
</event>
<event>
 5   0  0.9329929E-08  0.3200201E+04  0.7818609E-02  0.8188764E-01
       -2   -1    0    0    0  501  0.00000000000E+00  0.00000000000E+00  0.11394816043E+04  0.11394816043E+04  0.25500000920E-02 0. -1.
        2   -1    0    0  501    0  0.00000000000E+00  0.00000000000E+00 -0.22469183763E+04  0.22469183763E+04  0.25500000920E-02 0.  1.
    10030    2    1    2    0    0  0.00000000000E+00  0.00000000000E+00 -0.11074367720E+04  0.33863999807E+04  0.32002013414E+04 0.  0.
        1    1    3    3  502    0  0.12240936210E+04  0.78377290780E+03 -0.12616873711E+04  0.19247234052E+04  0.50400001928E-02 0.  1.
       -1    1    3    3    0  502 -0.12240936210E+04 -0.78377290780E+03  0.15425059909E+03  0.14616765755E+04  0.50400001928E-02 0. -1.
</event>
<event>
 5   0  0.9727083E-08  0.3204648E+04  0.7818609E-02  0.8187591E-01
       -2   -1    0    0    0  501  0.00000000000E+00  0.00000000000E+00  0.15748927619E+04  0.15748927619E+04  0.25500000920E-02 0. -1.
        2   -1    0    0  501    0  0.00000000000E+00  0.00000000000E+00 -0.16302331371E+04  0.16302331371E+04  0.25500000920E-02 0.  1.
    10030    2    1    2    0    0  0.00000000000E+00  0.00000000000E+00 -0.55340375265E+02  0.32051258990E+04  0.32046481041E+04 0.  0.
        4    1    3    3  502    0  0.11228715642E+04 -0.92777569813E+03 -0.69547660516E+03  0.16140934350E+04  0.12699999809E+01 0. -1.
       -4    1    3    3    0  502 -0.11228715642E+04  0.92777569813E+03  0.64013622989E+03  0.15910324640E+04  0.12699999809E+01 0.  1.
</event>
<event>
 5   0  0.3427667E-08  0.3199989E+04  0.7818609E-02  0.8188820E-01
        1   -1    0    0  501    0  0.00000000000E+00  0.00000000000E+00  0.84308826808E+03  0.84308826809E+03  0.50400001928E-02 0. -1.
       -1   -1    0    0    0  501  0.00000000000E+00  0.00000000000E+00 -0.30364350079E+04  0.30364350079E+04  0.50400001928E-02 0.  1.
    10030    2    1    2    0    0  0.00000000000E+00  0.00000000000E+00 -0.21933467398E+04  0.38795232760E+04  0.31999892075E+04 0.  0.
        2    1    3    3  502    0  0.80164063425E+02  0.52399689992E+03 -0.29268814068E+04  0.29744972345E+04  0.25500000920E-02 0.  1.
       -2    1    3    3    0  502 -0.80164063425E+02 -0.52399689992E+03  0.73353466699E+03  0.90502604154E+03  0.25500000920E-02 0. -1.
</event>
<event>
 5   0  0.9157524E-08  0.3200717E+04  0.7818609E-02  0.8188628E-01
       -2   -1    0    0    0  501  0.00000000000E+00  0.00000000000E+00  0.10245171361E+04  0.10245171361E+04  0.25500000920E-02 0. -1.
        2   -1    0    0  501    0  0.00000000000E+00  0.00000000000E+00 -0.24998581677E+04  0.24998581677E+04  0.25500000920E-02 0.  1.
    10030    2    1    2    0    0  0.00000000000E+00  0.00000000000E+00 -0.14753410316E+04  0.35243753038E+04  0.32007171263E+04 0.  0.
        5    1    3    3  502    0  0.14415550339E+04  0.34537465070E+03 -0.14017848420E+04  0.20401929807E+04  0.46999998093E+01 0.  1.
       -5    1    3    3    0  502 -0.14415550339E+04 -0.34537465070E+03 -0.73556189583E+02  0.14841823231E+04  0.46999998093E+01 0. -1.
</event>
<event>
 5   0  0.9157524E-08  0.3199087E+04  0.7818609E-02  0.8189058E-01
        2   -1    0    0  501    0  0.00000000000E+00  0.00000000000E+00  0.19036596212E+04  0.19036596212E+04  0.25500000920E-02 0.  1.
       -2   -1    0    0    0  501  0.00000000000E+00  0.00000000000E+00 -0.13440110847E+04  0.13440110847E+04  0.25500000920E-02 0. -1.
    10030    2    1    2    0    0  0.00000000000E+00  0.00000000000E+00  0.55964853657E+03  0.32476707059E+04  0.31990871400E+04 0.  0.
        5    1    3    3  502    0 -0.53624352310E+03  0.78494742223E+03 -0.10261091404E+04  0.13987929188E+04  0.46999998093E+01 0. -1.
       -5    1    3    3    0  502  0.53624352310E+03 -0.78494742223E+03  0.15857576769E+04  0.18488777871E+04  0.46999998093E+01 0.  1.
</event>
<event>
 5   0  0.9707721E-08  0.3200293E+04  0.7818609E-02  0.8188740E-01
        2   -1    0    0  501    0  0.00000000000E+00  0.00000000000E+00  0.20358653752E+04  0.20358653752E+04  0.25500000920E-02 0.  1.
       -2   -1    0    0    0  501  0.00000000000E+00  0.00000000000E+00 -0.12576806391E+04  0.12576806391E+04  0.25500000920E-02 0. -1.
    10030    2    1    2    0    0  0.00000000000E+00  0.00000000000E+00  0.77818473607E+03  0.32935460144E+04  0.32002927780E+04 0.  0.
        3    1    3    3  502    0 -0.66139402563E+03 -0.24140012887E+03  0.18678874966E+04  0.19961762922E+04  0.10100000352E+00 0.  1.
       -3    1    3    3    0  502  0.66139402563E+03  0.24140012887E+03 -0.10897027606E+04  0.12973697221E+04  0.10100000352E+00 0. -1.
</event>
<event>
 5   0  0.9157524E-08  0.3202013E+04  0.7818609E-02  0.8188286E-01
       -2   -1    0    0    0  501  0.00000000000E+00  0.00000000000E+00  0.14922014820E+04  0.14922014820E+04  0.25500000920E-02 0. -1.
        2   -1    0    0  501    0  0.00000000000E+00  0.00000000000E+00 -0.17177446552E+04  0.17177446553E+04  0.25500000920E-02 0.  1.
    10030    2    1    2    0    0  0.00000000000E+00  0.00000000000E+00 -0.22554317322E+03  0.32099461373E+04  0.32020125673E+04 0.  0.
        5    1    3    3  502    0  0.32640527843E+03 -0.15397843945E+04  0.18073813392E+03  0.15843499457E+04  0.46999998093E+01 0.  1.
       -5    1    3    3    0  502 -0.32640527843E+03  0.15397843945E+04 -0.40628130714E+03  0.16255961916E+04  0.46999998093E+01 0. -1.
</event>
<event>
 5   0  0.9353994E-08  0.3200374E+04  0.7818609E-02  0.8188718E-01
        2   -1    0    0  501    0  0.00000000000E+00  0.00000000000E+00  0.13330205525E+04  0.13330205525E+04  0.25500000920E-02 0. -1.
       -2   -1    0    0    0  501  0.00000000000E+00  0.00000000000E+00 -0.19208992792E+04  0.19208992792E+04  0.25500000920E-02 0.  1.
    10030    2    1    2    0    0  0.00000000000E+00  0.00000000000E+00 -0.58787872669E+03  0.32539198316E+04  0.32003738646E+04 0.  0.
        2    1    3    3  502    0  0.48278790209E+02 -0.82184045844E+03 -0.16890655544E+04  0.18790143767E+04  0.25500000920E-02 0.  1.
       -2    1    3    3    0  502 -0.48278790209E+02  0.82184045844E+03  0.11011868277E+04  0.13749054550E+04  0.25500000920E-02 0. -1.
</event>
<event>
 5   0  0.9157524E-08  0.3199986E+04  0.7818609E-02  0.8188821E-01
       -2   -1    0    0    0  501  0.00000000000E+00  0.00000000000E+00  0.10351658849E+04  0.10351658849E+04  0.25500000920E-02 0. -1.
        2   -1    0    0  501    0  0.00000000000E+00  0.00000000000E+00 -0.24730116301E+04  0.24730116301E+04  0.25500000920E-02 0.  1.
    10030    2    1    2    0    0  0.00000000000E+00  0.00000000000E+00 -0.14378457452E+04  0.35081775150E+04  0.31999857952E+04 0.  0.
        5    1    3    3  502    0  0.40479003958E+03  0.15079053011E+04 -0.11023523151E+04  0.19112394120E+04  0.46999998093E+01 0.  1.
       -5    1    3    3    0  502 -0.40479003958E+03 -0.15079053011E+04 -0.33549343003E+03  0.15969381030E+04  0.46999998093E+01 0. -1.
</event>
<event>
 5   0  0.9353994E-08  0.3199176E+04  0.7818609E-02  0.8189035E-01
       -2   -1    0    0    0  501  0.00000000000E+00  0.00000000000E+00  0.11909633288E+04  0.11909633288E+04  0.25500000920E-02 0.  1.
        2   -1    0    0  501    0  0.00000000000E+00  0.00000000000E+00 -0.21484137483E+04  0.21484137483E+04  0.25500000920E-02 0. -1.
    10030    2    1    2    0    0  0.00000000000E+00  0.00000000000E+00 -0.95745041947E+03  0.33393770772E+04  0.31991761373E+04 0.  0.
        2    1    3    3  502    0  0.79960398320E+03 -0.50068220899E+03 -0.18270909090E+04  0.20562855818E+04  0.25500000920E-02 0. -1.
       -2    1    3    3    0  502 -0.79960398320E+03  0.50068220899E+03  0.86964048952E+03  0.12830914953E+04  0.25500000920E-02 0.  1.
</event>
<event>
 5   0  0.9727083E-08  0.3198476E+04  0.7818609E-02  0.8189220E-01
        2   -1    0    0  501    0  0.00000000000E+00  0.00000000000E+00  0.25296604084E+04  0.25296604084E+04  0.25500000920E-02 0.  1.
       -2   -1    0    0    0  501  0.00000000000E+00  0.00000000000E+00 -0.10110300650E+04  0.10110300650E+04  0.25500000920E-02 0. -1.
    10030    2    1    2    0    0  0.00000000000E+00  0.00000000000E+00  0.15186303434E+04  0.35406904733E+04  0.31984763417E+04 0.  0.
        4    1    3    3  502    0  0.11358019176E+04  0.10998789199E+04  0.10254116638E+04  0.18844761414E+04  0.12699999809E+01 0.  1.
       -4    1    3    3    0  502 -0.11358019176E+04 -0.10998789199E+04  0.49321867959E+03  0.16562143319E+04  0.12699999809E+01 0. -1.
</event>
<event>
 5   0  0.9329929E-08  0.3199314E+04  0.7818609E-02  0.8188998E-01
        2   -1    0    0  501    0  0.00000000000E+00  0.00000000000E+00  0.15040092102E+04  0.15040092102E+04  0.25500000920E-02 0. -1.
       -2   -1    0    0    0  501  0.00000000000E+00  0.00000000000E+00 -0.17013870611E+04  0.17013870611E+04  0.25500000920E-02 0.  1.
    10030    2    1    2    0    0  0.00000000000E+00  0.00000000000E+00 -0.19737785089E+03  0.32053962713E+04  0.31993135577E+04 0.  0.
        1    1    3    3  502    0 -0.92326961611E+03 -0.86505453948E+03 -0.10794042416E+04  0.16630873871E+04  0.50400001928E-02 0.  1.
       -1    1    3    3    0  502  0.92326961611E+03  0.86505453948E+03  0.88202639075E+03  0.15423088842E+04  0.50400001928E-02 0. -1.
</event>
<event>
 5   0  0.3343140E-08  0.3199144E+04  0.7818609E-02  0.8189043E-01
        1   -1    0    0  501    0  0.00000000000E+00  0.00000000000E+00  0.15776368736E+04  0.15776368736E+04  0.50400001928E-02 0. -1.
       -1   -1    0    0    0  501  0.00000000000E+00  0.00000000000E+00 -0.16218117907E+04  0.16218117907E+04  0.50400001928E-02 0.  1.
    10030    2    1    2    0    0  0.00000000000E+00  0.00000000000E+00 -0.44174917098E+02  0.31994486643E+04  0.31991436874E+04 0.  0.
        1    1    3    3  502    0 -0.39079845165E+02 -0.82134313294E+03  0.13500849956E+04  0.15807786916E+04  0.50400001928E-02 0. -1.
       -1    1    3    3    0  502  0.39079845165E+02  0.82134313294E+03 -0.13942599127E+04  0.16186699727E+04  0.50400001928E-02 0.  1.
</event>
<event>
 5   0  0.3283581E-08  0.3198778E+04  0.7818609E-02  0.8189140E-01
        1   -1    0    0  501    0  0.00000000000E+00  0.00000000000E+00  0.18395487363E+04  0.18395487363E+04  0.50400001928E-02 0. -1.
       -1   -1    0    0    0  501  0.00000000000E+00  0.00000000000E+00 -0.13905826185E+04  0.13905826185E+04  0.50400001928E-02 0.  1.
    10030    2    1    2    0    0  0.00000000000E+00  0.00000000000E+00  0.44896611783E+03  0.32301313548E+04  0.31987775781E+04 0.  0.
        5    1    3    3  502    0 -0.11115470936E+04  0.10582027340E+04  0.67910973674E+03  0.16782556695E+04  0.46999998093E+01 0.  1.
       -5    1    3    3    0  502  0.11115470936E+04 -0.10582027340E+04 -0.23014361891E+03  0.15518756854E+04  0.46999998093E+01 0. -1.
</event>
<event>
 5   0  0.3427667E-08  0.3197754E+04  0.7818609E-02  0.8189411E-01
       -1   -1    0    0    0  501  0.00000000000E+00  0.00000000000E+00  0.26667540068E+04  0.26667540068E+04  0.50400001928E-02 0. -1.
        1   -1    0    0  501    0  0.00000000000E+00  0.00000000000E+00 -0.95862121191E+03  0.95862121192E+03  0.50400001928E-02 0.  1.
    10030    2    1    2    0    0  0.00000000000E+00  0.00000000000E+00  0.17081327949E+04  0.36253752187E+04  0.31977535602E+04 0.  0.
        2    1    3    3  502    0  0.50004774502E+03 -0.67877178283E+03 -0.68614404988E+03  0.10870016273E+04  0.25500000920E-02 0.  1.
       -2    1    3    3    0  502 -0.50004774502E+03  0.67877178283E+03  0.23942768447E+04  0.25383735914E+04  0.25500000920E-02 0. -1.
</event>
<event>
 5   0  0.3283581E-08  0.3199872E+04  0.7818609E-02  0.8188851E-01
        1   -1    0    0  501    0  0.00000000000E+00  0.00000000000E+00  0.11684948964E+04  0.11684948964E+04  0.50400001928E-02 0. -1.
       -1   -1    0    0    0  501  0.00000000000E+00  0.00000000000E+00 -0.21906770280E+04  0.21906770280E+04  0.50400001928E-02 0.  1.
    10030    2    1    2    0    0  0.00000000000E+00  0.00000000000E+00 -0.10221821316E+04  0.33591719244E+04  0.31998718267E+04 0.  0.
        5    1    3    3  502    0  0.63279290197E+03  0.32176840209E+03 -0.20162808078E+04  0.21376089790E+04  0.46999998093E+01 0.  1.
       -5    1    3    3    0  502 -0.63279290197E+03 -0.32176840209E+03  0.99409867623E+03  0.12215629453E+04  0.46999998093E+01 0. -1.
</event>
<event>
 5   0  0.9329929E-08  0.3198861E+04  0.7818609E-02  0.8189118E-01
       -2   -1    0    0    0  501  0.00000000000E+00  0.00000000000E+00  0.14095004597E+04  0.14095004597E+04  0.25500000920E-02 0. -1.
        2   -1    0    0  501    0  0.00000000000E+00  0.00000000000E+00 -0.18149532711E+04  0.18149532711E+04  0.25500000920E-02 0.  1.
    10030    2    1    2    0    0  0.00000000000E+00  0.00000000000E+00 -0.40545281141E+03  0.32244537308E+04  0.31988607159E+04 0.  0.
        1    1    3    3  502    0  0.15362386476E+04 -0.92400064271E+02  0.23620032329E+03  0.15570348574E+04  0.50400001928E-02 0. -1.
       -1    1    3    3    0  502 -0.15362386476E+04  0.92400064271E+02 -0.64165313470E+03  0.16674188735E+04  0.50400001928E-02 0.  1.
</event>
<event>
 5   0  0.9727083E-08  0.3198522E+04  0.7818609E-02  0.8189208E-01
        2   -1    0    0  501    0  0.00000000000E+00  0.00000000000E+00  0.25580041182E+04  0.25580041182E+04  0.25500000920E-02 0. -1.
       -2   -1    0    0    0  501  0.00000000000E+00  0.00000000000E+00 -0.99985584221E+03  0.99985584221E+03  0.25500000920E-02 0.  1.
    10030    2    1    2    0    0  0.00000000000E+00  0.00000000000E+00  0.15581482760E+04  0.35578599605E+04  0.31985217598E+04 0.  0.
        4    1    3    3  502    0 -0.33356515684E+03  0.28208498073E+03 -0.93220148052E+03  0.10294847563E+04  0.12699999809E+01 0.  1.
       -4    1    3    3    0  502  0.33356515684E+03 -0.28208498073E+03  0.24903497566E+04  0.25283752042E+04  0.12699999809E+01 0. -1.
</event>
<event>
 5   0  0.3220147E-08  0.3200560E+04  0.7818609E-02  0.8188669E-01
        1   -1    0    0  501    0  0.00000000000E+00  0.00000000000E+00  0.33757120809E+04  0.33757120810E+04  0.50400001928E-02 0.  1.
       -1   -1    0    0    0  501  0.00000000000E+00  0.00000000000E+00 -0.75862402613E+03  0.75862402614E+03  0.50400001928E-02 0. -1.
    10030    2    1    2    0    0  0.00000000000E+00  0.00000000000E+00  0.26170880548E+04  0.41343361071E+04  0.32005601322E+04 0.  0.
        4    1    3    3  502    0  0.11520625294E+04 -0.32322770503E+03  0.26811931680E+04  0.29360726555E+04  0.12699999809E+01 0.  1.
       -4    1    3    3    0  502 -0.11520625294E+04  0.32322770503E+03 -0.64105113227E+02  0.11982634516E+04  0.12699999809E+01 0. -1.
</event>
<event>
 5   0  0.3427667E-08  0.3200803E+04  0.7818609E-02  0.8188605E-01
        1   -1    0    0  501    0  0.00000000000E+00  0.00000000000E+00  0.17913618011E+04  0.17913618012E+04  0.50400001928E-02 0.  1.
       -1   -1    0    0    0  501  0.00000000000E+00  0.00000000000E+00 -0.14297979501E+04  0.14297979501E+04  0.50400001928E-02 0. -1.
    10030    2    1    2    0    0  0.00000000000E+00  0.00000000000E+00  0.36156385104E+03  0.32211597513E+04  0.32008032937E+04 0.  0.
        2    1    3    3  502    0 -0.56664271279E+03  0.92415797076E+03  0.13656112936E+04  0.17435728043E+04  0.25500000920E-02 0.  1.
       -2    1    3    3    0  502  0.56664271279E+03 -0.92415797076E+03 -0.10040474425E+04  0.14775869469E+04  0.25500000920E-02 0. -1.
</event>
<event>
 5   0  0.3427667E-08  0.3202241E+04  0.7818609E-02  0.8188226E-01
        1   -1    0    0  501    0  0.00000000000E+00  0.00000000000E+00  0.82759238694E+03  0.82759238696E+03  0.50400001928E-02 0.  1.
       -1   -1    0    0    0  501  0.00000000000E+00  0.00000000000E+00 -0.30976435858E+04  0.30976435858E+04  0.50400001928E-02 0. -1.
    10030    2    1    2    0    0  0.00000000000E+00  0.00000000000E+00 -0.22700511989E+04  0.39252359728E+04  0.32022406213E+04 0.  0.
        2    1    3    3  502    0 -0.14981850068E+04 -0.43579021373E+03 -0.15754788934E+04  0.22173419151E+04  0.25500000920E-02 0. -1.
       -2    1    3    3    0  502  0.14981850068E+04  0.43579021373E+03 -0.69457230551E+03  0.17078940577E+04  0.25500000920E-02 0.  1.
</event>
<event>
 5   0  0.9353994E-08  0.3200428E+04  0.7818609E-02  0.8188704E-01
       -2   -1    0    0    0  501  0.00000000000E+00  0.00000000000E+00  0.12884999003E+04  0.12884999003E+04  0.25500000920E-02 0. -1.
        2   -1    0    0  501    0  0.00000000000E+00  0.00000000000E+00 -0.19873379519E+04  0.19873379519E+04  0.25500000920E-02 0.  1.
    10030    2    1    2    0    0  0.00000000000E+00  0.00000000000E+00 -0.69883805158E+03  0.32758378521E+04  0.32004279419E+04 0.  0.
        2    1    3    3  502    0  0.82513341540E+03  0.31810291982E+03  0.10156657019E+04  0.13467039165E+04  0.25500000920E-02 0. -1.
       -2    1    3    3    0  502 -0.82513341540E+03 -0.31810291982E+03 -0.17145037535E+04  0.19291339356E+04  0.25500000920E-02 0.  1.
</event>
<event>
 5   0  0.3343140E-08  0.3200734E+04  0.7818609E-02  0.8188623E-01
       -1   -1    0    0    0  501  0.00000000000E+00  0.00000000000E+00  0.17425775068E+04  0.17425775068E+04  0.50400001928E-02 0.  1.
        1   -1    0    0  501    0  0.00000000000E+00  0.00000000000E+00 -0.14697626455E+04  0.14697626455E+04  0.50400001928E-02 0. -1.
    10030    2    1    2    0    0  0.00000000000E+00  0.00000000000E+00  0.27281486129E+03  0.32123401523E+04  0.32007344947E+04 0.  0.
        1    1    3    3  502    0 -0.79147110789E+03  0.13833820028E+04 -0.90423321446E+01  0.15938174438E+04  0.50400001928E-02 0. -1.
       -1    1    3    3    0  502  0.79147110789E+03 -0.13833820028E+04  0.28185719343E+03  0.16185227085E+04  0.50400001928E-02 0.  1.
</event>
<event>
 5   0  0.3220147E-08  0.3198340E+04  0.7818609E-02  0.8189256E-01
        1   -1    0    0  501    0  0.00000000000E+00  0.00000000000E+00  0.14339272949E+04  0.14339272949E+04  0.50400001928E-02 0. -1.
       -1   -1    0    0    0  501  0.00000000000E+00  0.00000000000E+00 -0.17834550872E+04  0.17834550872E+04  0.50400001928E-02 0.  1.
    10030    2    1    2    0    0  0.00000000000E+00  0.00000000000E+00 -0.34952779228E+03  0.32173823821E+04  0.31983401500E+04 0.  0.
        4    1    3    3  502    0 -0.45436444496E+03  0.28140827365E+03  0.13414276071E+04  0.14439762129E+04  0.12699999809E+01 0. -1.
       -4    1    3    3    0  502  0.45436444496E+03 -0.28140827365E+03 -0.16909553994E+04  0.17734061692E+04  0.12699999809E+01 0.  1.
</event>
<event>
 5   0  0.3270966E-08  0.3186535E+04  0.7818609E-02  0.8192382E-01
        1   -1    0    0  501    0  0.00000000000E+00  0.00000000000E+00  0.18825542700E+04  0.18825542700E+04  0.50400001928E-02 0. -1.
       -1   -1    0    0    0  501  0.00000000000E+00  0.00000000000E+00 -0.13484346224E+04  0.13484346224E+04  0.50400001928E-02 0.  1.
    10030    2    1    2    0    0  0.00000000000E+00  0.00000000000E+00  0.53411964761E+03  0.32309888924E+04  0.31865350186E+04 0.  0.
        3    1    3    3  502    0 -0.20699373959E+03 -0.15336461319E+04  0.65127146476E+03  0.16790090521E+04  0.10100000352E+00 0. -1.
       -3    1    3    3    0  502  0.20699373959E+03  0.15336461319E+04 -0.11715181715E+03  0.15519798403E+04  0.10100000352E+00 0.  1.
</event>
<event>
 5   0  0.3220147E-08  0.3205167E+04  0.7818609E-02  0.8187454E-01
       -1   -1    0    0    0  501  0.00000000000E+00  0.00000000000E+00  0.12600087441E+04  0.12600087441E+04  0.50400001928E-02 0.  1.
        1   -1    0    0  501    0  0.00000000000E+00  0.00000000000E+00 -0.20382981022E+04  0.20382981022E+04  0.50400001928E-02 0. -1.
    10030    2    1    2    0    0  0.00000000000E+00  0.00000000000E+00 -0.77828935807E+03  0.32983068463E+04  0.32051667238E+04 0.  0.
        4    1    3    3  502    0 -0.25818741862E+03  0.83054112380E+03  0.99600612644E+03  0.13223044726E+04  0.12699999809E+01 0.  1.
       -4    1    3    3    0  502  0.25818741862E+03 -0.83054112380E+03 -0.17742954845E+04  0.19760023737E+04  0.12699999809E+01 0. -1.
</event>
<event>
 5   0  0.9727083E-08  0.3201447E+04  0.7818609E-02  0.8188435E-01
        2   -1    0    0  501    0  0.00000000000E+00  0.00000000000E+00  0.24273351092E+04  0.24273351092E+04  0.25500000920E-02 0.  1.
       -2   -1    0    0    0  501  0.00000000000E+00  0.00000000000E+00 -0.10556086549E+04  0.10556086549E+04  0.25500000920E-02 0. -1.
    10030    2    1    2    0    0  0.00000000000E+00  0.00000000000E+00  0.13717264542E+04  0.34829437641E+04  0.32014471413E+04 0.  0.
        4    1    3    3  502    0  0.10852596664E+02  0.11799567636E+04 -0.49085975677E+03  0.12780299905E+04  0.12699999809E+01 0. -1.
       -4    1    3    3    0  502 -0.10852596664E+02 -0.11799567636E+04  0.18625862110E+04  0.22049137736E+04  0.12699999809E+01 0.  1.
</event>
<event>
 5   0  0.9353994E-08  0.3198162E+04  0.7818609E-02  0.8189303E-01
       -2   -1    0    0    0  501  0.00000000000E+00  0.00000000000E+00  0.16674112115E+04  0.16674112115E+04  0.25500000920E-02 0.  1.
        2   -1    0    0  501    0  0.00000000000E+00  0.00000000000E+00 -0.15335505799E+04  0.15335505799E+04  0.25500000920E-02 0. -1.
    10030    2    1    2    0    0  0.00000000000E+00  0.00000000000E+00  0.13386063157E+03  0.32009617914E+04  0.31981616159E+04 0.  0.
        2    1    3    3  502    0 -0.47349379009E+02 -0.15358448534E+04 -0.37617398162E+03  0.15819507710E+04  0.25500000920E-02 0.  1.
       -2    1    3    3    0  502  0.47349379009E+02  0.15358448534E+04  0.51003461319E+03  0.16190110204E+04  0.25500000920E-02 0. -1.
</event>
<event>
 5   0  0.9157524E-08  0.3201917E+04  0.7818609E-02  0.8188311E-01
        2   -1    0    0  501    0  0.00000000000E+00  0.00000000000E+00  0.20632219517E+04  0.20632219517E+04  0.25500000920E-02 0.  1.
       -2   -1    0    0    0  501  0.00000000000E+00  0.00000000000E+00 -0.12422647842E+04  0.12422647842E+04  0.25500000920E-02 0. -1.
    10030    2    1    2    0    0  0.00000000000E+00  0.00000000000E+00  0.82095716741E+03  0.33054867359E+04  0.32019169088E+04 0.  0.
        5    1    3    3  502    0  0.11248398586E+04  0.33624062342E+03 -0.71317863922E+03  0.13736696567E+04  0.46999998093E+01 0. -1.
       -5    1    3    3    0  502 -0.11248398586E+04 -0.33624062342E+03  0.15341358066E+04  0.19318170792E+04  0.46999998093E+01 0.  1.
</event>
<event>
 5   0  0.9707721E-08  0.3202356E+04  0.7818609E-02  0.8188195E-01
       -2   -1    0    0    0  501  0.00000000000E+00  0.00000000000E+00  0.94183707425E+03  0.94183707425E+03  0.25500000920E-02 0. -1.
        2   -1    0    0  501    0  0.00000000000E+00  0.00000000000E+00 -0.27220962274E+04  0.27220962274E+04  0.25500000920E-02 0.  1.
    10030    2    1    2    0    0  0.00000000000E+00  0.00000000000E+00 -0.17802591531E+04  0.36639333016E+04  0.32023560992E+04 0.  0.
        3    1    3    3  502    0 -0.10038186478E+04  0.96109821755E+03 -0.17999949127E+04  0.22740587850E+04  0.10100000352E+00 0.  1.
       -3    1    3    3    0  502  0.10038186478E+04 -0.96109821755E+03  0.19735759634E+02  0.13898745166E+04  0.10100000352E+00 0. -1.
</event>
<event>
 5   0  0.9329929E-08  0.3191073E+04  0.7818609E-02  0.8191179E-01
       -2   -1    0    0    0  501  0.00000000000E+00  0.00000000000E+00  0.15908693265E+04  0.15908693265E+04  0.25500000920E-02 0.  1.
        2   -1    0    0  501    0  0.00000000000E+00  0.00000000000E+00 -0.16002177737E+04  0.16002177737E+04  0.25500000920E-02 0. -1.
    10030    2    1    2    0    0  0.00000000000E+00  0.00000000000E+00 -0.93484472315E+01  0.31910871003E+04  0.31910734069E+04 0.  0.
        1    1    3    3  502    0  0.10414728571E+03 -0.15525073204E+04 -0.35767961246E+03  0.15965776968E+04  0.50400001928E-02 0. -1.
       -1    1    3    3    0  502 -0.10414728571E+03  0.15525073204E+04  0.34833116523E+03  0.15945094034E+04  0.50400001928E-02 0.  1.
</event>
<event>
 5   0  0.3270966E-08  0.3198631E+04  0.7818609E-02  0.8189179E-01
        1   -1    0    0  501    0  0.00000000000E+00  0.00000000000E+00  0.20393667374E+04  0.20393667374E+04  0.50400001928E-02 0.  1.
       -1   -1    0    0    0  501  0.00000000000E+00  0.00000000000E+00 -0.12542174896E+04  0.12542174896E+04  0.50400001928E-02 0. -1.
    10030    2    1    2    0    0  0.00000000000E+00  0.00000000000E+00  0.78514924782E+03  0.32935842270E+04  0.31986306006E+04 0.  0.
        3    1    3    3  502    0 -0.28517823042E+01  0.11738687915E+04 -0.72587137427E+03  0.13801685892E+04  0.10100000352E+00 0. -1.
       -3    1    3    3    0  502  0.28517823042E+01 -0.11738687915E+04  0.15110206221E+04  0.19134156378E+04  0.10100000352E+00 0.  1.
</event>
<event>
 5   0  0.3270966E-08  0.3200760E+04  0.7818609E-02  0.8188617E-01
        1   -1    0    0  501    0  0.00000000000E+00  0.00000000000E+00  0.22742828681E+04  0.22742828681E+04  0.50400001928E-02 0. -1.
       -1   -1    0    0    0  501  0.00000000000E+00  0.00000000000E+00 -0.11261642214E+04  0.11261642214E+04  0.50400001928E-02 0.  1.
    10030    2    1    2    0    0  0.00000000000E+00  0.00000000000E+00  0.11481186467E+04  0.34004470896E+04  0.32007599070E+04 0.  0.
        3    1    3    3  502    0 -0.18344415537E+03  0.11093800289E+04  0.17838943446E+04  0.21087092853E+04  0.10100000352E+00 0. -1.
       -3    1    3    3    0  502  0.18344415537E+03 -0.11093800289E+04 -0.63577569794E+03  0.12917378043E+04  0.10100000352E+00 0.  1.
</event>
<event>
 5   0  0.9157524E-08  0.3203331E+04  0.7818609E-02  0.8187938E-01
        2   -1    0    0  501    0  0.00000000000E+00  0.00000000000E+00  0.28387987525E+04  0.28387987525E+04  0.25500000920E-02 0. -1.
       -2   -1    0    0    0  501  0.00000000000E+00  0.00000000000E+00 -0.90366805109E+03  0.90366805109E+03  0.25500000920E-02 0.  1.
    10030    2    1    2    0    0  0.00000000000E+00  0.00000000000E+00  0.19351307014E+04  0.37424668036E+04  0.32033306018E+04 0.  0.
        5    1    3    3  502    0 -0.25256484262E+03  0.61692668836E+03 -0.73388215179E+03  0.99145985357E+03  0.46999998093E+01 0.  1.
       -5    1    3    3    0  502  0.25256484262E+03 -0.61692668836E+03  0.26690128532E+04  0.27510069500E+04  0.46999998093E+01 0. -1.
</event>
<event>
 5   0  0.3220147E-08  0.3201473E+04  0.7818609E-02  0.8188428E-01
        1   -1    0    0  501    0  0.00000000000E+00  0.00000000000E+00  0.23495473105E+04  0.23495473105E+04  0.50400001928E-02 0. -1.
       -1   -1    0    0    0  501  0.00000000000E+00  0.00000000000E+00 -0.10905750794E+04  0.10905750794E+04  0.50400001928E-02 0.  1.
    10030    2    1    2    0    0  0.00000000000E+00  0.00000000000E+00  0.12589722311E+04  0.34401223898E+04  0.32014732512E+04 0.  0.
        4    1    3    3  502    0 -0.13453795995E+04  0.35527155728E+03 -0.22075693024E+03  0.14089000608E+04  0.12699999809E+01 0.  1.
       -4    1    3    3    0  502  0.13453795995E+04 -0.35527155728E+03  0.14797291613E+04  0.20312223290E+04  0.12699999809E+01 0. -1.
</event>
<event>
 5   0  0.9329929E-08  0.3201559E+04  0.7818609E-02  0.8188406E-01
        2   -1    0    0  501    0  0.00000000000E+00  0.00000000000E+00  0.17141779027E+04  0.17141779027E+04  0.25500000920E-02 0.  1.
       -2   -1    0    0    0  501  0.00000000000E+00  0.00000000000E+00 -0.14948828008E+04  0.14948828008E+04  0.25500000920E-02 0. -1.
    10030    2    1    2    0    0  0.00000000000E+00  0.00000000000E+00  0.21929510193E+03  0.32090607035E+04  0.32015590354E+04 0.  0.
        1    1    3    3  502    0  0.14958206848E+04  0.26295884244E+03 -0.39737183716E+03  0.15698825596E+04  0.50400001928E-02 0. -1.
       -1    1    3    3    0  502 -0.14958206848E+04 -0.26295884244E+03  0.61666693909E+03  0.16391781440E+04  0.50400001928E-02 0.  1.
</event>
<event>
 5   0  0.9707721E-08  0.3200931E+04  0.7818609E-02  0.8188571E-01
       -2   -1    0    0    0  501  0.00000000000E+00  0.00000000000E+00  0.18340950906E+04  0.18340950906E+04  0.25500000920E-02 0.  1.
        2   -1    0    0  501    0  0.00000000000E+00  0.00000000000E+00 -0.13965955728E+04  0.13965955728E+04  0.25500000920E-02 0. -1.
    10030    2    1    2    0    0  0.00000000000E+00  0.00000000000E+00  0.43749951778E+03  0.32306906633E+04  0.32009305419E+04 0.  0.
        3    1    3    3  502    0 -0.14371583914E+04  0.46126021108E+03 -0.31846181884E+03  0.15425962415E+04  0.10100000352E+00 0. -1.
       -3    1    3    3    0  502  0.14371583914E+04 -0.46126021108E+03  0.75596133663E+03  0.16880944218E+04  0.10100000352E+00 0.  1.
</event>
<event>
 5   0  0.3270966E-08  0.3199750E+04  0.7818609E-02  0.8188883E-01
       -1   -1    0    0    0  501  0.00000000000E+00  0.00000000000E+00  0.14796224858E+04  0.14796224858E+04  0.50400001928E-02 0.  1.
        1   -1    0    0  501    0  0.00000000000E+00  0.00000000000E+00 -0.17299008299E+04  0.17299008300E+04  0.50400001928E-02 0. -1.
    10030    2    1    2    0    0  0.00000000000E+00  0.00000000000E+00 -0.25027834415E+03  0.32095233158E+04  0.31997500941E+04 0.  0.
        3    1    3    3  502    0  0.80513818733E+03  0.13576304432E+04 -0.38707320949E+03  0.16251872509E+04  0.10100000352E+00 0. -1.
       -3    1    3    3    0  502 -0.80513818733E+03 -0.13576304432E+04  0.13679486534E+03  0.15843360648E+04  0.10100000352E+00 0.  1.
</event>
<event>
 5   0  0.9707721E-08  0.3192681E+04  0.7818609E-02  0.8190753E-01
        2   -1    0    0  501    0  0.00000000000E+00  0.00000000000E+00  0.15226475698E+04  0.15226475698E+04  0.25500000920E-02 0.  1.
       -2   -1    0    0    0  501  0.00000000000E+00  0.00000000000E+00 -0.16736000457E+04  0.16736000457E+04  0.25500000920E-02 0. -1.
    10030    2    1    2    0    0  0.00000000000E+00  0.00000000000E+00 -0.15095247594E+03  0.31962476155E+04  0.31926810316E+04 0.  0.
        3    1    3    3  502    0 -0.60025518082E+03  0.14339200660E+04 -0.43902098919E+03  0.16152933099E+04  0.10100000352E+00 0. -1.
       -3    1    3    3    0  502  0.60025518082E+03 -0.14339200660E+04  0.28806851325E+03  0.15809543056E+04  0.10100000352E+00 0.  1.
</event>
<event>
 5   0  0.9329929E-08  0.3200541E+04  0.7818609E-02  0.8188674E-01
       -2   -1    0    0    0  501  0.00000000000E+00  0.00000000000E+00  0.13620240394E+04  0.13620240395E+04  0.25500000920E-02 0. -1.
        2   -1    0    0  501    0  0.00000000000E+00  0.00000000000E+00 -0.18801909277E+04  0.18801909277E+04  0.25500000920E-02 0.  1.
    10030    2    1    2    0    0  0.00000000000E+00  0.00000000000E+00 -0.51816688823E+03  0.32422149671E+04  0.32005407307E+04 0.  0.
        1    1    3    3  502    0 -0.13782568177E+04 -0.12722121243E+03 -0.10727153671E+04  0.17511411568E+04  0.50400001928E-02 0.  1.
       -1    1    3    3    0  502  0.13782568177E+04  0.12722121243E+03  0.55454847888E+03  0.14910738103E+04  0.50400001928E-02 0. -1.
</event>
<event>
 5   0  0.3427667E-08  0.3199003E+04  0.7818609E-02  0.8189080E-01
       -1   -1    0    0    0  501  0.00000000000E+00  0.00000000000E+00  0.14563183436E+04  0.14563183436E+04  0.50400001928E-02 0.  1.
        1   -1    0    0  501    0  0.00000000000E+00  0.00000000000E+00 -0.17567624348E+04  0.17567624348E+04  0.50400001928E-02 0. -1.
    10030    2    1    2    0    0  0.00000000000E+00  0.00000000000E+00 -0.30044409117E+03  0.32130807784E+04  0.31990031942E+04 0.  0.
        2    1    3    3  502    0  0.84054109588E+03  0.60357147811E+03 -0.13752604100E+04  0.17210894975E+04  0.25500000920E-02 0. -1.
       -2    1    3    3    0  502 -0.84054109588E+03 -0.60357147811E+03  0.10748163188E+04  0.14919912809E+04  0.25500000920E-02 0.  1.
</event>
<event>
 5   0  0.9727083E-08  0.3198775E+04  0.7818609E-02  0.8189141E-01
        2   -1    0    0  501    0  0.00000000000E+00  0.00000000000E+00  0.14767016673E+04  0.14767016673E+04  0.25500000920E-02 0. -1.
       -2   -1    0    0    0  501  0.00000000000E+00  0.00000000000E+00 -0.17322666119E+04  0.17322666119E+04  0.25500000920E-02 0.  1.
    10030    2    1    2    0    0  0.00000000000E+00  0.00000000000E+00 -0.25556494462E+03  0.32089682792E+04  0.31987753870E+04 0.  0.
        4    1    3    3  502    0  0.13493023925E+04  0.52315649914E+03 -0.81092943213E+03  0.16588905406E+04  0.12699999809E+01 0.  1.
       -4    1    3    3    0  502 -0.13493023925E+04 -0.52315649914E+03  0.55536448751E+03  0.15500777386E+04  0.12699999809E+01 0. -1.
</event>
<event>
 5   0  0.9353994E-08  0.3199989E+04  0.7818609E-02  0.8188820E-01
        2   -1    0    0  501    0  0.00000000000E+00  0.00000000000E+00  0.18747717886E+04  0.18747717886E+04  0.25500000920E-02 0. -1.
       -2   -1    0    0    0  501  0.00000000000E+00  0.00000000000E+00 -0.13654902196E+04  0.13654902196E+04  0.25500000920E-02 0.  1.
    10030    2    1    2    0    0  0.00000000000E+00  0.00000000000E+00  0.50928156899E+03  0.32402620083E+04  0.31999890884E+04 0.  0.
        2    1    3    3  502    0  0.10721218343E+04  0.28222798836E+03 -0.91351790452E+03  0.14365280460E+04  0.25500000920E-02 0.  1.
       -2    1    3    3    0  502 -0.10721218343E+04 -0.28222798836E+03  0.14227994735E+04  0.18037339623E+04  0.25500000920E-02 0. -1.
</event>
<event>
 5   0  0.3270966E-08  0.3200070E+04  0.7818609E-02  0.8188799E-01
       -1   -1    0    0    0  501  0.00000000000E+00  0.00000000000E+00  0.12937065314E+04  0.12937065314E+04  0.50400001928E-02 0.  1.
        1   -1    0    0  501    0  0.00000000000E+00  0.00000000000E+00 -0.19788970734E+04  0.19788970734E+04  0.50400001928E-02 0. -1.
    10030    2    1    2    0    0  0.00000000000E+00  0.00000000000E+00 -0.68519054196E+03  0.32726036048E+04  0.32000700423E+04 0.  0.
        3    1    3    3  502    0  0.89528527507E+03 -0.13399463546E+03  0.10066351545E+04  0.13538111503E+04  0.10100000352E+00 0.  1.
       -3    1    3    3    0  502 -0.89528527507E+03  0.13399463546E+03 -0.16918256965E+04  0.19187924545E+04  0.10100000352E+00 0. -1.
</event>
<event>
 5   0  0.3220147E-08  0.3200991E+04  0.7818609E-02  0.8188555E-01
       -1   -1    0    0    0  501  0.00000000000E+00  0.00000000000E+00  0.19228026800E+04  0.19228026800E+04  0.50400001928E-02 0. -1.
        1   -1    0    0  501    0  0.00000000000E+00  0.00000000000E+00 -0.13322147665E+04  0.13322147666E+04  0.50400001928E-02 0.  1.
    10030    2    1    2    0    0  0.00000000000E+00  0.00000000000E+00  0.59058791345E+03  0.32550174466E+04  0.32009911737E+04 0.  0.
        4    1    3    3  502    0 -0.11832379978E+04  0.10468047468E+04  0.34583867141E+02  0.15802056810E+04  0.12699999809E+01 0.  1.
       -4    1    3    3    0  502  0.11832379978E+04 -0.10468047468E+04  0.55600404631E+03  0.16748117655E+04  0.12699999809E+01 0. -1.
</event>
<event>
 5   0  0.3283581E-08  0.3200183E+04  0.7818609E-02  0.8188769E-01
       -1   -1    0    0    0  501  0.00000000000E+00  0.00000000000E+00  0.76430925985E+03  0.76430925987E+03  0.50400001928E-02 0. -1.
        1   -1    0    0  501    0  0.00000000000E+00  0.00000000000E+00 -0.33498127826E+04  0.33498127826E+04  0.50400001928E-02 0.  1.
    10030    2    1    2    0    0  0.00000000000E+00  0.00000000000E+00 -0.25855035227E+04  0.41141220425E+04  0.32001830751E+04 0.  0.
        5    1    3    3  502    0  0.90238777483E+03 -0.15395579448E+03 -0.29798963516E+04  0.31173402829E+04  0.46999998093E+01 0.  1.
       -5    1    3    3    0  502 -0.90238777483E+03  0.15395579448E+03  0.39439282887E+03  0.99678175960E+03  0.46999998093E+01 0. -1.
</event>
<event>
 5   0  0.3220147E-08  0.3200917E+04  0.7818609E-02  0.8188575E-01
        1   -1    0    0  501    0  0.00000000000E+00  0.00000000000E+00  0.10556393850E+04  0.10556393850E+04  0.50400001928E-02 0.  1.
       -1   -1    0    0    0  501  0.00000000000E+00  0.00000000000E+00 -0.24264613709E+04  0.24264613709E+04  0.50400001928E-02 0. -1.
    10030    2    1    2    0    0  0.00000000000E+00  0.00000000000E+00 -0.13708219859E+04  0.34821007559E+04  0.32009174868E+04 0.  0.
        4    1    3    3  502    0  0.42713996157E+03  0.14187340636E+04 -0.27097200726E+02  0.14818875670E+04  0.12699999809E+01 0.  1.
       -4    1    3    3    0  502 -0.42713996157E+03 -0.14187340636E+04 -0.13437247852E+04  0.20002131889E+04  0.12699999809E+01 0. -1.
</event>
<event>
 5   0  0.3343140E-08  0.3201763E+04  0.7818609E-02  0.8188352E-01
       -1   -1    0    0    0  501  0.00000000000E+00  0.00000000000E+00  0.23479972559E+04  0.23479972560E+04  0.50400001928E-02 0.  1.
        1   -1    0    0  501    0  0.00000000000E+00  0.00000000000E+00 -0.10914923300E+04  0.10914923300E+04  0.50400001928E-02 0. -1.
    10030    2    1    2    0    0  0.00000000000E+00  0.00000000000E+00  0.12565049259E+04  0.34394895860E+04  0.32017626369E+04 0.  0.
        1    1    3    3  502    0 -0.15031374360E+03  0.70371800944E+03  0.21644686761E+04  0.22809510972E+04  0.50400001928E-02 0.  1.
       -1    1    3    3    0  502  0.15031374360E+03 -0.70371800944E+03 -0.90796375012E+03  0.11585384887E+04  0.50400001928E-02 0. -1.
</event>
<event>
 5   0  0.9157524E-08  0.3199489E+04  0.7818609E-02  0.8188952E-01
       -2   -1    0    0    0  501  0.00000000000E+00  0.00000000000E+00  0.12942742637E+04  0.12942742637E+04  0.25500000920E-02 0.  1.
        2   -1    0    0  501    0  0.00000000000E+00  0.00000000000E+00 -0.19773104449E+04  0.19773104449E+04  0.25500000920E-02 0. -1.
    10030    2    1    2    0    0  0.00000000000E+00  0.00000000000E+00 -0.68303618128E+03  0.32715847086E+04  0.31994887217E+04 0.  0.
        5    1    3    3  502    0  0.69368398045E+02 -0.76881649394E+03 -0.17742584922E+04  0.19349175856E+04  0.46999998093E+01 0. -1.
       -5    1    3    3    0  502 -0.69368398045E+02  0.76881649394E+03  0.10912223109E+04  0.13366671230E+04  0.46999998093E+01 0.  1.
</event>
<event>
 5   0  0.3220147E-08  0.3195814E+04  0.7818609E-02  0.8189924E-01
        1   -1    0    0  501    0  0.00000000000E+00  0.00000000000E+00  0.16713189435E+04  0.16713189435E+04  0.50400001928E-02 0.  1.
       -1   -1    0    0    0  501  0.00000000000E+00  0.00000000000E+00 -0.15277195818E+04  0.15277195818E+04  0.50400001928E-02 0. -1.
    10030    2    1    2    0    0  0.00000000000E+00  0.00000000000E+00  0.14359936166E+03  0.31990385254E+04  0.31958139355E+04 0.  0.
        4    1    3    3  502    0 -0.14041393781E+03  0.12552190251E+03  0.16601689122E+04  0.16708184377E+04  0.12699999809E+01 0.  1.
       -4    1    3    3    0  502  0.14041393781E+03 -0.12552190251E+03 -0.15165695505E+04  0.15282200877E+04  0.12699999809E+01 0. -1.
</event>
<event>
 5   0  0.9157524E-08  0.3205818E+04  0.7818609E-02  0.8187282E-01
        2   -1    0    0  501    0  0.00000000000E+00  0.00000000000E+00  0.15609406839E+04  0.15609406839E+04  0.25500000920E-02 0. -1.
       -2   -1    0    0    0  501  0.00000000000E+00  0.00000000000E+00 -0.16460053268E+04  0.16460053268E+04  0.25500000920E-02 0.  1.
    10030    2    1    2    0    0  0.00000000000E+00  0.00000000000E+00 -0.85064642820E+02  0.32069460107E+04  0.32058176371E+04 0.  0.
        5    1    3    3  502    0  0.17650683046E+03 -0.14792924433E+04 -0.63420799837E+03  0.16191672765E+04  0.46999998093E+01 0.  1.
       -5    1    3    3    0  502 -0.17650683046E+03  0.14792924433E+04  0.54914335555E+03  0.15877787342E+04  0.46999998093E+01 0. -1.
</event>
<event>
 5   0  0.9707721E-08  0.3201918E+04  0.7818609E-02  0.8188311E-01
       -2   -1    0    0    0  501  0.00000000000E+00  0.00000000000E+00  0.95188353744E+03  0.95188353745E+03  0.25500000920E-02 0. -1.
        2   -1    0    0  501    0  0.00000000000E+00  0.00000000000E+00 -0.26926300226E+04  0.26926300226E+04  0.25500000920E-02 0.  1.
    10030    2    1    2    0    0  0.00000000000E+00  0.00000000000E+00 -0.17407464852E+04  0.36445135601E+04  0.32019182944E+04 0.  0.
        3    1    3    3  502    0  0.11863930780E+04  0.49581440217E+03 -0.19560005112E+04  0.23407901374E+04  0.10100000352E+00 0.  1.
       -3    1    3    3    0  502 -0.11863930780E+04 -0.49581440217E+03  0.21525402605E+03  0.13037234227E+04  0.10100000352E+00 0. -1.
</event>
<event>
 5   0  0.9707721E-08  0.3199988E+04  0.7818609E-02  0.8188820E-01
       -2   -1    0    0    0  501  0.00000000000E+00  0.00000000000E+00  0.17773713888E+04  0.17773713888E+04  0.25500000920E-02 0. -1.
        2   -1    0    0  501    0  0.00000000000E+00  0.00000000000E+00 -0.14403181848E+04  0.14403181848E+04  0.25500000920E-02 0.  1.
    10030    2    1    2    0    0  0.00000000000E+00  0.00000000000E+00  0.33705320398E+03  0.32176895735E+04  0.31999877077E+04 0.  0.
        3    1    3    3  502    0  0.23469225540E+03  0.10922831005E+04 -0.98315530106E+03  0.14882060283E+04  0.10100000352E+00 0.  1.
       -3    1    3    3    0  502 -0.23469225540E+03 -0.10922831005E+04  0.13202085050E+04  0.17294835453E+04  0.10100000352E+00 0. -1.
</event>
<event>
 5   0  0.3283581E-08  0.3200648E+04  0.7818609E-02  0.8188646E-01
       -1   -1    0    0    0  501  0.00000000000E+00  0.00000000000E+00  0.11984028792E+04  0.11984028793E+04  0.50400001928E-02 0.  1.
        1   -1    0    0  501    0  0.00000000000E+00  0.00000000000E+00 -0.21370423466E+04  0.21370423467E+04  0.50400001928E-02 0. -1.
    10030    2    1    2    0    0  0.00000000000E+00  0.00000000000E+00 -0.93863946740E+03  0.33354452259E+04  0.32006484976E+04 0.  0.
        5    1    3    3  502    0 -0.13657271836E+04 -0.83409723797E+03 -0.45961803529E+03  0.16649924236E+04  0.46999998093E+01 0.  1.
       -5    1    3    3    0  502  0.13657271836E+04  0.83409723797E+03 -0.47902143211E+03  0.16704528023E+04  0.46999998093E+01 0. -1.
</event>
<event>
 5   0  0.9157524E-08  0.3199077E+04  0.7818609E-02  0.8189061E-01
        2   -1    0    0  501    0  0.00000000000E+00  0.00000000000E+00  0.21096399910E+04  0.21096399910E+04  0.25500000920E-02 0.  1.
       -2   -1    0    0    0  501  0.00000000000E+00  0.00000000000E+00 -0.12127770819E+04  0.12127770819E+04  0.25500000920E-02 0. -1.
    10030    2    1    2    0    0  0.00000000000E+00  0.00000000000E+00  0.89686290907E+03  0.33224170729E+04  0.31990767619E+04 0.  0.
        5    1    3    3  502    0  0.52645985741E+02  0.97678730640E+03  0.17627743276E+04  0.20160060669E+04  0.46999998093E+01 0.  1.
       -5    1    3    3    0  502 -0.52645985741E+02 -0.97678730640E+03 -0.86591141856E+03  0.13064110060E+04  0.46999998093E+01 0. -1.
</event>
<event>
 5   0  0.9707721E-08  0.3199676E+04  0.7818609E-02  0.8188903E-01
        2   -1    0    0  501    0  0.00000000000E+00  0.00000000000E+00  0.17750472608E+04  0.17750472608E+04  0.25500000920E-02 0.  1.
       -2   -1    0    0    0  501  0.00000000000E+00  0.00000000000E+00 -0.14419229967E+04  0.14419229967E+04  0.25500000920E-02 0. -1.
    10030    2    1    2    0    0  0.00000000000E+00  0.00000000000E+00  0.33312426414E+03  0.32169702575E+04  0.31996758996E+04 0.  0.
        3    1    3    3  502    0  0.14247163542E+04 -0.10115776687E+03  0.89117384934E+03  0.16835202475E+04  0.10100000352E+00 0.  1.
       -3    1    3    3    0  502 -0.14247163542E+04  0.10115776687E+03 -0.55804958520E+03  0.15334500101E+04  0.10100000352E+00 0. -1.
</event>
<event>
 5   0  0.3270966E-08  0.3199633E+04  0.7818609E-02  0.8188914E-01
       -1   -1    0    0    0  501  0.00000000000E+00  0.00000000000E+00  0.18643646789E+04  0.18643646789E+04  0.50400001928E-02 0. -1.
        1   -1    0    0  501    0  0.00000000000E+00  0.00000000000E+00 -0.13728068021E+04  0.13728068021E+04  0.50400001928E-02 0.  1.
    10030    2    1    2    0    0  0.00000000000E+00  0.00000000000E+00  0.49155787678E+03  0.32371714810E+04  0.31996327994E+04 0.  0.
        3    1    3    3  502    0  0.81298854915E+03 -0.32787965266E+03  0.15997461632E+04  0.18241828978E+04  0.10100000352E+00 0. -1.
       -3    1    3    3    0  502 -0.81298854915E+03  0.32787965266E+03 -0.11081882865E+04  0.14129885832E+04  0.10100000352E+00 0.  1.
</event>
<event>
 5   0  0.3270966E-08  0.3200786E+04  0.7818609E-02  0.8188610E-01
        1   -1    0    0  501    0  0.00000000000E+00  0.00000000000E+00  0.19439835437E+04  0.19439835437E+04  0.50400001928E-02 0.  1.
       -1   -1    0    0    0  501  0.00000000000E+00  0.00000000000E+00 -0.13175305385E+04  0.13175305385E+04  0.50400001928E-02 0. -1.
    10030    2    1    2    0    0  0.00000000000E+00  0.00000000000E+00  0.62645300523E+03  0.32615140823E+04  0.32007859568E+04 0.  0.
        3    1    3    3  502    0  0.30844754231E+03 -0.97045276115E+03 -0.94483953377E+03  0.13891148990E+04  0.10100000352E+00 0. -1.
       -3    1    3    3    0  502 -0.30844754231E+03  0.97045276115E+03  0.15712925390E+04  0.18723991832E+04  0.10100000352E+00 0.  1.
</event>
<event>
 5   0  0.3220147E-08  0.3201151E+04  0.7818609E-02  0.8188513E-01
        1   -1    0    0  501    0  0.00000000000E+00  0.00000000000E+00  0.15549159677E+04  0.15549159677E+04  0.50400001928E-02 0.  1.
       -1   -1    0    0    0  501  0.00000000000E+00  0.00000000000E+00 -0.16475753175E+04  0.16475753175E+04  0.50400001928E-02 0. -1.
    10030    2    1    2    0    0  0.00000000000E+00  0.00000000000E+00 -0.92659349777E+02  0.32024912852E+04  0.32011505239E+04 0.  0.
        4    1    3    3  502    0 -0.37218368327E+03  0.11996031745E+04  0.94619022788E+03  0.15725285469E+04  0.12699999809E+01 0.  1.
       -4    1    3    3    0  502  0.37218368327E+03 -0.11996031745E+04 -0.10388495777E+04  0.16299627383E+04  0.12699999809E+01 0. -1.
</event>
<event>
 5   0  0.9329929E-08  0.3199540E+04  0.7818609E-02  0.8188939E-01
       -2   -1    0    0    0  501  0.00000000000E+00  0.00000000000E+00  0.27416753083E+04  0.27416753083E+04  0.25500000920E-02 0. -1.
        2   -1    0    0  501    0  0.00000000000E+00  0.00000000000E+00 -0.93346699481E+03  0.93346699481E+03  0.25500000920E-02 0.  1.
    10030    2    1    2    0    0  0.00000000000E+00  0.00000000000E+00  0.18082083135E+04  0.36751423032E+04  0.31995395987E+04 0.  0.
        1    1    3    3  502    0 -0.12481898567E+04  0.77808453076E+03  0.16268122887E+04  0.21931510842E+04  0.50400001928E-02 0. -1.
       -1    1    3    3    0  502  0.12481898567E+04 -0.77808453076E+03  0.18139602485E+03  0.14819912190E+04  0.50400001928E-02 0.  1.
</event>
<event>
 5   0  0.9157524E-08  0.3189306E+04  0.7818609E-02  0.8191647E-01
        2   -1    0    0  501    0  0.00000000000E+00  0.00000000000E+00  0.25815807566E+04  0.25815807566E+04  0.25500000920E-02 0. -1.
       -2   -1    0    0    0  501  0.00000000000E+00  0.00000000000E+00 -0.98502399153E+03  0.98502399154E+03  0.25500000920E-02 0.  1.
    10030    2    1    2    0    0  0.00000000000E+00  0.00000000000E+00  0.15965567651E+04  0.35666047481E+04  0.31893064960E+04 0.  0.
        5    1    3    3  502    0 -0.10737011287E+04 -0.11617678287E+04  0.10229380456E+04  0.18838691400E+04  0.46999998093E+01 0. -1.
       -5    1    3    3    0  502  0.10737011287E+04  0.11617678287E+04  0.57361871944E+03  0.16827356081E+04  0.46999998093E+01 0.  1.
</event>
<event>
 5   0  0.9353994E-08  0.3199089E+04  0.7818609E-02  0.8189058E-01
        2   -1    0    0  501    0  0.00000000000E+00  0.00000000000E+00  0.97288787886E+03  0.97288787886E+03  0.25500000920E-02 0. -1.
       -2   -1    0    0    0  501  0.00000000000E+00  0.00000000000E+00 -0.26298438418E+04  0.26298438418E+04  0.25500000920E-02 0.  1.
    10030    2    1    2    0    0  0.00000000000E+00  0.00000000000E+00 -0.16569559629E+04  0.36027317207E+04  0.31990893685E+04 0.  0.
        2    1    3    3  502    0  0.13233323721E+04 -0.26625213463E+03 -0.17949194173E+04  0.22458482765E+04  0.25500000920E-02 0.  1.
       -2    1    3    3    0  502 -0.13233323721E+04  0.26625213463E+03  0.13796345436E+03  0.13568834442E+04  0.25500000920E-02 0. -1.
</event>
<event>
 5   0  0.9707721E-08  0.3200664E+04  0.7818609E-02  0.8188642E-01
       -2   -1    0    0    0  501  0.00000000000E+00  0.00000000000E+00  0.17215065523E+04  0.17215065523E+04  0.25500000920E-02 0.  1.
        2   -1    0    0  501    0  0.00000000000E+00  0.00000000000E+00 -0.14876864846E+04  0.14876864846E+04  0.25500000920E-02 0. -1.
    10030    2    1    2    0    0  0.00000000000E+00  0.00000000000E+00  0.23382006768E+03  0.32091930370E+04  0.32006637006E+04 0.  0.
        3    1    3    3  502    0  0.65978492612E+03 -0.47000658671E+03 -0.12669271996E+04  0.15037708867E+04  0.10100000352E+00 0. -1.
       -3    1    3    3    0  502 -0.65978492612E+03  0.47000658671E+03  0.15007472673E+04  0.17054221503E+04  0.10100000352E+00 0.  1.
</event>
<event>
 5   0  0.3220147E-08  0.3199917E+04  0.7818609E-02  0.8188839E-01
        1   -1    0    0  501    0  0.00000000000E+00  0.00000000000E+00  0.22218180958E+04  0.22218180959E+04  0.50400001928E-02 0.  1.
       -1   -1    0    0    0  501  0.00000000000E+00  0.00000000000E+00 -0.11521497437E+04  0.11521497437E+04  0.50400001928E-02 0. -1.
    10030    2    1    2    0    0  0.00000000000E+00  0.00000000000E+00  0.10696683522E+04  0.33739678396E+04  0.31999169675E+04 0.  0.
        4    1    3    3  502    0 -0.14132598428E+04  0.23321935005E+03  0.12864693931E+04  0.19252791384E+04  0.12699999809E+01 0.  1.
       -4    1    3    3    0  502  0.14132598428E+04 -0.23321935005E+03 -0.21680104091E+03  0.14486887011E+04  0.12699999809E+01 0. -1.
</event>
<event>
 5   0  0.3343140E-08  0.3201194E+04  0.7818609E-02  0.8188502E-01
       -1   -1    0    0    0  501  0.00000000000E+00  0.00000000000E+00  0.15549289493E+04  0.15549289493E+04  0.50400001928E-02 0. -1.
        1   -1    0    0  501    0  0.00000000000E+00  0.00000000000E+00 -0.16476067056E+04  0.16476067056E+04  0.50400001928E-02 0.  1.
    10030    2    1    2    0    0  0.00000000000E+00  0.00000000000E+00 -0.92677756306E+02  0.32025356549E+04  0.32011943793E+04 0.  0.
        1    1    3    3  502    0  0.92276865500E+03  0.12824377458E+04  0.21021115733E+03  0.15938435599E+04  0.50400001928E-02 0. -1.
       -1    1    3    3    0  502 -0.92276865500E+03 -0.12824377458E+04 -0.30288891364E+03  0.16086920950E+04  0.50400001928E-02 0.  1.
</event>
<event>
 5   0  0.9707721E-08  0.3199746E+04  0.7818609E-02  0.8188884E-01
       -2   -1    0    0    0  501  0.00000000000E+00  0.00000000000E+00  0.15573589297E+04  0.15573589297E+04  0.25500000920E-02 0. -1.
        2   -1    0    0  501    0  0.00000000000E+00  0.00000000000E+00 -0.16435480945E+04  0.16435480945E+04  0.25500000920E-02 0.  1.
    10030    2    1    2    0    0  0.00000000000E+00  0.00000000000E+00 -0.86189164740E+02  0.32009070242E+04  0.31997464283E+04 0.  0.
        3    1    3    3  502    0  0.21554593640E+02 -0.46520602895E+03  0.14880529689E+04  0.15592250954E+04  0.10100000352E+00 0. -1.
       -3    1    3    3    0  502 -0.21554593640E+02  0.46520602895E+03 -0.15742421336E+04  0.16416819288E+04  0.10100000352E+00 0.  1.
</event>
<event>
 5   0  0.9157524E-08  0.3196782E+04  0.7818609E-02  0.8189668E-01
       -2   -1    0    0    0  501  0.00000000000E+00  0.00000000000E+00  0.15843433991E+04  0.15843433991E+04  0.25500000920E-02 0.  1.
        2   -1    0    0  501    0  0.00000000000E+00  0.00000000000E+00 -0.16125633059E+04  0.16125633059E+04  0.25500000920E-02 0. -1.
    10030    2    1    2    0    0  0.00000000000E+00  0.00000000000E+00 -0.28219906769E+02  0.31969067050E+04  0.31967821504E+04 0.  0.
        5    1    3    3  502    0 -0.16964830976E+03 -0.15874913741E+04 -0.91070910207E+02  0.15991327064E+04  0.46999998093E+01 0.  1.
       -5    1    3    3    0  502  0.16964830976E+03  0.15874913741E+04  0.62851003439E+02  0.15977739986E+04  0.46999998093E+01 0. -1.
</event>
<event>
 5   0  0.3270966E-08  0.3202390E+04  0.7818609E-02  0.8188186E-01
        1   -1    0    0  501    0  0.00000000000E+00  0.00000000000E+00  0.18125647285E+04  0.18125647285E+04  0.50400001928E-02 0. -1.
       -1   -1    0    0    0  501  0.00000000000E+00  0.00000000000E+00 -0.14144738712E+04  0.14144738713E+04  0.50400001928E-02 0.  1.
    10030    2    1    2    0    0  0.00000000000E+00  0.00000000000E+00  0.39809085727E+03  0.32270385998E+04  0.32023900128E+04 0.  0.
        3    1    3    3  502    0  0.92393322166E+03  0.11989307359E+04 -0.32721741492E+03  0.15485989650E+04  0.10100000352E+00 0.  1.
       -3    1    3    3    0  502 -0.92393322166E+03 -0.11989307359E+04  0.72530827219E+03  0.16784396348E+04  0.10100000352E+00 0. -1.
</event>
<event>
 5   0  0.3220147E-08  0.3204055E+04  0.7818609E-02  0.8187747E-01
       -1   -1    0    0    0  501  0.00000000000E+00  0.00000000000E+00  0.11332670864E+04  0.11332670864E+04  0.50400001928E-02 0.  1.
        1   -1    0    0  501    0  0.00000000000E+00  0.00000000000E+00 -0.22646846930E+04  0.22646846930E+04  0.50400001928E-02 0. -1.
    10030    2    1    2    0    0  0.00000000000E+00  0.00000000000E+00 -0.11314176066E+04  0.33979517795E+04  0.32040553202E+04 0.  0.
        4    1    3    3  502    0 -0.26023718595E+03 -0.14419923265E+04 -0.12525316758E+04  0.19276676255E+04  0.12699999809E+01 0.  1.
       -4    1    3    3    0  502  0.26023718595E+03  0.14419923265E+04  0.12111406926E+03  0.14702841539E+04  0.12699999809E+01 0. -1.
</event>
<event>
 5   0  0.3427667E-08  0.3198525E+04  0.7818609E-02  0.8189207E-01
        1   -1    0    0  501    0  0.00000000000E+00  0.00000000000E+00  0.16216088065E+04  0.16216088066E+04  0.50400001928E-02 0.  1.
       -1   -1    0    0    0  501  0.00000000000E+00  0.00000000000E+00 -0.15772242952E+04  0.15772242953E+04  0.50400001928E-02 0. -1.
    10030    2    1    2    0    0  0.00000000000E+00  0.00000000000E+00  0.44384511294E+02  0.31988331018E+04  0.31985251646E+04 0.  0.
        2    1    3    3  502    0  0.15667329726E+04 -0.66859781910E+02  0.33609883381E+03  0.16037720736E+04  0.25500000920E-02 0.  1.
       -2    1    3    3    0  502 -0.15667329726E+04  0.66859781910E+02 -0.29171432252E+03  0.15950610282E+04  0.25500000920E-02 0. -1.
</event>
<event>
 5   0  0.9727083E-08  0.3200269E+04  0.7818609E-02  0.8188746E-01
        2   -1    0    0  501    0  0.00000000000E+00  0.00000000000E+00  0.17211340802E+04  0.17211340802E+04  0.25500000920E-02 0. -1.
       -2   -1    0    0    0  501  0.00000000000E+00  0.00000000000E+00 -0.14876416589E+04  0.14876416589E+04  0.25500000920E-02 0.  1.
    10030    2    1    2    0    0  0.00000000000E+00  0.00000000000E+00  0.23349242130E+03  0.32087757392E+04  0.32002692127E+04 0.  0.
        4    1    3    3  502    0 -0.98775219087E+03  0.10771012170E+04  0.77011295330E+03  0.16519312927E+04  0.12699999809E+01 0. -1.
       -4    1    3    3    0  502  0.98775219087E+03 -0.10771012170E+04 -0.53662053200E+03  0.15568444465E+04  0.12699999809E+01 0.  1.
</event>
<event>
 5   0  0.3283581E-08  0.3199301E+04  0.7818609E-02  0.8189002E-01
       -1   -1    0    0    0  501  0.00000000000E+00  0.00000000000E+00  0.13133212943E+04  0.13133212943E+04  0.50400001928E-02 0.  1.
        1   -1    0    0  501    0  0.00000000000E+00  0.00000000000E+00 -0.19484043784E+04  0.19484043784E+04  0.50400001928E-02 0. -1.
    10030    2    1    2    0    0  0.00000000000E+00  0.00000000000E+00 -0.63508308412E+03  0.32617256727E+04  0.31993005235E+04 0.  0.
        5    1    3    3  502    0 -0.20636753914E+03 -0.48409267385E+03 -0.18576210220E+04  0.19307281604E+04  0.46999998093E+01 0. -1.
       -5    1    3    3    0  502  0.20636753914E+03  0.48409267385E+03  0.12225379379E+04  0.13309975122E+04  0.46999998093E+01 0.  1.
</event>
<event>
 5   0  0.9157524E-08  0.3199852E+04  0.7818609E-02  0.8188856E-01
        2   -1    0    0  501    0  0.00000000000E+00  0.00000000000E+00  0.23189282525E+04  0.23189282525E+04  0.25500000920E-02 0. -1.
       -2   -1    0    0    0  501  0.00000000000E+00  0.00000000000E+00 -0.11038560065E+04  0.11038560065E+04  0.25500000920E-02 0.  1.
    10030    2    1    2    0    0  0.00000000000E+00  0.00000000000E+00  0.12150722460E+04  0.34227842590E+04  0.31998517966E+04 0.  0.
        5    1    3    3  502    0  0.84250592836E+02 -0.87006520031E+03  0.20409050599E+04  0.22202313322E+04  0.46999998093E+01 0. -1.
       -5    1    3    3    0  502 -0.84250592836E+02  0.87006520031E+03 -0.82583281386E+03  0.12025529267E+04  0.46999998093E+01 0.  1.
</event>
<event>
 5   0  0.3427667E-08  0.3200432E+04  0.7818609E-02  0.8188703E-01
       -1   -1    0    0    0  501  0.00000000000E+00  0.00000000000E+00  0.10101082240E+04  0.10101082240E+04  0.50400001928E-02 0. -1.
        1   -1    0    0  501    0  0.00000000000E+00  0.00000000000E+00 -0.25350665013E+04  0.25350665013E+04  0.50400001928E-02 0.  1.
    10030    2    1    2    0    0  0.00000000000E+00  0.00000000000E+00 -0.15249582773E+04  0.35451747253E+04  0.32004321716E+04 0.  0.
        2    1    3    3  502    0 -0.56975174708E+03 -0.10968266114E+04  0.36339233686E+03  0.12882933126E+04  0.25500000920E-02 0.  1.
       -2    1    3    3    0  502  0.56975174708E+03  0.10968266114E+04 -0.18883506142E+04  0.22568814127E+04  0.25500000920E-02 0. -1.
</event>
<event>
 5   0  0.9329929E-08  0.3200405E+04  0.7818609E-02  0.8188710E-01
       -2   -1    0    0    0  501  0.00000000000E+00  0.00000000000E+00  0.13840760771E+04  0.13840760771E+04  0.25500000920E-02 0. -1.
        2   -1    0    0  501    0  0.00000000000E+00  0.00000000000E+00 -0.18500776369E+04  0.18500776369E+04  0.25500000920E-02 0.  1.
    10030    2    1    2    0    0  0.00000000000E+00  0.00000000000E+00 -0.46600155984E+03  0.32341537140E+04  0.32004050981E+04 0.  0.
        1    1    3    3  502    0 -0.99883105178E+03  0.15148983703E+03 -0.14870687562E+04  0.17977725458E+04  0.50400001928E-02 0.  1.
       -1    1    3    3    0  502  0.99883105178E+03 -0.15148983703E+03  0.10210671964E+04  0.14363811682E+04  0.50400001928E-02 0. -1.
</event>
<event>
 5   0  0.3283581E-08  0.3200400E+04  0.7818609E-02  0.8188712E-01
       -1   -1    0    0    0  501  0.00000000000E+00  0.00000000000E+00  0.20135587965E+04  0.20135587965E+04  0.50400001928E-02 0.  1.
        1   -1    0    0  501    0  0.00000000000E+00  0.00000000000E+00 -0.12716984968E+04  0.12716984968E+04  0.50400001928E-02 0. -1.
    10030    2    1    2    0    0  0.00000000000E+00  0.00000000000E+00  0.74186029964E+03  0.32852572933E+04  0.32003997843E+04 0.  0.
        5    1    3    3  502    0  0.14835148586E+04 -0.26874765588E+03  0.92141002910E+03  0.17669352479E+04  0.46999998093E+01 0.  1.
       -5    1    3    3    0  502 -0.14835148586E+04  0.26874765588E+03 -0.17954972947E+03  0.15183220455E+04  0.46999998093E+01 0. -1.
</event>
<event>
 5   0  0.3427667E-08  0.3200533E+04  0.7818609E-02  0.8188676E-01
       -1   -1    0    0    0  501  0.00000000000E+00  0.00000000000E+00  0.14490888776E+04  0.14490888776E+04  0.50400001928E-02 0.  1.
        1   -1    0    0  501    0  0.00000000000E+00  0.00000000000E+00 -0.17672160844E+04  0.17672160844E+04  0.50400001928E-02 0. -1.
    10030    2    1    2    0    0  0.00000000000E+00  0.00000000000E+00 -0.31812720686E+03  0.32163049620E+04  0.32005331883E+04 0.  0.
        2    1    3    3  502    0  0.12539801872E+04 -0.31599741207E+03  0.78820151213E+03  0.15144577571E+04  0.25500000920E-02 0.  1.
       -2    1    3    3    0  502 -0.12539801872E+04  0.31599741207E+03 -0.11063287190E+04  0.17018472049E+04  0.25500000920E-02 0. -1.
</event>
<event>
 5   0  0.9353994E-08  0.3198844E+04  0.7818609E-02  0.8189122E-01
        2   -1    0    0  501    0  0.00000000000E+00  0.00000000000E+00  0.19259582885E+04  0.19259582885E+04  0.25500000920E-02 0. -1.
       -2   -1    0    0    0  501  0.00000000000E+00  0.00000000000E+00 -0.13282485827E+04  0.13282485827E+04  0.25500000920E-02 0.  1.
    10030    2    1    2    0    0  0.00000000000E+00  0.00000000000E+00  0.59770970580E+03  0.32542068711E+04  0.31988443957E+04 0.  0.
        2    1    3    3  502    0  0.11916688950E+04 -0.22894347608E+03  0.13588387330E+04  0.18217937789E+04  0.25500000920E-02 0. -1.
       -2    1    3    3    0  502 -0.11916688950E+04  0.22894347608E+03 -0.76112902720E+03  0.14324130922E+04  0.25500000920E-02 0.  1.
</event>
<event>
 5   0  0.9353994E-08  0.3199668E+04  0.7818609E-02  0.8188905E-01
        2   -1    0    0  501    0  0.00000000000E+00  0.00000000000E+00  0.22926616759E+04  0.22926616759E+04  0.25500000920E-02 0. -1.
       -2   -1    0    0    0  501  0.00000000000E+00  0.00000000000E+00 -0.11163746703E+04  0.11163746703E+04  0.25500000920E-02 0.  1.
    10030    2    1    2    0    0  0.00000000000E+00  0.00000000000E+00  0.11762870056E+04  0.34090363462E+04  0.31996683719E+04 0.  0.
        2    1    3    3  502    0  0.69794205299E+03 -0.89308199409E+03  0.17910706358E+04  0.21195878325E+04  0.25500000920E-02 0. -1.
       -2    1    3    3    0  502 -0.69794205299E+03  0.89308199409E+03 -0.61478363014E+03  0.12894485137E+04  0.25500000920E-02 0.  1.
</event>
<event>
 5   0  0.9727083E-08  0.3197707E+04  0.7818609E-02  0.8189423E-01
        2   -1    0    0  501    0  0.00000000000E+00  0.00000000000E+00  0.20320574548E+04  0.20320574548E+04  0.25500000920E-02 0.  1.
       -2   -1    0    0    0  501  0.00000000000E+00  0.00000000000E+00 -0.12580022980E+04  0.12580022980E+04  0.25500000920E-02 0. -1.
    10030    2    1    2    0    0  0.00000000000E+00  0.00000000000E+00  0.77405515678E+03  0.32900597527E+04  0.31977072710E+04 0.  0.
        4    1    3    3  502    0 -0.61779812387E+03 -0.83951588173E+03  0.16344241007E+04  0.19385059173E+04  0.12699999809E+01 0.  1.
       -4    1    3    3    0  502  0.61779812387E+03  0.83951588173E+03 -0.86036894392E+03  0.13515538354E+04  0.12699999809E+01 0. -1.
</event>
<event>
 5   0  0.9353994E-08  0.3198975E+04  0.7818609E-02  0.8189088E-01
        2   -1    0    0  501    0  0.00000000000E+00  0.00000000000E+00  0.10055292142E+04  0.10055292142E+04  0.25500000920E-02 0. -1.
       -2   -1    0    0    0  501  0.00000000000E+00  0.00000000000E+00 -0.25442926486E+04  0.25442926486E+04  0.25500000920E-02 0.  1.
    10030    2    1    2    0    0  0.00000000000E+00  0.00000000000E+00 -0.15387634345E+04  0.35498218628E+04  0.31989752031E+04 0.  0.
        2    1    3    3  502    0 -0.40154087192E+03 -0.77479317586E+03 -0.22568513205E+04  0.24196936624E+04  0.25500000920E-02 0.  1.
       -2    1    3    3    0  502  0.40154087192E+03  0.77479317586E+03  0.71808788602E+03  0.11301282004E+04  0.25500000920E-02 0. -1.
</event>
<event>
 5   0  0.9353994E-08  0.3199194E+04  0.7818609E-02  0.8189030E-01
        2   -1    0    0  501    0  0.00000000000E+00  0.00000000000E+00  0.20123780885E+04  0.20123780885E+04  0.25500000920E-02 0.  1.
       -2   -1    0    0    0  501  0.00000000000E+00  0.00000000000E+00 -0.12714862609E+04  0.12714862609E+04  0.25500000920E-02 0. -1.
    10030    2    1    2    0    0  0.00000000000E+00  0.00000000000E+00  0.74089182764E+03  0.32838643494E+04  0.31991943306E+04 0.  0.
        2    1    3    3  502    0 -0.47068875067E+03 -0.54267926775E+03 -0.10965972269E+04  0.13109439979E+04  0.25500000920E-02 0. -1.
       -2    1    3    3    0  502  0.47068875067E+03  0.54267926775E+03  0.18374890545E+04  0.19729203514E+04  0.25500000920E-02 0.  1.
</event>
<event>
 5   0  0.9707721E-08  0.3201278E+04  0.7818609E-02  0.8188480E-01
       -2   -1    0    0    0  501  0.00000000000E+00  0.00000000000E+00  0.84878231009E+03  0.84878231010E+03  0.25500000920E-02 0. -1.
        2   -1    0    0  501    0  0.00000000000E+00  0.00000000000E+00 -0.30184947683E+04  0.30184947683E+04  0.25500000920E-02 0.  1.
    10030    2    1    2    0    0  0.00000000000E+00  0.00000000000E+00 -0.21697124582E+04  0.38672770784E+04  0.32012778464E+04 0.  0.
        3    1    3    3  502    0  0.26098496134E+03  0.15767949913E+04 -0.97920017107E+03  0.18743608457E+04  0.10100000352E+00 0. -1.
       -3    1    3    3    0  502 -0.26098496134E+03 -0.15767949913E+04 -0.11905122871E+04  0.19929162327E+04  0.10100000352E+00 0.  1.
</event>
<event>
 5   0  0.3220147E-08  0.3200716E+04  0.7818609E-02  0.8188628E-01
       -1   -1    0    0    0  501  0.00000000000E+00  0.00000000000E+00  0.10563469940E+04  0.10563469940E+04  0.50400001928E-02 0.  1.
        1   -1    0    0  501    0  0.00000000000E+00  0.00000000000E+00 -0.24245305337E+04  0.24245305337E+04  0.50400001928E-02 0. -1.
    10030    2    1    2    0    0  0.00000000000E+00  0.00000000000E+00 -0.13681835397E+04  0.34808775277E+04  0.32007158831E+04 0.  0.
        4    1    3    3  502    0  0.63352988788E+03  0.90297558684E+03 -0.19450738726E+04  0.22360767009E+04  0.12699999809E+01 0. -1.
       -4    1    3    3    0  502 -0.63352988788E+03 -0.90297558684E+03  0.57689033297E+03  0.12448008268E+04  0.12699999809E+01 0.  1.
</event>
<event>
 5   0  0.3343140E-08  0.3199585E+04  0.7818609E-02  0.8188927E-01
        1   -1    0    0  501    0  0.00000000000E+00  0.00000000000E+00  0.19905733501E+04  0.19905733501E+04  0.50400001928E-02 0.  1.
       -1   -1    0    0    0  501  0.00000000000E+00  0.00000000000E+00 -0.12857279929E+04  0.12857279930E+04  0.50400001928E-02 0. -1.
    10030    2    1    2    0    0  0.00000000000E+00  0.00000000000E+00  0.70484535715E+03  0.32763013431E+04  0.31995848970E+04 0.  0.
        1    1    3    3  502    0  0.73102176071E+02  0.94843943091E+03 -0.96467392032E+03  0.13547977911E+04  0.50400001928E-02 0. -1.
       -1    1    3    3    0  502 -0.73102176071E+02 -0.94843943091E+03  0.16695192775E+04  0.19215035519E+04  0.50400001928E-02 0.  1.
</event>
<event>
 5   0  0.3270966E-08  0.3199925E+04  0.7818609E-02  0.8188837E-01
       -1   -1    0    0    0  501  0.00000000000E+00  0.00000000000E+00  0.80667690072E+03  0.80667690073E+03  0.50400001928E-02 0.  1.
        1   -1    0    0  501    0  0.00000000000E+00  0.00000000000E+00 -0.31733640374E+04  0.31733640374E+04  0.50400001928E-02 0. -1.
    10030    2    1    2    0    0  0.00000000000E+00  0.00000000000E+00 -0.23666871366E+04  0.39800409381E+04  0.31999246657E+04 0.  0.
        3    1    3    3  502    0  0.93087239975E+03 -0.93379143692E+03 -0.23105991146E+04  0.26603304590E+04  0.10100000352E+00 0. -1.
       -3    1    3    3    0  502 -0.93087239975E+03  0.93379143692E+03 -0.56088022034E+02  0.13197104791E+04  0.10100000352E+00 0.  1.
</event>
<event>
 5   0  0.3427667E-08  0.3200552E+04  0.7818609E-02  0.8188671E-01
        1   -1    0    0  501    0  0.00000000000E+00  0.00000000000E+00  0.18389047879E+04  0.18389047879E+04  0.50400001928E-02 0. -1.
       -1   -1    0    0    0  501  0.00000000000E+00  0.00000000000E+00 -0.13926136327E+04  0.13926136327E+04  0.50400001928E-02 0.  1.
    10030    2    1    2    0    0  0.00000000000E+00  0.00000000000E+00  0.44629115524E+03  0.32315184207E+04  0.32005523754E+04 0.  0.
        2    1    3    3  502    0  0.11833676583E+04  0.10586000754E+04  0.42480464639E+03  0.16436094798E+04  0.25500000920E-02 0. -1.
       -2    1    3    3    0  502 -0.11833676583E+04 -0.10586000754E+04  0.21486508846E+02  0.15879089409E+04  0.25500000920E-02 0.  1.
</event>
<event>
 5   0  0.3270966E-08  0.3199510E+04  0.7818609E-02  0.8188946E-01
        1   -1    0    0  501    0  0.00000000000E+00  0.00000000000E+00  0.27389740420E+04  0.27389740420E+04  0.50400001928E-02 0.  1.
       -1   -1    0    0    0  501  0.00000000000E+00  0.00000000000E+00 -0.93437060969E+03  0.93437060970E+03  0.50400001928E-02 0. -1.
    10030    2    1    2    0    0  0.00000000000E+00  0.00000000000E+00  0.18046034323E+04  0.36733446517E+04  0.31995104910E+04 0.  0.
        3    1    3    3  502    0 -0.99563606268E+03 -0.10801913917E+04  0.16294300831E+04  0.21938885610E+04  0.10100000352E+00 0. -1.
       -3    1    3    3    0  502  0.99563606268E+03  0.10801913917E+04  0.17517334917E+03  0.14794560907E+04  0.10100000352E+00 0.  1.
</event>
<event>
 5   0  0.9727083E-08  0.3199125E+04  0.7818609E-02  0.8189048E-01
        2   -1    0    0  501    0  0.00000000000E+00  0.00000000000E+00  0.19015467548E+04  0.19015467548E+04  0.25500000920E-02 0.  1.
       -2   -1    0    0    0  501  0.00000000000E+00  0.00000000000E+00 -0.13455364885E+04  0.13455364885E+04  0.25500000920E-02 0. -1.
    10030    2    1    2    0    0  0.00000000000E+00  0.00000000000E+00  0.55601026633E+03  0.32470832433E+04  0.31991252199E+04 0.  0.
        4    1    3    3  502    0 -0.81906438350E+03 -0.81754581674E+02  0.16700787334E+04  0.18619116157E+04  0.12699999809E+01 0.  1.
       -4    1    3    3    0  502  0.81906438350E+03  0.81754581674E+02 -0.11140684671E+04  0.13851716277E+04  0.12699999809E+01 0. -1.
</event>
<event>
 5   0  0.9727083E-08  0.3199037E+04  0.7818609E-02  0.8189071E-01
        2   -1    0    0  501    0  0.00000000000E+00  0.00000000000E+00  0.15099827311E+04  0.15099827311E+04  0.25500000920E-02 0.  1.
       -2   -1    0    0    0  501  0.00000000000E+00  0.00000000000E+00 -0.16943636061E+04  0.16943636061E+04  0.25500000920E-02 0. -1.
    10030    2    1    2    0    0  0.00000000000E+00  0.00000000000E+00 -0.18438087496E+03  0.32043463373E+04  0.31990372211E+04 0.  0.
        4    1    3    3  502    0  0.14569877925E+04 -0.66003360042E+03 -0.92817122491E+02  0.16022092286E+04  0.12699999809E+01 0.  1.
       -4    1    3    3    0  502 -0.14569877925E+04  0.66003360042E+03 -0.91563752470E+02  0.16021371086E+04  0.12699999809E+01 0. -1.
</event>
<event>
 5   0  0.9353994E-08  0.3199852E+04  0.7818609E-02  0.8188856E-01
        2   -1    0    0  501    0  0.00000000000E+00  0.00000000000E+00  0.28228257313E+04  0.28228257313E+04  0.25500000920E-02 0. -1.
       -2   -1    0    0    0  501  0.00000000000E+00  0.00000000000E+00 -0.90680886160E+03  0.90680886160E+03  0.25500000920E-02 0.  1.
    10030    2    1    2    0    0  0.00000000000E+00  0.00000000000E+00  0.19160168697E+04  0.37296345929E+04  0.31998521140E+04 0.  0.
        2    1    3    3  502    0 -0.41639639522E+03 -0.15297318363E+04  0.70721439776E+03  0.17359774345E+04  0.25500000920E-02 0.  1.
       -2    1    3    3    0  502  0.41639639522E+03  0.15297318363E+04  0.12088024719E+04  0.19936571583E+04  0.25500000920E-02 0. -1.
</event>
<event>
 5   0  0.3080500E-08  0.3199544E+04  0.7818609E-02  0.8188938E-01
        3   -1    0    0  501    0  0.00000000000E+00  0.00000000000E+00  0.14400311426E+04  0.14400311462E+04  0.10100000352E+00 0. -1.
       -3   -1    0    0    0  501  0.00000000000E+00  0.00000000000E+00 -0.17772329404E+04  0.17772329433E+04  0.10100000352E+00 0.  1.
    10030    2    1    2    0    0  0.00000000000E+00  0.00000000000E+00 -0.33720179780E+03  0.32172640894E+04  0.31995442127E+04 0.  0.
        3    1    3    3  502    0 -0.10649746468E+04  0.35328319191E+03 -0.13152191110E+04  0.17288092238E+04  0.10100000352E+00 0.  1.
       -3    1    3    3    0  502  0.10649746468E+04 -0.35328319191E+03  0.97801731319E+03  0.14884548657E+04  0.10100000352E+00 0. -1.
</event>
<event>
 5   0  0.3220147E-08  0.3194617E+04  0.7818609E-02  0.8190240E-01
       -1   -1    0    0    0  501  0.00000000000E+00  0.00000000000E+00  0.88369119485E+03  0.88369119486E+03  0.50400001928E-02 0.  1.
        1   -1    0    0  501    0  0.00000000000E+00  0.00000000000E+00 -0.28872020749E+04  0.28872020749E+04  0.50400001928E-02 0. -1.
    10030    2    1    2    0    0  0.00000000000E+00  0.00000000000E+00 -0.20035108801E+04  0.37708932698E+04  0.31946173802E+04 0.  0.
        4    1    3    3  502    0  0.50940442872E+03 -0.45704289323E+02 -0.27879356527E+04  0.28344608959E+04  0.12699999809E+01 0. -1.
       -4    1    3    3    0  502 -0.50940442872E+03  0.45704289323E+02  0.78442477261E+03  0.93643237387E+03  0.12699999809E+01 0.  1.
</event>
<event>
 5   0  0.3270966E-08  0.3199408E+04  0.7818609E-02  0.8188974E-01
        1   -1    0    0  501    0  0.00000000000E+00  0.00000000000E+00  0.82859802142E+03  0.82859802143E+03  0.50400001928E-02 0.  1.
       -1   -1    0    0    0  501  0.00000000000E+00  0.00000000000E+00 -0.30884125236E+04  0.30884125236E+04  0.50400001928E-02 0. -1.
    10030    2    1    2    0    0  0.00000000000E+00  0.00000000000E+00 -0.22598145022E+04  0.39170105451E+04  0.31994077617E+04 0.  0.
        3    1    3    3  502    0 -0.40111909534E+02 -0.60094799798E+03  0.68448622320E+03  0.91173947020E+03  0.10100000352E+00 0.  1.
       -3    1    3    3    0  502  0.40111909534E+02  0.60094799798E+03 -0.29443007254E+04  0.30052710749E+04  0.10100000352E+00 0. -1.
</event>
<event>
 5   0  0.3220147E-08  0.3199328E+04  0.7818609E-02  0.8188995E-01
        1   -1    0    0  501    0  0.00000000000E+00  0.00000000000E+00  0.34824504001E+04  0.34824504001E+04  0.50400001928E-02 0.  1.
       -1   -1    0    0    0  501  0.00000000000E+00  0.00000000000E+00 -0.73480565026E+03  0.73480565027E+03  0.50400001928E-02 0. -1.
    10030    2    1    2    0    0  0.00000000000E+00  0.00000000000E+00  0.27476447498E+04  0.42172560504E+04  0.31993275736E+04 0.  0.
        4    1    3    3  502    0 -0.40317000859E+01 -0.14772118361E+04  0.21829160151E+04  0.26357721839E+04  0.12699999809E+01 0.  1.
       -4    1    3    3    0  502  0.40317000859E+01  0.14772118361E+04  0.56472873468E+03  0.15814838665E+04  0.12699999809E+01 0. -1.
</event>
<event>
 5   0  0.3220147E-08  0.3199301E+04  0.7818609E-02  0.8189002E-01
        1   -1    0    0  501    0  0.00000000000E+00  0.00000000000E+00  0.26307800755E+04  0.26307800755E+04  0.50400001928E-02 0.  1.
       -1   -1    0    0    0  501  0.00000000000E+00  0.00000000000E+00 -0.97267022352E+03  0.97267022353E+03  0.50400001928E-02 0. -1.
    10030    2    1    2    0    0  0.00000000000E+00  0.00000000000E+00  0.16581098520E+04  0.36034502990E+04  0.31993008262E+04 0.  0.
        4    1    3    3  502    0  0.26965007095E+03  0.75855282752E+03 -0.72786846079E+03  0.10853145452E+04  0.12699999809E+01 0. -1.
       -4    1    3    3    0  502 -0.26965007095E+03 -0.75855282752E+03  0.23859783127E+04  0.25181357538E+04  0.12699999809E+01 0.  1.
</event>
<event>
 5   0  0.9329929E-08  0.3199228E+04  0.7818609E-02  0.8189021E-01
        2   -1    0    0  501    0  0.00000000000E+00  0.00000000000E+00  0.30107688226E+04  0.30107688226E+04  0.25500000920E-02 0. -1.
       -2   -1    0    0    0  501  0.00000000000E+00  0.00000000000E+00 -0.84987084600E+03  0.84987084600E+03  0.25500000920E-02 0.  1.
    10030    2    1    2    0    0  0.00000000000E+00  0.00000000000E+00  0.21608979766E+04  0.38606396686E+04  0.31992278108E+04 0.  0.
        1    1    3    3  502    0  0.15927114918E+04  0.13383340209E+03  0.11579380319E+04  0.19736924181E+04  0.50400001928E-02 0.  1.
       -1    1    3    3    0  502 -0.15927114918E+04 -0.13383340209E+03  0.10029599447E+04  0.18869472505E+04  0.50400001928E-02 0. -1.
</event>
<event>
 5   0  0.9353994E-08  0.3201880E+04  0.7818609E-02  0.8188321E-01
       -2   -1    0    0    0  501  0.00000000000E+00  0.00000000000E+00  0.13472281646E+04  0.13472281646E+04  0.25500000920E-02 0.  1.
        2   -1    0    0  501    0  0.00000000000E+00  0.00000000000E+00 -0.19024317238E+04  0.19024317238E+04  0.25500000920E-02 0. -1.
    10030    2    1    2    0    0  0.00000000000E+00  0.00000000000E+00 -0.55520355917E+03  0.32496598883E+04  0.32018804471E+04 0.  0.
        2    1    3    3  502    0  0.86190142412E+03  0.36858412503E+03  0.10395629966E+04  0.13997926797E+04  0.25500000920E-02 0.  1.
       -2    1    3    3    0  502 -0.86190142412E+03 -0.36858412503E+03 -0.15947665558E+04  0.18498672087E+04  0.25500000920E-02 0. -1.
</event>
<event>
 5   0  0.9707721E-08  0.3198916E+04  0.7818609E-02  0.8189104E-01
       -2   -1    0    0    0  501  0.00000000000E+00  0.00000000000E+00  0.13858170294E+04  0.13858170294E+04  0.25500000920E-02 0. -1.
        2   -1    0    0  501    0  0.00000000000E+00  0.00000000000E+00 -0.18460338161E+04  0.18460338161E+04  0.25500000920E-02 0.  1.
    10030    2    1    2    0    0  0.00000000000E+00  0.00000000000E+00 -0.46021678671E+03  0.32318508455E+04  0.31989155032E+04 0.  0.
        3    1    3    3  502    0 -0.11076572842E+04 -0.70599928523E+03  0.69193551673E+03  0.14846260201E+04  0.10100000352E+00 0. -1.
       -3    1    3    3    0  502  0.11076572842E+04  0.70599928523E+03 -0.11521523034E+04  0.17472248254E+04  0.10100000352E+00 0.  1.
</event>
<event>
 5   0  0.9157524E-08  0.3199196E+04  0.7818609E-02  0.8189030E-01
        2   -1    0    0  501    0  0.00000000000E+00  0.00000000000E+00  0.20805018658E+04  0.20805018658E+04  0.25500000920E-02 0. -1.
       -2   -1    0    0    0  501  0.00000000000E+00  0.00000000000E+00 -0.12298540454E+04  0.12298540454E+04  0.25500000920E-02 0.  1.
    10030    2    1    2    0    0  0.00000000000E+00  0.00000000000E+00  0.85064782040E+03  0.33103559113E+04  0.31991959217E+04 0.  0.
        5    1    3    3  502    0 -0.22338344275E+03  0.27687556913E+03  0.20390408592E+04  0.20698478106E+04  0.46999998093E+01 0. -1.
       -5    1    3    3    0  502  0.22338344275E+03 -0.27687556913E+03 -0.11883930388E+04  0.12405081007E+04  0.46999998093E+01 0.  1.
</event>
<event>
 5   0  0.3283581E-08  0.3200876E+04  0.7818609E-02  0.8188586E-01
        1   -1    0    0  501    0  0.00000000000E+00  0.00000000000E+00  0.14398368422E+04  0.14398368422E+04  0.50400001928E-02 0.  1.
       -1   -1    0    0    0  501  0.00000000000E+00  0.00000000000E+00 -0.17789529896E+04  0.17789529896E+04  0.50400001928E-02 0. -1.
    10030    2    1    2    0    0  0.00000000000E+00  0.00000000000E+00 -0.33911614737E+03  0.32187898318E+04  0.32008761644E+04 0.  0.
        5    1    3    3  502    0  0.13391431935E+04  0.63895898941E+03 -0.77275411301E+03  0.16729447367E+04  0.46999998093E+01 0. -1.
       -5    1    3    3    0  502 -0.13391431935E+04 -0.63895898941E+03  0.43363796564E+03  0.15458450951E+04  0.46999998093E+01 0.  1.
</event>
<event>
 5   0  0.3427667E-08  0.3197889E+04  0.7818609E-02  0.8189375E-01
        1   -1    0    0  501    0  0.00000000000E+00  0.00000000000E+00  0.25198483864E+04  0.25198483864E+04  0.50400001928E-02 0.  1.
       -1   -1    0    0    0  501  0.00000000000E+00  0.00000000000E+00 -0.10145944284E+04  0.10145944284E+04  0.50400001928E-02 0. -1.
    10030    2    1    2    0    0  0.00000000000E+00  0.00000000000E+00  0.15052539581E+04  0.35344428148E+04  0.31978893872E+04 0.  0.
        2    1    3    3  502    0  0.73716227252E+03 -0.37937199295E+03  0.22637373605E+04  0.24107754276E+04  0.25500000920E-02 0.  1.
       -2    1    3    3    0  502 -0.73716227252E+03  0.37937199295E+03 -0.75848340248E+03  0.11236673871E+04  0.25500000920E-02 0. -1.
</event>
<event>
 5   0  0.3283581E-08  0.3201355E+04  0.7818609E-02  0.8188460E-01
        1   -1    0    0  501    0  0.00000000000E+00  0.00000000000E+00  0.22120965296E+04  0.22120965297E+04  0.50400001928E-02 0.  1.
       -1   -1    0    0    0  501  0.00000000000E+00  0.00000000000E+00 -0.11582531839E+04  0.11582531839E+04  0.50400001928E-02 0. -1.
    10030    2    1    2    0    0  0.00000000000E+00  0.00000000000E+00  0.10538433457E+04  0.33703497136E+04  0.32013546187E+04 0.  0.
        5    1    3    3  502    0 -0.53488152969E+03  0.49944759490E+03 -0.97181439612E+03  0.12165489967E+04  0.46999998093E+01 0. -1.
       -5    1    3    3    0  502  0.53488152969E+03 -0.49944759490E+03  0.20256577419E+04  0.21538007169E+04  0.46999998093E+01 0.  1.
</event>
<event>
 5   0  0.9353994E-08  0.3199883E+04  0.7818609E-02  0.8188848E-01
       -2   -1    0    0    0  501  0.00000000000E+00  0.00000000000E+00  0.17529749113E+04  0.17529749113E+04  0.25500000920E-02 0.  1.
        2   -1    0    0  501    0  0.00000000000E+00  0.00000000000E+00 -0.14602680098E+04  0.14602680098E+04  0.25500000920E-02 0. -1.
    10030    2    1    2    0    0  0.00000000000E+00  0.00000000000E+00  0.29270690156E+03  0.32132429211E+04  0.31998832385E+04 0.  0.
        2    1    3    3  502    0  0.13911572251E+04 -0.76319003796E+03 -0.59528703637E+02  0.15878668475E+04  0.25500000920E-02 0. -1.
       -2    1    3    3    0  502 -0.13911572251E+04  0.76319003796E+03  0.35223560520E+03  0.16253760736E+04  0.25500000920E-02 0.  1.
</event>
<event>
 5   0  0.9329929E-08  0.3197405E+04  0.7818609E-02  0.8189503E-01
        2   -1    0    0  501    0  0.00000000000E+00  0.00000000000E+00  0.25010477820E+04  0.25010477820E+04  0.25500000920E-02 0. -1.
       -2   -1    0    0    0  501  0.00000000000E+00  0.00000000000E+00 -0.10219116295E+04  0.10219116295E+04  0.25500000920E-02 0.  1.
    10030    2    1    2    0    0  0.00000000000E+00  0.00000000000E+00  0.14791361525E+04  0.35229594116E+04  0.31974050819E+04 0.  0.
        1    1    3    3  502    0 -0.54212442116E+03  0.13848245270E+04  0.13860002360E+04  0.20328882195E+04  0.50400001928E-02 0. -1.
       -1    1    3    3    0  502  0.54212442116E+03 -0.13848245270E+04  0.93135916528E+02  0.14900711921E+04  0.50400001928E-02 0.  1.
</event>
<event>
 5   0  0.9329929E-08  0.3200288E+04  0.7818609E-02  0.8188741E-01
       -2   -1    0    0    0  501  0.00000000000E+00  0.00000000000E+00  0.91775083107E+03  0.91775083108E+03  0.25500000920E-02 0. -1.
        2   -1    0    0  501    0  0.00000000000E+00  0.00000000000E+00 -0.27899306646E+04  0.27899306646E+04  0.25500000920E-02 0.  1.
    10030    2    1    2    0    0  0.00000000000E+00  0.00000000000E+00 -0.18721798336E+04  0.37076814957E+04  0.32002882283E+04 0.  0.
        1    1    3    3  502    0 -0.67501487146E+03  0.66485986247E+03  0.55784057487E+03  0.10994861620E+04  0.50400001928E-02 0. -1.
       -1    1    3    3    0  502  0.67501487146E+03 -0.66485986247E+03 -0.24300204084E+04  0.26081953337E+04  0.50400001928E-02 0.  1.
</event>
<event>
 5   0  0.9707721E-08  0.3200261E+04  0.7818609E-02  0.8188748E-01
        2   -1    0    0  501    0  0.00000000000E+00  0.00000000000E+00  0.16697318538E+04  0.16697318538E+04  0.25500000920E-02 0.  1.
       -2   -1    0    0    0  501  0.00000000000E+00  0.00000000000E+00 -0.15334300656E+04  0.15334300656E+04  0.25500000920E-02 0. -1.
    10030    2    1    2    0    0  0.00000000000E+00  0.00000000000E+00  0.13630178819E+03  0.32031619194E+04  0.32002606307E+04 0.  0.
        3    1    3    3  502    0 -0.65181527428E+03  0.18368431766E+03  0.15192286258E+04  0.16633276009E+04  0.10100000352E+00 0.  1.
       -3    1    3    3    0  502  0.65181527428E+03 -0.18368431766E+03 -0.13829268376E+04  0.15398343186E+04  0.10100000352E+00 0. -1.
</event>
<event>
 5   0  0.3220147E-08  0.3201056E+04  0.7818609E-02  0.8188538E-01
        1   -1    0    0  501    0  0.00000000000E+00  0.00000000000E+00  0.17404818702E+04  0.17404818702E+04  0.50400001928E-02 0.  1.
       -1   -1    0    0    0  501  0.00000000000E+00  0.00000000000E+00 -0.14718279616E+04  0.14718279616E+04  0.50400001928E-02 0. -1.
    10030    2    1    2    0    0  0.00000000000E+00  0.00000000000E+00  0.26865390863E+03  0.32123098318E+04  0.32010560028E+04 0.  0.
        4    1    3    3  502    0  0.57056295985E+03 -0.54808447148E+03  0.15305305201E+04  0.17229230874E+04  0.12699999809E+01 0.  1.
       -4    1    3    3    0  502 -0.57056295985E+03  0.54808447148E+03 -0.12618766115E+04  0.14893867445E+04  0.12699999809E+01 0. -1.
</event>
<event>
 5   0  0.9707721E-08  0.3200565E+04  0.7818609E-02  0.8188668E-01
       -2   -1    0    0    0  501  0.00000000000E+00  0.00000000000E+00  0.12458674439E+04  0.12458674439E+04  0.25500000920E-02 0. -1.
        2   -1    0    0  501    0  0.00000000000E+00  0.00000000000E+00 -0.20555186351E+04  0.20555186351E+04  0.25500000920E-02 0.  1.
    10030    2    1    2    0    0  0.00000000000E+00  0.00000000000E+00 -0.80965119124E+03  0.33013860790E+04  0.32005647925E+04 0.  0.
        3    1    3    3  502    0  0.74704767660E+03  0.13458780621E+04  0.46490905297E+02  0.15400095466E+04  0.10100000352E+00 0. -1.
       -3    1    3    3    0  502 -0.74704767660E+03 -0.13458780621E+04 -0.85614209653E+03  0.17613765324E+04  0.10100000352E+00 0.  1.
</event>
<event>
 5   0  0.3427667E-08  0.3200889E+04  0.7818609E-02  0.8188582E-01
        1   -1    0    0  501    0  0.00000000000E+00  0.00000000000E+00  0.24955755688E+04  0.24955755688E+04  0.50400001928E-02 0.  1.
       -1   -1    0    0    0  501  0.00000000000E+00  0.00000000000E+00 -0.10263858020E+04  0.10263858020E+04  0.50400001928E-02 0. -1.
    10030    2    1    2    0    0  0.00000000000E+00  0.00000000000E+00  0.14691897668E+04  0.35219613709E+04  0.32008894587E+04 0.  0.
        2    1    3    3  502    0  0.14769685207E+03 -0.15291689535E+04  0.12282040783E+04  0.19668902630E+04  0.25500000920E-02 0.  1.
       -2    1    3    3    0  502 -0.14769685207E+03  0.15291689535E+04  0.24098568844E+03  0.15550711079E+04  0.25500000920E-02 0. -1.
</event>
<event>
 5   0  0.9157524E-08  0.3200134E+04  0.7818609E-02  0.8188782E-01
        2   -1    0    0  501    0  0.00000000000E+00  0.00000000000E+00  0.22355987264E+04  0.22355987264E+04  0.25500000920E-02 0.  1.
       -2   -1    0    0    0  501  0.00000000000E+00  0.00000000000E+00 -0.11452027742E+04  0.11452027742E+04  0.25500000920E-02 0. -1.
    10030    2    1    2    0    0  0.00000000000E+00  0.00000000000E+00  0.10903959522E+04  0.33808015006E+04  0.32001336619E+04 0.  0.
        5    1    3    3  502    0  0.68102782494E+03  0.13024278725E+04  0.12134218633E+04  0.19059202422E+04  0.46999998093E+01 0. -1.
       -5    1    3    3    0  502 -0.68102782494E+03 -0.13024278725E+04 -0.12302591113E+03  0.14748812584E+04  0.46999998093E+01 0.  1.
</event>
<event>
 5   0  0.9707721E-08  0.3199298E+04  0.7818609E-02  0.8189003E-01
        2   -1    0    0  501    0  0.00000000000E+00  0.00000000000E+00  0.33875086537E+04  0.33875086537E+04  0.25500000920E-02 0.  1.
       -2   -1    0    0    0  501  0.00000000000E+00  0.00000000000E+00 -0.75538623144E+03  0.75538623144E+03  0.25500000920E-02 0. -1.
    10030    2    1    2    0    0  0.00000000000E+00  0.00000000000E+00  0.26321224222E+04  0.41428948851E+04  0.31992982955E+04 0.  0.
        3    1    3    3  502    0 -0.61116918714E+03  0.14314069947E+04  0.17943541549E+04  0.23753232629E+04  0.10100000352E+00 0. -1.
       -3    1    3    3    0  502  0.61116918714E+03 -0.14314069947E+04  0.83776826731E+03  0.17675716222E+04  0.10100000352E+00 0.  1.
</event>
<event>
 5   0  0.3427667E-08  0.3200785E+04  0.7818609E-02  0.8188610E-01
       -1   -1    0    0    0  501  0.00000000000E+00  0.00000000000E+00  0.20592863641E+04  0.20592863641E+04  0.50400001928E-02 0. -1.
        1   -1    0    0  501    0  0.00000000000E+00  0.00000000000E+00 -0.12437587719E+04  0.12437587719E+04  0.50400001928E-02 0.  1.
    10030    2    1    2    0    0  0.00000000000E+00  0.00000000000E+00  0.81552759219E+03  0.33030451360E+04  0.32007845783E+04 0.  0.
        2    1    3    3  502    0 -0.93120735996E+03 -0.12894955156E+04  0.59036227240E+03  0.16966064495E+04  0.25500000920E-02 0. -1.
       -2    1    3    3    0  502  0.93120735996E+03  0.12894955156E+04  0.22516531978E+03  0.16064386864E+04  0.25500000920E-02 0.  1.
</event>
<event>
 5   0  0.3427667E-08  0.3198320E+04  0.7818609E-02  0.8189261E-01
        1   -1    0    0  501    0  0.00000000000E+00  0.00000000000E+00  0.23925155231E+04  0.23925155231E+04  0.50400001928E-02 0.  1.
       -1   -1    0    0    0  501  0.00000000000E+00  0.00000000000E+00 -0.10688803826E+04  0.10688803826E+04  0.50400001928E-02 0. -1.
    10030    2    1    2    0    0  0.00000000000E+00  0.00000000000E+00  0.13236351405E+04  0.34613959058E+04  0.31983201265E+04 0.  0.
        2    1    3    3  502    0  0.11851308129E+04 -0.47508613879E+03 -0.38022592859E+03  0.13322213179E+04  0.25500000920E-02 0. -1.
       -2    1    3    3    0  502 -0.11851308129E+04  0.47508613879E+03  0.17038610691E+04  0.21291745879E+04  0.25500000920E-02 0.  1.
</event>
<event>
 5   0  0.3283581E-08  0.3200354E+04  0.7818609E-02  0.8188724E-01
       -1   -1    0    0    0  501  0.00000000000E+00  0.00000000000E+00  0.13519656675E+04  0.13519656675E+04  0.50400001928E-02 0. -1.
        1   -1    0    0  501    0  0.00000000000E+00  0.00000000000E+00 -0.18939581574E+04  0.18939581574E+04  0.50400001928E-02 0.  1.
    10030    2    1    2    0    0  0.00000000000E+00  0.00000000000E+00 -0.54199248983E+03  0.32459238249E+04  0.32003539832E+04 0.  0.
        5    1    3    3  502    0  0.95752709303E+03  0.12472858574E+04  0.29814407909E+02  0.15727336497E+04  0.46999998093E+01 0. -1.
       -5    1    3    3    0  502 -0.95752709303E+03 -0.12472858574E+04 -0.57180689774E+03  0.16731901752E+04  0.46999998093E+01 0.  1.
</event>
<event>
 5   0  0.9353994E-08  0.3200339E+04  0.7818609E-02  0.8188728E-01
        2   -1    0    0  501    0  0.00000000000E+00  0.00000000000E+00  0.19863538733E+04  0.19863538733E+04  0.25500000920E-02 0. -1.
       -2   -1    0    0    0  501  0.00000000000E+00  0.00000000000E+00 -0.12890664187E+04  0.12890664187E+04  0.25500000920E-02 0.  1.
    10030    2    1    2    0    0  0.00000000000E+00  0.00000000000E+00  0.69728745460E+03  0.32754202919E+04  0.32003387781E+04 0.  0.
        2    1    3    3  502    0 -0.71774806501E+03  0.12841472420E+04  0.99297339598E+03  0.17748781899E+04  0.25500000920E-02 0. -1.
       -2    1    3    3    0  502  0.71774806501E+03 -0.12841472420E+04 -0.29568594138E+03  0.15005421020E+04  0.25500000920E-02 0.  1.
</event>
<event>
 5   0  0.9353994E-08  0.3199565E+04  0.7818609E-02  0.8188932E-01
        2   -1    0    0  501    0  0.00000000000E+00  0.00000000000E+00  0.23237490316E+04  0.23237490316E+04  0.25500000920E-02 0. -1.
       -2   -1    0    0    0  501  0.00000000000E+00  0.00000000000E+00 -0.11013686178E+04  0.11013686178E+04  0.25500000920E-02 0.  1.
    10030    2    1    2    0    0  0.00000000000E+00  0.00000000000E+00  0.12223804138E+04  0.34251176494E+04  0.31995651324E+04 0.  0.
        2    1    3    3  502    0  0.52055134059E+03 -0.40529865158E+03  0.21713471669E+04  0.22693587673E+04  0.25500000920E-02 0. -1.
       -2    1    3    3    0  502 -0.52055134059E+03  0.40529865158E+03 -0.94896675313E+03  0.11557588822E+04  0.25500000920E-02 0.  1.
</event>
<event>
 5   0  0.3270966E-08  0.3199293E+04  0.7818609E-02  0.8189004E-01
       -1   -1    0    0    0  501  0.00000000000E+00  0.00000000000E+00  0.12906423284E+04  0.12906423284E+04  0.50400001928E-02 0.  1.
        1   -1    0    0  501    0  0.00000000000E+00  0.00000000000E+00 -0.19826318385E+04  0.19826318385E+04  0.50400001928E-02 0. -1.
    10030    2    1    2    0    0  0.00000000000E+00  0.00000000000E+00 -0.69198951003E+03  0.32732741669E+04  0.31992927796E+04 0.  0.
        3    1    3    3  502    0 -0.47227941719E+03 -0.15277809380E+04 -0.30373439855E+03  0.16277029943E+04  0.10100000352E+00 0. -1.
       -3    1    3    3    0  502  0.47227941719E+03  0.15277809380E+04 -0.38825511148E+03  0.16455711726E+04  0.10100000352E+00 0.  1.
</event>
<event>
 5   0  0.9727083E-08  0.3200021E+04  0.7818609E-02  0.8188812E-01
       -2   -1    0    0    0  501  0.00000000000E+00  0.00000000000E+00  0.11270962856E+04  0.11270962856E+04  0.25500000920E-02 0.  1.
        2   -1    0    0  501    0  0.00000000000E+00  0.00000000000E+00 -0.22713523820E+04  0.22713523820E+04  0.25500000920E-02 0. -1.
    10030    2    1    2    0    0  0.00000000000E+00  0.00000000000E+00 -0.11442560964E+04  0.33984486676E+04  0.32000205206E+04 0.  0.
        4    1    3    3  502    0 -0.10297058502E+03 -0.14833798080E+04 -0.11995338338E+04  0.19104715720E+04  0.12699999809E+01 0.  1.
       -4    1    3    3    0  502  0.10297058502E+03  0.14833798080E+04  0.55277737388E+02  0.14879770956E+04  0.12699999809E+01 0. -1.
</event>
<event>
 5   0  0.3343140E-08  0.3199293E+04  0.7818609E-02  0.8189004E-01
       -1   -1    0    0    0  501  0.00000000000E+00  0.00000000000E+00  0.14532506667E+04  0.14532506667E+04  0.50400001928E-02 0.  1.
        1   -1    0    0  501    0  0.00000000000E+00  0.00000000000E+00 -0.17607903057E+04  0.17607903057E+04  0.50400001928E-02 0. -1.
    10030    2    1    2    0    0  0.00000000000E+00  0.00000000000E+00 -0.30753963904E+03  0.32140409724E+04  0.31992934755E+04 0.  0.
        1    1    3    3  502    0 -0.15135122899E+04  0.23837006635E+03 -0.61559525549E+03  0.16512108463E+04  0.50400001928E-02 0. -1.
       -1    1    3    3    0  502  0.15135122899E+04 -0.23837006635E+03  0.30805561645E+03  0.15628301261E+04  0.50400001928E-02 0.  1.
</event>
<event>
 5   0  0.9353994E-08  0.3200282E+04  0.7818609E-02  0.8188743E-01
        2   -1    0    0  501    0  0.00000000000E+00  0.00000000000E+00  0.19913396928E+04  0.19913396928E+04  0.25500000920E-02 0.  1.
       -2   -1    0    0    0  501  0.00000000000E+00  0.00000000000E+00 -0.12857931459E+04  0.12857931459E+04  0.25500000920E-02 0. -1.
    10030    2    1    2    0    0  0.00000000000E+00  0.00000000000E+00  0.70554654690E+03  0.32771328387E+04  0.32002818177E+04 0.  0.
        2    1    3    3  502    0  0.62311029594E+03  0.18934699852E+03  0.18494920782E+04  0.19608007737E+04  0.25500000920E-02 0.  1.
       -2    1    3    3    0  502 -0.62311029594E+03 -0.18934699852E+03 -0.11439455313E+04  0.13163320650E+04  0.25500000920E-02 0. -1.
</event>
<event>
 5   0  0.3283581E-08  0.3199218E+04  0.7818609E-02  0.8189024E-01
       -1   -1    0    0    0  501  0.00000000000E+00  0.00000000000E+00  0.18840085155E+04  0.18840085155E+04  0.50400001928E-02 0. -1.
        1   -1    0    0  501    0  0.00000000000E+00  0.00000000000E+00 -0.13581406042E+04  0.13581406042E+04  0.50400001928E-02 0.  1.
    10030    2    1    2    0    0  0.00000000000E+00  0.00000000000E+00  0.52586791127E+03  0.32421491198E+04  0.31992176942E+04 0.  0.
        5    1    3    3  502    0  0.44334327743E+02 -0.13853503005E+04 -0.54625800277E+03  0.14898257896E+04  0.46999998093E+01 0.  1.
       -5    1    3    3    0  502 -0.44334327743E+02  0.13853503005E+04  0.10721259140E+04  0.17523233301E+04  0.46999998093E+01 0. -1.
</event>
<event>
 5   0  0.9329929E-08  0.3196427E+04  0.7818609E-02  0.8189761E-01
       -2   -1    0    0    0  501  0.00000000000E+00  0.00000000000E+00  0.99896631465E+03  0.99896631465E+03  0.25500000920E-02 0. -1.
        2   -1    0    0  501    0  0.00000000000E+00  0.00000000000E+00 -0.25569294513E+04  0.25569294513E+04  0.25500000920E-02 0.  1.
    10030    2    1    2    0    0  0.00000000000E+00  0.00000000000E+00 -0.15579631367E+04  0.35558957660E+04  0.31964269995E+04 0.  0.
        1    1    3    3  502    0  0.15760119142E+04  0.14518224648E+03 -0.10262254297E+04  0.18862741240E+04  0.50400001928E-02 0. -1.
       -1    1    3    3    0  502 -0.15760119142E+04 -0.14518224648E+03 -0.53173770702E+03  0.16696216420E+04  0.50400001928E-02 0.  1.
</event>
<event>
 5   0  0.9157524E-08  0.3200780E+04  0.7818609E-02  0.8188611E-01
       -2   -1    0    0    0  501  0.00000000000E+00  0.00000000000E+00  0.97009524550E+03  0.97009524551E+03  0.25500000920E-02 0.  1.
        2   -1    0    0  501    0  0.00000000000E+00  0.00000000000E+00 -0.26402021988E+04  0.26402021988E+04  0.25500000920E-02 0. -1.
    10030    2    1    2    0    0  0.00000000000E+00  0.00000000000E+00 -0.16701069533E+04  0.36102974443E+04  0.32007796551E+04 0.  0.
        5    1    3    3  502    0 -0.75791794247E+01  0.37549802669E+03 -0.25897825818E+04  0.26168783164E+04  0.46999998093E+01 0. -1.
       -5    1    3    3    0  502  0.75791794247E+01 -0.37549802669E+03  0.91967562849E+03  0.99341912789E+03  0.46999998093E+01 0.  1.
</event>
<event>
 5   0  0.3343140E-08  0.3200054E+04  0.7818609E-02  0.8188803E-01
        1   -1    0    0  501    0  0.00000000000E+00  0.00000000000E+00  0.27647781366E+04  0.27647781366E+04  0.50400001928E-02 0. -1.
       -1   -1    0    0    0  501  0.00000000000E+00  0.00000000000E+00 -0.92596456596E+03  0.92596456598E+03  0.50400001928E-02 0.  1.
    10030    2    1    2    0    0  0.00000000000E+00  0.00000000000E+00  0.18388135706E+04  0.36907427026E+04  0.32000541166E+04 0.  0.
        1    1    3    3  502    0 -0.83732808590E+03  0.13227906398E+03  0.24844950370E+04  0.26251345991E+04  0.50400001928E-02 0. -1.
       -1    1    3    3    0  502  0.83732808590E+03 -0.13227906398E+03 -0.64568146639E+03  0.10656081035E+04  0.50400001928E-02 0.  1.
</event>
<event>
 5   0  0.3220147E-08  0.3200829E+04  0.7818609E-02  0.8188598E-01
       -1   -1    0    0    0  501  0.00000000000E+00  0.00000000000E+00  0.18987590003E+04  0.18987590003E+04  0.50400001928E-02 0.  1.
        1   -1    0    0  501    0  0.00000000000E+00  0.00000000000E+00 -0.13489478267E+04  0.13489478267E+04  0.50400001928E-02 0. -1.
    10030    2    1    2    0    0  0.00000000000E+00  0.00000000000E+00  0.54981117357E+03  0.32477068270E+04  0.32008291594E+04 0.  0.
        4    1    3    3  502    0 -0.10781907088E+04  0.10989678028E+04  0.71845745676E+03  0.16989432499E+04  0.12699999809E+01 0.  1.
       -4    1    3    3    0  502  0.10781907088E+04 -0.10989678028E+04 -0.16864628319E+03  0.15487635772E+04  0.12699999809E+01 0. -1.
</event>
<event>
 5   0  0.3220147E-08  0.3199781E+04  0.7818609E-02  0.8188875E-01
       -1   -1    0    0    0  501  0.00000000000E+00  0.00000000000E+00  0.13629344268E+04  0.13629344268E+04  0.50400001928E-02 0. -1.
        1   -1    0    0  501    0  0.00000000000E+00  0.00000000000E+00 -0.18780432096E+04  0.18780432096E+04  0.50400001928E-02 0.  1.
    10030    2    1    2    0    0  0.00000000000E+00  0.00000000000E+00 -0.51510878277E+03  0.32409776364E+04  0.31997810834E+04 0.  0.
        4    1    3    3  502    0 -0.39273685965E+03 -0.79014826577E+03  0.10941958575E+04  0.14056467232E+04  0.12699999809E+01 0. -1.
       -4    1    3    3    0  502  0.39273685965E+03  0.79014826577E+03 -0.16093046403E+04  0.18353309132E+04  0.12699999809E+01 0.  1.
</event>
<event>
 5   0  0.9353994E-08  0.3201462E+04  0.7818609E-02  0.8188431E-01
       -2   -1    0    0    0  501  0.00000000000E+00  0.00000000000E+00  0.14668306486E+04  0.14668306486E+04  0.25500000920E-02 0. -1.
        2   -1    0    0  501    0  0.00000000000E+00  0.00000000000E+00 -0.17468542411E+04  0.17468542411E+04  0.25500000920E-02 0.  1.
    10030    2    1    2    0    0  0.00000000000E+00  0.00000000000E+00 -0.28002359247E+03  0.32136848897E+04  0.32014617533E+04 0.  0.
        2    1    3    3  502    0  0.39994576476E+02 -0.12957080688E+04  0.80265847640E+03  0.15247031172E+04  0.25500000920E-02 0. -1.
       -2    1    3    3    0  502 -0.39994576476E+02  0.12957080688E+04 -0.10826820689E+04  0.16889817725E+04  0.25500000920E-02 0.  1.
</event>
<event>
 5   0  0.9353994E-08  0.3200555E+04  0.7818609E-02  0.8188671E-01
       -2   -1    0    0    0  501  0.00000000000E+00  0.00000000000E+00  0.18735697410E+04  0.18735697410E+04  0.25500000920E-02 0. -1.
        2   -1    0    0  501    0  0.00000000000E+00  0.00000000000E+00 -0.13668496374E+04  0.13668496374E+04  0.25500000920E-02 0.  1.
    10030    2    1    2    0    0  0.00000000000E+00  0.00000000000E+00  0.50672010357E+03  0.32404193784E+04  0.32005550275E+04 0.  0.
        2    1    3    3  502    0  0.83746842214E+03 -0.17025498631E+01  0.16339914140E+04  0.18361057153E+04  0.25500000920E-02 0. -1.
       -2    1    3    3    0  502 -0.83746842214E+03  0.17025498631E+01 -0.11272713105E+04  0.14043136630E+04  0.25500000920E-02 0.  1.
</event>
<event>
 5   0  0.9727083E-08  0.3200382E+04  0.7818609E-02  0.8188716E-01
       -2   -1    0    0    0  501  0.00000000000E+00  0.00000000000E+00  0.13458176221E+04  0.13458176221E+04  0.25500000920E-02 0. -1.
        2   -1    0    0  501    0  0.00000000000E+00  0.00000000000E+00 -0.19026436406E+04  0.19026436406E+04  0.25500000920E-02 0.  1.
    10030    2    1    2    0    0  0.00000000000E+00  0.00000000000E+00 -0.55682601855E+03  0.32484612627E+04  0.32003820648E+04 0.  0.
        4    1    3    3  502    0  0.96492023726E+03 -0.12643843025E+04 -0.10007200665E+03  0.15936608008E+04  0.12699999809E+01 0. -1.
       -4    1    3    3    0  502 -0.96492023726E+03  0.12643843025E+04 -0.45675401190E+03  0.16548004619E+04  0.12699999809E+01 0.  1.
</event>
<event>
 5   0  0.9157524E-08  0.3200339E+04  0.7818609E-02  0.8188728E-01
       -2   -1    0    0    0  501  0.00000000000E+00  0.00000000000E+00  0.16050070043E+04  0.16050070043E+04  0.25500000920E-02 0.  1.
        2   -1    0    0  501    0  0.00000000000E+00  0.00000000000E+00 -0.15953469049E+04  0.15953469049E+04  0.25500000920E-02 0. -1.
    10030    2    1    2    0    0  0.00000000000E+00  0.00000000000E+00  0.96600994160E+01  0.32003539092E+04  0.32003393299E+04 0.  0.
        5    1    3    3  502    0  0.13662234057E+04 -0.56628416816E+03 -0.60613649135E+03  0.15983327843E+04  0.46999998093E+01 0. -1.
       -5    1    3    3    0  502 -0.13662234057E+04  0.56628416816E+03  0.61579659077E+03  0.16020211248E+04  0.46999998093E+01 0.  1.
</event>
<event>
 5   0  0.9353994E-08  0.3195978E+04  0.7818609E-02  0.8189880E-01
        2   -1    0    0  501    0  0.00000000000E+00  0.00000000000E+00  0.18039014610E+04  0.18039014610E+04  0.25500000920E-02 0.  1.
       -2   -1    0    0    0  501  0.00000000000E+00  0.00000000000E+00 -0.14155813877E+04  0.14155813877E+04  0.25500000920E-02 0. -1.
    10030    2    1    2    0    0  0.00000000000E+00  0.00000000000E+00  0.38832007330E+03  0.32194828488E+04  0.31959783063E+04 0.  0.
        2    1    3    3  502    0  0.11527445960E+04  0.10925365199E+04  0.16473504333E+02  0.15883096447E+04  0.25500000920E-02 0. -1.
       -2    1    3    3    0  502 -0.11527445960E+04 -0.10925365199E+04  0.37184656897E+03  0.16311732041E+04  0.25500000920E-02 0.  1.
</event>
<event>
 5   0  0.9329929E-08  0.3192775E+04  0.7818609E-02  0.8190728E-01
        2   -1    0    0  501    0  0.00000000000E+00  0.00000000000E+00  0.19851249217E+04  0.19851249217E+04  0.25500000920E-02 0. -1.
       -2   -1    0    0    0  501  0.00000000000E+00  0.00000000000E+00 -0.12837746551E+04  0.12837746551E+04  0.25500000920E-02 0.  1.
    10030    2    1    2    0    0  0.00000000000E+00  0.00000000000E+00  0.70135026654E+03  0.32688995768E+04  0.31927750072E+04 0.  0.
        1    1    3    3  502    0 -0.13010902938E+04  0.81166930974E+03 -0.10353507364E+03  0.15369978960E+04  0.50400001928E-02 0.  1.
       -1    1    3    3    0  502  0.13010902938E+04 -0.81166930974E+03  0.80488534018E+03  0.17319016808E+04  0.50400001928E-02 0. -1.
</event>
<event>
 5   0  0.9727083E-08  0.3199734E+04  0.7818609E-02  0.8188887E-01
       -2   -1    0    0    0  501  0.00000000000E+00  0.00000000000E+00  0.27973520883E+04  0.27973520883E+04  0.25500000920E-02 0. -1.
        2   -1    0    0  501    0  0.00000000000E+00  0.00000000000E+00 -0.91499901302E+03  0.91499901302E+03  0.25500000920E-02 0.  1.
    10030    2    1    2    0    0  0.00000000000E+00  0.00000000000E+00  0.18823530753E+04  0.37123511013E+04  0.31997339889E+04 0.  0.
        4    1    3    3  502    0  0.79977168274E+03  0.92971661632E+03 -0.25082734846E+03  0.12517682305E+04  0.12699999809E+01 0.  1.
       -4    1    3    3    0  502 -0.79977168274E+03 -0.92971661632E+03  0.21331804237E+04  0.24605828708E+04  0.12699999809E+01 0. -1.
</event>
<event>
 5   0  0.9727083E-08  0.3199350E+04  0.7818609E-02  0.8188989E-01
       -2   -1    0    0    0  501  0.00000000000E+00  0.00000000000E+00  0.20576077423E+04  0.20576077423E+04  0.25500000920E-02 0.  1.
        2   -1    0    0  501    0  0.00000000000E+00  0.00000000000E+00 -0.12436582285E+04  0.12436582285E+04  0.25500000920E-02 0. -1.
    10030    2    1    2    0    0  0.00000000000E+00  0.00000000000E+00  0.81394951380E+03  0.33012659709E+04  0.31993504340E+04 0.  0.
        4    1    3    3  502    0  0.54108806966E+03  0.14410623609E+04 -0.42234504601E+02  0.15398773955E+04  0.12699999809E+01 0. -1.
       -4    1    3    3    0  502 -0.54108806966E+03 -0.14410623609E+04  0.85618401840E+03  0.17613885753E+04  0.12699999809E+01 0.  1.
</event>
<event>
 5   0  0.9157524E-08  0.3199481E+04  0.7818609E-02  0.8188954E-01
       -2   -1    0    0    0  501  0.00000000000E+00  0.00000000000E+00  0.22613192142E+04  0.22613192142E+04  0.25500000920E-02 0. -1.
        2   -1    0    0  501    0  0.00000000000E+00  0.00000000000E+00 -0.11317150730E+04  0.11317150730E+04  0.25500000920E-02 0.  1.
    10030    2    1    2    0    0  0.00000000000E+00  0.00000000000E+00  0.11296041412E+04  0.33930342872E+04  0.31994806076E+04 0.  0.
        5    1    3    3  502    0  0.50573646459E+03 -0.12848004363E+04  0.14215519789E+04  0.19817451026E+04  0.46999998093E+01 0. -1.
       -5    1    3    3    0  502 -0.50573646459E+03  0.12848004363E+04 -0.29194783767E+03  0.14112891847E+04  0.46999998093E+01 0.  1.
</event>
<event>
 5   0  0.3220147E-08  0.3199720E+04  0.7818609E-02  0.8188891E-01
        1   -1    0    0  501    0  0.00000000000E+00  0.00000000000E+00  0.17935162354E+04  0.17935162355E+04  0.50400001928E-02 0. -1.
       -1   -1    0    0    0  501  0.00000000000E+00  0.00000000000E+00 -0.14271142514E+04  0.14271142514E+04  0.50400001928E-02 0.  1.
    10030    2    1    2    0    0  0.00000000000E+00  0.00000000000E+00  0.36640198405E+03  0.32206304869E+04  0.31997203501E+04 0.  0.
        4    1    3    3  502    0  0.20170156614E+03  0.35169829554E+03  0.17409503095E+04  0.17875359593E+04  0.12699999809E+01 0. -1.
       -4    1    3    3    0  502 -0.20170156614E+03 -0.35169829554E+03 -0.13745483255E+04  0.14330945275E+04  0.12699999809E+01 0.  1.
</event>
<event>
 5   0  0.9157524E-08  0.3200216E+04  0.7818609E-02  0.8188760E-01
       -2   -1    0    0    0  501  0.00000000000E+00  0.00000000000E+00  0.90194864357E+03  0.90194864358E+03  0.25500000920E-02 0.  1.
        2   -1    0    0  501    0  0.00000000000E+00  0.00000000000E+00 -0.28386816085E+04  0.28386816085E+04  0.25500000920E-02 0. -1.
    10030    2    1    2    0    0  0.00000000000E+00  0.00000000000E+00 -0.19367329649E+04  0.37406302521E+04  0.32002156342E+04 0.  0.
        5    1    3    3  502    0  0.15757143961E+04  0.55608758367E+02 -0.12870942357E+04  0.20353382652E+04  0.46999998093E+01 0. -1.
       -5    1    3    3    0  502 -0.15757143961E+04 -0.55608758367E+02 -0.64963872922E+03  0.17052919869E+04  0.46999998093E+01 0.  1.
</event>
<event>
 5   0  0.9707721E-08  0.3199381E+04  0.7818609E-02  0.8188981E-01
        2   -1    0    0  501    0  0.00000000000E+00  0.00000000000E+00  0.23739201802E+04  0.23739201802E+04  0.25500000920E-02 0.  1.
       -2   -1    0    0    0  501  0.00000000000E+00  0.00000000000E+00 -0.10779679416E+04  0.10779679416E+04  0.25500000920E-02 0. -1.
    10030    2    1    2    0    0  0.00000000000E+00  0.00000000000E+00  0.12959522385E+04  0.34518881218E+04  0.31993810965E+04 0.  0.
        3    1    3    3  502    0 -0.13100220890E+04  0.29302230540E+03 -0.29074324790E+03  0.13735179618E+04  0.10100000352E+00 0. -1.
       -3    1    3    3    0  502  0.13100220890E+04 -0.29302230540E+03  0.15866954864E+04  0.20783701600E+04  0.10100000352E+00 0.  1.
</event>
<event>
 5   0  0.3080500E-08  0.3199966E+04  0.7818609E-02  0.8188826E-01
        4   -1    0    0  501    0  0.00000000000E+00  0.00000000000E+00  0.26628052484E+04  0.26628055513E+04  0.12699999809E+01 0.  1.
       -4   -1    0    0    0  501  0.00000000000E+00  0.00000000000E+00 -0.96137111244E+03  0.96137195129E+03  0.12699999809E+01 0. -1.
    10030    2    1    2    0    0  0.00000000000E+00  0.00000000000E+00  0.17014341360E+04  0.36241775026E+04  0.31999663203E+04 0.  0.
        2    1    3    3  502    0 -0.10983259288E+04  0.11344034301E+04  0.55809548321E+03  0.16747123803E+04  0.25500000920E-02 0. -1.
       -2    1    3    3    0  502  0.10983259288E+04 -0.11344034301E+04  0.11433386528E+04  0.19494651223E+04  0.25500000920E-02 0.  1.
</event>
<event>
 5   0  0.3343140E-08  0.3201011E+04  0.7818609E-02  0.8188550E-01
        1   -1    0    0  501    0  0.00000000000E+00  0.00000000000E+00  0.29123640048E+04  0.29123640048E+04  0.50400001928E-02 0.  1.
       -1   -1    0    0    0  501  0.00000000000E+00  0.00000000000E+00 -0.87956643151E+03  0.87956643153E+03  0.50400001928E-02 0. -1.
    10030    2    1    2    0    0  0.00000000000E+00  0.00000000000E+00  0.20327975733E+04  0.37919304363E+04  0.32010108497E+04 0.  0.
        1    1    3    3  502    0  0.68117806594E+03  0.38955311907E+02 -0.69865938860E+03  0.97654800965E+03  0.50400001928E-02 0. -1.
       -1    1    3    3    0  502 -0.68117806594E+03 -0.38955311907E+02  0.27314569619E+04  0.28153824267E+04  0.50400001928E-02 0.  1.
</event>
<event>
 5   0  0.3283581E-08  0.3198144E+04  0.7818609E-02  0.8189307E-01
       -1   -1    0    0    0  501  0.00000000000E+00  0.00000000000E+00  0.10552382119E+04  0.10552382120E+04  0.50400001928E-02 0. -1.
        1   -1    0    0  501    0  0.00000000000E+00  0.00000000000E+00 -0.24231794252E+04  0.24231794252E+04  0.50400001928E-02 0.  1.
    10030    2    1    2    0    0  0.00000000000E+00  0.00000000000E+00 -0.13679412133E+04  0.34784176372E+04  0.31981441643E+04 0.  0.
        5    1    3    3  502    0  0.91996416747E+03 -0.10978356147E+04  0.89270966563E+02  0.14351196821E+04  0.46999998093E+01 0. -1.
       -5    1    3    3    0  502 -0.91996416747E+03  0.10978356147E+04 -0.14572121798E+04  0.20432979551E+04  0.46999998093E+01 0.  1.
</event>
<event>
 5   0  0.3283581E-08  0.3200446E+04  0.7818609E-02  0.8188699E-01
       -1   -1    0    0    0  501  0.00000000000E+00  0.00000000000E+00  0.89379064797E+03  0.89379064798E+03  0.50400001928E-02 0. -1.
        1   -1    0    0  501    0  0.00000000000E+00  0.00000000000E+00 -0.28650038524E+04  0.28650038524E+04  0.50400001928E-02 0.  1.
    10030    2    1    2    0    0  0.00000000000E+00  0.00000000000E+00 -0.19712132045E+04  0.37587945004E+04  0.32004460000E+04 0.  0.
        5    1    3    3  502    0 -0.15854770688E+04 -0.15107815574E+03 -0.80317021085E+03  0.17837226866E+04  0.46999998093E+01 0.  1.
       -5    1    3    3    0  502  0.15854770688E+04  0.15107815574E+03 -0.11680429936E+04  0.19750718139E+04  0.46999998093E+01 0. -1.
</event>
<event>
 5   0  0.9329929E-08  0.3200835E+04  0.7818609E-02  0.8188597E-01
        2   -1    0    0  501    0  0.00000000000E+00  0.00000000000E+00  0.21390489648E+04  0.21390489648E+04  0.25500000920E-02 0. -1.
       -2   -1    0    0    0  501  0.00000000000E+00  0.00000000000E+00 -0.11974180130E+04  0.11974180130E+04  0.25500000920E-02 0.  1.
    10030    2    1    2    0    0  0.00000000000E+00  0.00000000000E+00  0.94163095181E+03  0.33364669778E+04  0.32008347419E+04 0.  0.
        1    1    3    3  502    0 -0.14439117998E+03  0.20060990240E+03 -0.11774025337E+04  0.12030668610E+04  0.50400001928E-02 0.  1.
       -1    1    3    3    0  502  0.14439117998E+03 -0.20060990240E+03  0.21190334855E+04  0.21334001168E+04  0.50400001928E-02 0. -1.
</event>
<event>
 5   0  0.9329929E-08  0.3200822E+04  0.7818609E-02  0.8188600E-01
        2   -1    0    0  501    0  0.00000000000E+00  0.00000000000E+00  0.18783758738E+04  0.18783758738E+04  0.25500000920E-02 0. -1.
       -2   -1    0    0    0  501  0.00000000000E+00  0.00000000000E+00 -0.13635798124E+04  0.13635798124E+04  0.25500000920E-02 0.  1.
    10030    2    1    2    0    0  0.00000000000E+00  0.00000000000E+00  0.51479606147E+03  0.32419556862E+04  0.32008220329E+04 0.  0.
        1    1    3    3  502    0 -0.57286219639E+03 -0.91609449717E+03 -0.93841621536E+03  0.14310923161E+04  0.50400001928E-02 0. -1.
       -1    1    3    3    0  502  0.57286219639E+03  0.91609449717E+03  0.14532122768E+04  0.18108633702E+04  0.50400001928E-02 0.  1.
</event>
<event>
 5   0  0.3220147E-08  0.3200254E+04  0.7818609E-02  0.8188750E-01
        1   -1    0    0  501    0  0.00000000000E+00  0.00000000000E+00  0.14532088482E+04  0.14532088482E+04  0.50400001928E-02 0. -1.
       -1   -1    0    0    0  501  0.00000000000E+00  0.00000000000E+00 -0.17618983937E+04  0.17618983937E+04  0.50400001928E-02 0.  1.
    10030    2    1    2    0    0  0.00000000000E+00  0.00000000000E+00 -0.30868954548E+03  0.32151072420E+04  0.32002539496E+04 0.  0.
        4    1    3    3  502    0 -0.13721466512E+04  0.60227671814E+03  0.40940227493E+03  0.15534270221E+04  0.12699999809E+01 0. -1.
       -4    1    3    3    0  502  0.13721466512E+04 -0.60227671814E+03 -0.71809182040E+03  0.16616802198E+04  0.12699999809E+01 0.  1.
</event>
<event>
 5   0  0.9353994E-08  0.3199623E+04  0.7818609E-02  0.8188917E-01
       -2   -1    0    0    0  501  0.00000000000E+00  0.00000000000E+00  0.18325346781E+04  0.18325346781E+04  0.25500000920E-02 0.  1.
        2   -1    0    0  501    0  0.00000000000E+00  0.00000000000E+00 -0.13966431110E+04  0.13966431110E+04  0.25500000920E-02 0. -1.
    10030    2    1    2    0    0  0.00000000000E+00  0.00000000000E+00  0.43589156710E+03  0.32291777892E+04  0.31996230615E+04 0.  0.
        2    1    3    3  502    0 -0.58101806565E+03  0.26148982933E+03  0.16989603349E+04  0.18145041039E+04  0.25500000920E-02 0.  1.
       -2    1    3    3    0  502  0.58101806565E+03 -0.26148982933E+03 -0.12630687678E+04  0.14146736853E+04  0.25500000920E-02 0. -1.
</event>
<event>
 5   0  0.9157524E-08  0.3200130E+04  0.7818609E-02  0.8188783E-01
       -2   -1    0    0    0  501  0.00000000000E+00  0.00000000000E+00  0.89008185669E+03  0.89008185669E+03  0.25500000920E-02 0.  1.
        2   -1    0    0  501    0  0.00000000000E+00  0.00000000000E+00 -0.28763733089E+04  0.28763733089E+04  0.25500000920E-02 0. -1.
    10030    2    1    2    0    0  0.00000000000E+00  0.00000000000E+00 -0.19862914523E+04  0.37664551656E+04  0.32001298070E+04 0.  0.
        5    1    3    3  502    0 -0.35533541107E+03 -0.11048128104E+04  0.30329085096E+03  0.11995340890E+04  0.46999998093E+01 0.  1.
       -5    1    3    3    0  502  0.35533541107E+03  0.11048128104E+04 -0.22895823032E+04  0.25669210766E+04  0.46999998093E+01 0. -1.
</event>
<event>
 5   0  0.9157524E-08  0.3198291E+04  0.7818609E-02  0.8189269E-01
       -2   -1    0    0    0  501  0.00000000000E+00  0.00000000000E+00  0.20057791039E+04  0.20057791039E+04  0.25500000920E-02 0. -1.
        2   -1    0    0  501    0  0.00000000000E+00  0.00000000000E+00 -0.12749489765E+04  0.12749489765E+04  0.25500000920E-02 0.  1.
    10030    2    1    2    0    0  0.00000000000E+00  0.00000000000E+00  0.73083012741E+03  0.32807280804E+04  0.31982908033E+04 0.  0.
        5    1    3    3  502    0  0.15933682163E+04  0.12013056722E+03  0.43021208652E+03  0.16547985240E+04  0.46999998093E+01 0. -1.
       -5    1    3    3    0  502 -0.15933682163E+04 -0.12013056722E+03  0.30061804089E+03  0.16259295564E+04  0.46999998093E+01 0.  1.
</event>
<event>
 5   0  0.3343140E-08  0.3200100E+04  0.7818609E-02  0.8188791E-01
        1   -1    0    0  501    0  0.00000000000E+00  0.00000000000E+00  0.18298671992E+04  0.18298671992E+04  0.50400001928E-02 0. -1.
       -1   -1    0    0    0  501  0.00000000000E+00  0.00000000000E+00 -0.13990964421E+04  0.13990964421E+04  0.50400001928E-02 0.  1.
    10030    2    1    2    0    0  0.00000000000E+00  0.00000000000E+00  0.43077075710E+03  0.32289636413E+04  0.32001004284E+04 0.  0.
        1    1    3    3  502    0  0.23783118272E+03 -0.67237754761E+03  0.16606117723E+04  0.18072871096E+04  0.50400001928E-02 0. -1.
       -1    1    3    3    0  502 -0.23783118272E+03  0.67237754761E+03 -0.12298410152E+04  0.14216765317E+04  0.50400001928E-02 0.  1.
</event>
<event>
 5   0  0.3220147E-08  0.3201520E+04  0.7818609E-02  0.8188416E-01
        1   -1    0    0  501    0  0.00000000000E+00  0.00000000000E+00  0.18705858563E+04  0.18705858563E+04  0.50400001928E-02 0.  1.
       -1   -1    0    0    0  501  0.00000000000E+00  0.00000000000E+00 -0.13698560625E+04  0.13698560625E+04  0.50400001928E-02 0. -1.
    10030    2    1    2    0    0  0.00000000000E+00  0.00000000000E+00  0.50072979381E+03  0.32404419187E+04  0.32015204985E+04 0.  0.
        4    1    3    3  502    0 -0.91464483612E+03  0.11092743626E+04 -0.46201471179E+03  0.15101403890E+04  0.12699999809E+01 0.  1.
       -4    1    3    3    0  502  0.91464483612E+03 -0.11092743626E+04  0.96274450560E+03  0.17303015297E+04  0.12699999809E+01 0. -1.
</event>
<event>
 5   0  0.9707721E-08  0.3199671E+04  0.7818609E-02  0.8188904E-01
        2   -1    0    0  501    0  0.00000000000E+00  0.00000000000E+00  0.17916065950E+04  0.17916065950E+04  0.25500000920E-02 0.  1.
       -2   -1    0    0    0  501  0.00000000000E+00  0.00000000000E+00 -0.14285913797E+04  0.14285913797E+04  0.25500000920E-02 0. -1.
    10030    2    1    2    0    0  0.00000000000E+00  0.00000000000E+00  0.36301521531E+03  0.32201979748E+04  0.31996710691E+04 0.  0.
        3    1    3    3  502    0 -0.11785057117E+04  0.10814218426E+04  0.21526099932E+03  0.16139040313E+04  0.10100000352E+00 0.  1.
       -3    1    3    3    0  502  0.11785057117E+04 -0.10814218426E+04  0.14775421599E+03  0.16062939435E+04  0.10100000352E+00 0. -1.
</event>
<event>
 5   0  0.9329929E-08  0.3199996E+04  0.7818609E-02  0.8188818E-01
        2   -1    0    0  501    0  0.00000000000E+00  0.00000000000E+00  0.20266805934E+04  0.20266805934E+04  0.25500000920E-02 0.  1.
       -2   -1    0    0    0  501  0.00000000000E+00  0.00000000000E+00 -0.12631458656E+04  0.12631458656E+04  0.25500000920E-02 0. -1.
    10030    2    1    2    0    0  0.00000000000E+00  0.00000000000E+00  0.76353472776E+03  0.32898264590E+04  0.31999957578E+04 0.  0.
        1    1    3    3  502    0  0.43916961183E+03 -0.15218676806E+04  0.61403438173E+03  0.16988200043E+04  0.50400001928E-02 0.  1.
       -1    1    3    3    0  502 -0.43916961183E+03  0.15218676806E+04  0.14950034603E+03  0.15910064546E+04  0.50400001928E-02 0. -1.
</event>
<event>
 5   0  0.9157524E-08  0.3201699E+04  0.7818609E-02  0.8188369E-01
       -2   -1    0    0    0  501  0.00000000000E+00  0.00000000000E+00  0.14314134613E+04  0.14314134613E+04  0.25500000920E-02 0. -1.
        2   -1    0    0  501    0  0.00000000000E+00  0.00000000000E+00 -0.17903413768E+04  0.17903413768E+04  0.25500000920E-02 0.  1.
    10030    2    1    2    0    0  0.00000000000E+00  0.00000000000E+00 -0.35892791558E+03  0.32217548381E+04  0.32016987660E+04 0.  0.
        5    1    3    3  502    0  0.10390506074E+04  0.32594440920E+02  0.10455394833E+04  0.14744027480E+04  0.46999998093E+01 0. -1.
       -5    1    3    3    0  502 -0.10390506074E+04 -0.32594440920E+02 -0.14044673988E+04  0.17473520901E+04  0.46999998093E+01 0.  1.
</event>
<event>
 5   0  0.3080500E-08  0.3200136E+04  0.7818609E-02  0.8188781E-01
       -4   -1    0    0    0  501  0.00000000000E+00  0.00000000000E+00  0.21910011654E+04  0.21910015335E+04  0.12699999809E+01 0. -1.
        4   -1    0    0  501    0  0.00000000000E+00  0.00000000000E+00 -0.11685138943E+04  0.11685145844E+04  0.12699999809E+01 0.  1.
    10030    2    1    2    0    0  0.00000000000E+00  0.00000000000E+00  0.10224872711E+04  0.33595161179E+04  0.32001356732E+04 0.  0.
        5    1    3    3  502    0  0.21664910876E+03  0.75647441429E+03  0.19738303429E+04  0.21249043951E+04  0.46999998093E+01 0. -1.
       -5    1    3    3    0  502 -0.21664910876E+03 -0.75647441429E+03 -0.95134307178E+03  0.12346117228E+04  0.46999998093E+01 0.  1.
</event>
<event>
 5   0  0.9707721E-08  0.3199402E+04  0.7818609E-02  0.8188975E-01
       -2   -1    0    0    0  501  0.00000000000E+00  0.00000000000E+00  0.11026846212E+04  0.11026846212E+04  0.25500000920E-02 0.  1.
        2   -1    0    0  501    0  0.00000000000E+00  0.00000000000E+00 -0.23207387774E+04  0.23207387774E+04  0.25500000920E-02 0. -1.
    10030    2    1    2    0    0  0.00000000000E+00  0.00000000000E+00 -0.12180541563E+04  0.34234233986E+04  0.31994017939E+04 0.  0.
        3    1    3    3  502    0  0.47698985753E+03 -0.11212942642E+04 -0.17180461462E+04  0.21063007197E+04  0.10100000352E+00 0. -1.
       -3    1    3    3    0  502 -0.47698985753E+03  0.11212942642E+04  0.49999198996E+03  0.13171226789E+04  0.10100000352E+00 0.  1.
</event>
<event>
 5   0  0.9727083E-08  0.3200758E+04  0.7818609E-02  0.8188617E-01
        2   -1    0    0  501    0  0.00000000000E+00  0.00000000000E+00  0.16687912202E+04  0.16687912202E+04  0.25500000920E-02 0.  1.
       -2   -1    0    0    0  501  0.00000000000E+00  0.00000000000E+00 -0.15347717900E+04  0.15347717900E+04  0.25500000920E-02 0. -1.
    10030    2    1    2    0    0  0.00000000000E+00  0.00000000000E+00  0.13401943018E+03  0.32035630102E+04  0.32007584652E+04 0.  0.
        4    1    3    3  502    0 -0.25684969051E+03 -0.15609669639E+04 -0.17532316689E+03  0.15916436322E+04  0.12699999809E+01 0.  1.
       -4    1    3    3    0  502  0.25684969051E+03  0.15609669639E+04  0.30934259707E+03  0.16119193780E+04  0.12699999809E+01 0. -1.
</event>
<event>
 5   0  0.3080500E-08  0.3199515E+04  0.7818609E-02  0.8188945E-01
        3   -1    0    0  501    0  0.00000000000E+00  0.00000000000E+00  0.11218276048E+04  0.11218276093E+04  0.10100000352E+00 0. -1.
       -3   -1    0    0    0  501  0.00000000000E+00  0.00000000000E+00 -0.22812984076E+04  0.22812984098E+04  0.10100000352E+00 0.  1.
    10030    2    1    2    0    0  0.00000000000E+00  0.00000000000E+00 -0.11594708028E+04  0.34031260192E+04  0.31995146756E+04 0.  0.
        1    1    3    3  502    0  0.15643274175E+04 -0.30698647927E+03 -0.43757916247E+03  0.16531293026E+04  0.50400001928E-02 0. -1.
       -1    1    3    3    0  502 -0.15643274175E+04  0.30698647927E+03 -0.72189164037E+03  0.17499967166E+04  0.50400001928E-02 0.  1.
</event>
<event>
 5   0  0.9707721E-08  0.3200869E+04  0.7818609E-02  0.8188588E-01
       -2   -1    0    0    0  501  0.00000000000E+00  0.00000000000E+00  0.16460516646E+04  0.16460516646E+04  0.25500000920E-02 0.  1.
        2   -1    0    0  501    0  0.00000000000E+00  0.00000000000E+00 -0.15560817749E+04  0.15560817749E+04  0.25500000920E-02 0. -1.
    10030    2    1    2    0    0  0.00000000000E+00  0.00000000000E+00  0.89969889638E+02  0.32021334395E+04  0.32008692543E+04 0.  0.
        3    1    3    3  502    0 -0.22422670875E+03 -0.80914586816E+03 -0.13180495345E+04  0.15627697331E+04  0.10100000352E+00 0. -1.
       -3    1    3    3    0  502  0.22422670875E+03  0.80914586816E+03  0.14080194242E+04  0.16393637064E+04  0.10100000352E+00 0.  1.
</event>
<event>
 5   0  0.9727083E-08  0.3207768E+04  0.7818609E-02  0.8186769E-01
        2   -1    0    0  501    0  0.00000000000E+00  0.00000000000E+00  0.90915522968E+03  0.90915522968E+03  0.25500000920E-02 0.  1.
       -2   -1    0    0    0  501  0.00000000000E+00  0.00000000000E+00 -0.28294884910E+04  0.28294884910E+04  0.25500000920E-02 0. -1.
    10030    2    1    2    0    0  0.00000000000E+00  0.00000000000E+00 -0.19203332613E+04  0.37386437206E+04  0.32077682328E+04 0.  0.
        4    1    3    3  502    0 -0.22408216774E+03  0.10665629396E+04  0.41129847103E+03  0.11648765459E+04  0.12699999809E+01 0.  1.
       -4    1    3    3    0  502  0.22408216774E+03 -0.10665629396E+04 -0.23316317323E+04  0.25737671748E+04  0.12699999809E+01 0. -1.
</event>
<event>
 5   0  0.9329929E-08  0.3199544E+04  0.7818609E-02  0.8188938E-01
        2   -1    0    0  501    0  0.00000000000E+00  0.00000000000E+00  0.11032930321E+04  0.11032930321E+04  0.25500000920E-02 0.  1.
       -2   -1    0    0    0  501  0.00000000000E+00  0.00000000000E+00 -0.23196651498E+04  0.23196651498E+04  0.25500000920E-02 0. -1.
    10030    2    1    2    0    0  0.00000000000E+00  0.00000000000E+00 -0.12163721178E+04  0.34229581819E+04  0.31995439653E+04 0.  0.
        1    1    3    3  502    0  0.14669573221E+04 -0.39761365179E+03 -0.74118448607E+02  0.15216944323E+04  0.50400001928E-02 0.  1.
       -1    1    3    3    0  502 -0.14669573221E+04  0.39761365179E+03 -0.11422536692E+04  0.19012637496E+04  0.50400001928E-02 0. -1.
</event>
<event>
 5   0  0.3220147E-08  0.3200137E+04  0.7818609E-02  0.8188781E-01
       -1   -1    0    0    0  501  0.00000000000E+00  0.00000000000E+00  0.15990101399E+04  0.15990101399E+04  0.50400001928E-02 0.  1.
        1   -1    0    0  501    0  0.00000000000E+00  0.00000000000E+00 -0.16011271495E+04  0.16011271495E+04  0.50400001928E-02 0. -1.
    10030    2    1    2    0    0  0.00000000000E+00  0.00000000000E+00 -0.21170095915E+01  0.32001372895E+04  0.32001365892E+04 0.  0.
        4    1    3    3  502    0  0.66229260338E+03  0.13195165545E+04 -0.61787425612E+03  0.16004766913E+04  0.12699999809E+01 0. -1.
       -4    1    3    3    0  502 -0.66229260338E+03 -0.13195165545E+04  0.61575724653E+03  0.15996605982E+04  0.12699999809E+01 0.  1.
</event>
<event>
 5   0  0.9707721E-08  0.3207307E+04  0.7818609E-02  0.8186890E-01
       -2   -1    0    0    0  501  0.00000000000E+00  0.00000000000E+00  0.16803938332E+04  0.16803938332E+04  0.25500000920E-02 0.  1.
        2   -1    0    0  501    0  0.00000000000E+00  0.00000000000E+00 -0.15304174666E+04  0.15304174666E+04  0.25500000920E-02 0. -1.
    10030    2    1    2    0    0  0.00000000000E+00  0.00000000000E+00  0.14997636660E+03  0.32108112998E+04  0.32073067038E+04 0.  0.
        3    1    3    3  502    0  0.14061549197E+04 -0.42439421965E+03 -0.56939361164E+03  0.15753067025E+04  0.10100000352E+00 0. -1.
       -3    1    3    3    0  502 -0.14061549197E+04  0.42439421965E+03  0.71936997824E+03  0.16355045973E+04  0.10100000352E+00 0.  1.
</event>
<event>
 5   0  0.9157524E-08  0.3199926E+04  0.7818609E-02  0.8188837E-01
       -2   -1    0    0    0  501  0.00000000000E+00  0.00000000000E+00  0.11204504604E+04  0.11204504604E+04  0.25500000920E-02 0. -1.
        2   -1    0    0  501    0  0.00000000000E+00  0.00000000000E+00 -0.22846896795E+04  0.22846896795E+04  0.25500000920E-02 0.  1.
    10030    2    1    2    0    0  0.00000000000E+00  0.00000000000E+00 -0.11642392191E+04  0.34051401399E+04  0.31999260012E+04 0.  0.
        5    1    3    3  502    0  0.26609004112E+03 -0.12272446133E+04  0.47288783544E+03  0.13418562686E+04  0.46999998093E+01 0. -1.
       -5    1    3    3    0  502 -0.26609004112E+03  0.12272446133E+04 -0.16371270545E+04  0.20632838713E+04  0.46999998093E+01 0.  1.
</event>
<event>
 5   0  0.3270966E-08  0.3200445E+04  0.7818609E-02  0.8188700E-01
        1   -1    0    0  501    0  0.00000000000E+00  0.00000000000E+00  0.14509729487E+04  0.14509729487E+04  0.50400001928E-02 0.  1.
       -1   -1    0    0    0  501  0.00000000000E+00  0.00000000000E+00 -0.17648240138E+04  0.17648240138E+04  0.50400001928E-02 0. -1.
    10030    2    1    2    0    0  0.00000000000E+00  0.00000000000E+00 -0.31385106514E+03  0.32157969625E+04  0.32004449086E+04 0.  0.
        3    1    3    3  502    0 -0.79943034781E+03 -0.13581068332E+04  0.12219980112E+03  0.15806567790E+04  0.10100000352E+00 0.  1.
       -3    1    3    3    0  502  0.79943034781E+03  0.13581068332E+04 -0.43605086626E+03  0.16351401835E+04  0.10100000352E+00 0. -1.
</event>
<event>
 5   0  0.3220147E-08  0.3195808E+04  0.7818609E-02  0.8189925E-01
       -1   -1    0    0    0  501  0.00000000000E+00  0.00000000000E+00  0.11380410168E+04  0.11380410169E+04  0.50400001928E-02 0.  1.
        1   -1    0    0  501    0  0.00000000000E+00  0.00000000000E+00 -0.22435898606E+04  0.22435898606E+04  0.50400001928E-02 0. -1.
    10030    2    1    2    0    0  0.00000000000E+00  0.00000000000E+00 -0.11055488438E+04  0.33816308775E+04  0.31958080583E+04 0.  0.
        4    1    3    3  502    0  0.30426284317E+02  0.15492231793E+03 -0.22353157495E+04  0.22408848244E+04  0.12699999809E+01 0. -1.
       -4    1    3    3    0  502 -0.30426284317E+02 -0.15492231793E+03  0.11297669057E+04  0.11407460531E+04  0.12699999809E+01 0.  1.
</event>
<event>
 5   0  0.9727083E-08  0.3200106E+04  0.7818609E-02  0.8188789E-01
       -2   -1    0    0    0  501  0.00000000000E+00  0.00000000000E+00  0.18456335803E+04  0.18456335803E+04  0.25500000920E-02 0.  1.
        2   -1    0    0  501    0  0.00000000000E+00  0.00000000000E+00 -0.13871494183E+04  0.13871494183E+04  0.25500000920E-02 0. -1.
    10030    2    1    2    0    0  0.00000000000E+00  0.00000000000E+00  0.45848416196E+03  0.32327829986E+04  0.32001059653E+04 0.  0.
        4    1    3    3  502    0  0.31847170885E+02  0.80020080941E+03  0.16286061249E+04  0.18148540163E+04  0.12699999809E+01 0.  1.
       -4    1    3    3    0  502 -0.31847170885E+02 -0.80020080941E+03 -0.11701219629E+04  0.14179289822E+04  0.12699999809E+01 0. -1.
</event>
<event>
 5   0  0.3270966E-08  0.3199370E+04  0.7818609E-02  0.8188984E-01
       -1   -1    0    0    0  501  0.00000000000E+00  0.00000000000E+00  0.15661728396E+04  0.15661728396E+04  0.50400001928E-02 0. -1.
        1   -1    0    0  501    0  0.00000000000E+00  0.00000000000E+00 -0.16339139675E+04  0.16339139675E+04  0.50400001928E-02 0.  1.
    10030    2    1    2    0    0  0.00000000000E+00  0.00000000000E+00 -0.67741127844E+02  0.32000868071E+04  0.31993697368E+04 0.  0.
        3    1    3    3  502    0 -0.44653828364E+02  0.12101386347E+03 -0.16287038168E+04  0.16338036763E+04  0.10100000352E+00 0.  1.
       -3    1    3    3    0  502  0.44653828364E+02 -0.12101386347E+03  0.15609626889E+04  0.15662831309E+04  0.10100000352E+00 0. -1.
</event>
<event>
 5   0  0.9157524E-08  0.3202032E+04  0.7818609E-02  0.8188281E-01
        2   -1    0    0  501    0  0.00000000000E+00  0.00000000000E+00  0.17019975171E+04  0.17019975171E+04  0.25500000920E-02 0.  1.
       -2   -1    0    0    0  501  0.00000000000E+00  0.00000000000E+00 -0.15060255578E+04  0.15060255578E+04  0.25500000920E-02 0. -1.
    10030    2    1    2    0    0  0.00000000000E+00  0.00000000000E+00  0.19597195926E+03  0.32080230749E+04  0.32020317051E+04 0.  0.
        5    1    3    3  502    0  0.49623688526E+02  0.73273610482E+03  0.15232739556E+04  0.16910796385E+04  0.46999998093E+01 0.  1.
       -5    1    3    3    0  502 -0.49623688526E+02 -0.73273610482E+03 -0.13273019964E+04  0.15169434364E+04  0.46999998093E+01 0. -1.
</event>
<event>
 5   0  0.9353994E-08  0.3201049E+04  0.7818609E-02  0.8188540E-01
       -2   -1    0    0    0  501  0.00000000000E+00  0.00000000000E+00  0.25991718123E+04  0.25991718123E+04  0.25500000920E-02 0. -1.
        2   -1    0    0  501    0  0.00000000000E+00  0.00000000000E+00 -0.98557477573E+03  0.98557477573E+03  0.25500000920E-02 0.  1.
    10030    2    1    2    0    0  0.00000000000E+00  0.00000000000E+00  0.16135970365E+04  0.35847465880E+04  0.32010486881E+04 0.  0.
        2    1    3    3  502    0 -0.82945039055E+03  0.13566107528E+04  0.10111472442E+04  0.18843565041E+04  0.25500000920E-02 0. -1.
       -2    1    3    3    0  502  0.82945039055E+03 -0.13566107528E+04  0.60244979230E+03  0.17003900839E+04  0.25500000920E-02 0.  1.
</event>
<event>
 5   0  0.9157524E-08  0.3199179E+04  0.7818609E-02  0.8189034E-01
        2   -1    0    0  501    0  0.00000000000E+00  0.00000000000E+00  0.19385393893E+04  0.19385393893E+04  0.25500000920E-02 0. -1.
       -2   -1    0    0    0  501  0.00000000000E+00  0.00000000000E+00 -0.13199043113E+04  0.13199043114E+04  0.25500000920E-02 0.  1.
    10030    2    1    2    0    0  0.00000000000E+00  0.00000000000E+00  0.61863507793E+03  0.32584437006E+04  0.31991789557E+04 0.  0.
        5    1    3    3  502    0 -0.13460522162E+04  0.34569728598E+03 -0.49737818572E+03  0.14760658291E+04  0.46999998093E+01 0.  1.
       -5    1    3    3    0  502  0.13460522162E+04 -0.34569728598E+03  0.11160132636E+04  0.17823778715E+04  0.46999998093E+01 0. -1.
</event>
<event>
 5   0  0.3283581E-08  0.3197659E+04  0.7818609E-02  0.8189436E-01
        1   -1    0    0  501    0  0.00000000000E+00  0.00000000000E+00  0.20316935200E+04  0.20316935200E+04  0.50400001928E-02 0. -1.
       -1   -1    0    0    0  501  0.00000000000E+00  0.00000000000E+00 -0.12581899270E+04  0.12581899270E+04  0.50400001928E-02 0.  1.
    10030    2    1    2    0    0  0.00000000000E+00  0.00000000000E+00  0.77350359302E+03  0.32898834470E+04  0.31976593450E+04 0.  0.
        5    1    3    3  502    0  0.63909061094E+03  0.12161467340E+04  0.12281303363E+04  0.18427631157E+04  0.46999998093E+01 0. -1.
       -5    1    3    3    0  502 -0.63909061094E+03 -0.12161467340E+04 -0.45462674323E+03  0.14471203313E+04  0.46999998093E+01 0.  1.
</event>
<event>
 5   0  0.3220147E-08  0.3202034E+04  0.7818609E-02  0.8188280E-01
        1   -1    0    0  501    0  0.00000000000E+00  0.00000000000E+00  0.13112484694E+04  0.13112484694E+04  0.50400001928E-02 0. -1.
       -1   -1    0    0    0  501  0.00000000000E+00  0.00000000000E+00 -0.19548201762E+04  0.19548201762E+04  0.50400001928E-02 0.  1.
    10030    2    1    2    0    0  0.00000000000E+00  0.00000000000E+00 -0.64357170685E+03  0.32660686456E+04  0.32020337062E+04 0.  0.
        4    1    3    3  502    0  0.27459299410E+03  0.91398824618E+03 -0.16329805678E+04  0.18914023830E+04  0.12699999809E+01 0. -1.
       -4    1    3    3    0  502 -0.27459299410E+03 -0.91398824618E+03  0.98940886095E+03  0.13746662626E+04  0.12699999809E+01 0.  1.
</event>
<event>
 5   0  0.9707721E-08  0.3199627E+04  0.7818609E-02  0.8188916E-01
        2   -1    0    0  501    0  0.00000000000E+00  0.00000000000E+00  0.25861924373E+04  0.25861924373E+04  0.25500000920E-02 0. -1.
       -2   -1    0    0    0  501  0.00000000000E+00  0.00000000000E+00 -0.98964138725E+03  0.98964138725E+03  0.25500000920E-02 0.  1.
    10030    2    1    2    0    0  0.00000000000E+00  0.00000000000E+00  0.15965510500E+04  0.35758338245E+04  0.31996268978E+04 0.  0.
        3    1    3    3  502    0 -0.10533495178E+04 -0.78812885087E+03 -0.21909577097E+03  0.13336773445E+04  0.10100000352E+00 0.  1.
       -3    1    3    3    0  502  0.10533495178E+04  0.78812885087E+03  0.18156468210E+04  0.22421564800E+04  0.10100000352E+00 0. -1.
</event>
<event>
 5   0  0.3427667E-08  0.3202325E+04  0.7818609E-02  0.8188204E-01
        1   -1    0    0  501    0  0.00000000000E+00  0.00000000000E+00  0.84454169412E+03  0.84454169414E+03  0.50400001928E-02 0.  1.
       -1   -1    0    0    0  501  0.00000000000E+00  0.00000000000E+00 -0.30356354675E+04  0.30356354675E+04  0.50400001928E-02 0. -1.
    10030    2    1    2    0    0  0.00000000000E+00  0.00000000000E+00 -0.21910937734E+04  0.38801771616E+04  0.32023246060E+04 0.  0.
        2    1    3    3  502    0  0.14333589521E+04 -0.69794113269E+03 -0.12755979425E+04  0.20417614506E+04  0.25500000920E-02 0.  1.
       -2    1    3    3    0  502 -0.14333589521E+04  0.69794113269E+03 -0.91549583093E+03  0.18384157111E+04  0.25500000920E-02 0. -1.
</event>
<event>
 5   0  0.9727083E-08  0.3204838E+04  0.7818609E-02  0.8187541E-01
       -2   -1    0    0    0  501  0.00000000000E+00  0.00000000000E+00  0.95989372942E+03  0.95989372942E+03  0.25500000920E-02 0.  1.
        2   -1    0    0  501    0  0.00000000000E+00  0.00000000000E+00 -0.26750330274E+04  0.26750330274E+04  0.25500000920E-02 0. -1.
    10030    2    1    2    0    0  0.00000000000E+00  0.00000000000E+00 -0.17151392980E+04  0.36349267568E+04  0.32048384852E+04 0.  0.
        4    1    3    3  502    0 -0.14094111520E+04  0.44887220195E+03 -0.15565714564E+04  0.21472872096E+04  0.12699999809E+01 0. -1.
       -4    1    3    3    0  502  0.14094111520E+04 -0.44887220195E+03 -0.15856784162E+03  0.14876395472E+04  0.12699999809E+01 0.  1.
</event>
<event>
 5   0  0.3220147E-08  0.3199312E+04  0.7818609E-02  0.8188999E-01
       -1   -1    0    0    0  501  0.00000000000E+00  0.00000000000E+00  0.21378742747E+04  0.21378742747E+04  0.50400001928E-02 0.  1.
        1   -1    0    0  501    0  0.00000000000E+00  0.00000000000E+00 -0.11969363829E+04  0.11969363829E+04  0.50400001928E-02 0. -1.
    10030    2    1    2    0    0  0.00000000000E+00  0.00000000000E+00  0.94093789178E+03  0.33348106576E+04  0.31993121144E+04 0.  0.
        4    1    3    3  502    0  0.38704268666E+03 -0.12091176647E+04 -0.54395487797E+03  0.13811792391E+04  0.12699999809E+01 0. -1.
       -4    1    3    3    0  502 -0.38704268666E+03  0.12091176647E+04  0.14848927698E+04  0.19536314184E+04  0.12699999809E+01 0.  1.
</event>
<event>
 5   0  0.3343140E-08  0.3202836E+04  0.7818609E-02  0.8188069E-01
       -1   -1    0    0    0  501  0.00000000000E+00  0.00000000000E+00  0.81953043635E+03  0.81953043637E+03  0.50400001928E-02 0. -1.
        1   -1    0    0  501    0  0.00000000000E+00  0.00000000000E+00 -0.31292795389E+04  0.31292795389E+04  0.50400001928E-02 0.  1.
    10030    2    1    2    0    0  0.00000000000E+00  0.00000000000E+00 -0.23097491025E+04  0.39488099753E+04  0.32028361344E+04 0.  0.
        1    1    3    3  502    0 -0.16536566393E+03 -0.13156739230E+04 -0.22618853970E+04  0.26219209035E+04  0.50400001928E-02 0.  1.
       -1    1    3    3    0  502  0.16536566393E+03  0.13156739230E+04 -0.47863705486E+02  0.13268890718E+04  0.50400001928E-02 0. -1.
</event>
<event>
 5   0  0.3283581E-08  0.3200670E+04  0.7818609E-02  0.8188640E-01
       -1   -1    0    0    0  501  0.00000000000E+00  0.00000000000E+00  0.11610642336E+04  0.11610642336E+04  0.50400001928E-02 0. -1.
        1   -1    0    0  501    0  0.00000000000E+00  0.00000000000E+00 -0.22057969051E+04  0.22057969051E+04  0.50400001928E-02 0.  1.
    10030    2    1    2    0    0  0.00000000000E+00  0.00000000000E+00 -0.10447326715E+04  0.33668611387E+04  0.32006698631E+04 0.  0.
        5    1    3    3  502    0 -0.11232380712E+04  0.11228201677E+04 -0.31553308487E+03  0.16192504782E+04  0.46999998093E+01 0. -1.
       -5    1    3    3    0  502  0.11232380712E+04 -0.11228201677E+04 -0.72919958668E+03  0.17476106605E+04  0.46999998093E+01 0.  1.
</event>
<event>
 5   0  0.3270966E-08  0.3198626E+04  0.7818609E-02  0.8189180E-01
       -1   -1    0    0    0  501  0.00000000000E+00  0.00000000000E+00  0.10793535231E+04  0.10793535231E+04  0.50400001928E-02 0. -1.
        1   -1    0    0  501    0  0.00000000000E+00  0.00000000000E+00 -0.23697534049E+04  0.23697534049E+04  0.50400001928E-02 0.  1.
    10030    2    1    2    0    0  0.00000000000E+00  0.00000000000E+00 -0.12903998818E+04  0.34491069280E+04  0.31986257590E+04 0.  0.
        3    1    3    3  502    0 -0.85634947516E+03 -0.12094681266E+04 -0.12936699966E+04  0.19671628411E+04  0.10100000352E+00 0.  1.
       -3    1    3    3    0  502  0.85634947516E+03  0.12094681266E+04  0.32701147666E+01  0.14819440869E+04  0.10100000352E+00 0. -1.
</event>
<event>
 5   0  0.9353994E-08  0.3199559E+04  0.7818609E-02  0.8188934E-01
        2   -1    0    0  501    0  0.00000000000E+00  0.00000000000E+00  0.28056368380E+04  0.28056368380E+04  0.25500000920E-02 0. -1.
       -2   -1    0    0    0  501  0.00000000000E+00  0.00000000000E+00 -0.91219734350E+03  0.91219734351E+03  0.25500000920E-02 0.  1.
    10030    2    1    2    0    0  0.00000000000E+00  0.00000000000E+00  0.18934394945E+04  0.37178341815E+04  0.31995590137E+04 0.  0.
        2    1    3    3  502    0  0.13364418536E+04 -0.44593110658E+03  0.18273490917E+04  0.23074089544E+04  0.25500000920E-02 0. -1.
       -2    1    3    3    0  502 -0.13364418536E+04  0.44593110658E+03  0.66090402806E+02  0.14104252271E+04  0.25500000920E-02 0.  1.
</event>
<event>
 5   0  0.3220147E-08  0.3192779E+04  0.7818609E-02  0.8190727E-01
        1   -1    0    0  501    0  0.00000000000E+00  0.00000000000E+00  0.12028008481E+04  0.12028008481E+04  0.50400001928E-02 0.  1.
       -1   -1    0    0    0  501  0.00000000000E+00  0.00000000000E+00 -0.21187711753E+04  0.21187711753E+04  0.50400001928E-02 0. -1.
    10030    2    1    2    0    0  0.00000000000E+00  0.00000000000E+00 -0.91597032722E+03  0.33215720234E+04  0.31927792072E+04 0.  0.
        4    1    3    3  502    0  0.80649197908E+03  0.26101065063E+03  0.94932147634E+03  0.12727013595E+04  0.12699999809E+01 0.  1.
       -4    1    3    3    0  502 -0.80649197908E+03 -0.26101065063E+03 -0.18652918036E+04  0.20488706639E+04  0.12699999809E+01 0. -1.
</event>
<event>
 5   0  0.9157524E-08  0.3200148E+04  0.7818609E-02  0.8188778E-01
       -2   -1    0    0    0  501  0.00000000000E+00  0.00000000000E+00  0.16693221964E+04  0.16693221964E+04  0.25500000920E-02 0. -1.
        2   -1    0    0  501    0  0.00000000000E+00  0.00000000000E+00 -0.15336985903E+04  0.15336985903E+04  0.25500000920E-02 0.  1.
    10030    2    1    2    0    0  0.00000000000E+00  0.00000000000E+00  0.13562360605E+03  0.32030207867E+04  0.32001481837E+04 0.  0.
        5    1    3    3  502    0  0.73941718705E+02 -0.15970531411E+04  0.31868557046E+01  0.15987740176E+04  0.46999998093E+01 0. -1.
       -5    1    3    3    0  502 -0.73941718705E+02  0.15970531411E+04  0.13243675034E+03  0.16042467691E+04  0.46999998093E+01 0.  1.
</event>
<event>
 5   0  0.9727083E-08  0.3201177E+04  0.7818609E-02  0.8188506E-01
        2   -1    0    0  501    0  0.00000000000E+00  0.00000000000E+00  0.19119146953E+04  0.19119146953E+04  0.25500000920E-02 0. -1.
       -2   -1    0    0    0  501  0.00000000000E+00  0.00000000000E+00 -0.13399568613E+04  0.13399568613E+04  0.25500000920E-02 0.  1.
    10030    2    1    2    0    0  0.00000000000E+00  0.00000000000E+00  0.57195783391E+03  0.32518715566E+04  0.32011767925E+04 0.  0.
        4    1    3    3  502    0  0.62078513547E+03  0.14751673780E+04  0.26595318273E+03  0.16224135372E+04  0.12699999809E+01 0. -1.
       -4    1    3    3    0  502 -0.62078513547E+03 -0.14751673780E+04  0.30600465119E+03  0.16294580194E+04  0.12699999809E+01 0.  1.
</event>
<event>
 5   0  0.3343140E-08  0.3199644E+04  0.7818609E-02  0.8188911E-01
       -1   -1    0    0    0  501  0.00000000000E+00  0.00000000000E+00  0.13914884828E+04  0.13914884828E+04  0.50400001928E-02 0.  1.
        1   -1    0    0  501    0  0.00000000000E+00  0.00000000000E+00 -0.18393466421E+04  0.18393466421E+04  0.50400001928E-02 0. -1.
    10030    2    1    2    0    0  0.00000000000E+00  0.00000000000E+00 -0.44785815936E+03  0.32308351249E+04  0.31996435228E+04 0.  0.
        1    1    3    3  502    0 -0.13654179677E+04 -0.81151234054E+03 -0.30987409451E+02  0.15886720004E+04  0.50400001928E-02 0.  1.
       -1    1    3    3    0  502  0.13654179677E+04  0.81151234054E+03 -0.41687074991E+03  0.16421631245E+04  0.50400001928E-02 0. -1.
</event>
<event>
 5   0  0.9157524E-08  0.3204922E+04  0.7818609E-02  0.8187518E-01
       -2   -1    0    0    0  501  0.00000000000E+00  0.00000000000E+00  0.15396674495E+04  0.15396674495E+04  0.25500000920E-02 0. -1.
        2   -1    0    0  501    0  0.00000000000E+00  0.00000000000E+00 -0.16678157441E+04  0.16678157441E+04  0.25500000920E-02 0.  1.
    10030    2    1    2    0    0  0.00000000000E+00  0.00000000000E+00 -0.12814829468E+03  0.32074831936E+04  0.32049222224E+04 0.  0.
        5    1    3    3  502    0 -0.67650091327E+03  0.84354623634E+03 -0.12476584939E+04  0.16510292384E+04  0.46999998093E+01 0.  1.
       -5    1    3    3    0  502  0.67650091327E+03 -0.84354623634E+03  0.11195101993E+04  0.15564539552E+04  0.46999998093E+01 0. -1.
</event>
<event>
 5   0  0.9329929E-08  0.3202346E+04  0.7818609E-02  0.8188198E-01
        2   -1    0    0  501    0  0.00000000000E+00  0.00000000000E+00  0.14817638829E+04  0.14817638829E+04  0.25500000920E-02 0. -1.
       -2   -1    0    0    0  501  0.00000000000E+00  0.00000000000E+00 -0.17302051911E+04  0.17302051911E+04  0.25500000920E-02 0.  1.
    10030    2    1    2    0    0  0.00000000000E+00  0.00000000000E+00 -0.24844130823E+03  0.32119690740E+04  0.32023463662E+04 0.  0.
        1    1    3    3  502    0 -0.29131602358E+03  0.46768410322E+03 -0.16321217166E+04  0.17226185718E+04  0.50400001928E-02 0.  1.
       -1    1    3    3    0  502  0.29131602358E+03 -0.46768410322E+03  0.13836804084E+04  0.14893505023E+04  0.50400001928E-02 0. -1.
</event>
<event>
 5   0  0.9707721E-08  0.3200051E+04  0.7818609E-02  0.8188804E-01
       -2   -1    0    0    0  501  0.00000000000E+00  0.00000000000E+00  0.10247745728E+04  0.10247745728E+04  0.25500000920E-02 0. -1.
        2   -1    0    0  501    0  0.00000000000E+00  0.00000000000E+00 -0.24981906819E+04  0.24981906819E+04  0.25500000920E-02 0.  1.
    10030    2    1    2    0    0  0.00000000000E+00  0.00000000000E+00 -0.14734161091E+04  0.35229652548E+04  0.32000514302E+04 0.  0.
        3    1    3    3  502    0 -0.15537659153E+04 -0.37220916825E+03 -0.64229848945E+03  0.17219975448E+04  0.10100000352E+00 0. -1.
       -3    1    3    3    0  502  0.15537659153E+04  0.37220916825E+03 -0.83111761966E+03  0.18009677100E+04  0.10100000352E+00 0.  1.
</event>
<event>
 5   0  0.3343140E-08  0.3200826E+04  0.7818609E-02  0.8188599E-01
        1   -1    0    0  501    0  0.00000000000E+00  0.00000000000E+00  0.25072772993E+04  0.25072772993E+04  0.50400001928E-02 0.  1.
       -1   -1    0    0    0  501  0.00000000000E+00  0.00000000000E+00 -0.10215552414E+04  0.10215552414E+04  0.50400001928E-02 0. -1.
    10030    2    1    2    0    0  0.00000000000E+00  0.00000000000E+00  0.14857220579E+04  0.35288325408E+04  0.32008263101E+04 0.  0.
        1    1    3    3  502    0  0.15614981972E+03  0.15439422899E+04  0.31136938223E+03  0.15827480700E+04  0.50400001928E-02 0.  1.
       -1    1    3    3    0  502 -0.15614981972E+03 -0.15439422899E+04  0.11743526757E+04  0.19460844708E+04  0.50400001928E-02 0. -1.
</event>
<event>
 5   0  0.3427667E-08  0.3201029E+04  0.7818609E-02  0.8188546E-01
       -1   -1    0    0    0  501  0.00000000000E+00  0.00000000000E+00  0.90979304624E+03  0.90979304625E+03  0.50400001928E-02 0. -1.
        1   -1    0    0  501    0  0.00000000000E+00  0.00000000000E+00 -0.28156359704E+04  0.28156359704E+04  0.50400001928E-02 0.  1.
    10030    2    1    2    0    0  0.00000000000E+00  0.00000000000E+00 -0.19058429241E+04  0.37254290166E+04  0.32010286013E+04 0.  0.
        2    1    3    3  502    0  0.26100685939E+03 -0.12039030761E+04  0.23630855216E+03  0.12543320649E+04  0.25500000920E-02 0. -1.
       -2    1    3    3    0  502 -0.26100685939E+03  0.12039030761E+04 -0.21421514763E+04  0.24710969517E+04  0.25500000920E-02 0.  1.
</event>
<event>
 5   0  0.9329929E-08  0.3200618E+04  0.7818609E-02  0.8188654E-01
       -2   -1    0    0    0  501  0.00000000000E+00  0.00000000000E+00  0.10964886580E+04  0.10964886580E+04  0.25500000920E-02 0.  1.
        2   -1    0    0  501    0  0.00000000000E+00  0.00000000000E+00 -0.23356267309E+04  0.23356267309E+04  0.25500000920E-02 0. -1.
    10030    2    1    2    0    0  0.00000000000E+00  0.00000000000E+00 -0.12391380728E+04  0.34321153889E+04  0.32006175778E+04 0.  0.
        1    1    3    3  502    0  0.13450085799E+04  0.36451428115E+03  0.22414988928E+03  0.14114396600E+04  0.50400001928E-02 0. -1.
       -1    1    3    3    0  502 -0.13450085799E+04 -0.36451428115E+03 -0.14632879621E+04  0.20206757288E+04  0.50400001928E-02 0.  1.
</event>
<event>
 5   0  0.9707721E-08  0.3200002E+04  0.7818609E-02  0.8188817E-01
        2   -1    0    0  501    0  0.00000000000E+00  0.00000000000E+00  0.15815128180E+04  0.15815128180E+04  0.25500000920E-02 0.  1.
       -2   -1    0    0    0  501  0.00000000000E+00  0.00000000000E+00 -0.16187048888E+04  0.16187048888E+04  0.25500000920E-02 0. -1.
    10030    2    1    2    0    0  0.00000000000E+00  0.00000000000E+00 -0.37192070796E+02  0.32002177068E+04  0.32000015814E+04 0.  0.
        3    1    3    3  502    0 -0.14372831750E+04  0.44875159313E+03 -0.55978099485E+03  0.16063983597E+04  0.10100000352E+00 0.  1.
       -3    1    3    3    0  502  0.14372831750E+04 -0.44875159313E+03  0.52258892405E+03  0.15938193471E+04  0.10100000352E+00 0. -1.
</event>
<event>
 5   0  0.3283581E-08  0.3199409E+04  0.7818609E-02  0.8188973E-01
        1   -1    0    0  501    0  0.00000000000E+00  0.00000000000E+00  0.28904909681E+04  0.28904909681E+04  0.50400001928E-02 0. -1.
       -1   -1    0    0    0  501  0.00000000000E+00  0.00000000000E+00 -0.88533537591E+03  0.88533537593E+03  0.50400001928E-02 0.  1.
    10030    2    1    2    0    0  0.00000000000E+00  0.00000000000E+00  0.20051555922E+04  0.37758263441E+04  0.31994086378E+04 0.  0.
        5    1    3    3  502    0 -0.60989445039E+03 -0.14767705544E+04  0.90958188218E+03  0.18385276178E+04  0.46999998093E+01 0.  1.
       -5    1    3    3    0  502  0.60989445039E+03  0.14767705544E+04  0.10955737100E+04  0.19372987263E+04  0.46999998093E+01 0. -1.
</event>
<event>
 5   0  0.9707721E-08  0.3201409E+04  0.7818609E-02  0.8188445E-01
       -2   -1    0    0    0  501  0.00000000000E+00  0.00000000000E+00  0.10905092663E+04  0.10905092663E+04  0.25500000920E-02 0.  1.
        2   -1    0    0  501    0  0.00000000000E+00  0.00000000000E+00 -0.23495942419E+04  0.23495942419E+04  0.25500000920E-02 0. -1.
    10030    2    1    2    0    0  0.00000000000E+00  0.00000000000E+00 -0.12590849756E+04  0.34401035082E+04  0.32014086230E+04 0.  0.
        3    1    3    3  502    0 -0.16275270345E+03  0.31279541653E+03 -0.23073439108E+04  0.23341305337E+04  0.10100000352E+00 0. -1.
       -3    1    3    3    0  502  0.16275270345E+03 -0.31279541653E+03  0.10482589352E+04  0.11059729746E+04  0.10100000352E+00 0.  1.
</event>
<event>
 5   0  0.3220147E-08  0.3203402E+04  0.7818609E-02  0.8187919E-01
       -1   -1    0    0    0  501  0.00000000000E+00  0.00000000000E+00  0.22824240187E+04  0.22824240187E+04  0.50400001928E-02 0. -1.
        1   -1    0    0  501    0  0.00000000000E+00  0.00000000000E+00 -0.11240004842E+04  0.11240004842E+04  0.50400001928E-02 0.  1.
    10030    2    1    2    0    0  0.00000000000E+00  0.00000000000E+00  0.11584235344E+04  0.34064245029E+04  0.32034017558E+04 0.  0.
        4    1    3    3  502    0 -0.12843321453E+04 -0.28798049683E+03 -0.39132155159E+03  0.13731627710E+04  0.12699999809E+01 0.  1.
       -4    1    3    3    0  502  0.12843321453E+04  0.28798049683E+03  0.15497450860E+04  0.20332617319E+04  0.12699999809E+01 0. -1.
</event>
<event>
 5   0  0.3220147E-08  0.3197954E+04  0.7818609E-02  0.8189358E-01
        1   -1    0    0  501    0  0.00000000000E+00  0.00000000000E+00  0.86847640982E+03  0.86847640983E+03  0.50400001928E-02 0.  1.
       -1   -1    0    0    0  501  0.00000000000E+00  0.00000000000E+00 -0.29439221749E+04  0.29439221749E+04  0.50400001928E-02 0. -1.
    10030    2    1    2    0    0  0.00000000000E+00  0.00000000000E+00 -0.20754457651E+04  0.38123985847E+04  0.31979536965E+04 0.  0.
        4    1    3    3  502    0  0.10837885523E+04  0.19531156497E+02 -0.24390524214E+04  0.26690742626E+04  0.12699999809E+01 0. -1.
       -4    1    3    3    0  502 -0.10837885523E+04 -0.19531156497E+02  0.36360665634E+03  0.11433243221E+04  0.12699999809E+01 0.  1.
</event>
<event>
 5   0  0.9707721E-08  0.3195730E+04  0.7818609E-02  0.8189946E-01
        2   -1    0    0  501    0  0.00000000000E+00  0.00000000000E+00  0.23029329364E+04  0.23029329364E+04  0.25500000920E-02 0. -1.
       -2   -1    0    0    0  501  0.00000000000E+00  0.00000000000E+00 -0.11086615609E+04  0.11086615609E+04  0.25500000920E-02 0.  1.
    10030    2    1    2    0    0  0.00000000000E+00  0.00000000000E+00  0.11942713755E+04  0.34115944973E+04  0.31957304167E+04 0.  0.
        3    1    3    3  502    0 -0.38755128111E+03 -0.35146102921E+03  0.22089036887E+04  0.22700168208E+04  0.10100000352E+00 0. -1.
       -3    1    3    3    0  502  0.38755128111E+03  0.35146102921E+03 -0.10146323132E+04  0.11415776766E+04  0.10100000352E+00 0.  1.
</event>
<event>
 5   0  0.3283581E-08  0.3199625E+04  0.7818609E-02  0.8188916E-01
        1   -1    0    0  501    0  0.00000000000E+00  0.00000000000E+00  0.13452563614E+04  0.13452563614E+04  0.50400001928E-02 0. -1.
       -1   -1    0    0    0  501  0.00000000000E+00  0.00000000000E+00 -0.19025366608E+04  0.19025366608E+04  0.50400001928E-02 0.  1.
    10030    2    1    2    0    0  0.00000000000E+00  0.00000000000E+00 -0.55728029941E+03  0.32477930222E+04  0.31996246941E+04 0.  0.
        5    1    3    3  502    0 -0.86947209163E+02  0.15551914587E+04  0.91815989148E+02  0.15603309124E+04  0.46999998093E+01 0. -1.
       -5    1    3    3    0  502  0.86947209163E+02 -0.15551914587E+04 -0.64909628855E+03  0.16874621098E+04  0.46999998093E+01 0.  1.
</event>
<event>
 5   0  0.3343140E-08  0.3224612E+04  0.7818609E-02  0.8182347E-01
        1   -1    0    0  501    0  0.00000000000E+00  0.00000000000E+00  0.18068972015E+04  0.18068972015E+04  0.50400001928E-02 0. -1.
       -1   -1    0    0    0  501  0.00000000000E+00  0.00000000000E+00 -0.14386707625E+04  0.14386707625E+04  0.50400001928E-02 0.  1.
    10030    2    1    2    0    0  0.00000000000E+00  0.00000000000E+00  0.36822643896E+03  0.32455679640E+04  0.32246117128E+04 0.  0.
        1    1    3    3  502    0 -0.92524486839E+03 -0.50950744352E+03  0.14101652661E+04  0.17618859155E+04  0.50400001928E-02 0. -1.
       -1    1    3    3    0  502  0.92524486839E+03  0.50950744352E+03 -0.10419388271E+04  0.14836820485E+04  0.50400001928E-02 0.  1.
</event>
<event>
 5   0  0.3220147E-08  0.3200683E+04  0.7818609E-02  0.8188637E-01
       -1   -1    0    0    0  501  0.00000000000E+00  0.00000000000E+00  0.21229016161E+04  0.21229016161E+04  0.50400001928E-02 0. -1.
        1   -1    0    0  501    0  0.00000000000E+00  0.00000000000E+00 -0.12064116885E+04  0.12064116885E+04  0.50400001928E-02 0.  1.
    10030    2    1    2    0    0  0.00000000000E+00  0.00000000000E+00  0.91648992758E+03  0.33293133046E+04  0.32006832540E+04 0.  0.
        4    1    3    3  502    0  0.76054150906E+03 -0.81082813785E+03 -0.73920383169E+03  0.13350241847E+04  0.12699999809E+01 0.  1.
       -4    1    3    3    0  502 -0.76054150906E+03  0.81082813785E+03  0.16556937593E+04  0.19942891198E+04  0.12699999809E+01 0. -1.
</event>
<event>
 5   0  0.9353994E-08  0.3201498E+04  0.7818609E-02  0.8188422E-01
        2   -1    0    0  501    0  0.00000000000E+00  0.00000000000E+00  0.18502573037E+04  0.18502573037E+04  0.25500000920E-02 0.  1.
       -2   -1    0    0    0  501  0.00000000000E+00  0.00000000000E+00 -0.13848870017E+04  0.13848870017E+04  0.25500000920E-02 0. -1.
    10030    2    1    2    0    0  0.00000000000E+00  0.00000000000E+00  0.46537030199E+03  0.32351443055E+04  0.32014979555E+04 0.  0.
        2    1    3    3  502    0  0.99195781310E+03  0.16085637206E+03  0.14917906985E+04  0.17986924595E+04  0.25500000920E-02 0.  1.
       -2    1    3    3    0  502 -0.99195781310E+03 -0.16085637206E+03 -0.10264203966E+04  0.14364518460E+04  0.25500000920E-02 0. -1.
</event>
<event>
 5   0  0.9353994E-08  0.3200098E+04  0.7818609E-02  0.8188791E-01
       -2   -1    0    0    0  501  0.00000000000E+00  0.00000000000E+00  0.12010963801E+04  0.12010963801E+04  0.25500000920E-02 0. -1.
        2   -1    0    0  501    0  0.00000000000E+00  0.00000000000E+00 -0.21315165274E+04  0.21315165274E+04  0.25500000920E-02 0.  1.
    10030    2    1    2    0    0  0.00000000000E+00  0.00000000000E+00 -0.93042014724E+03  0.33326129075E+04  0.32000979892E+04 0.  0.
        2    1    3    3  502    0  0.39753387785E+03 -0.11159447075E+04 -0.15852900868E+04  0.19790175425E+04  0.25500000920E-02 0.  1.
       -2    1    3    3    0  502 -0.39753387785E+03  0.11159447075E+04  0.65486993955E+03  0.13535953650E+04  0.25500000920E-02 0. -1.
</event>
<event>
 5   0  0.9353994E-08  0.3204805E+04  0.7818609E-02  0.8187549E-01
       -2   -1    0    0    0  501  0.00000000000E+00  0.00000000000E+00  0.13129408090E+04  0.13129408090E+04  0.25500000920E-02 0. -1.
        2   -1    0    0  501    0  0.00000000000E+00  0.00000000000E+00 -0.19556811851E+04  0.19556811851E+04  0.25500000920E-02 0.  1.
    10030    2    1    2    0    0  0.00000000000E+00  0.00000000000E+00 -0.64274037613E+03  0.32686219941E+04  0.32048049160E+04 0.  0.
        2    1    3    3  502    0  0.51120791430E+03 -0.79347811440E+03 -0.16420501641E+04  0.18940089206E+04  0.25500000920E-02 0.  1.
       -2    1    3    3    0  502 -0.51120791430E+03  0.79347811440E+03  0.99930978798E+03  0.13746130736E+04  0.25500000920E-02 0. -1.
</event>
<event>
 5   0  0.3427667E-08  0.3199646E+04  0.7818609E-02  0.8188911E-01
       -1   -1    0    0    0  501  0.00000000000E+00  0.00000000000E+00  0.16574827401E+04  0.16574827401E+04  0.50400001928E-02 0.  1.
        1   -1    0    0  501    0  0.00000000000E+00  0.00000000000E+00 -0.15441693824E+04  0.15441693824E+04  0.50400001928E-02 0. -1.
    10030    2    1    2    0    0  0.00000000000E+00  0.00000000000E+00  0.11331335768E+03  0.32016521225E+04  0.31996462924E+04 0.  0.
        2    1    3    3  502    0 -0.99148783014E+02 -0.11563363601E+04  0.11584781322E+04  0.16398218933E+04  0.25500000920E-02 0.  1.
       -2    1    3    3    0  502  0.99148783014E+02  0.11563363601E+04 -0.10451647745E+04  0.15618302292E+04  0.25500000920E-02 0. -1.
</event>
<event>
 5   0  0.3220147E-08  0.3221371E+04  0.7818609E-02  0.8183196E-01
       -1   -1    0    0    0  501  0.00000000000E+00  0.00000000000E+00  0.14230687160E+04  0.14230687160E+04  0.50400001928E-02 0. -1.
        1   -1    0    0  501    0  0.00000000000E+00  0.00000000000E+00 -0.18230377974E+04  0.18230377974E+04  0.50400001928E-02 0.  1.
    10030    2    1    2    0    0  0.00000000000E+00  0.00000000000E+00 -0.39996908137E+03  0.32461065135E+04  0.32213711724E+04 0.  0.
        4    1    3    3  502    0  0.95903364908E+03  0.87016449566E+03 -0.11651357672E+04  0.17419743851E+04  0.12699999809E+01 0.  1.
       -4    1    3    3    0  502 -0.95903364908E+03 -0.87016449566E+03  0.76516668579E+03  0.15041321283E+04  0.12699999809E+01 0. -1.
</event>
<event>
 5   0  0.3270966E-08  0.3202822E+04  0.7818609E-02  0.8188072E-01
        1   -1    0    0  501    0  0.00000000000E+00  0.00000000000E+00  0.11691739992E+04  0.11691739992E+04  0.50400001928E-02 0. -1.
       -1   -1    0    0    0  501  0.00000000000E+00  0.00000000000E+00 -0.21934433509E+04  0.21934433509E+04  0.50400001928E-02 0.  1.
    10030    2    1    2    0    0  0.00000000000E+00  0.00000000000E+00 -0.10242693517E+04  0.33626173501E+04  0.32028218399E+04 0.  0.
        3    1    3    3  502    0 -0.44610563638E+03 -0.33497645315E+03 -0.20881263975E+04  0.21613633024E+04  0.10100000352E+00 0.  1.
       -3    1    3    3    0  502  0.44610563638E+03  0.33497645315E+03  0.10638570458E+04  0.12012540477E+04  0.10100000352E+00 0. -1.
</event>
<event>
 5   0  0.9157524E-08  0.3197630E+04  0.7818609E-02  0.8189443E-01
        2   -1    0    0  501    0  0.00000000000E+00  0.00000000000E+00  0.15811251410E+04  0.15811251410E+04  0.25500000920E-02 0. -1.
       -2   -1    0    0    0  501  0.00000000000E+00  0.00000000000E+00 -0.16167024317E+04  0.16167024317E+04  0.25500000920E-02 0.  1.
    10030    2    1    2    0    0  0.00000000000E+00  0.00000000000E+00 -0.35577290703E+02  0.31978275727E+04  0.31976296597E+04 0.  0.
        5    1    3    3  502    0 -0.11114488378E+04  0.23860311372E+03  0.11065303794E+04  0.15864052242E+04  0.46999998093E+01 0. -1.
       -5    1    3    3    0  502  0.11114488378E+04 -0.23860311372E+03 -0.11421076701E+04  0.16114223484E+04  0.46999998093E+01 0.  1.
</event>
<event>
 5   0  0.3220147E-08  0.3199055E+04  0.7818609E-02  0.8189067E-01
        1   -1    0    0  501    0  0.00000000000E+00  0.00000000000E+00  0.20370048061E+04  0.20370048062E+04  0.50400001928E-02 0. -1.
       -1   -1    0    0    0  501  0.00000000000E+00  0.00000000000E+00 -0.12560047545E+04  0.12560047545E+04  0.50400001928E-02 0.  1.
    10030    2    1    2    0    0  0.00000000000E+00  0.00000000000E+00  0.78100005166E+03  0.32930095606E+04  0.31990546863E+04 0.  0.
        4    1    3    3  502    0 -0.23304993250E+02 -0.26488215933E+03 -0.12330936491E+04  0.12614385603E+04  0.12699999809E+01 0.  1.
       -4    1    3    3    0  502  0.23304993250E+02  0.26488215933E+03  0.20140937008E+04  0.20315710003E+04  0.12699999809E+01 0. -1.
</event>
<event>
 5   0  0.9157524E-08  0.3200483E+04  0.7818609E-02  0.8188690E-01
       -2   -1    0    0    0  501  0.00000000000E+00  0.00000000000E+00  0.15840024476E+04  0.15840024476E+04  0.25500000920E-02 0. -1.
        2   -1    0    0  501    0  0.00000000000E+00  0.00000000000E+00 -0.16166468789E+04  0.16166468789E+04  0.25500000920E-02 0.  1.
    10030    2    1    2    0    0  0.00000000000E+00  0.00000000000E+00 -0.32644431261E+02  0.32006493265E+04  0.32004828467E+04 0.  0.
        5    1    3    3  502    0 -0.72037625437E+03  0.54239893561E+03  0.13057193064E+04  0.15868407451E+04  0.46999998093E+01 0. -1.
       -5    1    3    3    0  502  0.72037625437E+03 -0.54239893561E+03 -0.13383637376E+04  0.16138085814E+04  0.46999998093E+01 0.  1.
</event>
<event>
 5   0  0.3220147E-08  0.3199250E+04  0.7818609E-02  0.8189015E-01
       -1   -1    0    0    0  501  0.00000000000E+00  0.00000000000E+00  0.13417957410E+04  0.13417957410E+04  0.50400001928E-02 0. -1.
        1   -1    0    0  501    0  0.00000000000E+00  0.00000000000E+00 -0.19069967263E+04  0.19069967263E+04  0.50400001928E-02 0.  1.
    10030    2    1    2    0    0  0.00000000000E+00  0.00000000000E+00 -0.56520098528E+03  0.32487924673E+04  0.31992499655E+04 0.  0.
        4    1    3    3  502    0  0.48649860986E+03 -0.11070308143E+04  0.78080276389E+03  0.14393931673E+04  0.12699999809E+01 0. -1.
       -4    1    3    3    0  502 -0.48649860986E+03  0.11070308143E+04 -0.13460037492E+04  0.18093993000E+04  0.12699999809E+01 0.  1.
</event>
<event>
 5   0  0.3080500E-08  0.3199538E+04  0.7818609E-02  0.8188939E-01
       -3   -1    0    0    0  501  0.00000000000E+00  0.00000000000E+00  0.24068394791E+04  0.24068394812E+04  0.10100000352E+00 0.  1.
        3   -1    0    0  501    0  0.00000000000E+00  0.00000000000E+00 -0.10633281779E+04  0.10633281827E+04  0.10100000352E+00 0. -1.
    10030    2    1    2    0    0  0.00000000000E+00  0.00000000000E+00  0.13435113012E+04  0.34701676639E+04  0.31995376227E+04 0.  0.
        2    1    3    3  502    0 -0.31812802679E+03  0.36002657148E+03 -0.98323429508E+03  0.10943373578E+04  0.25500000920E-02 0. -1.
       -2    1    3    3    0  502  0.31812802679E+03 -0.36002657148E+03  0.23267455963E+04  0.23758303061E+04  0.25500000920E-02 0.  1.
</event>
<event>
 5   0  0.3270966E-08  0.3198822E+04  0.7818609E-02  0.8189128E-01
        1   -1    0    0  501    0  0.00000000000E+00  0.00000000000E+00  0.22613730919E+04  0.22613730919E+04  0.50400001928E-02 0.  1.
       -1   -1    0    0    0  501  0.00000000000E+00  0.00000000000E+00 -0.11312222436E+04  0.11312222436E+04  0.50400001928E-02 0. -1.
    10030    2    1    2    0    0  0.00000000000E+00  0.00000000000E+00  0.11301508484E+04  0.33925953355E+04  0.31988219973E+04 0.  0.
        3    1    3    3  502    0  0.52354727660E+03  0.13554563931E+04  0.12739593309E+04  0.19324430577E+04  0.10100000352E+00 0.  1.
       -3    1    3    3    0  502 -0.52354727660E+03 -0.13554563931E+04 -0.14380848247E+03  0.14601522778E+04  0.10100000352E+00 0. -1.
</event>
<event>
 5   0  0.3270966E-08  0.3205498E+04  0.7818609E-02  0.8187367E-01
        1   -1    0    0  501    0  0.00000000000E+00  0.00000000000E+00  0.16785230132E+04  0.16785230132E+04  0.50400001928E-02 0.  1.
       -1   -1    0    0    0  501  0.00000000000E+00  0.00000000000E+00 -0.15303961357E+04  0.15303961357E+04  0.50400001928E-02 0. -1.
    10030    2    1    2    0    0  0.00000000000E+00  0.00000000000E+00  0.14812687751E+03  0.32089191489E+04  0.32054984842E+04 0.  0.
        3    1    3    3  502    0 -0.27499942914E+03  0.94354626723E+03 -0.11933448191E+04  0.15459547574E+04  0.10100000352E+00 0. -1.
       -3    1    3    3    0  502  0.27499942914E+03 -0.94354626723E+03  0.13414716966E+04  0.16629643915E+04  0.10100000352E+00 0.  1.
</event>
<event>
 5   0  0.9727083E-08  0.3203669E+04  0.7818609E-02  0.8187849E-01
       -2   -1    0    0    0  501  0.00000000000E+00  0.00000000000E+00  0.15418345646E+04  0.15418345646E+04  0.25500000920E-02 0. -1.
        2   -1    0    0  501    0  0.00000000000E+00  0.00000000000E+00 -0.16641690215E+04  0.16641690215E+04  0.25500000920E-02 0.  1.
    10030    2    1    2    0    0  0.00000000000E+00  0.00000000000E+00 -0.12233445692E+03  0.32060035861E+04  0.32036687211E+04 0.  0.
        4    1    3    3  502    0 -0.62291204442E+03 -0.45092106930E+03 -0.14673683631E+04  0.16566595160E+04  0.12699999809E+01 0.  1.
       -4    1    3    3    0  502  0.62291204442E+03  0.45092106930E+03  0.13450339062E+04  0.15493440701E+04  0.12699999809E+01 0. -1.
</event>
<event>
 5   0  0.9353994E-08  0.3202233E+04  0.7818609E-02  0.8188228E-01
       -2   -1    0    0    0  501  0.00000000000E+00  0.00000000000E+00  0.20304207098E+04  0.20304207098E+04  0.25500000920E-02 0.  1.
        2   -1    0    0  501    0  0.00000000000E+00  0.00000000000E+00 -0.12625828191E+04  0.12625828191E+04  0.25500000920E-02 0. -1.
    10030    2    1    2    0    0  0.00000000000E+00  0.00000000000E+00  0.76783789075E+03  0.32930035289E+04  0.32022331606E+04 0.  0.
        2    1    3    3  502    0  0.55668289171E+03 -0.29862768648E+03 -0.11290082771E+04  0.12937287300E+04  0.25500000920E-02 0. -1.
       -2    1    3    3    0  502 -0.55668289171E+03  0.29862768648E+03  0.18968461679E+04  0.19992747989E+04  0.25500000920E-02 0.  1.
</event>
<event>
 5   0  0.3270966E-08  0.3201559E+04  0.7818609E-02  0.8188405E-01
       -1   -1    0    0    0  501  0.00000000000E+00  0.00000000000E+00  0.12143808690E+04  0.12143808690E+04  0.50400001928E-02 0. -1.
        1   -1    0    0  501    0  0.00000000000E+00  0.00000000000E+00 -0.21101251419E+04  0.21101251420E+04  0.50400001928E-02 0.  1.
    10030    2    1    2    0    0  0.00000000000E+00  0.00000000000E+00 -0.89574427293E+03  0.33245060110E+04  0.32015593723E+04 0.  0.
        3    1    3    3  502    0 -0.49012783125E+03 -0.94042771539E+03 -0.16930310212E+04  0.19977446353E+04  0.10100000352E+00 0.  1.
       -3    1    3    3    0  502  0.49012783125E+03  0.94042771539E+03  0.79728674829E+03  0.13267613757E+04  0.10100000352E+00 0. -1.
</event>
<event>
 5   0  0.9707721E-08  0.3192368E+04  0.7818609E-02  0.8190836E-01
       -2   -1    0    0    0  501  0.00000000000E+00  0.00000000000E+00  0.15325460481E+04  0.15325460481E+04  0.25500000920E-02 0.  1.
        2   -1    0    0  501    0  0.00000000000E+00  0.00000000000E+00 -0.16624642144E+04  0.16624642144E+04  0.25500000920E-02 0. -1.
    10030    2    1    2    0    0  0.00000000000E+00  0.00000000000E+00 -0.12991816633E+03  0.31950102625E+04  0.31923677494E+04 0.  0.
        3    1    3    3  502    0 -0.46499011364E+03  0.13082577665E+03  0.14576390254E+04  0.15355919798E+04  0.10100000352E+00 0.  1.
       -3    1    3    3    0  502  0.46499011364E+03 -0.13082577665E+03 -0.15875571918E+04  0.16594182827E+04  0.10100000352E+00 0. -1.
</event>
<event>
 5   0  0.3343140E-08  0.3199266E+04  0.7818609E-02  0.8189011E-01
       -1   -1    0    0    0  501  0.00000000000E+00  0.00000000000E+00  0.10764750748E+04  0.10764750748E+04  0.50400001928E-02 0. -1.
        1   -1    0    0  501    0  0.00000000000E+00  0.00000000000E+00 -0.23770407061E+04  0.23770407061E+04  0.50400001928E-02 0.  1.
    10030    2    1    2    0    0  0.00000000000E+00  0.00000000000E+00 -0.13005656313E+04  0.34535157809E+04  0.31992655857E+04 0.  0.
        1    1    3    3  502    0 -0.90103076730E+03  0.12128561145E+04 -0.12173379748E+04  0.19403061983E+04  0.50400001928E-02 0.  1.
       -1    1    3    3    0  502  0.90103076730E+03 -0.12128561145E+04 -0.83227656446E+02  0.15132095826E+04  0.50400001928E-02 0. -1.
</event>
<event>
 5   0  0.3220147E-08  0.3199322E+04  0.7818609E-02  0.8188996E-01
        1   -1    0    0  501    0  0.00000000000E+00  0.00000000000E+00  0.15592055789E+04  0.15592055789E+04  0.50400001928E-02 0. -1.
       -1   -1    0    0    0  501  0.00000000000E+00  0.00000000000E+00 -0.16411661258E+04  0.16411661258E+04  0.50400001928E-02 0.  1.
    10030    2    1    2    0    0  0.00000000000E+00  0.00000000000E+00 -0.81960546867E+02  0.32003717047E+04  0.31993220402E+04 0.  0.
        4    1    3    3  502    0  0.12050565112E+04  0.79552460330E+03  0.64764457839E+03  0.15825503791E+04  0.12699999809E+01 0. -1.
       -4    1    3    3    0  502 -0.12050565112E+04 -0.79552460330E+03 -0.72960512526E+03  0.16178213255E+04  0.12699999809E+01 0.  1.
</event>
<event>
 5   0  0.3283581E-08  0.3200976E+04  0.7818609E-02  0.8188560E-01
        1   -1    0    0  501    0  0.00000000000E+00  0.00000000000E+00  0.14735911861E+04  0.14735911861E+04  0.50400001928E-02 0. -1.
       -1   -1    0    0    0  501  0.00000000000E+00  0.00000000000E+00 -0.17383118976E+04  0.17383118976E+04  0.50400001928E-02 0.  1.
    10030    2    1    2    0    0  0.00000000000E+00  0.00000000000E+00 -0.26472071145E+03  0.32119030837E+04  0.32009755332E+04 0.  0.
        5    1    3    3  502    0  0.13006175839E+04 -0.75807211807E+03  0.41287255932E+03  0.15610141818E+04  0.46999998093E+01 0. -1.
       -5    1    3    3    0  502 -0.13006175839E+04  0.75807211807E+03 -0.67759327077E+03  0.16508889019E+04  0.46999998093E+01 0.  1.
</event>
<event>
 5   0  0.9707721E-08  0.3200933E+04  0.7818609E-02  0.8188571E-01
        2   -1    0    0  501    0  0.00000000000E+00  0.00000000000E+00  0.26271513233E+04  0.26271513233E+04  0.25500000920E-02 0.  1.
       -2   -1    0    0    0  501  0.00000000000E+00  0.00000000000E+00 -0.97500757779E+03  0.97500757779E+03  0.25500000920E-02 0. -1.
    10030    2    1    2    0    0  0.00000000000E+00  0.00000000000E+00  0.16521437455E+04  0.36021589011E+04  0.32009326442E+04 0.  0.
        3    1    3    3  502    0  0.32872191319E+03  0.85611783799E+03  0.23021632364E+04  0.24780943134E+04  0.10100000352E+00 0.  1.
       -3    1    3    3    0  502 -0.32872191319E+03 -0.85611783799E+03 -0.65001949086E+03  0.11240645878E+04  0.10100000352E+00 0. -1.
</event>
<event>
 5   0  0.3343140E-08  0.3199927E+04  0.7818609E-02  0.8188837E-01
       -1   -1    0    0    0  501  0.00000000000E+00  0.00000000000E+00  0.84315033867E+03  0.84315033869E+03  0.50400001928E-02 0.  1.
        1   -1    0    0  501    0  0.00000000000E+00  0.00000000000E+00 -0.30360930544E+04  0.30360930545E+04  0.50400001928E-02 0. -1.
    10030    2    1    2    0    0  0.00000000000E+00  0.00000000000E+00 -0.21929427158E+04  0.38792433931E+04  0.31999268036E+04 0.  0.
        1    1    3    3  502    0 -0.25824480906E+03  0.15574583718E+04 -0.14114710277E+04  0.21176915317E+04  0.50400001928E-02 0. -1.
       -1    1    3    3    0  502  0.25824480906E+03 -0.15574583718E+04 -0.78147168805E+03  0.17615518614E+04  0.50400001928E-02 0.  1.
</event>
<event>
 5   0  0.9329929E-08  0.3185151E+04  0.7818609E-02  0.8192750E-01
        2   -1    0    0  501    0  0.00000000000E+00  0.00000000000E+00  0.26757539572E+04  0.26757539572E+04  0.25500000920E-02 0.  1.
       -2   -1    0    0    0  501  0.00000000000E+00  0.00000000000E+00 -0.94788115243E+03  0.94788115243E+03  0.25500000920E-02 0. -1.
    10030    2    1    2    0    0  0.00000000000E+00  0.00000000000E+00  0.17278728047E+04  0.36236351096E+04  0.31851510134E+04 0.  0.
        1    1    3    3  502    0 -0.15176497956E+04 -0.48273127892E+03  0.86106847600E+03  0.18104500297E+04  0.50400001928E-02 0. -1.
       -1    1    3    3    0  502  0.15176497956E+04  0.48273127892E+03  0.86680432875E+03  0.18131850799E+04  0.50400001928E-02 0.  1.
</event>
<event>
 5   0  0.3220147E-08  0.3197568E+04  0.7818609E-02  0.8189460E-01
       -1   -1    0    0    0  501  0.00000000000E+00  0.00000000000E+00  0.11304309881E+04  0.11304309881E+04  0.50400001928E-02 0. -1.
        1   -1    0    0  501    0  0.00000000000E+00  0.00000000000E+00 -0.22611819033E+04  0.22611819034E+04  0.50400001928E-02 0.  1.
    10030    2    1    2    0    0  0.00000000000E+00  0.00000000000E+00 -0.11307509152E+04  0.33916128915E+04  0.31975678841E+04 0.  0.
        4    1    3    3  502    0  0.18446082593E+03 -0.11366668356E+04 -0.17417662789E+04  0.20880106979E+04  0.12699999809E+01 0.  1.
       -4    1    3    3    0  502 -0.18446082593E+03  0.11366668356E+04  0.61101536370E+03  0.13036021935E+04  0.12699999809E+01 0. -1.
</event>
<event>
 5   0  0.3283581E-08  0.3203117E+04  0.7818609E-02  0.8187994E-01
       -1   -1    0    0    0  501  0.00000000000E+00  0.00000000000E+00  0.21397381993E+04  0.21397381993E+04  0.50400001928E-02 0.  1.
        1   -1    0    0  501    0  0.00000000000E+00  0.00000000000E+00 -0.11987399978E+04  0.11987399979E+04  0.50400001928E-02 0. -1.
    10030    2    1    2    0    0  0.00000000000E+00  0.00000000000E+00  0.94099820144E+03  0.33384781971E+04  0.32031170846E+04 0.  0.
        5    1    3    3  502    0 -0.81103317722E+03 -0.13700321582E+04  0.28935953587E+03  0.16181823012E+04  0.46999998093E+01 0. -1.
       -5    1    3    3    0  502  0.81103317722E+03  0.13700321582E+04  0.65163866556E+03  0.17202958959E+04  0.46999998093E+01 0.  1.
</event>
<event>
 5   0  0.3427667E-08  0.3200842E+04  0.7818609E-02  0.8188595E-01
        1   -1    0    0  501    0  0.00000000000E+00  0.00000000000E+00  0.27211706243E+04  0.27211706243E+04  0.50400001928E-02 0. -1.
       -1   -1    0    0    0  501  0.00000000000E+00  0.00000000000E+00 -0.94126697608E+03  0.94126697609E+03  0.50400001928E-02 0.  1.
    10030    2    1    2    0    0  0.00000000000E+00  0.00000000000E+00  0.17799036482E+04  0.36624376004E+04  0.32008424172E+04 0.  0.
        2    1    3    3  502    0  0.76759415512E+03  0.10991589367E+04  0.18900709572E+04  0.23172654958E+04  0.25500000920E-02 0. -1.
       -2    1    3    3    0  502 -0.76759415512E+03 -0.10991589367E+04 -0.11016730891E+03  0.13451721046E+04  0.25500000920E-02 0.  1.
</event>
<event>
 5   0  0.3220147E-08  0.3200573E+04  0.7818609E-02  0.8188666E-01
        1   -1    0    0  501    0  0.00000000000E+00  0.00000000000E+00  0.20222385852E+04  0.20222385852E+04  0.50400001928E-02 0.  1.
       -1   -1    0    0    0  501  0.00000000000E+00  0.00000000000E+00 -0.12663772739E+04  0.12663772739E+04  0.50400001928E-02 0. -1.
    10030    2    1    2    0    0  0.00000000000E+00  0.00000000000E+00  0.75586131130E+03  0.32886158590E+04  0.32005730653E+04 0.  0.
        4    1    3    3  502    0  0.12636383115E+03 -0.91916274394E+03  0.17176722034E+04  0.19522365069E+04  0.12699999809E+01 0.  1.
       -4    1    3    3    0  502 -0.12636383115E+03  0.91916274394E+03 -0.96181089211E+03  0.13363793521E+04  0.12699999809E+01 0. -1.
</event>
<event>
 5   0  0.3283581E-08  0.3200357E+04  0.7818609E-02  0.8188723E-01
       -1   -1    0    0    0  501  0.00000000000E+00  0.00000000000E+00  0.16255592019E+04  0.16255592019E+04  0.50400001928E-02 0.  1.
        1   -1    0    0  501    0  0.00000000000E+00  0.00000000000E+00 -0.15751939208E+04  0.15751939208E+04  0.50400001928E-02 0. -1.
    10030    2    1    2    0    0  0.00000000000E+00  0.00000000000E+00  0.50365281119E+02  0.32007531227E+04  0.32003568381E+04 0.  0.
        5    1    3    3  502    0 -0.66592074493E+03  0.17150130849E+03 -0.14198788783E+04  0.15776378724E+04  0.46999998093E+01 0. -1.
       -5    1    3    3    0  502  0.66592074493E+03 -0.17150130849E+03  0.14702441595E+04  0.16231152503E+04  0.46999998093E+01 0.  1.
</event>
<event>
 5   0  0.9353994E-08  0.3199444E+04  0.7818609E-02  0.8188964E-01
       -2   -1    0    0    0  501  0.00000000000E+00  0.00000000000E+00  0.11620309045E+04  0.11620309045E+04  0.25500000920E-02 0. -1.
        2   -1    0    0  501    0  0.00000000000E+00  0.00000000000E+00 -0.22022738459E+04  0.22022738459E+04  0.25500000920E-02 0.  1.
    10030    2    1    2    0    0  0.00000000000E+00  0.00000000000E+00 -0.10402429415E+04  0.33643047504E+04  0.31994438698E+04 0.  0.
        2    1    3    3  502    0 -0.11104482516E+04 -0.10983877007E+04 -0.88371212560E+03  0.17945745962E+04  0.25500000920E-02 0.  1.
       -2    1    3    3    0  502  0.11104482516E+04  0.10983877007E+04 -0.15653081585E+03  0.15697301541E+04  0.25500000920E-02 0. -1.
</event>
<event>
 5   0  0.3343140E-08  0.3200661E+04  0.7818609E-02  0.8188643E-01
       -1   -1    0    0    0  501  0.00000000000E+00  0.00000000000E+00  0.14447481013E+04  0.14447481013E+04  0.50400001928E-02 0.  1.
        1   -1    0    0  501    0  0.00000000000E+00  0.00000000000E+00 -0.17726671650E+04  0.17726671650E+04  0.50400001928E-02 0. -1.
    10030    2    1    2    0    0  0.00000000000E+00  0.00000000000E+00 -0.32791906372E+03  0.32174152663E+04  0.32006608823E+04 0.  0.
        1    1    3    3  502    0  0.98264172151E+03 -0.57450546917E+03 -0.12947552543E+04  0.17239583682E+04  0.50400001928E-02 0. -1.
       -1    1    3    3    0  502 -0.98264172151E+03  0.57450546917E+03  0.96683619055E+03  0.14934568981E+04  0.50400001928E-02 0.  1.
</event>
<event>
 5   0  0.3343140E-08  0.3200101E+04  0.7818609E-02  0.8188790E-01
       -1   -1    0    0    0  501  0.00000000000E+00  0.00000000000E+00  0.10069833385E+04  0.10069833385E+04  0.50400001928E-02 0.  1.
        1   -1    0    0  501    0  0.00000000000E+00  0.00000000000E+00 -0.25424077909E+04  0.25424077909E+04  0.50400001928E-02 0. -1.
    10030    2    1    2    0    0  0.00000000000E+00  0.00000000000E+00 -0.15354244524E+04  0.35493911295E+04  0.32001014267E+04 0.  0.
        1    1    3    3  502    0  0.58057939657E+03  0.94170797079E+03  0.51443586986E+03  0.12200535243E+04  0.50400001928E-02 0.  1.
       -1    1    3    3    0  502 -0.58057939657E+03 -0.94170797079E+03 -0.20498603222E+04  0.23293376051E+04  0.50400001928E-02 0. -1.
</event>
<event>
 5   0  0.3343140E-08  0.3198786E+04  0.7818609E-02  0.8189138E-01
        1   -1    0    0  501    0  0.00000000000E+00  0.00000000000E+00  0.12482143839E+04  0.12482143839E+04  0.50400001928E-02 0.  1.
       -1   -1    0    0    0  501  0.00000000000E+00  0.00000000000E+00 -0.20493734880E+04  0.20493734880E+04  0.50400001928E-02 0. -1.
    10030    2    1    2    0    0  0.00000000000E+00  0.00000000000E+00 -0.80115910407E+03  0.32975878719E+04  0.31987856856E+04 0.  0.
        1    1    3    3  502    0 -0.65499355795E+03  0.85612172808E+03  0.81748120377E+03  0.13528623333E+04  0.50400001928E-02 0.  1.
       -1    1    3    3    0  502  0.65499355795E+03 -0.85612172808E+03 -0.16186403078E+04  0.19447255386E+04  0.50400001928E-02 0. -1.
</event>
<event>
 5   0  0.9727083E-08  0.3200992E+04  0.7818609E-02  0.8188555E-01
       -2   -1    0    0    0  501  0.00000000000E+00  0.00000000000E+00  0.20821509530E+04  0.20821509530E+04  0.25500000920E-02 0. -1.
        2   -1    0    0  501    0  0.00000000000E+00  0.00000000000E+00 -0.12302604240E+04  0.12302604240E+04  0.25500000920E-02 0.  1.
    10030    2    1    2    0    0  0.00000000000E+00  0.00000000000E+00  0.85189052898E+03  0.33124113771E+04  0.32009922926E+04 0.  0.
        4    1    3    3  502    0 -0.31035987127E+02 -0.24430862535E+03 -0.12105357072E+04  0.12353332539E+04  0.12699999809E+01 0.  1.
       -4    1    3    3    0  502  0.31035987127E+02  0.24430862535E+03  0.20624262362E+04  0.20770781231E+04  0.12699999809E+01 0. -1.
</event>
<event>
 5   0  0.3270966E-08  0.3199871E+04  0.7818609E-02  0.8188851E-01
       -1   -1    0    0    0  501  0.00000000000E+00  0.00000000000E+00  0.14121229519E+04  0.14121229519E+04  0.50400001928E-02 0.  1.
        1   -1    0    0  501    0  0.00000000000E+00  0.00000000000E+00 -0.18127276881E+04  0.18127276882E+04  0.50400001928E-02 0. -1.
    10030    2    1    2    0    0  0.00000000000E+00  0.00000000000E+00 -0.40060473625E+03  0.32248506401E+04  0.31998714812E+04 0.  0.
        3    1    3    3  502    0 -0.14515565765E+04 -0.26460849010E+03  0.42320338439E+03  0.15349707693E+04  0.10100000352E+00 0.  1.
       -3    1    3    3    0  502  0.14515565765E+04  0.26460849010E+03 -0.82380812065E+03  0.16898798708E+04  0.10100000352E+00 0. -1.
</event>
<event>
 5   0  0.9727083E-08  0.3200511E+04  0.7818609E-02  0.8188682E-01
        2   -1    0    0  501    0  0.00000000000E+00  0.00000000000E+00  0.22268438243E+04  0.22268438243E+04  0.25500000920E-02 0. -1.
       -2   -1    0    0    0  501  0.00000000000E+00  0.00000000000E+00 -0.11499765403E+04  0.11499765403E+04  0.25500000920E-02 0.  1.
    10030    2    1    2    0    0  0.00000000000E+00  0.00000000000E+00  0.10768672840E+04  0.33768203646E+04  0.32005113072E+04 0.  0.
        4    1    3    3  502    0  0.46538556177E+03 -0.76849204519E+02 -0.10749632525E+04  0.11738982616E+04  0.12699999809E+01 0.  1.
       -4    1    3    3    0  502 -0.46538556177E+03  0.76849204519E+02  0.21518305365E+04  0.22029221031E+04  0.12699999809E+01 0. -1.
</event>
<event>
 5   0  0.9707721E-08  0.3207596E+04  0.7818609E-02  0.8186814E-01
        2   -1    0    0  501    0  0.00000000000E+00  0.00000000000E+00  0.19673138255E+04  0.19673138255E+04  0.25500000920E-02 0. -1.
       -2   -1    0    0    0  501  0.00000000000E+00  0.00000000000E+00 -0.13074520500E+04  0.13074520500E+04  0.25500000920E-02 0.  1.
    10030    2    1    2    0    0  0.00000000000E+00  0.00000000000E+00  0.65986177548E+03  0.32747658754E+04  0.32075962926E+04 0.  0.
        3    1    3    3  502    0  0.44187861627E+03 -0.92525748827E+03  0.15889667002E+04  0.18910772897E+04  0.10100000352E+00 0. -1.
       -3    1    3    3    0  502 -0.44187861627E+03  0.92525748827E+03 -0.92910492468E+03  0.13836885858E+04  0.10100000352E+00 0.  1.
</event>
<event>
 5   0  0.9329929E-08  0.3199933E+04  0.7818609E-02  0.8188835E-01
       -2   -1    0    0    0  501  0.00000000000E+00  0.00000000000E+00  0.15375317929E+04  0.15375317929E+04  0.25500000920E-02 0. -1.
        2   -1    0    0  501    0  0.00000000000E+00  0.00000000000E+00 -0.16649369953E+04  0.16649369953E+04  0.25500000920E-02 0.  1.
    10030    2    1    2    0    0  0.00000000000E+00  0.00000000000E+00 -0.12740520244E+03  0.32024687882E+04  0.31999334765E+04 0.  0.
        1    1    3    3  502    0  0.13077013313E+04  0.82944646200E+03  0.33889632465E+03  0.15852176267E+04  0.50400001928E-02 0. -1.
       -1    1    3    3    0  502 -0.13077013313E+04 -0.82944646200E+03 -0.46630152708E+03  0.16172511615E+04  0.50400001928E-02 0.  1.
</event>
<event>
 5   0  0.9727083E-08  0.3200210E+04  0.7818609E-02  0.8188762E-01
        2   -1    0    0  501    0  0.00000000000E+00  0.00000000000E+00  0.22102701571E+04  0.22102701571E+04  0.25500000920E-02 0. -1.
       -2   -1    0    0    0  501  0.00000000000E+00  0.00000000000E+00 -0.11583811828E+04  0.11583811828E+04  0.25500000920E-02 0.  1.
    10030    2    1    2    0    0  0.00000000000E+00  0.00000000000E+00  0.10518889743E+04  0.33686513399E+04  0.32002095924E+04 0.  0.
        4    1    3    3  502    0 -0.14618561938E+04  0.60142126556E+03  0.26468177588E+03  0.16027442483E+04  0.12699999809E+01 0. -1.
       -4    1    3    3    0  502  0.14618561938E+04 -0.60142126556E+03  0.78720719841E+03  0.17659070916E+04  0.12699999809E+01 0.  1.
</event>
<event>
 5   0  0.3270966E-08  0.3201277E+04  0.7818609E-02  0.8188480E-01
       -1   -1    0    0    0  501  0.00000000000E+00  0.00000000000E+00  0.10252542641E+04  0.10252542641E+04  0.50400001928E-02 0.  1.
        1   -1    0    0  501    0  0.00000000000E+00  0.00000000000E+00 -0.24989354376E+04  0.24989354376E+04  0.50400001928E-02 0. -1.
    10030    2    1    2    0    0  0.00000000000E+00  0.00000000000E+00 -0.14736811736E+04  0.35241897017E+04  0.32012773782E+04 0.  0.
        3    1    3    3  502    0 -0.76450639880E+03  0.37312408473E+02 -0.22844075020E+04  0.24092280703E+04  0.10100000352E+00 0. -1.
       -3    1    3    3    0  502  0.76450639880E+03 -0.37312408473E+02  0.81072632841E+03  0.11149616314E+04  0.10100000352E+00 0.  1.
</event>
<event>
 5   0  0.9707721E-08  0.3213727E+04  0.7818609E-02  0.8185201E-01
       -2   -1    0    0    0  501  0.00000000000E+00  0.00000000000E+00  0.10827025835E+04  0.10827025835E+04  0.25500000920E-02 0.  1.
        2   -1    0    0  501    0  0.00000000000E+00  0.00000000000E+00 -0.23847825836E+04  0.23847825836E+04  0.25500000920E-02 0. -1.
    10030    2    1    2    0    0  0.00000000000E+00  0.00000000000E+00 -0.13020800001E+04  0.34674851671E+04  0.32137269730E+04 0.  0.
        3    1    3    3  502    0 -0.68744989616E+03  0.18821547422E+03 -0.22048924715E+04  0.23172318066E+04  0.10100000352E+00 0. -1.
       -3    1    3    3    0  502  0.68744989616E+03 -0.18821547422E+03  0.90281247143E+03  0.11502533604E+04  0.10100000352E+00 0.  1.
</event>
<event>
 5   0  0.3270966E-08  0.3200906E+04  0.7818609E-02  0.8188578E-01
        1   -1    0    0  501    0  0.00000000000E+00  0.00000000000E+00  0.16972842445E+04  0.16972842445E+04  0.50400001928E-02 0.  1.
       -1   -1    0    0    0  501  0.00000000000E+00  0.00000000000E+00 -0.15091461286E+04  0.15091461286E+04  0.50400001928E-02 0. -1.
    10030    2    1    2    0    0  0.00000000000E+00  0.00000000000E+00  0.18813811584E+03  0.32064303731E+04  0.32009060884E+04 0.  0.
        3    1    3    3  502    0 -0.22797169747E+03 -0.38047062599E+03  0.16344879284E+04  0.16935996547E+04  0.10100000352E+00 0.  1.
       -3    1    3    3    0  502  0.22797169747E+03  0.38047062599E+03 -0.14463498125E+04  0.15128307184E+04  0.10100000352E+00 0. -1.
</event>
<event>
 5   0  0.9727083E-08  0.3199896E+04  0.7818609E-02  0.8188845E-01
        2   -1    0    0  501    0  0.00000000000E+00  0.00000000000E+00  0.20335124771E+04  0.20335124771E+04  0.25500000920E-02 0. -1.
       -2   -1    0    0    0  501  0.00000000000E+00  0.00000000000E+00 -0.12588233899E+04  0.12588233899E+04  0.25500000920E-02 0.  1.
    10030    2    1    2    0    0  0.00000000000E+00  0.00000000000E+00  0.77468908721E+03  0.32923358670E+04  0.31998956670E+04 0.  0.
        4    1    3    3  502    0  0.13684870656E+04  0.69307683115E+03 -0.80453749437E+02  0.15360946460E+04  0.12699999809E+01 0.  1.
       -4    1    3    3    0  502 -0.13684870656E+04 -0.69307683115E+03  0.85514283664E+03  0.17562412211E+04  0.12699999809E+01 0. -1.
</event>
<event>
 5   0  0.9353994E-08  0.3200720E+04  0.7818609E-02  0.8188627E-01
       -2   -1    0    0    0  501  0.00000000000E+00  0.00000000000E+00  0.11868408093E+04  0.11868408093E+04  0.25500000920E-02 0. -1.
        2   -1    0    0  501    0  0.00000000000E+00  0.00000000000E+00 -0.21579579926E+04  0.21579579926E+04  0.25500000920E-02 0.  1.
    10030    2    1    2    0    0  0.00000000000E+00  0.00000000000E+00 -0.97111718336E+03  0.33447988019E+04  0.32007203004E+04 0.  0.
        2    1    3    3  502    0  0.74795602543E+03 -0.64223855417E+03 -0.18029583199E+04  0.20548886295E+04  0.25500000920E-02 0.  1.
       -2    1    3    3    0  502 -0.74795602543E+03  0.64223855417E+03  0.83184113655E+03  0.12899101724E+04  0.25500000920E-02 0. -1.
</event>
<event>
 5   0  0.9329929E-08  0.3200878E+04  0.7818609E-02  0.8188585E-01
       -2   -1    0    0    0  501  0.00000000000E+00  0.00000000000E+00  0.10948697458E+04  0.10948697458E+04  0.25500000920E-02 0.  1.
        2   -1    0    0  501    0  0.00000000000E+00  0.00000000000E+00 -0.23394603334E+04  0.23394603334E+04  0.25500000920E-02 0. -1.
    10030    2    1    2    0    0  0.00000000000E+00  0.00000000000E+00 -0.12445905877E+04  0.34343300792E+04  0.32008775925E+04 0.  0.
        1    1    3    3  502    0  0.20248109843E+03 -0.73300263204E+03  0.88864285193E+03  0.11696057336E+04  0.50400001928E-02 0.  1.
       -1    1    3    3    0  502 -0.20248109843E+03  0.73300263204E+03 -0.21332334396E+04  0.22647243456E+04  0.50400001928E-02 0. -1.
</event>
<event>
 5   0  0.9707721E-08  0.3204076E+04  0.7818609E-02  0.8187742E-01
        2   -1    0    0  501    0  0.00000000000E+00  0.00000000000E+00  0.27939988029E+04  0.27939988029E+04  0.25500000920E-02 0.  1.
       -2   -1    0    0    0  501  0.00000000000E+00  0.00000000000E+00 -0.91858488233E+03  0.91858488233E+03  0.25500000920E-02 0. -1.
    10030    2    1    2    0    0  0.00000000000E+00  0.00000000000E+00  0.18754139206E+04  0.37125836853E+04  0.32040755682E+04 0.  0.
        3    1    3    3  502    0  0.73391445223E+03  0.31311545044E+03  0.25473725301E+04  0.26694153903E+04  0.10100000352E+00 0.  1.
       -3    1    3    3    0  502 -0.73391445223E+03 -0.31311545044E+03 -0.67195860953E+03  0.10431682950E+04  0.10100000352E+00 0. -1.
</event>
<event>
 5   0  0.9353994E-08  0.3200369E+04  0.7818609E-02  0.8188720E-01
       -2   -1    0    0    0  501  0.00000000000E+00  0.00000000000E+00  0.16780577646E+04  0.16780577646E+04  0.25500000920E-02 0. -1.
        2   -1    0    0  501    0  0.00000000000E+00  0.00000000000E+00 -0.15259251544E+04  0.15259251544E+04  0.25500000920E-02 0.  1.
    10030    2    1    2    0    0  0.00000000000E+00  0.00000000000E+00  0.15213261023E+03  0.32039829190E+04  0.32003690747E+04 0.  0.
        2    1    3    3  502    0  0.73042417224E+03  0.12747307513E+03 -0.13435693824E+04  0.15345838334E+04  0.25500000920E-02 0.  1.
       -2    1    3    3    0  502 -0.73042417224E+03 -0.12747307513E+03  0.14957019927E+04  0.16693990856E+04  0.25500000920E-02 0. -1.
</event>
<event>
 5   0  0.3427667E-08  0.3197392E+04  0.7818609E-02  0.8189506E-01
       -1   -1    0    0    0  501  0.00000000000E+00  0.00000000000E+00  0.21773875434E+04  0.21773875435E+04  0.50400001928E-02 0. -1.
        1   -1    0    0  501    0  0.00000000000E+00  0.00000000000E+00 -0.11738053690E+04  0.11738053690E+04  0.50400001928E-02 0.  1.
    10030    2    1    2    0    0  0.00000000000E+00  0.00000000000E+00  0.10035821744E+04  0.33511929125E+04  0.31973921805E+04 0.  0.
        2    1    3    3  502    0  0.12020018653E+03  0.14604503159E+04  0.11716471081E+04  0.18761983254E+04  0.25500000920E-02 0. -1.
       -2    1    3    3    0  502 -0.12020018653E+03 -0.14604503159E+04 -0.16806493367E+03  0.14749945871E+04  0.25500000920E-02 0.  1.
</event>
<event>
 5   0  0.3427667E-08  0.3200092E+04  0.7818609E-02  0.8188793E-01
       -1   -1    0    0    0  501  0.00000000000E+00  0.00000000000E+00  0.12480309277E+04  0.12480309277E+04  0.50400001928E-02 0. -1.
        1   -1    0    0  501    0  0.00000000000E+00  0.00000000000E+00 -0.20513493423E+04  0.20513493423E+04  0.50400001928E-02 0.  1.
    10030    2    1    2    0    0  0.00000000000E+00  0.00000000000E+00 -0.80331841460E+03  0.32993802700E+04  0.32000921378E+04 0.  0.
        2    1    3    3  502    0 -0.11841877373E+04 -0.91938239589E+02  0.70370243060E+03  0.13805616060E+04  0.25500000920E-02 0. -1.
       -2    1    3    3    0  502  0.11841877373E+04  0.91938239589E+02 -0.15070208452E+04  0.19188186639E+04  0.25500000920E-02 0.  1.
</event>
<event>
 5   0  0.3220147E-08  0.3202129E+04  0.7818609E-02  0.8188255E-01
        1   -1    0    0  501    0  0.00000000000E+00  0.00000000000E+00  0.24700038683E+04  0.24700038683E+04  0.50400001928E-02 0.  1.
       -1   -1    0    0    0  501  0.00000000000E+00  0.00000000000E+00 -0.10378153010E+04  0.10378153010E+04  0.50400001928E-02 0. -1.
    10030    2    1    2    0    0  0.00000000000E+00  0.00000000000E+00  0.14321885673E+04  0.35078191693E+04  0.32021291717E+04 0.  0.
        4    1    3    3  502    0  0.32046677828E+03  0.11033442793E+04  0.19375931421E+04  0.22526287648E+04  0.12699999809E+01 0.  1.
       -4    1    3    3    0  502 -0.32046677828E+03 -0.11033442793E+04 -0.50540457481E+03  0.12551904046E+04  0.12699999809E+01 0. -1.
</event>
<event>
 5   0  0.3283581E-08  0.3199592E+04  0.7818609E-02  0.8188925E-01
       -1   -1    0    0    0  501  0.00000000000E+00  0.00000000000E+00  0.14812601768E+04  0.14812601768E+04  0.50400001928E-02 0.  1.
        1   -1    0    0  501    0  0.00000000000E+00  0.00000000000E+00 -0.17278173764E+04  0.17278173764E+04  0.50400001928E-02 0. -1.
    10030    2    1    2    0    0  0.00000000000E+00  0.00000000000E+00 -0.24655719957E+03  0.32090775532E+04  0.31995918943E+04 0.  0.
        5    1    3    3  502    0  0.78532684843E+03 -0.10659415189E+04  0.77735651308E+03  0.15353419225E+04  0.46999998093E+01 0.  1.
       -5    1    3    3    0  502 -0.78532684843E+03  0.10659415189E+04 -0.10239137126E+04  0.16737356307E+04  0.46999998093E+01 0. -1.
</event>
<event>
 5   0  0.3283581E-08  0.3200063E+04  0.7818609E-02  0.8188800E-01
       -1   -1    0    0    0  501  0.00000000000E+00  0.00000000000E+00  0.12959831246E+04  0.12959831246E+04  0.50400001928E-02 0. -1.
        1   -1    0    0  501    0  0.00000000000E+00  0.00000000000E+00 -0.19754127350E+04  0.19754127350E+04  0.50400001928E-02 0.  1.
    10030    2    1    2    0    0  0.00000000000E+00  0.00000000000E+00 -0.67942961040E+03  0.32713958596E+04  0.32000634798E+04 0.  0.
        5    1    3    3  502    0 -0.36078131155E+03  0.14133468176E+04  0.33248878027E+03  0.14960893224E+04  0.46999998093E+01 0. -1.
       -5    1    3    3    0  502  0.36078131155E+03 -0.14133468176E+04 -0.10119183907E+04  0.17753065372E+04  0.46999998093E+01 0.  1.
</event>
<event>
 5   0  0.9707721E-08  0.3200811E+04  0.7818609E-02  0.8188603E-01
        2   -1    0    0  501    0  0.00000000000E+00  0.00000000000E+00  0.11487648061E+04  0.11487648061E+04  0.25500000920E-02 0.  1.
       -2   -1    0    0    0  501  0.00000000000E+00  0.00000000000E+00 -0.22296108888E+04  0.22296108888E+04  0.25500000920E-02 0. -1.
    10030    2    1    2    0    0  0.00000000000E+00  0.00000000000E+00 -0.10808460828E+04  0.33783756949E+04  0.32008114723E+04 0.  0.
        3    1    3    3  502    0 -0.15368124192E+04  0.22455929078E+03 -0.94795006224E+03  0.18195682503E+04  0.10100000352E+00 0. -1.
       -3    1    3    3    0  502  0.15368124192E+04 -0.22455929078E+03 -0.13289602053E+03  0.15588074446E+04  0.10100000352E+00 0.  1.
</event>
<event>
 5   0  0.9707721E-08  0.3199948E+04  0.7818609E-02  0.8188831E-01
       -2   -1    0    0    0  501  0.00000000000E+00  0.00000000000E+00  0.17841861893E+04  0.17841861893E+04  0.25500000920E-02 0. -1.
        2   -1    0    0  501    0  0.00000000000E+00  0.00000000000E+00 -0.14347808769E+04  0.14347808769E+04  0.25500000920E-02 0.  1.
    10030    2    1    2    0    0  0.00000000000E+00  0.00000000000E+00  0.34940531238E+03  0.32189670662E+04  0.31999476404E+04 0.  0.
        3    1    3    3  502    0  0.14561815034E+04  0.64330473078E+03  0.33568717388E+03  0.16269577242E+04  0.10100000352E+00 0. -1.
       -3    1    3    3    0  502 -0.14561815034E+04 -0.64330473078E+03  0.13718138495E+02  0.15920093420E+04  0.10100000352E+00 0.  1.
</event>
<event>
 5   0  0.3080500E-08  0.3200710E+04  0.7818609E-02  0.8188630E-01
       -3   -1    0    0    0  501  0.00000000000E+00  0.00000000000E+00  0.13247506908E+04  0.13247506946E+04  0.10100000352E+00 0. -1.
        3   -1    0    0  501    0  0.00000000000E+00  0.00000000000E+00 -0.19332970018E+04  0.19332970045E+04  0.10100000352E+00 0.  1.
    10030    2    1    2    0    0  0.00000000000E+00  0.00000000000E+00 -0.60854631108E+03  0.32580476991E+04  0.32007102644E+04 0.  0.
        2    1    3    3  502    0  0.25001343857E+02 -0.74721432239E+03  0.11360597343E+04  0.13599948642E+04  0.25500000920E-02 0. -1.
       -2    1    3    3    0  502 -0.25001343857E+02  0.74721432239E+03 -0.17446060453E+04  0.18980528349E+04  0.25500000920E-02 0.  1.
</event>
<event>
 5   0  0.9329929E-08  0.3199960E+04  0.7818609E-02  0.8188828E-01
       -2   -1    0    0    0  501  0.00000000000E+00  0.00000000000E+00  0.10701179915E+04  0.10701179916E+04  0.25500000920E-02 0.  1.
        2   -1    0    0  501    0  0.00000000000E+00  0.00000000000E+00 -0.23922000849E+04  0.23922000849E+04  0.25500000920E-02 0. -1.
    10030    2    1    2    0    0  0.00000000000E+00  0.00000000000E+00 -0.13220820934E+04  0.34623180765E+04  0.31999602187E+04 0.  0.
        1    1    3    3  502    0  0.72811731845E+03  0.11826184511E+04  0.19857437882E+03  0.14029158970E+04  0.50400001928E-02 0.  1.
       -1    1    3    3    0  502 -0.72811731845E+03 -0.11826184511E+04 -0.15206564722E+04  0.20594021794E+04  0.50400001928E-02 0. -1.
</event>
<event>
 5   0  0.3427667E-08  0.3198255E+04  0.7818609E-02  0.8189278E-01
       -1   -1    0    0    0  501  0.00000000000E+00  0.00000000000E+00  0.27398451977E+04  0.27398451977E+04  0.50400001928E-02 0.  1.
        1   -1    0    0  501    0  0.00000000000E+00  0.00000000000E+00 -0.93334058616E+03  0.93334058617E+03  0.50400001928E-02 0. -1.
    10030    2    1    2    0    0  0.00000000000E+00  0.00000000000E+00  0.18065046116E+04  0.36731857839E+04  0.31982549760E+04 0.  0.
        2    1    3    3  502    0 -0.52711744020E+03  0.25448231448E+03 -0.80588493253E+03  0.99602438155E+03  0.25500000920E-02 0. -1.
       -2    1    3    3    0  502  0.52711744020E+03 -0.25448231448E+03  0.26123895441E+04  0.26771614023E+04  0.25500000920E-02 0.  1.
</event>
<event>
 5   0  0.9707721E-08  0.3199355E+04  0.7818609E-02  0.8188988E-01
        2   -1    0    0  501    0  0.00000000000E+00  0.00000000000E+00  0.15535054909E+04  0.15535054909E+04  0.25500000920E-02 0. -1.
       -2   -1    0    0    0  501  0.00000000000E+00  0.00000000000E+00 -0.16472218427E+04  0.16472218427E+04  0.25500000920E-02 0.  1.
    10030    2    1    2    0    0  0.00000000000E+00  0.00000000000E+00 -0.93716351828E+02  0.32007273336E+04  0.31993550459E+04 0.  0.
        3    1    3    3  502    0 -0.62254899037E+03  0.77606829905E+03 -0.13000402372E+04  0.16370564678E+04  0.10100000352E+00 0.  1.
       -3    1    3    3    0  502  0.62254899037E+03 -0.77606829905E+03  0.12063238854E+04  0.15636708659E+04  0.10100000352E+00 0. -1.
</event>
<event>
 5   0  0.9727083E-08  0.3200172E+04  0.7818609E-02  0.8188772E-01
        2   -1    0    0  501    0  0.00000000000E+00  0.00000000000E+00  0.21135834922E+04  0.21135834922E+04  0.25500000920E-02 0.  1.
       -2   -1    0    0    0  501  0.00000000000E+00  0.00000000000E+00 -0.12113431814E+04  0.12113431814E+04  0.25500000920E-02 0. -1.
    10030    2    1    2    0    0  0.00000000000E+00  0.00000000000E+00  0.90224031075E+03  0.33249266736E+04  0.32001718402E+04 0.  0.
        4    1    3    3  502    0  0.61117623003E+03 -0.51455044088E+03 -0.98927820078E+03  0.12716019471E+04  0.12699999809E+01 0. -1.
       -4    1    3    3    0  502 -0.61117623003E+03  0.51455044088E+03  0.18915185115E+04  0.20533247266E+04  0.12699999809E+01 0.  1.
</event>
<event>
 5   0  0.9157524E-08  0.3199776E+04  0.7818609E-02  0.8188876E-01
        2   -1    0    0  501    0  0.00000000000E+00  0.00000000000E+00  0.14164174763E+04  0.14164174763E+04  0.25500000920E-02 0.  1.
       -2   -1    0    0    0  501  0.00000000000E+00  0.00000000000E+00 -0.18071242793E+04  0.18071242793E+04  0.25500000920E-02 0. -1.
    10030    2    1    2    0    0  0.00000000000E+00  0.00000000000E+00 -0.39070680299E+03  0.32235417556E+04  0.31997764991E+04 0.  0.
        5    1    3    3  502    0 -0.36381704761E+02 -0.15518636075E+03 -0.17990983037E+04  0.18061514973E+04  0.46999998093E+01 0. -1.
       -5    1    3    3    0  502  0.36381704761E+02  0.15518636075E+03  0.14083915007E+04  0.14173902583E+04  0.46999998093E+01 0.  1.
</event>
<event>
 5   0  0.3343140E-08  0.3198082E+04  0.7818609E-02  0.8189324E-01
       -1   -1    0    0    0  501  0.00000000000E+00  0.00000000000E+00  0.17989484458E+04  0.17989484458E+04  0.50400001928E-02 0.  1.
        1   -1    0    0  501    0  0.00000000000E+00  0.00000000000E+00 -0.14213485875E+04  0.14213485876E+04  0.50400001928E-02 0. -1.
    10030    2    1    2    0    0  0.00000000000E+00  0.00000000000E+00  0.37759985824E+03  0.32202970334E+04  0.31980824458E+04 0.  0.
        1    1    3    3  502    0  0.12912415770E+03 -0.13562006366E+04 -0.65426101692E+03  0.15112943767E+04  0.50400001928E-02 0. -1.
       -1    1    3    3    0  502 -0.12912415770E+03  0.13562006366E+04  0.10318608752E+04  0.17090026567E+04  0.50400001928E-02 0.  1.
</event>
<event>
 5   0  0.3270966E-08  0.3200221E+04  0.7818609E-02  0.8188759E-01
       -1   -1    0    0    0  501  0.00000000000E+00  0.00000000000E+00  0.13811137163E+04  0.13811137163E+04  0.50400001928E-02 0.  1.
        1   -1    0    0  501    0  0.00000000000E+00  0.00000000000E+00 -0.18538324743E+04  0.18538324743E+04  0.50400001928E-02 0. -1.
    10030    2    1    2    0    0  0.00000000000E+00  0.00000000000E+00 -0.47271875803E+03  0.32349461906E+04  0.32002209036E+04 0.  0.
        3    1    3    3  502    0 -0.56677318754E+03  0.74064754354E+03  0.10779655941E+04  0.14254123832E+04  0.10100000352E+00 0. -1.
       -3    1    3    3    0  502  0.56677318754E+03 -0.74064754354E+03 -0.15506843521E+04  0.18095338074E+04  0.10100000352E+00 0.  1.
</event>
<event>
 5   0  0.3220147E-08  0.3189396E+04  0.7818609E-02  0.8191623E-01
        1   -1    0    0  501    0  0.00000000000E+00  0.00000000000E+00  0.20257425085E+04  0.20257425085E+04  0.50400001928E-02 0.  1.
       -1   -1    0    0    0  501  0.00000000000E+00  0.00000000000E+00 -0.12553724466E+04  0.12553724467E+04  0.50400001928E-02 0. -1.
    10030    2    1    2    0    0  0.00000000000E+00  0.00000000000E+00  0.77037006184E+03  0.32811149552E+04  0.31893957604E+04 0.  0.
        4    1    3    3  502    0  0.40017331248E+03  0.65208522967E+03  0.18246024613E+04  0.19785170157E+04  0.12699999809E+01 0.  1.
       -4    1    3    3    0  502 -0.40017331248E+03 -0.65208522967E+03 -0.10542323995E+04  0.13025979394E+04  0.12699999809E+01 0. -1.
</event>
<event>
 5   0  0.3283581E-08  0.3212355E+04  0.7818609E-02  0.8185562E-01
       -1   -1    0    0    0  501  0.00000000000E+00  0.00000000000E+00  0.91125957249E+03  0.91125957250E+03  0.50400001928E-02 0. -1.
        1   -1    0    0  501    0  0.00000000000E+00  0.00000000000E+00 -0.28310334060E+04  0.28310334060E+04  0.50400001928E-02 0.  1.
    10030    2    1    2    0    0  0.00000000000E+00  0.00000000000E+00 -0.19197738335E+04  0.37422929785E+04  0.32123550808E+04 0.  0.
        5    1    3    3  502    0 -0.93829903756E+03 -0.20527409897E+03 -0.24595964826E+04  0.26404884940E+04  0.46999998093E+01 0.  1.
       -5    1    3    3    0  502  0.93829903756E+03  0.20527409897E+03  0.53982264911E+03  0.11018044845E+04  0.46999998093E+01 0. -1.
</event>
<event>
 5   0  0.9707721E-08  0.3200386E+04  0.7818609E-02  0.8188715E-01
        2   -1    0    0  501    0  0.00000000000E+00  0.00000000000E+00  0.28392073500E+04  0.28392073500E+04  0.25500000920E-02 0.  1.
       -2   -1    0    0    0  501  0.00000000000E+00  0.00000000000E+00 -0.90187754375E+03  0.90187754376E+03  0.25500000920E-02 0. -1.
    10030    2    1    2    0    0  0.00000000000E+00  0.00000000000E+00  0.19373298062E+04  0.37410848937E+04  0.32003858211E+04 0.  0.
        3    1    3    3  502    0 -0.13141148750E+04  0.88896385734E+03  0.72496600881E+03  0.17443423886E+04  0.10100000352E+00 0.  1.
       -3    1    3    3    0  502  0.13141148750E+04 -0.88896385734E+03  0.12123637974E+04  0.19967425052E+04  0.10100000352E+00 0. -1.
</event>
<event>
 5   0  0.3427667E-08  0.3200844E+04  0.7818609E-02  0.8188594E-01
        1   -1    0    0  501    0  0.00000000000E+00  0.00000000000E+00  0.19788777244E+04  0.19788777244E+04  0.50400001928E-02 0. -1.
       -1   -1    0    0    0  501  0.00000000000E+00  0.00000000000E+00 -0.12943450124E+04  0.12943450124E+04  0.50400001928E-02 0.  1.
    10030    2    1    2    0    0  0.00000000000E+00  0.00000000000E+00  0.68453271195E+03  0.32732227368E+04  0.32008439592E+04 0.  0.
        2    1    3    3  502    0  0.38960659673E+03 -0.14101731776E+04 -0.32122615057E+03  0.14978544425E+04  0.25500000920E-02 0.  1.
       -2    1    3    3    0  502 -0.38960659673E+03  0.14101731776E+04  0.10057588625E+04  0.17753682943E+04  0.25500000920E-02 0. -1.
</event>
<event>
 5   0  0.3220147E-08  0.3191758E+04  0.7818609E-02  0.8190997E-01
        1   -1    0    0  501    0  0.00000000000E+00  0.00000000000E+00  0.14242572800E+04  0.14242572800E+04  0.50400001928E-02 0. -1.
       -1   -1    0    0    0  501  0.00000000000E+00  0.00000000000E+00 -0.17881810828E+04  0.17881810828E+04  0.50400001928E-02 0.  1.
    10030    2    1    2    0    0  0.00000000000E+00  0.00000000000E+00 -0.36392380277E+03  0.32124383628E+04  0.31917580893E+04 0.  0.
        4    1    3    3  502    0 -0.91626293563E+03  0.13065783720E+04 -0.19401879094E+03  0.16075850564E+04  0.12699999809E+01 0. -1.
       -4    1    3    3    0  502  0.91626293563E+03 -0.13065783720E+04 -0.16990501183E+03  0.16048533065E+04  0.12699999809E+01 0.  1.
</event>
<event>
 5   0  0.3270966E-08  0.3199524E+04  0.7818609E-02  0.8188943E-01
       -1   -1    0    0    0  501  0.00000000000E+00  0.00000000000E+00  0.12276253734E+04  0.12276253734E+04  0.50400001928E-02 0. -1.
        1   -1    0    0  501    0  0.00000000000E+00  0.00000000000E+00 -0.20847061365E+04  0.20847061365E+04  0.50400001928E-02 0.  1.
    10030    2    1    2    0    0  0.00000000000E+00  0.00000000000E+00 -0.85708076313E+03  0.33123315099E+04  0.31995238079E+04 0.  0.
        3    1    3    3  502    0  0.14847198586E+04  0.38433477413E+03 -0.89970416931E+03  0.17780815166E+04  0.10100000352E+00 0.  1.
       -3    1    3    3    0  502 -0.14847198586E+04 -0.38433477413E+03  0.42623406174E+02  0.15342499933E+04  0.10100000352E+00 0. -1.
</event>
<event>
 5   0  0.3220147E-08  0.3200677E+04  0.7818609E-02  0.8188638E-01
       -1   -1    0    0    0  501  0.00000000000E+00  0.00000000000E+00  0.12417713154E+04  0.12417713155E+04  0.50400001928E-02 0.  1.
        1   -1    0    0  501    0  0.00000000000E+00  0.00000000000E+00 -0.20624440126E+04  0.20624440126E+04  0.50400001928E-02 0. -1.
    10030    2    1    2    0    0  0.00000000000E+00  0.00000000000E+00 -0.82067269713E+03  0.33042153280E+04  0.32006773124E+04 0.  0.
        4    1    3    3  502    0  0.16260190779E+03 -0.80351859221E+03 -0.18292060300E+04  0.20045143605E+04  0.12699999809E+01 0. -1.
       -4    1    3    3    0  502 -0.16260190779E+03  0.80351859221E+03  0.10085333329E+04  0.12997009675E+04  0.12699999809E+01 0.  1.
</event>
<event>
 5   0  0.9353994E-08  0.3198859E+04  0.7818609E-02  0.8189118E-01
        2   -1    0    0  501    0  0.00000000000E+00  0.00000000000E+00  0.20532404467E+04  0.20532404467E+04  0.25500000920E-02 0.  1.
       -2   -1    0    0    0  501  0.00000000000E+00  0.00000000000E+00 -0.12459210197E+04  0.12459210197E+04  0.25500000920E-02 0. -1.
    10030    2    1    2    0    0  0.00000000000E+00  0.00000000000E+00  0.80731942706E+03  0.32991614664E+04  0.31988594411E+04 0.  0.
        2    1    3    3  502    0  0.12051528174E+04 -0.21887584058E+03  0.14644406102E+04  0.19091585182E+04  0.25500000920E-02 0.  1.
       -2    1    3    3    0  502 -0.12051528174E+04  0.21887584058E+03 -0.65712118313E+03  0.13900029482E+04  0.25500000920E-02 0. -1.
</event>
<event>
 5   0  0.9157524E-08  0.3202123E+04  0.7818609E-02  0.8188257E-01
        2   -1    0    0  501    0  0.00000000000E+00  0.00000000000E+00  0.29479185082E+04  0.29479185082E+04  0.25500000920E-02 0. -1.
       -2   -1    0    0    0  501  0.00000000000E+00  0.00000000000E+00 -0.86956188405E+03  0.86956188405E+03  0.25500000920E-02 0.  1.
    10030    2    1    2    0    0  0.00000000000E+00  0.00000000000E+00  0.20783566241E+04  0.38174803922E+04  0.32021227784E+04 0.  0.
        5    1    3    3  502    0 -0.11429187210E+04 -0.12046848007E+03 -0.28975884391E+03  0.11852249302E+04  0.46999998093E+01 0.  1.
       -5    1    3    3    0  502  0.11429187210E+04  0.12046848007E+03  0.23681154680E+04  0.26322554620E+04  0.46999998093E+01 0. -1.
</event>
<event>
 5   0  0.9707721E-08  0.3199899E+04  0.7818609E-02  0.8188844E-01
       -2   -1    0    0    0  501  0.00000000000E+00  0.00000000000E+00  0.14174783740E+04  0.14174783740E+04  0.25500000920E-02 0.  1.
        2   -1    0    0  501    0  0.00000000000E+00  0.00000000000E+00 -0.18059094710E+04  0.18059094710E+04  0.25500000920E-02 0. -1.
    10030    2    1    2    0    0  0.00000000000E+00  0.00000000000E+00 -0.38843109705E+03  0.32233878450E+04  0.31998985112E+04 0.  0.
        3    1    3    3  502    0  0.17103142269E+01  0.15984577408E+04 -0.26376974733E+03  0.16200754810E+04  0.10100000352E+00 0. -1.
       -3    1    3    3    0  502 -0.17103142269E+01 -0.15984577408E+04 -0.12466134972E+03  0.16033123640E+04  0.10100000352E+00 0.  1.
</event>
<event>
 5   0  0.9157524E-08  0.3201364E+04  0.7818609E-02  0.8188457E-01
        2   -1    0    0  501    0  0.00000000000E+00  0.00000000000E+00  0.15457827262E+04  0.15457827262E+04  0.25500000920E-02 0. -1.
       -2   -1    0    0    0  501  0.00000000000E+00  0.00000000000E+00 -0.16575314695E+04  0.16575314695E+04  0.25500000920E-02 0.  1.
    10030    2    1    2    0    0  0.00000000000E+00  0.00000000000E+00 -0.11174874335E+03  0.32033141957E+04  0.32013644051E+04 0.  0.
        5    1    3    3  502    0 -0.14055330899E+03  0.15875300607E+04 -0.20480889410E+03  0.16068527311E+04  0.46999998093E+01 0.  1.
       -5    1    3    3    0  502  0.14055330899E+03 -0.15875300607E+04  0.93060150753E+02  0.15964614646E+04  0.46999998093E+01 0. -1.
</event>
<event>
 5   0  0.3220147E-08  0.3212743E+04  0.7818609E-02  0.8185460E-01
       -1   -1    0    0    0  501  0.00000000000E+00  0.00000000000E+00  0.19301850374E+04  0.19301850374E+04  0.50400001928E-02 0.  1.
        1   -1    0    0  501    0  0.00000000000E+00  0.00000000000E+00 -0.13368817665E+04  0.13368817665E+04  0.50400001928E-02 0. -1.
    10030    2    1    2    0    0  0.00000000000E+00  0.00000000000E+00  0.59330327085E+03  0.32670668039E+04  0.32127428671E+04 0.  0.
        4    1    3    3  502    0 -0.53939944806E+03 -0.13344859789E+04  0.10218887722E+04  0.17652373404E+04  0.12699999809E+01 0.  1.
       -4    1    3    3    0  502  0.53939944806E+03  0.13344859789E+04 -0.42858550130E+03  0.15018294635E+04  0.12699999809E+01 0. -1.
</event>
<event>
 5   0  0.3283581E-08  0.3201368E+04  0.7818609E-02  0.8188456E-01
        1   -1    0    0  501    0  0.00000000000E+00  0.00000000000E+00  0.16119277246E+04  0.16119277247E+04  0.50400001928E-02 0. -1.
       -1   -1    0    0    0  501  0.00000000000E+00  0.00000000000E+00 -0.15895182130E+04  0.15895182130E+04  0.50400001928E-02 0.  1.
    10030    2    1    2    0    0  0.00000000000E+00  0.00000000000E+00  0.22409511669E+02  0.32014459376E+04  0.32013675055E+04 0.  0.
        5    1    3    3  502    0  0.12139569807E+02 -0.15348371382E+04  0.46541185052E+03  0.16039023320E+04  0.46999998093E+01 0. -1.
       -5    1    3    3    0  502 -0.12139569807E+02  0.15348371382E+04 -0.44300233885E+03  0.15975436057E+04  0.46999998093E+01 0.  1.
</event>
<event>
 5   0  0.3270966E-08  0.3199618E+04  0.7818609E-02  0.8188918E-01
        1   -1    0    0  501    0  0.00000000000E+00  0.00000000000E+00  0.16696746410E+04  0.16696746410E+04  0.50400001928E-02 0. -1.
       -1   -1    0    0    0  501  0.00000000000E+00  0.00000000000E+00 -0.15328664570E+04  0.15328664570E+04  0.50400001928E-02 0.  1.
    10030    2    1    2    0    0  0.00000000000E+00  0.00000000000E+00  0.13680818395E+03  0.32025410980E+04  0.31996176342E+04 0.  0.
        3    1    3    3  502    0  0.13388026638E+04 -0.19498694805E+03  0.92298497480E+03  0.16377770777E+04  0.10100000352E+00 0. -1.
       -3    1    3    3    0  502 -0.13388026638E+04  0.19498694805E+03 -0.78617679085E+03  0.15647640203E+04  0.10100000352E+00 0.  1.
</event>
<event>
 5   0  0.3283581E-08  0.3199843E+04  0.7818609E-02  0.8188859E-01
        1   -1    0    0  501    0  0.00000000000E+00  0.00000000000E+00  0.26227564143E+04  0.26227564143E+04  0.50400001928E-02 0. -1.
       -1   -1    0    0    0  501  0.00000000000E+00  0.00000000000E+00 -0.97597661173E+03  0.97597661174E+03  0.50400001928E-02 0.  1.
    10030    2    1    2    0    0  0.00000000000E+00  0.00000000000E+00  0.16467798026E+04  0.35987330261E+04  0.31998430703E+04 0.  0.
        5    1    3    3  502    0 -0.15832249760E+04  0.22052622469E+03  0.74799839575E+03  0.17648673691E+04  0.46999998093E+01 0. -1.
       -5    1    3    3    0  502  0.15832249760E+04 -0.22052622469E+03  0.89878140683E+03  0.18338656570E+04  0.46999998093E+01 0.  1.
</event>
<event>
 5   0  0.9353994E-08  0.3200798E+04  0.7818609E-02  0.8188606E-01
        2   -1    0    0  501    0  0.00000000000E+00  0.00000000000E+00  0.16244086117E+04  0.16244086117E+04  0.25500000920E-02 0. -1.
       -2   -1    0    0    0  501  0.00000000000E+00  0.00000000000E+00 -0.15767445829E+04  0.15767445829E+04  0.25500000920E-02 0.  1.
    10030    2    1    2    0    0  0.00000000000E+00  0.00000000000E+00  0.47664028829E+02  0.32011531946E+04  0.32007983247E+04 0.  0.
        2    1    3    3  502    0  0.11026470549E+04  0.68721794613E+03 -0.91071176387E+03  0.15866615739E+04  0.25500000920E-02 0.  1.
       -2    1    3    3    0  502 -0.11026470549E+04 -0.68721794613E+03  0.95837579270E+03  0.16144916207E+04  0.25500000920E-02 0. -1.
</event>
<event>
 5   0  0.9707721E-08  0.3200132E+04  0.7818609E-02  0.8188782E-01
        2   -1    0    0  501    0  0.00000000000E+00  0.00000000000E+00  0.98239394691E+03  0.98239394691E+03  0.25500000920E-02 0. -1.
       -2   -1    0    0    0  501  0.00000000000E+00  0.00000000000E+00 -0.26060942250E+04  0.26060942250E+04  0.25500000920E-02 0.  1.
    10030    2    1    2    0    0  0.00000000000E+00  0.00000000000E+00 -0.16237002781E+04  0.35884881719E+04  0.32001319921E+04 0.  0.
        3    1    3    3  502    0  0.91103720115E+02  0.12683014946E+03 -0.25975287719E+04  0.26022185738E+04  0.10100000352E+00 0.  1.
       -3    1    3    3    0  502 -0.91103720115E+02 -0.12683014946E+03  0.97382849382E+03  0.98626959813E+03  0.10100000352E+00 0. -1.
</event>
<event>
 5   0  0.9707721E-08  0.3214627E+04  0.7818609E-02  0.8184965E-01
        2   -1    0    0  501    0  0.00000000000E+00  0.00000000000E+00  0.16741825285E+04  0.16741825285E+04  0.25500000920E-02 0. -1.
       -2   -1    0    0    0  501  0.00000000000E+00  0.00000000000E+00 -0.15431148575E+04  0.15431148575E+04  0.25500000920E-02 0.  1.
    10030    2    1    2    0    0  0.00000000000E+00  0.00000000000E+00  0.13106767100E+03  0.32172973859E+04  0.32146265312E+04 0.  0.
        3    1    3    3  502    0 -0.69239258175E+02  0.16054793833E+04  0.32373262525E+02  0.16072977830E+04  0.10100000352E+00 0. -1.
       -3    1    3    3    0  502  0.69239258175E+02 -0.16054793833E+04  0.98694408478E+02  0.16099996029E+04  0.10100000352E+00 0.  1.
</event>
<event>
 5   0  0.3427667E-08  0.3200253E+04  0.7818609E-02  0.8188750E-01
        1   -1    0    0  501    0  0.00000000000E+00  0.00000000000E+00  0.14190451082E+04  0.14190451082E+04  0.50400001928E-02 0. -1.
       -1   -1    0    0    0  501  0.00000000000E+00  0.00000000000E+00 -0.18043151148E+04  0.18043151148E+04  0.50400001928E-02 0.  1.
    10030    2    1    2    0    0  0.00000000000E+00  0.00000000000E+00 -0.38527000660E+03  0.32233602231E+04  0.32002528259E+04 0.  0.
        2    1    3    3  502    0 -0.98036166894E+03  0.12539140312E+04 -0.35812331586E+03  0.16314599930E+04  0.25500000920E-02 0. -1.
       -2    1    3    3    0  502  0.98036166894E+03 -0.12539140312E+04 -0.27146690741E+02  0.15919002300E+04  0.25500000920E-02 0.  1.
</event>
<event>
 5   0  0.9727083E-08  0.3199861E+04  0.7818609E-02  0.8188854E-01
       -2   -1    0    0    0  501  0.00000000000E+00  0.00000000000E+00  0.19968595745E+04  0.19968595745E+04  0.25500000920E-02 0.  1.
        2   -1    0    0  501    0  0.00000000000E+00  0.00000000000E+00 -0.12819013468E+04  0.12819013468E+04  0.25500000920E-02 0. -1.
    10030    2    1    2    0    0  0.00000000000E+00  0.00000000000E+00  0.71495822762E+03  0.32787609213E+04  0.31998606082E+04 0.  0.
        4    1    3    3  502    0  0.54247836598E+03  0.47855012633E+03 -0.11047620878E+04  0.13205278810E+04  0.12699999809E+01 0. -1.
       -4    1    3    3    0  502 -0.54247836598E+03 -0.47855012633E+03  0.18197203154E+04  0.19582330403E+04  0.12699999809E+01 0.  1.
</event>
<event>
 5   0  0.9707721E-08  0.3202345E+04  0.7818609E-02  0.8188198E-01
        2   -1    0    0  501    0  0.00000000000E+00  0.00000000000E+00  0.19627547835E+04  0.19627547835E+04  0.25500000920E-02 0. -1.
       -2   -1    0    0    0  501  0.00000000000E+00  0.00000000000E+00 -0.13062014857E+04  0.13062014857E+04  0.25500000920E-02 0.  1.
    10030    2    1    2    0    0  0.00000000000E+00  0.00000000000E+00  0.65655329782E+03  0.32689562692E+04  0.32023448998E+04 0.  0.
        3    1    3    3  502    0 -0.13863159125E+04  0.67454445489E+03  0.76955453321E+03  0.17231065610E+04  0.10100000352E+00 0. -1.
       -3    1    3    3    0  502  0.13863159125E+04 -0.67454445489E+03 -0.11300123539E+03  0.15458497082E+04  0.10100000352E+00 0.  1.
</event>
<event>
 5   0  0.9707721E-08  0.3197636E+04  0.7818609E-02  0.8189442E-01
        2   -1    0    0  501    0  0.00000000000E+00  0.00000000000E+00  0.14758689265E+04  0.14758689265E+04  0.25500000920E-02 0. -1.
       -2   -1    0    0    0  501  0.00000000000E+00  0.00000000000E+00 -0.17320093185E+04  0.17320093185E+04  0.25500000920E-02 0.  1.
    10030    2    1    2    0    0  0.00000000000E+00  0.00000000000E+00 -0.25614039208E+03  0.32078782450E+04  0.31976358352E+04 0.  0.
        3    1    3    3  502    0  0.62277503878E+03  0.78816478427E+03 -0.13759057774E+04  0.17035754150E+04  0.10100000352E+00 0.  1.
       -3    1    3    3    0  502 -0.62277503878E+03 -0.78816478427E+03  0.11197653853E+04  0.15043028300E+04  0.10100000352E+00 0. -1.
</event>
<event>
 5   0  0.9707721E-08  0.3198806E+04  0.7818609E-02  0.8189133E-01
       -2   -1    0    0    0  501  0.00000000000E+00  0.00000000000E+00  0.12731598210E+04  0.12731598210E+04  0.25500000920E-02 0.  1.
        2   -1    0    0  501    0  0.00000000000E+00  0.00000000000E+00 -0.20092446579E+04  0.20092446579E+04  0.25500000920E-02 0. -1.
    10030    2    1    2    0    0  0.00000000000E+00  0.00000000000E+00 -0.73608483695E+03  0.32824044790E+04  0.31988057578E+04 0.  0.
        3    1    3    3  502    0  0.12868454775E+04 -0.94979903051E+03 -0.36775667519E+03  0.16411381611E+04  0.10100000352E+00 0.  1.
       -3    1    3    3    0  502 -0.12868454775E+04  0.94979903051E+03 -0.36832816175E+03  0.16412663179E+04  0.10100000352E+00 0. -1.
</event>
<event>
 5   0  0.9157524E-08  0.3198433E+04  0.7818609E-02  0.8189231E-01
       -2   -1    0    0    0  501  0.00000000000E+00  0.00000000000E+00  0.11509383854E+04  0.11509383854E+04  0.25500000920E-02 0. -1.
        2   -1    0    0  501    0  0.00000000000E+00  0.00000000000E+00 -0.22220945909E+04  0.22220945909E+04  0.25500000920E-02 0.  1.
    10030    2    1    2    0    0  0.00000000000E+00  0.00000000000E+00 -0.10711562055E+04  0.33730329763E+04  0.31984333419E+04 0.  0.
        5    1    3    3  502    0  0.47264924334E+03 -0.11873602769E+04  0.47828202683E+03  0.13645503002E+04  0.46999998093E+01 0. -1.
       -5    1    3    3    0  502 -0.47264924334E+03  0.11873602769E+04 -0.15494382323E+04  0.20084826761E+04  0.46999998093E+01 0.  1.
</event>
<event>
 5   0  0.3270966E-08  0.3199691E+04  0.7818609E-02  0.8188899E-01
       -1   -1    0    0    0  501  0.00000000000E+00  0.00000000000E+00  0.11974251738E+04  0.11974251738E+04  0.50400001928E-02 0.  1.
        1   -1    0    0  501    0  0.00000000000E+00  0.00000000000E+00 -0.21375078357E+04  0.21375078357E+04  0.50400001928E-02 0. -1.
    10030    2    1    2    0    0  0.00000000000E+00  0.00000000000E+00 -0.94008266190E+03  0.33349330094E+04  0.31996910423E+04 0.  0.
        3    1    3    3  502    0  0.15506633126E+04 -0.27575782575E+03 -0.17726516624E+03  0.15849359725E+04  0.10100000352E+00 0.  1.
       -3    1    3    3    0  502 -0.15506633126E+04  0.27575782575E+03 -0.76281749566E+03  0.17499970370E+04  0.10100000352E+00 0. -1.
</event>
<event>
 5   0  0.3427667E-08  0.3200078E+04  0.7818609E-02  0.8188797E-01
       -1   -1    0    0    0  501  0.00000000000E+00  0.00000000000E+00  0.14501360726E+04  0.14501360726E+04  0.50400001928E-02 0. -1.
        1   -1    0    0  501    0  0.00000000000E+00  0.00000000000E+00 -0.17654372054E+04  0.17654372055E+04  0.50400001928E-02 0.  1.
    10030    2    1    2    0    0  0.00000000000E+00  0.00000000000E+00 -0.31530113287E+03  0.32155732780E+04  0.32000776088E+04 0.  0.
        2    1    3    3  502    0  0.77074176627E+03  0.17949929490E+03  0.12397166887E+04  0.14707686206E+04  0.25500000920E-02 0. -1.
       -2    1    3    3    0  502 -0.77074176627E+03 -0.17949929490E+03 -0.15550178216E+04  0.17448046574E+04  0.25500000920E-02 0.  1.
</event>
<event>
 5   0  0.3220147E-08  0.3199985E+04  0.7818609E-02  0.8188821E-01
        1   -1    0    0  501    0  0.00000000000E+00  0.00000000000E+00  0.17959804528E+04  0.17959804528E+04  0.50400001928E-02 0. -1.
       -1   -1    0    0    0  501  0.00000000000E+00  0.00000000000E+00 -0.14253917440E+04  0.14253917440E+04  0.50400001928E-02 0.  1.
    10030    2    1    2    0    0  0.00000000000E+00  0.00000000000E+00  0.37058870874E+03  0.32213721968E+04  0.31999848186E+04 0.  0.
        4    1    3    3  502    0  0.33468728185E+03  0.56854233255E+03 -0.12820892107E+04  0.14418773587E+04  0.12699999809E+01 0.  1.
       -4    1    3    3    0  502 -0.33468728185E+03 -0.56854233255E+03  0.16526779194E+04  0.17794948381E+04  0.12699999809E+01 0. -1.
</event>
<event>
 5   0  0.9707721E-08  0.3201893E+04  0.7818609E-02  0.8188317E-01
        2   -1    0    0  501    0  0.00000000000E+00  0.00000000000E+00  0.17910913159E+04  0.17910913159E+04  0.25500000920E-02 0.  1.
       -2   -1    0    0    0  501  0.00000000000E+00  0.00000000000E+00 -0.14309875919E+04  0.14309875919E+04  0.25500000920E-02 0. -1.
    10030    2    1    2    0    0  0.00000000000E+00  0.00000000000E+00  0.36010372402E+03  0.32220789078E+04  0.32018928458E+04 0.  0.
        3    1    3    3  502    0  0.27724536110E+03  0.81763385998E+03 -0.11766462875E+04  0.14594131065E+04  0.10100000352E+00 0. -1.
       -3    1    3    3    0  502 -0.27724536110E+03 -0.81763385998E+03  0.15367500115E+04  0.17626658014E+04  0.10100000352E+00 0.  1.
</event>
<event>
 5   0  0.9707721E-08  0.3199134E+04  0.7818609E-02  0.8189046E-01
        2   -1    0    0  501    0  0.00000000000E+00  0.00000000000E+00  0.24363156965E+04  0.24363156965E+04  0.25500000920E-02 0.  1.
       -2   -1    0    0    0  501  0.00000000000E+00  0.00000000000E+00 -0.10501986062E+04  0.10501986062E+04  0.25500000920E-02 0. -1.
    10030    2    1    2    0    0  0.00000000000E+00  0.00000000000E+00  0.13861170902E+04  0.34865143027E+04  0.31991344759E+04 0.  0.
        3    1    3    3  502    0  0.11119807244E+04  0.24157768222E+03 -0.53209437834E+03  0.12561788669E+04  0.10100000352E+00 0.  1.
       -3    1    3    3    0  502 -0.11119807244E+04 -0.24157768222E+03  0.19182114686E+04  0.22303354358E+04  0.10100000352E+00 0. -1.
</event>
<event>
 5   0  0.9329929E-08  0.3199865E+04  0.7818609E-02  0.8188853E-01
        2   -1    0    0  501    0  0.00000000000E+00  0.00000000000E+00  0.18799240007E+04  0.18799240007E+04  0.25500000920E-02 0. -1.
       -2   -1    0    0    0  501  0.00000000000E+00  0.00000000000E+00 -0.13616419838E+04  0.13616419838E+04  0.25500000920E-02 0.  1.
    10030    2    1    2    0    0  0.00000000000E+00  0.00000000000E+00  0.51828201688E+03  0.32415659845E+04  0.31998646507E+04 0.  0.
        1    1    3    3  502    0  0.13329916580E+04 -0.85195451935E+03  0.17091629228E+02  0.15820826107E+04  0.50400001928E-02 0.  1.
       -1    1    3    3    0  502 -0.13329916580E+04  0.85195451935E+03  0.50119038765E+03  0.16594833738E+04  0.50400001928E-02 0. -1.
</event>
<event>
 5   0  0.3343140E-08  0.3199601E+04  0.7818609E-02  0.8188923E-01
       -1   -1    0    0    0  501  0.00000000000E+00  0.00000000000E+00  0.32363841436E+04  0.32363841436E+04  0.50400001928E-02 0.  1.
        1   -1    0    0  501    0  0.00000000000E+00  0.00000000000E+00 -0.79080900712E+03  0.79080900714E+03  0.50400001928E-02 0. -1.
    10030    2    1    2    0    0  0.00000000000E+00  0.00000000000E+00  0.24455751365E+04  0.40271931508E+04  0.31996010572E+04 0.  0.
        1    1    3    3  502    0  0.39648532093E+03  0.75674913108E+03  0.29252277863E+04  0.30474296479E+04  0.50400001928E-02 0.  1.
       -1    1    3    3    0  502 -0.39648532093E+03 -0.75674913108E+03 -0.47965264978E+03  0.97976350288E+03  0.50400001928E-02 0. -1.
</event>
<event>
 5   0  0.9353994E-08  0.3201763E+04  0.7818609E-02  0.8188352E-01
       -2   -1    0    0    0  501  0.00000000000E+00  0.00000000000E+00  0.16678145254E+04  0.16678145254E+04  0.25500000920E-02 0. -1.
        2   -1    0    0  501    0  0.00000000000E+00  0.00000000000E+00 -0.15366341746E+04  0.15366341746E+04  0.25500000920E-02 0.  1.
    10030    2    1    2    0    0  0.00000000000E+00  0.00000000000E+00  0.13118035082E+03  0.32044487000E+04  0.32017625125E+04 0.  0.
        2    1    3    3  502    0 -0.12339954548E+04  0.48108050223E+03  0.96558738723E+03  0.16390674893E+04  0.25500000920E-02 0. -1.
       -2    1    3    3    0  502  0.12339954548E+04 -0.48108050223E+03 -0.83440703641E+03  0.15653812106E+04  0.25500000920E-02 0.  1.
</event>
<event>
 5   0  0.9707721E-08  0.3199094E+04  0.7818609E-02  0.8189057E-01
       -2   -1    0    0    0  501  0.00000000000E+00  0.00000000000E+00  0.12885636565E+04  0.12885636565E+04  0.25500000920E-02 0. -1.
        2   -1    0    0  501    0  0.00000000000E+00  0.00000000000E+00 -0.19855829793E+04  0.19855829793E+04  0.25500000920E-02 0.  1.
    10030    2    1    2    0    0  0.00000000000E+00  0.00000000000E+00 -0.69701932280E+03  0.32741466358E+04  0.31990936617E+04 0.  0.
        3    1    3    3  502    0  0.48031554050E+03  0.10402040295E+04 -0.14908598957E+04  0.18802634603E+04  0.10100000352E+00 0.  1.
       -3    1    3    3    0  502 -0.48031554050E+03 -0.10402040295E+04  0.79384057294E+03  0.13938831755E+04  0.10100000352E+00 0. -1.
</event>
<event>
 5   0  0.3343140E-08  0.3199137E+04  0.7818609E-02  0.8189045E-01
       -1   -1    0    0    0  501  0.00000000000E+00  0.00000000000E+00  0.17200170562E+04  0.17200170562E+04  0.50400001928E-02 0.  1.
        1   -1    0    0  501    0  0.00000000000E+00  0.00000000000E+00 -0.14875550688E+04  0.14875550688E+04  0.50400001928E-02 0. -1.
    10030    2    1    2    0    0  0.00000000000E+00  0.00000000000E+00  0.23246198734E+03  0.32075721250E+04  0.31991374402E+04 0.  0.
        1    1    3    3  502    0  0.11145225676E+04  0.87020302643E+03  0.86600353697E+03  0.16581242375E+04  0.50400001928E-02 0.  1.
       -1    1    3    3    0  502 -0.11145225676E+04 -0.87020302643E+03 -0.63354154963E+03  0.15494478875E+04  0.50400001928E-02 0. -1.
</event>
<event>
 5   0  0.9727083E-08  0.3199122E+04  0.7818609E-02  0.8189049E-01
        2   -1    0    0  501    0  0.00000000000E+00  0.00000000000E+00  0.20110490062E+04  0.20110490062E+04  0.25500000920E-02 0. -1.
       -2   -1    0    0    0  501  0.00000000000E+00  0.00000000000E+00 -0.12722688261E+04  0.12722688261E+04  0.25500000920E-02 0.  1.
    10030    2    1    2    0    0  0.00000000000E+00  0.00000000000E+00  0.73878018006E+03  0.32833178323E+04  0.31991217284E+04 0.  0.
        4    1    3    3  502    0 -0.68971687839E+02 -0.10055275559E+04 -0.90537458396E+03  0.13548237928E+04  0.12699999809E+01 0.  1.
       -4    1    3    3    0  502  0.68971687839E+02  0.10055275559E+04  0.16441547640E+04  0.19284940395E+04  0.12699999809E+01 0. -1.
</event>
<event>
 5   0  0.3080500E-08  0.3199741E+04  0.7818609E-02  0.8188886E-01
       -3   -1    0    0    0  501  0.00000000000E+00  0.00000000000E+00  0.16329130304E+04  0.16329130335E+04  0.10100000352E+00 0.  1.
        3   -1    0    0  501    0  0.00000000000E+00  0.00000000000E+00 -0.15674961380E+04  0.15674961413E+04  0.10100000352E+00 0. -1.
    10030    2    1    2    0    0  0.00000000000E+00  0.00000000000E+00  0.65416892356E+02  0.32004091748E+04  0.31997405389E+04 0.  0.
        4    1    3    3  502    0 -0.80809794735E+03  0.44352842823E+03  0.13405915368E+04  0.16269379339E+04  0.12699999809E+01 0.  1.
       -4    1    3    3    0  502  0.80809794735E+03 -0.44352842823E+03 -0.12751746445E+04  0.15734712409E+04  0.12699999809E+01 0. -1.
</event>
<event>
 5   0  0.9157524E-08  0.3199696E+04  0.7818609E-02  0.8188898E-01
       -2   -1    0    0    0  501  0.00000000000E+00  0.00000000000E+00  0.10022957540E+04  0.10022957540E+04  0.25500000920E-02 0. -1.
        2   -1    0    0  501    0  0.00000000000E+00  0.00000000000E+00 -0.25536503861E+04  0.25536503861E+04  0.25500000920E-02 0.  1.
    10030    2    1    2    0    0  0.00000000000E+00  0.00000000000E+00 -0.15513546322E+04  0.35559461401E+04  0.31996955725E+04 0.  0.
        5    1    3    3  502    0  0.37008199166E+03  0.12473808394E+04  0.25886591196E+03  0.13266323113E+04  0.46999998093E+01 0. -1.
       -5    1    3    3    0  502 -0.37008199166E+03 -0.12473808394E+04 -0.18102205441E+04  0.22293138288E+04  0.46999998093E+01 0.  1.
</event>
<event>
 5   0  0.9727083E-08  0.3200573E+04  0.7818609E-02  0.8188666E-01
        2   -1    0    0  501    0  0.00000000000E+00  0.00000000000E+00  0.15745349642E+04  0.15745349642E+04  0.25500000920E-02 0. -1.
       -2   -1    0    0    0  501  0.00000000000E+00  0.00000000000E+00 -0.16264589125E+04  0.16264589125E+04  0.25500000920E-02 0.  1.
    10030    2    1    2    0    0  0.00000000000E+00  0.00000000000E+00 -0.51923948320E+02  0.32009938767E+04  0.32005727148E+04 0.  0.
        4    1    3    3  502    0  0.12058283405E+04  0.12098791608E+03  0.10192854739E+04  0.15835417749E+04  0.12699999809E+01 0. -1.
       -4    1    3    3    0  502 -0.12058283405E+04 -0.12098791608E+03 -0.10712094223E+04  0.16174521019E+04  0.12699999809E+01 0.  1.
</event>
<event>
 5   0  0.9707721E-08  0.3200140E+04  0.7818609E-02  0.8188780E-01
       -2   -1    0    0    0  501  0.00000000000E+00  0.00000000000E+00  0.15744514568E+04  0.15744514568E+04  0.25500000920E-02 0.  1.
        2   -1    0    0  501    0  0.00000000000E+00  0.00000000000E+00 -0.16261057240E+04  0.16261057240E+04  0.25500000920E-02 0. -1.
    10030    2    1    2    0    0  0.00000000000E+00  0.00000000000E+00 -0.51654267284E+02  0.32005571808E+04  0.32001403257E+04 0.  0.
        3    1    3    3  502    0 -0.77495935987E+03  0.10655914341E+04 -0.93378755855E+03  0.16149322984E+04  0.10100000352E+00 0.  1.
       -3    1    3    3    0  502  0.77495935987E+03 -0.10655914341E+04  0.88213329126E+03  0.15856248824E+04  0.10100000352E+00 0. -1.
</event>
<event>
 5   0  0.9707721E-08  0.3199589E+04  0.7818609E-02  0.8188926E-01
       -2   -1    0    0    0  501  0.00000000000E+00  0.00000000000E+00  0.12561809629E+04  0.12561809629E+04  0.25500000920E-02 0. -1.
        2   -1    0    0  501    0  0.00000000000E+00  0.00000000000E+00 -0.20373998668E+04  0.20373998668E+04  0.25500000920E-02 0.  1.
    10030    2    1    2    0    0  0.00000000000E+00  0.00000000000E+00 -0.78121890392E+03  0.32935808297E+04  0.31995893027E+04 0.  0.
        3    1    3    3  502    0 -0.47534298178E+03 -0.15130302370E+04 -0.60685554822E+03  0.16980827763E+04  0.10100000352E+00 0.  1.
       -3    1    3    3    0  502  0.47534298178E+03  0.15130302370E+04 -0.17436335570E+03  0.15954980534E+04  0.10100000352E+00 0. -1.
</event>
<event>
 5   0  0.9727083E-08  0.3201276E+04  0.7818609E-02  0.8188480E-01
        2   -1    0    0  501    0  0.00000000000E+00  0.00000000000E+00  0.21017181053E+04  0.21017181053E+04  0.25500000920E-02 0. -1.
       -2   -1    0    0    0  501  0.00000000000E+00  0.00000000000E+00 -0.12190227941E+04  0.12190227941E+04  0.25500000920E-02 0.  1.
    10030    2    1    2    0    0  0.00000000000E+00  0.00000000000E+00  0.88269531115E+03  0.33207408994E+04  0.32012761687E+04 0.  0.
        4    1    3    3  502    0 -0.99967691049E+03  0.11773362015E+04  0.87722635247E+03  0.17762325701E+04  0.12699999809E+01 0. -1.
       -4    1    3    3    0  502  0.99967691049E+03 -0.11773362015E+04  0.54689586870E+01  0.15445083293E+04  0.12699999809E+01 0.  1.
</event>
<event>
 5   0  0.9707721E-08  0.3201239E+04  0.7818609E-02  0.8188490E-01
        2   -1    0    0  501    0  0.00000000000E+00  0.00000000000E+00  0.17748248547E+04  0.17748248547E+04  0.25500000920E-02 0. -1.
       -2   -1    0    0    0  501  0.00000000000E+00  0.00000000000E+00 -0.14435126738E+04  0.14435126738E+04  0.25500000920E-02 0.  1.
    10030    2    1    2    0    0  0.00000000000E+00  0.00000000000E+00  0.33131218089E+03  0.32183375285E+04  0.32012386175E+04 0.  0.
        3    1    3    3  502    0  0.13549711417E+04 -0.22080312816E+03 -0.66171072716E+03  0.15239953782E+04  0.10100000352E+00 0.  1.
       -3    1    3    3    0  502 -0.13549711417E+04  0.22080312816E+03  0.99302290805E+03  0.16943421503E+04  0.10100000352E+00 0. -1.
</event>
<event>
 5   0  0.3283581E-08  0.3200373E+04  0.7818609E-02  0.8188719E-01
       -1   -1    0    0    0  501  0.00000000000E+00  0.00000000000E+00  0.70060353716E+03  0.70060353718E+03  0.50400001928E-02 0. -1.
        1   -1    0    0  501    0  0.00000000000E+00  0.00000000000E+00 -0.36548452922E+04  0.36548452922E+04  0.50400001928E-02 0.  1.
    10030    2    1    2    0    0  0.00000000000E+00  0.00000000000E+00 -0.29542417551E+04  0.43554488294E+04  0.32003734404E+04 0.  0.
        5    1    3    3  502    0  0.85191168538E+03  0.11219454042E+04 -0.44420183491E+03  0.14771094644E+04  0.46999998093E+01 0. -1.
       -5    1    3    3    0  502 -0.85191168538E+03 -0.11219454042E+04 -0.25100399202E+04  0.28783393651E+04  0.46999998093E+01 0.  1.
</event>
<event>
 5   0  0.9329929E-08  0.3199966E+04  0.7818609E-02  0.8188826E-01
       -2   -1    0    0    0  501  0.00000000000E+00  0.00000000000E+00  0.31134249510E+04  0.31134249510E+04  0.25500000920E-02 0. -1.
        2   -1    0    0  501    0  0.00000000000E+00  0.00000000000E+00 -0.82222798290E+03  0.82222798290E+03  0.25500000920E-02 0.  1.
    10030    2    1    2    0    0  0.00000000000E+00  0.00000000000E+00  0.22911969681E+04  0.39356529339E+04  0.31999656982E+04 0.  0.
        1    1    3    3  502    0 -0.83581535460E+03 -0.80354048311E+03 -0.21046866689E+03  0.11783724686E+04  0.50400001928E-02 0.  1.
       -1    1    3    3    0  502  0.83581535460E+03  0.80354048311E+03  0.25016656350E+04  0.27572804653E+04  0.50400001928E-02 0. -1.
</event>
<event>
 5   0  0.3270966E-08  0.3210019E+04  0.7818609E-02  0.8186176E-01
        1   -1    0    0  501    0  0.00000000000E+00  0.00000000000E+00  0.19574157227E+04  0.19574157228E+04  0.50400001928E-02 0. -1.
       -1   -1    0    0    0  501  0.00000000000E+00  0.00000000000E+00 -0.13160492695E+04  0.13160492695E+04  0.50400001928E-02 0.  1.
    10030    2    1    2    0    0  0.00000000000E+00  0.00000000000E+00  0.64136645330E+03  0.32734649922E+04  0.32100190230E+04 0.  0.
        3    1    3    3  502    0  0.61581926724E+03  0.10424515967E+04  0.13951288378E+04  0.18472474619E+04  0.10100000352E+00 0. -1.
       -3    1    3    3    0  502 -0.61581926724E+03 -0.10424515967E+04 -0.75376238446E+03  0.14262175303E+04  0.10100000352E+00 0.  1.
</event>
<event>
 5   0  0.9727083E-08  0.3200167E+04  0.7818609E-02  0.8188773E-01
       -2   -1    0    0    0  501  0.00000000000E+00  0.00000000000E+00  0.20836095155E+04  0.20836095155E+04  0.25500000920E-02 0.  1.
        2   -1    0    0  501    0  0.00000000000E+00  0.00000000000E+00 -0.12287650006E+04  0.12287650006E+04  0.25500000920E-02 0. -1.
    10030    2    1    2    0    0  0.00000000000E+00  0.00000000000E+00  0.85484451489E+03  0.33123745162E+04  0.32001665255E+04 0.  0.
        4    1    3    3  502    0 -0.11216537707E+04 -0.14206767678E+02 -0.75361875901E+03  0.13513888635E+04  0.12699999809E+01 0. -1.
       -4    1    3    3    0  502  0.11216537707E+04  0.14206767678E+02  0.16084632739E+04  0.19609856527E+04  0.12699999809E+01 0.  1.
</event>
<event>
 5   0  0.9727083E-08  0.3200145E+04  0.7818609E-02  0.8188779E-01
       -2   -1    0    0    0  501  0.00000000000E+00  0.00000000000E+00  0.10234107426E+04  0.10234107426E+04  0.25500000920E-02 0. -1.
        2   -1    0    0  501    0  0.00000000000E+00  0.00000000000E+00 -0.25016658787E+04  0.25016658787E+04  0.25500000920E-02 0.  1.
    10030    2    1    2    0    0  0.00000000000E+00  0.00000000000E+00 -0.14782551360E+04  0.35250766213E+04  0.32001448310E+04 0.  0.
        4    1    3    3  502    0  0.23076793006E+03  0.50249752209E+03 -0.23930738527E+04  0.24561273735E+04  0.12699999809E+01 0.  1.
       -4    1    3    3    0  502 -0.23076793006E+03 -0.50249752209E+03  0.91481871667E+03  0.10689492479E+04  0.12699999809E+01 0. -1.
</event>
<event>
 5   0  0.9727083E-08  0.3197344E+04  0.7818609E-02  0.8189519E-01
       -2   -1    0    0    0  501  0.00000000000E+00  0.00000000000E+00  0.13409032594E+04  0.13409032594E+04  0.25500000920E-02 0.  1.
        2   -1    0    0  501    0  0.00000000000E+00  0.00000000000E+00 -0.19059930949E+04  0.19059930949E+04  0.25500000920E-02 0. -1.
    10030    2    1    2    0    0  0.00000000000E+00  0.00000000000E+00 -0.56508983548E+03  0.32468963543E+04  0.31973441187E+04 0.  0.
        4    1    3    3  502    0 -0.13516581954E+04  0.91178213518E+02 -0.11444971474E+04  0.17734623416E+04  0.12699999809E+01 0. -1.
       -4    1    3    3    0  502  0.13516581954E+04 -0.91178213518E+02  0.57940731195E+03  0.14734340127E+04  0.12699999809E+01 0.  1.
</event>
<event>
 5   0  0.9329929E-08  0.3201983E+04  0.7818609E-02  0.8188294E-01
       -2   -1    0    0    0  501  0.00000000000E+00  0.00000000000E+00  0.10528517177E+04  0.10528517177E+04  0.25500000920E-02 0. -1.
        2   -1    0    0  501    0  0.00000000000E+00  0.00000000000E+00 -0.24345057091E+04  0.24345057091E+04  0.25500000920E-02 0.  1.
    10030    2    1    2    0    0  0.00000000000E+00  0.00000000000E+00 -0.13816539914E+04  0.34873574268E+04  0.32019828341E+04 0.  0.
        1    1    3    3  502    0 -0.51106699918E+03 -0.13602110497E+04  0.41247627781E+02  0.14536385191E+04  0.50400001928E-02 0. -1.
       -1    1    3    3    0  502  0.51106699918E+03  0.13602110497E+04 -0.14229016192E+04  0.20337189077E+04  0.50400001928E-02 0.  1.
</event>
<event>
 5   0  0.3220147E-08  0.3201296E+04  0.7818609E-02  0.8188475E-01
        1   -1    0    0  501    0  0.00000000000E+00  0.00000000000E+00  0.30193388521E+04  0.30193388521E+04  0.50400001928E-02 0.  1.
       -1   -1    0    0    0  501  0.00000000000E+00  0.00000000000E+00 -0.84855461246E+03  0.84855461247E+03  0.50400001928E-02 0. -1.
    10030    2    1    2    0    0  0.00000000000E+00  0.00000000000E+00  0.21707842396E+04  0.38678934646E+04  0.32012959311E+04 0.  0.
        4    1    3    3  502    0 -0.18623007131E+03  0.94475001172E+03 -0.45945693865E+03  0.10669285428E+04  0.12699999809E+01 0. -1.
       -4    1    3    3    0  502  0.18623007131E+03 -0.94475001172E+03  0.26302411783E+04  0.28009649218E+04  0.12699999809E+01 0.  1.
</event>
<event>
 5   0  0.3283581E-08  0.3200228E+04  0.7818609E-02  0.8188757E-01
        1   -1    0    0  501    0  0.00000000000E+00  0.00000000000E+00  0.13439364568E+04  0.13439364569E+04  0.50400001928E-02 0. -1.
       -1   -1    0    0    0  501  0.00000000000E+00  0.00000000000E+00 -0.19051230208E+04  0.19051230209E+04  0.50400001928E-02 0.  1.
    10030    2    1    2    0    0  0.00000000000E+00  0.00000000000E+00 -0.56118656400E+03  0.32490594777E+04  0.32002276685E+04 0.  0.
        5    1    3    3  502    0 -0.15387553896E+04 -0.14805731532E+03  0.13881195112E+03  0.15520889038E+04  0.46999998093E+01 0.  1.
       -5    1    3    3    0  502  0.15387553896E+04  0.14805731532E+03 -0.69999851512E+03  0.16969705739E+04  0.46999998093E+01 0. -1.
</event>
<event>
 5   0  0.9727083E-08  0.3199539E+04  0.7818609E-02  0.8188939E-01
        2   -1    0    0  501    0  0.00000000000E+00  0.00000000000E+00  0.25376611481E+04  0.25376611481E+04  0.25500000920E-02 0.  1.
       -2   -1    0    0    0  501  0.00000000000E+00  0.00000000000E+00 -0.10085124028E+04  0.10085124028E+04  0.25500000920E-02 0. -1.
    10030    2    1    2    0    0  0.00000000000E+00  0.00000000000E+00  0.15291487453E+04  0.35461735509E+04  0.31995391805E+04 0.  0.
        4    1    3    3  502    0 -0.20345357660E+03 -0.36888379104E+03 -0.94593129304E+03  0.10354980604E+04  0.12699999809E+01 0. -1.
       -4    1    3    3    0  502  0.20345357660E+03  0.36888379104E+03  0.24750800384E+04  0.25106754905E+04  0.12699999809E+01 0.  1.
</event>
<event>
 5   0  0.9329929E-08  0.3198923E+04  0.7818609E-02  0.8189102E-01
       -2   -1    0    0    0  501  0.00000000000E+00  0.00000000000E+00  0.11326950857E+04  0.11326950857E+04  0.25500000920E-02 0.  1.
        2   -1    0    0  501    0  0.00000000000E+00  0.00000000000E+00 -0.22585755579E+04  0.22585755579E+04  0.25500000920E-02 0. -1.
    10030    2    1    2    0    0  0.00000000000E+00  0.00000000000E+00 -0.11258804722E+04  0.33912706436E+04  0.31989232157E+04 0.  0.
        1    1    3    3  502    0  0.12807517754E+04 -0.95503889808E+03 -0.64404548104E+03  0.17225617517E+04  0.50400001928E-02 0.  1.
       -1    1    3    3    0  502 -0.12807517754E+04  0.95503889808E+03 -0.48183499121E+03  0.16687088918E+04  0.50400001928E-02 0. -1.
</event>
<event>
 5   0  0.9353994E-08  0.3199202E+04  0.7818609E-02  0.8189028E-01
        2   -1    0    0  501    0  0.00000000000E+00  0.00000000000E+00  0.21645667393E+04  0.21645667393E+04  0.25500000920E-02 0.  1.
       -2   -1    0    0    0  501  0.00000000000E+00  0.00000000000E+00 -0.11820947824E+04  0.11820947824E+04  0.25500000920E-02 0. -1.
    10030    2    1    2    0    0  0.00000000000E+00  0.00000000000E+00  0.98247195695E+03  0.33466615217E+04  0.31992018058E+04 0.  0.
        2    1    3    3  502    0 -0.12243679908E+04 -0.55722795401E+03 -0.41418914287E+03  0.14075271278E+04  0.25500000920E-02 0. -1.
       -2    1    3    3    0  502  0.12243679908E+04  0.55722795401E+03  0.13966610998E+04  0.19391343938E+04  0.25500000920E-02 0.  1.
</event>
<event>
 5   0  0.9157524E-08  0.3200053E+04  0.7818609E-02  0.8188803E-01
        2   -1    0    0  501    0  0.00000000000E+00  0.00000000000E+00  0.12982368244E+04  0.12982368244E+04  0.25500000920E-02 0.  1.
       -2   -1    0    0    0  501  0.00000000000E+00  0.00000000000E+00 -0.19719708048E+04  0.19719708048E+04  0.25500000920E-02 0. -1.
    10030    2    1    2    0    0  0.00000000000E+00  0.00000000000E+00 -0.67373398040E+03  0.32702076292E+04  0.32000531967E+04 0.  0.
        5    1    3    3  502    0 -0.59546613277E+03  0.10520328366E+04  0.73430614523E+03  0.14144188239E+04  0.46999998093E+01 0.  1.
       -5    1    3    3    0  502  0.59546613277E+03 -0.10520328366E+04 -0.14080401256E+04  0.18557888053E+04  0.46999998093E+01 0. -1.
</event>
<event>
 5   0  0.9353994E-08  0.3203409E+04  0.7818609E-02  0.8187917E-01
       -2   -1    0    0    0  501  0.00000000000E+00  0.00000000000E+00  0.21728449383E+04  0.21728449383E+04  0.25500000920E-02 0. -1.
        2   -1    0    0  501    0  0.00000000000E+00  0.00000000000E+00 -0.11806904855E+04  0.11806904855E+04  0.25500000920E-02 0.  1.
    10030    2    1    2    0    0  0.00000000000E+00  0.00000000000E+00  0.99215445280E+03  0.33535354238E+04  0.32034090248E+04 0.  0.
        2    1    3    3  502    0  0.10107437445E+04  0.86059004741E+03 -0.44216062653E+03  0.13991869662E+04  0.25500000920E-02 0.  1.
       -2    1    3    3    0  502 -0.10107437445E+04 -0.86059004741E+03  0.14343150793E+04  0.19543484576E+04  0.25500000920E-02 0. -1.
</event>
<event>
 5   0  0.3270966E-08  0.3199989E+04  0.7818609E-02  0.8188820E-01
       -1   -1    0    0    0  501  0.00000000000E+00  0.00000000000E+00  0.10325001025E+04  0.10325001025E+04  0.50400001928E-02 0.  1.
        1   -1    0    0  501    0  0.00000000000E+00  0.00000000000E+00 -0.24794020900E+04  0.24794020900E+04  0.50400001928E-02 0. -1.
    10030    2    1    2    0    0  0.00000000000E+00  0.00000000000E+00 -0.14469019875E+04  0.35119021925E+04  0.31999893200E+04 0.  0.
        3    1    3    3  502    0  0.45332515925E+03 -0.15328737456E+04 -0.79930601111E+03  0.17872033263E+04  0.10100000352E+00 0. -1.
       -3    1    3    3    0  502 -0.45332515925E+03  0.15328737456E+04 -0.64759597639E+03  0.17246988662E+04  0.10100000352E+00 0.  1.
</event>
<event>
 5   0  0.9329929E-08  0.3198580E+04  0.7818609E-02  0.8189192E-01
       -2   -1    0    0    0  501  0.00000000000E+00  0.00000000000E+00  0.17421072623E+04  0.17421072623E+04  0.25500000920E-02 0.  1.
        2   -1    0    0  501    0  0.00000000000E+00  0.00000000000E+00 -0.14681812584E+04  0.14681812585E+04  0.25500000920E-02 0. -1.
    10030    2    1    2    0    0  0.00000000000E+00  0.00000000000E+00  0.27392600388E+03  0.32102885208E+04  0.31985804556E+04 0.  0.
        1    1    3    3  502    0  0.13317788940E+04 -0.70648641016E+03 -0.39881791794E+03  0.15594273956E+04  0.50400001928E-02 0. -1.
       -1    1    3    3    0  502 -0.13317788940E+04  0.70648641016E+03  0.67274392183E+03  0.16508611252E+04  0.50400001928E-02 0.  1.
</event>
<event>
 5   0  0.3220147E-08  0.3198946E+04  0.7818609E-02  0.8189096E-01
        1   -1    0    0  501    0  0.00000000000E+00  0.00000000000E+00  0.15213165024E+04  0.15213165024E+04  0.50400001928E-02 0.  1.
       -1   -1    0    0    0  501  0.00000000000E+00  0.00000000000E+00 -0.16816442139E+04  0.16816442139E+04  0.50400001928E-02 0. -1.
    10030    2    1    2    0    0  0.00000000000E+00  0.00000000000E+00 -0.16032771147E+03  0.32029607162E+04  0.31989455098E+04 0.  0.
        4    1    3    3  502    0 -0.68160469998E+03  0.12262657143E+04  0.68891412072E+03  0.15629833165E+04  0.12699999809E+01 0.  1.
       -4    1    3    3    0  502  0.68160469998E+03 -0.12262657143E+04 -0.84924183219E+03  0.16399773997E+04  0.12699999809E+01 0. -1.
</event>
<event>
 5   0  0.3220147E-08  0.3200223E+04  0.7818609E-02  0.8188758E-01
       -1   -1    0    0    0  501  0.00000000000E+00  0.00000000000E+00  0.15719383461E+04  0.15719383461E+04  0.50400001928E-02 0.  1.
        1   -1    0    0  501    0  0.00000000000E+00  0.00000000000E+00 -0.16287896007E+04  0.16287896007E+04  0.50400001928E-02 0. -1.
    10030    2    1    2    0    0  0.00000000000E+00  0.00000000000E+00 -0.56851254647E+02  0.32007279468E+04  0.32002230116E+04 0.  0.
        4    1    3    3  502    0  0.86611729305E+03  0.79216338617E+03 -0.11161050191E+04  0.16196833092E+04  0.12699999809E+01 0. -1.
       -4    1    3    3    0  502 -0.86611729305E+03 -0.79216338617E+03  0.10592537644E+04  0.15810446376E+04  0.12699999809E+01 0.  1.
</event>
<event>
 5   0  0.9707721E-08  0.3197734E+04  0.7818609E-02  0.8189416E-01
       -2   -1    0    0    0  501  0.00000000000E+00  0.00000000000E+00  0.15918657053E+04  0.15918657053E+04  0.25500000920E-02 0. -1.
        2   -1    0    0  501    0  0.00000000000E+00  0.00000000000E+00 -0.16058993994E+04  0.16058993994E+04  0.25500000920E-02 0.  1.
    10030    2    1    2    0    0  0.00000000000E+00  0.00000000000E+00 -0.14033694175E+02  0.31977651047E+04  0.31977343105E+04 0.  0.
        3    1    3    3  502    0 -0.28649718194E+03  0.70098270165E+03 -0.14151918994E+04  0.16050624616E+04  0.10100000352E+00 0.  1.
       -3    1    3    3    0  502  0.28649718194E+03 -0.70098270165E+03  0.14011582052E+04  0.15927026431E+04  0.10100000352E+00 0. -1.
</event>
<event>
 5   0  0.9157524E-08  0.3195538E+04  0.7818609E-02  0.8189997E-01
       -2   -1    0    0    0  501  0.00000000000E+00  0.00000000000E+00  0.12952182827E+04  0.12952182827E+04  0.25500000920E-02 0.  1.
        2   -1    0    0  501    0  0.00000000000E+00  0.00000000000E+00 -0.19709922642E+04  0.19709922642E+04  0.25500000920E-02 0. -1.
    10030    2    1    2    0    0  0.00000000000E+00  0.00000000000E+00 -0.67577398150E+03  0.32662105468E+04  0.31955376484E+04 0.  0.
        5    1    3    3  502    0  0.14341114822E+04 -0.69652949675E+03 -0.23061814499E+03  0.16109115128E+04  0.46999998093E+01 0.  1.
       -5    1    3    3    0  502 -0.14341114822E+04  0.69652949675E+03 -0.44515583652E+03  0.16552990340E+04  0.46999998093E+01 0. -1.
</event>
<event>
 5   0  0.9157524E-08  0.3200498E+04  0.7818609E-02  0.8188686E-01
        2   -1    0    0  501    0  0.00000000000E+00  0.00000000000E+00  0.18146054297E+04  0.18146054297E+04  0.25500000920E-02 0.  1.
       -2   -1    0    0    0  501  0.00000000000E+00  0.00000000000E+00 -0.14112142032E+04  0.14112142032E+04  0.25500000920E-02 0. -1.
    10030    2    1    2    0    0  0.00000000000E+00  0.00000000000E+00  0.40339122655E+03  0.32258196329E+04  0.32004980584E+04 0.  0.
        5    1    3    3  502    0 -0.79204838505E+03  0.13778640162E+04  0.39005642758E+03  0.16364644812E+04  0.46999998093E+01 0.  1.
       -5    1    3    3    0  502  0.79204838505E+03 -0.13778640162E+04  0.13334798966E+02  0.15893551517E+04  0.46999998093E+01 0. -1.
</event>
<event>
 5   0  0.9329929E-08  0.3201927E+04  0.7818609E-02  0.8188308E-01
       -2   -1    0    0    0  501  0.00000000000E+00  0.00000000000E+00  0.16731162600E+04  0.16731162600E+04  0.25500000920E-02 0.  1.
        2   -1    0    0  501    0  0.00000000000E+00  0.00000000000E+00 -0.15319226561E+04  0.15319226561E+04  0.25500000920E-02 0. -1.
    10030    2    1    2    0    0  0.00000000000E+00  0.00000000000E+00  0.14119360394E+03  0.32050389161E+04  0.32019273602E+04 0.  0.
        1    1    3    3  502    0 -0.12045804833E+03  0.13455384049E+04  0.93055970762E+03  0.16404039471E+04  0.50400001928E-02 0.  1.
       -1    1    3    3    0  502  0.12045804833E+03 -0.13455384049E+04 -0.78936610368E+03  0.15646349689E+04  0.50400001928E-02 0. -1.
</event>
<event>
 5   0  0.3220147E-08  0.3203171E+04  0.7818609E-02  0.8187980E-01
       -1   -1    0    0    0  501  0.00000000000E+00  0.00000000000E+00  0.14483004976E+04  0.14483004976E+04  0.50400001928E-02 0. -1.
        1   -1    0    0  501    0  0.00000000000E+00  0.00000000000E+00 -0.17710937288E+04  0.17710937289E+04  0.50400001928E-02 0.  1.
    10030    2    1    2    0    0  0.00000000000E+00  0.00000000000E+00 -0.32279323125E+03  0.32193942265E+04  0.32031708845E+04 0.  0.
        4    1    3    3  502    0 -0.43565143534E+03  0.93580204296E+03 -0.13921626300E+04  0.17331001235E+04  0.12699999809E+01 0.  1.
       -4    1    3    3    0  502  0.43565143534E+03 -0.93580204296E+03  0.10693693987E+04  0.14862941030E+04  0.12699999809E+01 0. -1.
</event>
<event>
 5   0  0.3080500E-08  0.3199898E+04  0.7818609E-02  0.8188844E-01
       -3   -1    0    0    0  501  0.00000000000E+00  0.00000000000E+00  0.11983198030E+04  0.11983198073E+04  0.10100000352E+00 0.  1.
        3   -1    0    0  501    0  0.00000000000E+00  0.00000000000E+00 -0.21361888947E+04  0.21361888971E+04  0.10100000352E+00 0. -1.
    10030    2    1    2    0    0  0.00000000000E+00  0.00000000000E+00 -0.93786909172E+03  0.33345087044E+04  0.31998984150E+04 0.  0.
        4    1    3    3  502    0 -0.14352243099E+03 -0.12118954272E+04 -0.15471323930E+04  0.19705099515E+04  0.12699999809E+01 0. -1.
       -4    1    3    3    0  502  0.14352243099E+03  0.12118954272E+04  0.60926330126E+03  0.13639987529E+04  0.12699999809E+01 0.  1.
</event>
<event>
 5   0  0.9157524E-08  0.3201112E+04  0.7818609E-02  0.8188523E-01
        2   -1    0    0  501    0  0.00000000000E+00  0.00000000000E+00  0.23054769227E+04  0.23054769227E+04  0.25500000920E-02 0. -1.
       -2   -1    0    0    0  501  0.00000000000E+00  0.00000000000E+00 -0.11111714187E+04  0.11111714188E+04  0.25500000920E-02 0.  1.
    10030    2    1    2    0    0  0.00000000000E+00  0.00000000000E+00  0.11943055040E+04  0.34166483415E+04  0.32011123461E+04 0.  0.
        5    1    3    3  502    0 -0.12596951363E+04 -0.80975223648E+03  0.12001974186E+04  0.19191212714E+04  0.46999998093E+01 0. -1.
       -5    1    3    3    0  502  0.12596951363E+04  0.80975223648E+03 -0.58919146038E+01  0.14975270701E+04  0.46999998093E+01 0.  1.
</event>
<event>
 5   0  0.9353994E-08  0.3189612E+04  0.7818609E-02  0.8191566E-01
        2   -1    0    0  501    0  0.00000000000E+00  0.00000000000E+00  0.23509024230E+04  0.23509024230E+04  0.25500000920E-02 0. -1.
       -2   -1    0    0    0  501  0.00000000000E+00  0.00000000000E+00 -0.10818850484E+04  0.10818850484E+04  0.25500000920E-02 0.  1.
    10030    2    1    2    0    0  0.00000000000E+00  0.00000000000E+00  0.12690173746E+04  0.34327874713E+04  0.31896120024E+04 0.  0.
        2    1    3    3  502    0  0.75459635578E+03  0.32015442029E+03 -0.83781401475E+03  0.11721121262E+04  0.25500000920E-02 0.  1.
       -2    1    3    3    0  502 -0.75459635578E+03 -0.32015442029E+03  0.21068313893E+04  0.22606753451E+04  0.25500000920E-02 0. -1.
</event>
<event>
 5   0  0.9707721E-08  0.3200407E+04  0.7818609E-02  0.8188710E-01
        2   -1    0    0  501    0  0.00000000000E+00  0.00000000000E+00  0.27311259217E+04  0.27311259217E+04  0.25500000920E-02 0.  1.
       -2   -1    0    0    0  501  0.00000000000E+00  0.00000000000E+00 -0.93758055368E+03  0.93758055368E+03  0.25500000920E-02 0. -1.
    10030    2    1    2    0    0  0.00000000000E+00  0.00000000000E+00  0.17935453680E+04  0.36687064754E+04  0.32004065703E+04 0.  0.
        3    1    3    3  502    0 -0.11363231076E+04 -0.11265520870E+04  0.91665189844E+03  0.18440717238E+04  0.10100000352E+00 0.  1.
       -3    1    3    3    0  502  0.11363231076E+04  0.11265520870E+04  0.87689346958E+03  0.18246347516E+04  0.10100000352E+00 0. -1.
</event>
<event>
 5   0  0.3343140E-08  0.3201580E+04  0.7818609E-02  0.8188400E-01
       -1   -1    0    0    0  501  0.00000000000E+00  0.00000000000E+00  0.25001643087E+04  0.25001643087E+04  0.50400001928E-02 0.  1.
        1   -1    0    0  501    0  0.00000000000E+00  0.00000000000E+00 -0.10249442413E+04  0.10249442413E+04  0.50400001928E-02 0. -1.
    10030    2    1    2    0    0  0.00000000000E+00  0.00000000000E+00  0.14752200674E+04  0.35251085501E+04  0.32015802414E+04 0.  0.
        1    1    3    3  502    0  0.37001675183E+02 -0.10314808906E+04 -0.60964258647E+03  0.11987435234E+04  0.50400001928E-02 0. -1.
       -1    1    3    3    0  502 -0.37001675183E+02  0.10314808906E+04  0.20848626539E+04  0.23263650267E+04  0.50400001928E-02 0.  1.
</event>
<event>
 5   0  0.9707721E-08  0.3197954E+04  0.7818609E-02  0.8189358E-01
       -2   -1    0    0    0  501  0.00000000000E+00  0.00000000000E+00  0.10058524571E+04  0.10058524571E+04  0.25500000920E-02 0. -1.
        2   -1    0    0  501    0  0.00000000000E+00  0.00000000000E+00 -0.25418517066E+04  0.25418517066E+04  0.25500000920E-02 0.  1.
    10030    2    1    2    0    0  0.00000000000E+00  0.00000000000E+00 -0.15359992495E+04  0.35477041637E+04  0.31979542115E+04 0.  0.
        3    1    3    3  502    0  0.98250120016E+03  0.10071381968E+04 -0.16107474010E+04  0.21387246564E+04  0.10100000352E+00 0.  1.
       -3    1    3    3    0  502 -0.98250120016E+03 -0.10071381968E+04  0.74748151522E+02  0.14089795073E+04  0.10100000352E+00 0. -1.
</event>
<event>
 5   0  0.9157524E-08  0.3191988E+04  0.7818609E-02  0.8190936E-01
       -2   -1    0    0    0  501  0.00000000000E+00  0.00000000000E+00  0.14574707100E+04  0.14574707100E+04  0.25500000920E-02 0.  1.
        2   -1    0    0  501    0  0.00000000000E+00  0.00000000000E+00 -0.17476827632E+04  0.17476827632E+04  0.25500000920E-02 0. -1.
    10030    2    1    2    0    0  0.00000000000E+00  0.00000000000E+00 -0.29021205321E+03  0.32051534732E+04  0.31919877430E+04 0.  0.
        5    1    3    3  502    0  0.71027041326E+03 -0.58223364384E+03  0.11655340583E+04  0.14839042446E+04  0.46999998093E+01 0.  1.
       -5    1    3    3    0  502 -0.71027041326E+03  0.58223364384E+03 -0.14557461115E+04  0.17212492287E+04  0.46999998093E+01 0. -1.
</event>
<event>
 5   0  0.3343140E-08  0.3206553E+04  0.7818609E-02  0.8187089E-01
        1   -1    0    0  501    0  0.00000000000E+00  0.00000000000E+00  0.20475704287E+04  0.20475704287E+04  0.50400001928E-02 0.  1.
       -1   -1    0    0    0  501  0.00000000000E+00  0.00000000000E+00 -0.12553884078E+04  0.12553884078E+04  0.50400001928E-02 0. -1.
    10030    2    1    2    0    0  0.00000000000E+00  0.00000000000E+00  0.79218202093E+03  0.33029588365E+04  0.32065534022E+04 0.  0.
        1    1    3    3  502    0 -0.10057478896E+04  0.72424257588E+03 -0.65156171791E+03  0.14002102694E+04  0.50400001928E-02 0. -1.
       -1    1    3    3    0  502  0.10057478896E+04 -0.72424257588E+03  0.14437437388E+04  0.19027485671E+04  0.50400001928E-02 0.  1.
</event>
<event>
 5   0  0.3427667E-08  0.3201852E+04  0.7818609E-02  0.8188328E-01
       -1   -1    0    0    0  501  0.00000000000E+00  0.00000000000E+00  0.17397342649E+04  0.17397342649E+04  0.50400001928E-02 0.  1.
        1   -1    0    0  501    0  0.00000000000E+00  0.00000000000E+00 -0.14731928774E+04  0.14731928774E+04  0.50400001928E-02 0. -1.
    10030    2    1    2    0    0  0.00000000000E+00  0.00000000000E+00  0.26654138750E+03  0.32129271423E+04  0.32018520438E+04 0.  0.
        2    1    3    3  502    0 -0.64387239304E+03  0.13862075156E+04  0.61117553815E+03  0.16461101036E+04  0.25500000920E-02 0.  1.
       -2    1    3    3    0  502  0.64387239304E+03 -0.13862075156E+04 -0.34463415066E+03  0.15668170387E+04  0.25500000920E-02 0. -1.
</event>
<event>
 5   0  0.9727083E-08  0.3200672E+04  0.7818609E-02  0.8188640E-01
       -2   -1    0    0    0  501  0.00000000000E+00  0.00000000000E+00  0.18525860773E+04  0.18525860773E+04  0.25500000920E-02 0.  1.
        2   -1    0    0  501    0  0.00000000000E+00  0.00000000000E+00 -0.13824329225E+04  0.13824329225E+04  0.25500000920E-02 0. -1.
    10030    2    1    2    0    0  0.00000000000E+00  0.00000000000E+00  0.47015315481E+03  0.32350189997E+04  0.32006724199E+04 0.  0.
        4    1    3    3  502    0  0.11942028555E+04 -0.83043259383E+02  0.13085746546E+04  0.17735235782E+04  0.12699999809E+01 0.  1.
       -4    1    3    3    0  502 -0.11942028555E+04  0.83043259383E+02 -0.83842149975E+03  0.14614954215E+04  0.12699999809E+01 0. -1.
</event>
<event>
 5   0  0.9727083E-08  0.3201316E+04  0.7818609E-02  0.8188470E-01
       -2   -1    0    0    0  501  0.00000000000E+00  0.00000000000E+00  0.17029408259E+04  0.17029408259E+04  0.25500000920E-02 0. -1.
        2   -1    0    0  501    0  0.00000000000E+00  0.00000000000E+00 -0.15045182684E+04  0.15045182684E+04  0.25500000920E-02 0.  1.
    10030    2    1    2    0    0  0.00000000000E+00  0.00000000000E+00  0.19842255752E+03  0.32074590943E+04  0.32013157186E+04 0.  0.
        4    1    3    3  502    0 -0.33698344279E+03 -0.15448593085E+04 -0.15017569449E+03  0.15883017585E+04  0.12699999809E+01 0. -1.
       -4    1    3    3    0  502  0.33698344279E+03  0.15448593085E+04  0.34859825201E+03  0.16191573358E+04  0.12699999809E+01 0.  1.
</event>
<event>
 5   0  0.9353994E-08  0.3199556E+04  0.7818609E-02  0.8188935E-01
        2   -1    0    0  501    0  0.00000000000E+00  0.00000000000E+00  0.22873939749E+04  0.22873939749E+04  0.25500000920E-02 0. -1.
       -2   -1    0    0    0  501  0.00000000000E+00  0.00000000000E+00 -0.11188667678E+04  0.11188667678E+04  0.25500000920E-02 0.  1.
    10030    2    1    2    0    0  0.00000000000E+00  0.00000000000E+00  0.11685272072E+04  0.34062607427E+04  0.31995556587E+04 0.  0.
        2    1    3    3  502    0  0.32372606337E+03  0.31153612931E+03  0.22188510347E+04  0.22638801290E+04  0.25500000920E-02 0. -1.
       -2    1    3    3    0  502 -0.32372606337E+03 -0.31153612931E+03 -0.10503238275E+04  0.11423806137E+04  0.25500000920E-02 0.  1.
</event>
<event>
 5   0  0.9329929E-08  0.3200184E+04  0.7818609E-02  0.8188769E-01
        2   -1    0    0  501    0  0.00000000000E+00  0.00000000000E+00  0.16454509870E+04  0.16454509870E+04  0.25500000920E-02 0. -1.
       -2   -1    0    0    0  501  0.00000000000E+00  0.00000000000E+00 -0.15559835934E+04  0.15559835934E+04  0.25500000920E-02 0.  1.
    10030    2    1    2    0    0  0.00000000000E+00  0.00000000000E+00  0.89467393621E+02  0.32014345805E+04  0.32001842070E+04 0.  0.
        1    1    3    3  502    0  0.13437806819E+03 -0.15898241812E+04 -0.76542161327E+02  0.15973281112E+04  0.50400001928E-02 0.  1.
       -1    1    3    3    0  502 -0.13437806819E+03  0.15898241812E+04  0.16600955495E+03  0.16041064693E+04  0.50400001928E-02 0. -1.
</event>
<event>
 5   0  0.9727083E-08  0.3201827E+04  0.7818609E-02  0.8188335E-01
        2   -1    0    0  501    0  0.00000000000E+00  0.00000000000E+00  0.17663351895E+04  0.17663351895E+04  0.25500000920E-02 0.  1.
       -2   -1    0    0    0  501  0.00000000000E+00  0.00000000000E+00 -0.14509837941E+04  0.14509837941E+04  0.25500000920E-02 0. -1.
    10030    2    1    2    0    0  0.00000000000E+00  0.00000000000E+00  0.31535139538E+03  0.32173189835E+04  0.32018268128E+04 0.  0.
        4    1    3    3  502    0  0.95311088359E+03  0.97103394155E+03  0.10053181171E+04  0.16917427114E+04  0.12699999809E+01 0.  1.
       -4    1    3    3    0  502 -0.95311088359E+03 -0.97103394155E+03 -0.68996672175E+03  0.15255762721E+04  0.12699999809E+01 0. -1.
</event>
<event>
 5   0  0.9707721E-08  0.3201661E+04  0.7818609E-02  0.8188379E-01
        2   -1    0    0  501    0  0.00000000000E+00  0.00000000000E+00  0.27006621195E+04  0.27006621195E+04  0.25500000920E-02 0. -1.
       -2   -1    0    0    0  501  0.00000000000E+00  0.00000000000E+00 -0.94890002841E+03  0.94890002841E+03  0.25500000920E-02 0.  1.
    10030    2    1    2    0    0  0.00000000000E+00  0.00000000000E+00  0.17517620911E+04  0.36495621479E+04  0.32016610451E+04 0.  0.
        3    1    3    3  502    0  0.92962744369E+03  0.12997951587E+04  0.98392322802E+03  0.18766405003E+04  0.10100000352E+00 0. -1.
       -3    1    3    3    0  502 -0.92962744369E+03 -0.12997951587E+04  0.76783886304E+03  0.17729216476E+04  0.10100000352E+00 0.  1.
</event>
<event>
 5   0  0.3270966E-08  0.3199881E+04  0.7818609E-02  0.8188849E-01
        1   -1    0    0  501    0  0.00000000000E+00  0.00000000000E+00  0.23399666495E+04  0.23399666495E+04  0.50400001928E-02 0.  1.
       -1   -1    0    0    0  501  0.00000000000E+00  0.00000000000E+00 -0.10939510143E+04  0.10939510143E+04  0.50400001928E-02 0. -1.
    10030    2    1    2    0    0  0.00000000000E+00  0.00000000000E+00  0.12460156353E+04  0.34339176638E+04  0.31998805538E+04 0.  0.
        3    1    3    3  502    0 -0.71480611361E+03 -0.58483386858E+03 -0.77900279503E+03  0.12082316826E+04  0.10100000352E+00 0. -1.
       -3    1    3    3    0  502  0.71480611361E+03  0.58483386858E+03  0.20250184303E+04  0.22256859812E+04  0.10100000352E+00 0.  1.
</event>
<event>
 5   0  0.3270966E-08  0.3197479E+04  0.7818609E-02  0.8189483E-01
        1   -1    0    0  501    0  0.00000000000E+00  0.00000000000E+00  0.89037538426E+03  0.89037538427E+03  0.50400001928E-02 0. -1.
       -1   -1    0    0    0  501  0.00000000000E+00  0.00000000000E+00 -0.28706637803E+04  0.28706637803E+04  0.50400001928E-02 0.  1.
    10030    2    1    2    0    0  0.00000000000E+00  0.00000000000E+00 -0.19802883961E+04  0.37610391646E+04  0.31974792362E+04 0.  0.
        3    1    3    3  502    0  0.28190023866E+02 -0.13603906677E+03  0.88326158645E+03  0.89412099037E+03  0.10100000352E+00 0. -1.
       -3    1    3    3    0  502 -0.28190023866E+02  0.13603906677E+03 -0.28635499825E+04  0.28669181742E+04  0.10100000352E+00 0.  1.
</event>
<event>
 5   0  0.3220147E-08  0.3191797E+04  0.7818609E-02  0.8190987E-01
        1   -1    0    0  501    0  0.00000000000E+00  0.00000000000E+00  0.27431567618E+04  0.27431567618E+04  0.50400001928E-02 0. -1.
       -1   -1    0    0    0  501  0.00000000000E+00  0.00000000000E+00 -0.92845268597E+03  0.92845268598E+03  0.50400001928E-02 0.  1.
    10030    2    1    2    0    0  0.00000000000E+00  0.00000000000E+00  0.18147040759E+04  0.36716094478E+04  0.31917965246E+04 0.  0.
        4    1    3    3  502    0 -0.42470993901E+02 -0.12040008609E+04  0.21113370704E+04  0.24308779681E+04  0.12699999809E+01 0. -1.
       -4    1    3    3    0  502  0.42470993901E+02  0.12040008609E+04 -0.29663299451E+03  0.12407314797E+04  0.12699999809E+01 0.  1.
</event>
<event>
 5   0  0.3343140E-08  0.3196651E+04  0.7818609E-02  0.8189702E-01
        1   -1    0    0  501    0  0.00000000000E+00  0.00000000000E+00  0.21125730811E+04  0.21125730811E+04  0.50400001928E-02 0. -1.
       -1   -1    0    0    0  501  0.00000000000E+00  0.00000000000E+00 -0.12092574563E+04  0.12092574563E+04  0.50400001928E-02 0.  1.
    10030    2    1    2    0    0  0.00000000000E+00  0.00000000000E+00  0.90331562476E+03  0.33218305374E+04  0.31966512167E+04 0.  0.
        1    1    3    3  502    0  0.10572354515E+04 -0.55295115949E+03  0.15568580492E+04  0.19614557783E+04  0.50400001928E-02 0. -1.
       -1    1    3    3    0  502 -0.10572354515E+04  0.55295115949E+03 -0.65354242449E+03  0.13603747591E+04  0.50400001928E-02 0.  1.
</event>
<event>
 5   0  0.9329929E-08  0.3199054E+04  0.7818609E-02  0.8189067E-01
        2   -1    0    0  501    0  0.00000000000E+00  0.00000000000E+00  0.21592213686E+04  0.21592213686E+04  0.25500000920E-02 0. -1.
       -2   -1    0    0    0  501  0.00000000000E+00  0.00000000000E+00 -0.11849113672E+04  0.11849113672E+04  0.25500000920E-02 0.  1.
    10030    2    1    2    0    0  0.00000000000E+00  0.00000000000E+00  0.97431000140E+03  0.33441327358E+04  0.31990535750E+04 0.  0.
        1    1    3    3  502    0  0.25277662792E+03 -0.36015201202E+03 -0.11204027706E+04  0.12037058876E+04  0.50400001928E-02 0.  1.
       -1    1    3    3    0  502 -0.25277662792E+03  0.36015201202E+03  0.20947127720E+04  0.21404268482E+04  0.50400001928E-02 0. -1.
</event>
<event>
 5   0  0.9727083E-08  0.3199807E+04  0.7818609E-02  0.8188868E-01
       -2   -1    0    0    0  501  0.00000000000E+00  0.00000000000E+00  0.29347642349E+04  0.29347642349E+04  0.25500000920E-02 0. -1.
        2   -1    0    0  501    0  0.00000000000E+00  0.00000000000E+00 -0.87219632756E+03  0.87219632756E+03  0.25500000920E-02 0.  1.
    10030    2    1    2    0    0  0.00000000000E+00  0.00000000000E+00  0.20625679073E+04  0.38069605624E+04  0.31998066116E+04 0.  0.
        4    1    3    3  502    0 -0.10134862573E+04  0.19542164152E+03 -0.42310336278E+03  0.11155097849E+04  0.12699999809E+01 0.  1.
       -4    1    3    3    0  502  0.10134862573E+04 -0.19542164152E+03  0.24856712701E+04  0.26914507775E+04  0.12699999809E+01 0. -1.
</event>
<event>
 5   0  0.9353994E-08  0.3199589E+04  0.7818609E-02  0.8188926E-01
       -2   -1    0    0    0  501  0.00000000000E+00  0.00000000000E+00  0.10072393673E+04  0.10072393673E+04  0.25500000920E-02 0. -1.
        2   -1    0    0  501    0  0.00000000000E+00  0.00000000000E+00 -0.25409469922E+04  0.25409469922E+04  0.25500000920E-02 0.  1.
    10030    2    1    2    0    0  0.00000000000E+00  0.00000000000E+00 -0.15337076248E+04  0.35481863595E+04  0.31995886241E+04 0.  0.
        2    1    3    3  502    0 -0.29827329918E+03  0.31732015138E+03  0.94023999231E+03  0.10361999241E+04  0.25500000920E-02 0. -1.
       -2    1    3    3    0  502  0.29827329918E+03 -0.31732015138E+03 -0.24739476171E+04  0.25119864354E+04  0.25500000920E-02 0.  1.
</event>
<event>
 5   0  0.3283581E-08  0.3204818E+04  0.7818609E-02  0.8187546E-01
       -1   -1    0    0    0  501  0.00000000000E+00  0.00000000000E+00  0.14969861332E+04  0.14969861332E+04  0.50400001928E-02 0. -1.
        1   -1    0    0  501    0  0.00000000000E+00  0.00000000000E+00 -0.17152557567E+04  0.17152557568E+04  0.50400001928E-02 0.  1.
    10030    2    1    2    0    0  0.00000000000E+00  0.00000000000E+00 -0.21826962356E+03  0.32122418900E+04  0.32048176752E+04 0.  0.
        5    1    3    3  502    0  0.69791778823E+02 -0.15825388403E+04 -0.35133879955E+03  0.16225785391E+04  0.46999998093E+01 0.  1.
       -5    1    3    3    0  502 -0.69791778823E+02  0.15825388403E+04  0.13306917599E+03  0.15896633509E+04  0.46999998093E+01 0. -1.
</event>
<event>
 5   0  0.3270966E-08  0.3201742E+04  0.7818609E-02  0.8188357E-01
       -1   -1    0    0    0  501  0.00000000000E+00  0.00000000000E+00  0.13661866207E+04  0.13661866207E+04  0.50400001928E-02 0. -1.
        1   -1    0    0  501    0  0.00000000000E+00  0.00000000000E+00 -0.18758696635E+04  0.18758696635E+04  0.50400001928E-02 0.  1.
    10030    2    1    2    0    0  0.00000000000E+00  0.00000000000E+00 -0.50968304280E+03  0.32420562842E+04  0.32017420486E+04 0.  0.
        3    1    3    3  502    0 -0.44675845002E+03  0.10063795820E+04  0.92185543280E+03  0.14360398410E+04  0.10100000352E+00 0. -1.
       -3    1    3    3    0  502  0.44675845002E+03 -0.10063795820E+04 -0.14315384756E+04  0.18060164432E+04  0.10100000352E+00 0.  1.
</event>
<event>
 5   0  0.9329929E-08  0.3199545E+04  0.7818609E-02  0.8188937E-01
       -2   -1    0    0    0  501  0.00000000000E+00  0.00000000000E+00  0.12530990024E+04  0.12530990024E+04  0.25500000920E-02 0.  1.
        2   -1    0    0  501    0  0.00000000000E+00  0.00000000000E+00 -0.20423540089E+04  0.20423540089E+04  0.25500000920E-02 0. -1.
    10030    2    1    2    0    0  0.00000000000E+00  0.00000000000E+00 -0.78925500654E+03  0.32954530113E+04  0.31995448246E+04 0.  0.
        1    1    3    3  502    0  0.48494701725E+03  0.14250102093E+04  0.16331518394E+03  0.15141002462E+04  0.50400001928E-02 0.  1.
       -1    1    3    3    0  502 -0.48494701725E+03 -0.14250102093E+04 -0.95257019048E+03  0.17813527652E+04  0.50400001928E-02 0. -1.
</event>
<event>
 5   0  0.3220147E-08  0.3199892E+04  0.7818609E-02  0.8188846E-01
       -1   -1    0    0    0  501  0.00000000000E+00  0.00000000000E+00  0.13216073689E+04  0.13216073689E+04  0.50400001928E-02 0.  1.
        1   -1    0    0  501    0  0.00000000000E+00  0.00000000000E+00 -0.19369045334E+04  0.19369045334E+04  0.50400001928E-02 0. -1.
    10030    2    1    2    0    0  0.00000000000E+00  0.00000000000E+00 -0.61529716452E+03  0.32585119022E+04  0.31998920632E+04 0.  0.
        4    1    3    3  502    0 -0.14350318296E+04  0.42840118898E+03 -0.88097389808E+03  0.17375156266E+04  0.12699999809E+01 0. -1.
       -4    1    3    3    0  502  0.14350318296E+04 -0.42840118898E+03  0.26567673357E+03  0.15209962756E+04  0.12699999809E+01 0.  1.
</event>
<event>
 5   0  0.3270966E-08  0.3196562E+04  0.7818609E-02  0.8189726E-01
       -1   -1    0    0    0  501  0.00000000000E+00  0.00000000000E+00  0.15001183151E+04  0.15001183151E+04  0.50400001928E-02 0. -1.
        1   -1    0    0  501    0  0.00000000000E+00  0.00000000000E+00 -0.17028671879E+04  0.17028671879E+04  0.50400001928E-02 0.  1.
    10030    2    1    2    0    0  0.00000000000E+00  0.00000000000E+00 -0.20274887274E+03  0.32029855030E+04  0.31965620637E+04 0.  0.
        3    1    3    3  502    0 -0.12328285280E+04 -0.99945653404E+03  0.88009872411E+02  0.15895047312E+04  0.10100000352E+00 0. -1.
       -3    1    3    3    0  502  0.12328285280E+04  0.99945653404E+03 -0.29075874515E+03  0.16134807718E+04  0.10100000352E+00 0.  1.
</event>
<event>
 5   0  0.3343140E-08  0.3199767E+04  0.7818609E-02  0.8188879E-01
        1   -1    0    0  501    0  0.00000000000E+00  0.00000000000E+00  0.18086373327E+04  0.18086373327E+04  0.50400001928E-02 0.  1.
       -1   -1    0    0    0  501  0.00000000000E+00  0.00000000000E+00 -0.14152237207E+04  0.14152237207E+04  0.50400001928E-02 0. -1.
    10030    2    1    2    0    0  0.00000000000E+00  0.00000000000E+00  0.39341361208E+03  0.32238610534E+04  0.31997665261E+04 0.  0.
        1    1    3    3  502    0 -0.27177075321E+03 -0.14844960064E+04 -0.33836539989E+03  0.15466346949E+04  0.50400001928E-02 0. -1.
       -1    1    3    3    0  502  0.27177075321E+03  0.14844960064E+04  0.73177901197E+03  0.16772263586E+04  0.50400001928E-02 0.  1.
</event>
<event>
 5   0  0.3283581E-08  0.3200167E+04  0.7818609E-02  0.8188773E-01
       -1   -1    0    0    0  501  0.00000000000E+00  0.00000000000E+00  0.19825753856E+04  0.19825753856E+04  0.50400001928E-02 0. -1.
        1   -1    0    0  501    0  0.00000000000E+00  0.00000000000E+00 -0.12913844539E+04  0.12913844539E+04  0.50400001928E-02 0.  1.
    10030    2    1    2    0    0  0.00000000000E+00  0.00000000000E+00  0.69119093169E+03  0.32739598395E+04  0.32001668904E+04 0.  0.
        5    1    3    3  502    0  0.10281274795E+04 -0.85199825618E+03 -0.55637940694E+03  0.14465570425E+04  0.46999998093E+01 0.  1.
       -5    1    3    3    0  502 -0.10281274795E+04  0.85199825618E+03  0.12475703386E+04  0.18274027970E+04  0.46999998093E+01 0. -1.
</event>
<event>
 5   0  0.3270966E-08  0.3199273E+04  0.7818609E-02  0.8189009E-01
       -1   -1    0    0    0  501  0.00000000000E+00  0.00000000000E+00  0.97032605153E+03  0.97032605155E+03  0.50400001928E-02 0.  1.
        1   -1    0    0  501    0  0.00000000000E+00  0.00000000000E+00 -0.26370904501E+04  0.26370904501E+04  0.50400001928E-02 0. -1.
    10030    2    1    2    0    0  0.00000000000E+00  0.00000000000E+00 -0.16667643986E+04  0.36074165017E+04  0.31992733950E+04 0.  0.
        3    1    3    3  502    0 -0.45142814116E+03 -0.13491831103E+04 -0.88219208184E+01  0.14227298648E+04  0.10100000352E+00 0.  1.
       -3    1    3    3    0  502  0.45142814116E+03  0.13491831103E+04 -0.16579424778E+04  0.21846866369E+04  0.10100000352E+00 0. -1.
</event>
<event>
 5   0  0.9727083E-08  0.3200863E+04  0.7818609E-02  0.8188589E-01
        2   -1    0    0  501    0  0.00000000000E+00  0.00000000000E+00  0.24973153169E+04  0.24973153169E+04  0.25500000920E-02 0. -1.
       -2   -1    0    0    0  501  0.00000000000E+00  0.00000000000E+00 -0.10256537894E+04  0.10256537894E+04  0.25500000920E-02 0.  1.
    10030    2    1    2    0    0  0.00000000000E+00  0.00000000000E+00  0.14716615275E+04  0.35229691063E+04  0.32008629575E+04 0.  0.
        4    1    3    3  502    0 -0.20007337616E+01 -0.13466358493E+04 -0.21603832172E+03  0.13638571344E+04  0.12699999809E+01 0.  1.
       -4    1    3    3    0  502  0.20007337616E+01  0.13466358493E+04  0.16876998492E+04  0.21591119720E+04  0.12699999809E+01 0. -1.
</event>
<event>
 5   0  0.9329929E-08  0.3195532E+04  0.7818609E-02  0.8189998E-01
        2   -1    0    0  501    0  0.00000000000E+00  0.00000000000E+00  0.27277471828E+04  0.27277471828E+04  0.25500000920E-02 0. -1.
       -2   -1    0    0    0  501  0.00000000000E+00  0.00000000000E+00 -0.93588470954E+03  0.93588470954E+03  0.25500000920E-02 0.  1.
    10030    2    1    2    0    0  0.00000000000E+00  0.00000000000E+00  0.17918624733E+04  0.36636318924E+04  0.31955324313E+04 0.  0.
        1    1    3    3  502    0 -0.88456921917E+03 -0.31537351517E+02  0.24209723795E+04  0.25777052916E+04  0.50400001928E-02 0. -1.
       -1    1    3    3    0  502  0.88456921917E+03  0.31537351517E+02 -0.62910990624E+03  0.10859266007E+04  0.50400001928E-02 0.  1.
</event>
<event>
 5   0  0.3220147E-08  0.3200440E+04  0.7818609E-02  0.8188701E-01
       -1   -1    0    0    0  501  0.00000000000E+00  0.00000000000E+00  0.15605095864E+04  0.15605095864E+04  0.50400001928E-02 0. -1.
        1   -1    0    0  501    0  0.00000000000E+00  0.00000000000E+00 -0.16409410583E+04  0.16409410583E+04  0.50400001928E-02 0.  1.
    10030    2    1    2    0    0  0.00000000000E+00  0.00000000000E+00 -0.80431471902E+02  0.32014506446E+04  0.32004401273E+04 0.  0.
        4    1    3    3  502    0 -0.29688118984E+03  0.12566988285E+04 -0.98564496717E+03  0.16244777624E+04  0.12699999809E+01 0.  1.
       -4    1    3    3    0  502  0.29688118984E+03 -0.12566988285E+04  0.90521349527E+03  0.15769728822E+04  0.12699999809E+01 0. -1.
</event>
<event>
 5   0  0.9157524E-08  0.3198572E+04  0.7818609E-02  0.8189194E-01
       -2   -1    0    0    0  501  0.00000000000E+00  0.00000000000E+00  0.94850310368E+03  0.94850310368E+03  0.25500000920E-02 0. -1.
        2   -1    0    0  501    0  0.00000000000E+00  0.00000000000E+00 -0.26965814061E+04  0.26965814061E+04  0.25500000920E-02 0.  1.
    10030    2    1    2    0    0  0.00000000000E+00  0.00000000000E+00 -0.17480783024E+04  0.36450845098E+04  0.31985720771E+04 0.  0.
        5    1    3    3  502    0 -0.23152389603E+02 -0.14624399103E+04 -0.13687972394E+03  0.14690216721E+04  0.46999998093E+01 0.  1.
       -5    1    3    3    0  502  0.23152389603E+02  0.14624399103E+04 -0.16111985785E+04  0.21760628377E+04  0.46999998093E+01 0. -1.
</event>
<event>
 5   0  0.3220147E-08  0.3201018E+04  0.7818609E-02  0.8188548E-01
        1   -1    0    0  501    0  0.00000000000E+00  0.00000000000E+00  0.11453684094E+04  0.11453684095E+04  0.50400001928E-02 0.  1.
       -1   -1    0    0    0  501  0.00000000000E+00  0.00000000000E+00 -0.22365109887E+04  0.22365109887E+04  0.50400001928E-02 0. -1.
    10030    2    1    2    0    0  0.00000000000E+00  0.00000000000E+00 -0.10911425793E+04  0.33818793982E+04  0.32010179843E+04 0.  0.
        4    1    3    3  502    0 -0.12736716450E+04 -0.32508269755E+03  0.41909543756E+03  0.13796959151E+04  0.12699999809E+01 0.  1.
       -4    1    3    3    0  502  0.12736716450E+04  0.32508269755E+03 -0.15102380169E+04  0.20021834831E+04  0.12699999809E+01 0. -1.
</event>
<event>
 5   0  0.3343140E-08  0.3200064E+04  0.7818609E-02  0.8188800E-01
       -1   -1    0    0    0  501  0.00000000000E+00  0.00000000000E+00  0.22972693502E+04  0.22972693502E+04  0.50400001928E-02 0. -1.
        1   -1    0    0  501    0  0.00000000000E+00  0.00000000000E+00 -0.11144107581E+04  0.11144107582E+04  0.50400001928E-02 0.  1.
    10030    2    1    2    0    0  0.00000000000E+00  0.00000000000E+00  0.11828585921E+04  0.34116801084E+04  0.32000635483E+04 0.  0.
        1    1    3    3  502    0  0.47772719039E+03 -0.11057970698E+04 -0.53134727097E+03  0.13165638422E+04  0.50400001928E-02 0.  1.
       -1    1    3    3    0  502 -0.47772719039E+03  0.11057970698E+04  0.17142058631E+04  0.20951162662E+04  0.50400001928E-02 0. -1.
</event>
<event>
 5   0  0.3343140E-08  0.3199294E+04  0.7818609E-02  0.8189004E-01
        1   -1    0    0  501    0  0.00000000000E+00  0.00000000000E+00  0.22104695072E+04  0.22104695072E+04  0.50400001928E-02 0. -1.
       -1   -1    0    0    0  501  0.00000000000E+00  0.00000000000E+00 -0.11576141319E+04  0.11576141319E+04  0.50400001928E-02 0.  1.
    10030    2    1    2    0    0  0.00000000000E+00  0.00000000000E+00  0.10528553754E+04  0.33680836391E+04  0.31992941344E+04 0.  0.
        1    1    3    3  502    0  0.30756751621E+03 -0.78119159248E+03  0.19598859277E+04  0.21321376435E+04  0.50400001928E-02 0. -1.
       -1    1    3    3    0  502 -0.30756751621E+03  0.78119159248E+03 -0.90703055233E+03  0.12359459956E+04  0.50400001928E-02 0.  1.
</event>
<event>
 5   0  0.3270966E-08  0.3198121E+04  0.7818609E-02  0.8189314E-01
        1   -1    0    0  501    0  0.00000000000E+00  0.00000000000E+00  0.16432201727E+04  0.16432201727E+04  0.50400001928E-02 0.  1.
       -1   -1    0    0    0  501  0.00000000000E+00  0.00000000000E+00 -0.15560877496E+04  0.15560877496E+04  0.50400001928E-02 0. -1.
    10030    2    1    2    0    0  0.00000000000E+00  0.00000000000E+00  0.87132423177E+02  0.31993079223E+04  0.31981211863E+04 0.  0.
        3    1    3    3  502    0  0.99543054320E+03 -0.11568848852E+04  0.52095411134E+03  0.16126555120E+04  0.10100000352E+00 0. -1.
       -3    1    3    3    0  502 -0.99543054320E+03  0.11568848852E+04 -0.43382168816E+03  0.15866524103E+04  0.10100000352E+00 0.  1.
</event>
<event>
 5   0  0.9157524E-08  0.3205214E+04  0.7818609E-02  0.8187442E-01
        2   -1    0    0  501    0  0.00000000000E+00  0.00000000000E+00  0.15721900026E+04  0.15721900026E+04  0.25500000920E-02 0. -1.
       -2   -1    0    0    0  501  0.00000000000E+00  0.00000000000E+00 -0.16336123626E+04  0.16336123626E+04  0.25500000920E-02 0.  1.
    10030    2    1    2    0    0  0.00000000000E+00  0.00000000000E+00 -0.61422360006E+02  0.32058023652E+04  0.32052138928E+04 0.  0.
        5    1    3    3  502    0  0.25202109571E+03  0.82825874875E+03 -0.13795876259E+04  0.16287453131E+04  0.46999998093E+01 0.  1.
       -5    1    3    3    0  502 -0.25202109571E+03 -0.82825874875E+03  0.13181652659E+04  0.15770570521E+04  0.46999998093E+01 0. -1.
</event>
<event>
 5   0  0.9329929E-08  0.3200105E+04  0.7818609E-02  0.8188789E-01
        2   -1    0    0  501    0  0.00000000000E+00  0.00000000000E+00  0.24816980347E+04  0.24816980347E+04  0.25500000920E-02 0. -1.
       -2   -1    0    0    0  501  0.00000000000E+00  0.00000000000E+00 -0.10316193468E+04  0.10316193468E+04  0.25500000920E-02 0.  1.
    10030    2    1    2    0    0  0.00000000000E+00  0.00000000000E+00  0.14500786879E+04  0.35133173814E+04  0.32001048141E+04 0.  0.
        1    1    3    3  502    0 -0.91986147990E+03  0.91299325094E+00 -0.71230671605E+03  0.11634117214E+04  0.50400001928E-02 0.  1.
       -1    1    3    3    0  502  0.91986147990E+03 -0.91299325094E+00  0.21623854039E+04  0.23499056600E+04  0.50400001928E-02 0. -1.
</event>
<event>
 5   0  0.3220147E-08  0.3199792E+04  0.7818609E-02  0.8188872E-01
        1   -1    0    0  501    0  0.00000000000E+00  0.00000000000E+00  0.26243638572E+04  0.26243638572E+04  0.50400001928E-02 0. -1.
       -1   -1    0    0    0  501  0.00000000000E+00  0.00000000000E+00 -0.97534784467E+03  0.97534784468E+03  0.50400001928E-02 0.  1.
    10030    2    1    2    0    0  0.00000000000E+00  0.00000000000E+00  0.16490160126E+04  0.35997117019E+04  0.31997922631E+04 0.  0.
        4    1    3    3  502    0  0.12851288911E+04  0.25511673876E+03 -0.20841087169E+03  0.13266791328E+04  0.12699999809E+01 0.  1.
       -4    1    3    3    0  502 -0.12851288911E+04 -0.25511673876E+03  0.18574268842E+04  0.22730325691E+04  0.12699999809E+01 0. -1.
</event>
<event>
 5   0  0.3270966E-08  0.3200533E+04  0.7818609E-02  0.8188677E-01
        1   -1    0    0  501    0  0.00000000000E+00  0.00000000000E+00  0.10270857677E+04  0.10270857677E+04  0.50400001928E-02 0.  1.
       -1   -1    0    0    0  501  0.00000000000E+00  0.00000000000E+00 -0.24933187752E+04  0.24933187752E+04  0.50400001928E-02 0. -1.
    10030    2    1    2    0    0  0.00000000000E+00  0.00000000000E+00 -0.14662330076E+04  0.35204045429E+04  0.32005325984E+04 0.  0.
        3    1    3    3  502    0  0.93328314571E+03  0.89425631879E+03  0.30464983555E+03  0.13279771558E+04  0.10100000352E+00 0.  1.
       -3    1    3    3    0  502 -0.93328314571E+03 -0.89425631879E+03 -0.17708828431E+04  0.21924273872E+04  0.10100000352E+00 0. -1.
</event>
<event>
 5   0  0.9157524E-08  0.3198960E+04  0.7818609E-02  0.8189092E-01
       -2   -1    0    0    0  501  0.00000000000E+00  0.00000000000E+00  0.91645220624E+03  0.91645220624E+03  0.25500000920E-02 0. -1.
        2   -1    0    0  501    0  0.00000000000E+00  0.00000000000E+00 -0.27915655540E+04  0.27915655540E+04  0.25500000920E-02 0.  1.
    10030    2    1    2    0    0  0.00000000000E+00  0.00000000000E+00 -0.18751133478E+04  0.37080177602E+04  0.31989600878E+04 0.  0.
        5    1    3    3  502    0 -0.12208006290E+04 -0.87103123318E+03 -0.29294497213E+03  0.15280341723E+04  0.46999998093E+01 0. -1.
       -5    1    3    3    0  502  0.12208006290E+04  0.87103123318E+03 -0.15821683756E+04  0.21799835880E+04  0.46999998093E+01 0.  1.
</event>
<event>
 5   0  0.3270966E-08  0.3199799E+04  0.7818609E-02  0.8188870E-01
        1   -1    0    0  501    0  0.00000000000E+00  0.00000000000E+00  0.23351702898E+04  0.23351702898E+04  0.50400001928E-02 0. -1.
       -1   -1    0    0    0  501  0.00000000000E+00  0.00000000000E+00 -0.10961419012E+04  0.10961419012E+04  0.50400001928E-02 0.  1.
    10030    2    1    2    0    0  0.00000000000E+00  0.00000000000E+00  0.12390283886E+04  0.34313121910E+04  0.31997987444E+04 0.  0.
        3    1    3    3  502    0  0.72294861800E+03  0.14235725109E+04  0.50981618721E+03  0.16760447348E+04  0.10100000352E+00 0.  1.
       -3    1    3    3    0  502 -0.72294861800E+03 -0.14235725109E+04  0.72921220137E+03  0.17552674562E+04  0.10100000352E+00 0. -1.
</event>
<event>
 5   0  0.3270966E-08  0.3199397E+04  0.7818609E-02  0.8188976E-01
       -1   -1    0    0    0  501  0.00000000000E+00  0.00000000000E+00  0.15872859575E+04  0.15872859575E+04  0.50400001928E-02 0.  1.
        1   -1    0    0  501    0  0.00000000000E+00  0.00000000000E+00 -0.16122083133E+04  0.16122083133E+04  0.50400001928E-02 0. -1.
    10030    2    1    2    0    0  0.00000000000E+00  0.00000000000E+00 -0.24922355766E+02  0.31994942708E+04  0.31993972034E+04 0.  0.
        3    1    3    3  502    0  0.82961505090E+03 -0.95803124719E+03 -0.98868268313E+03  0.16073513808E+04  0.10100000352E+00 0. -1.
       -3    1    3    3    0  502 -0.82961505090E+03  0.95803124719E+03  0.96376032736E+03  0.15921428900E+04  0.10100000352E+00 0.  1.
</event>
<event>
 5   0  0.9727083E-08  0.3201062E+04  0.7818609E-02  0.8188537E-01
        2   -1    0    0  501    0  0.00000000000E+00  0.00000000000E+00  0.25774351703E+04  0.25774351703E+04  0.25500000920E-02 0.  1.
       -2   -1    0    0    0  501  0.00000000000E+00  0.00000000000E+00 -0.99389482526E+03  0.99389482526E+03  0.25500000920E-02 0. -1.
    10030    2    1    2    0    0  0.00000000000E+00  0.00000000000E+00  0.15835403451E+04  0.35713299956E+04  0.32010619977E+04 0.  0.
        4    1    3    3  502    0  0.98715828774E+03  0.36889049549E+03  0.21357414314E+04  0.23815866050E+04  0.12699999809E+01 0. -1.
       -4    1    3    3    0  502 -0.98715828774E+03 -0.36889049549E+03 -0.55220108631E+03  0.11897433905E+04  0.12699999809E+01 0.  1.
</event>
<event>
 5   0  0.9353994E-08  0.3200274E+04  0.7818609E-02  0.8188745E-01
       -2   -1    0    0    0  501  0.00000000000E+00  0.00000000000E+00  0.90307123643E+03  0.90307123644E+03  0.25500000920E-02 0.  1.
        2   -1    0    0  501    0  0.00000000000E+00  0.00000000000E+00 -0.28352568581E+04  0.28352568581E+04  0.25500000920E-02 0. -1.
    10030    2    1    2    0    0  0.00000000000E+00  0.00000000000E+00 -0.19321856217E+04  0.37383280946E+04  0.32002743111E+04 0.  0.
        2    1    3    3  502    0 -0.83785213332E+03 -0.59593625422E+03 -0.23983249926E+04  0.26094250299E+04  0.25500000920E-02 0. -1.
       -2    1    3    3    0  502  0.83785213332E+03  0.59593625422E+03  0.46613937089E+03  0.11289030647E+04  0.25500000920E-02 0.  1.
</event>
<event>
 5   0  0.3427667E-08  0.3199697E+04  0.7818609E-02  0.8188897E-01
       -1   -1    0    0    0  501  0.00000000000E+00  0.00000000000E+00  0.87072199816E+03  0.87072199817E+03  0.50400001928E-02 0. -1.
        1   -1    0    0  501    0  0.00000000000E+00  0.00000000000E+00 -0.29395329597E+04  0.29395329597E+04  0.50400001928E-02 0.  1.
    10030    2    1    2    0    0  0.00000000000E+00  0.00000000000E+00 -0.20688109616E+04  0.38102549579E+04  0.31996974934E+04 0.  0.
        2    1    3    3  502    0 -0.12453696829E+04 -0.66169656187E+02 -0.22277160351E+04  0.25530457896E+04  0.25500000920E-02 0.  1.
       -2    1    3    3    0  502  0.12453696829E+04  0.66169656187E+02  0.15890507357E+03  0.12572091683E+04  0.25500000920E-02 0. -1.
</event>
<event>
 5   0  0.9353994E-08  0.3200377E+04  0.7818609E-02  0.8188718E-01
        2   -1    0    0  501    0  0.00000000000E+00  0.00000000000E+00  0.31223896110E+04  0.31223896110E+04  0.25500000920E-02 0.  1.
       -2   -1    0    0    0  501  0.00000000000E+00  0.00000000000E+00 -0.82007805310E+03  0.82007805310E+03  0.25500000920E-02 0. -1.
    10030    2    1    2    0    0  0.00000000000E+00  0.00000000000E+00  0.23023115579E+04  0.39424676641E+04  0.32003769735E+04 0.  0.
        2    1    3    3  502    0 -0.90788622585E+03  0.12713883148E+04  0.72456803751E+03  0.17221162815E+04  0.25500000920E-02 0. -1.
       -2    1    3    3    0  502  0.90788622585E+03 -0.12713883148E+04  0.15777435204E+04  0.22203513826E+04  0.25500000920E-02 0.  1.
</event>
<event>
 5   0  0.3427667E-08  0.3197798E+04  0.7818609E-02  0.8189399E-01
        1   -1    0    0  501    0  0.00000000000E+00  0.00000000000E+00  0.19926108021E+04  0.19926108021E+04  0.50400001928E-02 0. -1.
       -1   -1    0    0    0  501  0.00000000000E+00  0.00000000000E+00 -0.12829794274E+04  0.12829794274E+04  0.50400001928E-02 0.  1.
    10030    2    1    2    0    0  0.00000000000E+00  0.00000000000E+00  0.70963137464E+03  0.32755902295E+04  0.31977984089E+04 0.  0.
        2    1    3    3  502    0 -0.10267633539E+04  0.91342748203E+03  0.11919393683E+04  0.18191515076E+04  0.25500000920E-02 0.  1.
       -2    1    3    3    0  502  0.10267633539E+04 -0.91342748203E+03 -0.48230799364E+03  0.14564387219E+04  0.25500000920E-02 0. -1.
</event>
<event>
 5   0  0.3343140E-08  0.3199588E+04  0.7818609E-02  0.8188926E-01
       -1   -1    0    0    0  501  0.00000000000E+00  0.00000000000E+00  0.28263437126E+04  0.28263437126E+04  0.50400001928E-02 0.  1.
        1   -1    0    0  501    0  0.00000000000E+00  0.00000000000E+00 -0.90553055638E+03  0.90553055639E+03  0.50400001928E-02 0. -1.
    10030    2    1    2    0    0  0.00000000000E+00  0.00000000000E+00  0.19208131562E+04  0.37318742690E+04  0.31995878451E+04 0.  0.
        1    1    3    3  502    0 -0.77579956711E+03 -0.11779618269E+04  0.18408982806E+04  0.23191303356E+04  0.50400001928E-02 0.  1.
       -1    1    3    3    0  502  0.77579956711E+03  0.11779618269E+04  0.79914875595E+02  0.14127439334E+04  0.50400001928E-02 0. -1.
</event>
<event>
 5   0  0.9353994E-08  0.3199514E+04  0.7818609E-02  0.8188946E-01
        2   -1    0    0  501    0  0.00000000000E+00  0.00000000000E+00  0.11801329442E+04  0.11801329442E+04  0.25500000920E-02 0.  1.
       -2   -1    0    0    0  501  0.00000000000E+00  0.00000000000E+00 -0.21685882038E+04  0.21685882038E+04  0.25500000920E-02 0. -1.
    10030    2    1    2    0    0  0.00000000000E+00  0.00000000000E+00 -0.98845525955E+03  0.33487211480E+04  0.31995139516E+04 0.  0.
        2    1    3    3  502    0  0.16888346547E+03 -0.44887431716E+03  0.11031203702E+04  0.12028650501E+04  0.25500000920E-02 0.  1.
       -2    1    3    3    0  502 -0.16888346547E+03  0.44887431716E+03 -0.20915756298E+04  0.21458560979E+04  0.25500000920E-02 0. -1.
</event>
<event>
 5   0  0.9727083E-08  0.3196447E+04  0.7818609E-02  0.8189756E-01
       -2   -1    0    0    0  501  0.00000000000E+00  0.00000000000E+00  0.14753083296E+04  0.14753083296E+04  0.25500000920E-02 0. -1.
        2   -1    0    0  501    0  0.00000000000E+00  0.00000000000E+00 -0.17313789726E+04  0.17313789726E+04  0.25500000920E-02 0.  1.
    10030    2    1    2    0    0  0.00000000000E+00  0.00000000000E+00 -0.25607064305E+03  0.32066873022E+04  0.31964466647E+04 0.  0.
        4    1    3    3  502    0  0.11504931997E+04 -0.63197471558E+03  0.78663652940E+03  0.15303023512E+04  0.12699999809E+01 0. -1.
       -4    1    3    3    0  502 -0.11504931997E+04  0.63197471558E+03 -0.10427071725E+04  0.16763849510E+04  0.12699999809E+01 0.  1.
</event>
<event>
 5   0  0.9329929E-08  0.3200116E+04  0.7818609E-02  0.8188787E-01
        2   -1    0    0  501    0  0.00000000000E+00  0.00000000000E+00  0.21063137362E+04  0.21063137362E+04  0.25500000920E-02 0. -1.
       -2   -1    0    0    0  501  0.00000000000E+00  0.00000000000E+00 -0.12154813459E+04  0.12154813459E+04  0.25500000920E-02 0.  1.
    10030    2    1    2    0    0  0.00000000000E+00  0.00000000000E+00  0.89083239029E+03  0.33217950820E+04  0.32001156572E+04 0.  0.
        1    1    3    3  502    0  0.25619629145E+03  0.36333106075E+02  0.20844510815E+04  0.21004506530E+04  0.50400001928E-02 0. -1.
       -1    1    3    3    0  502 -0.25619629145E+03 -0.36333106075E+02 -0.11936186912E+04  0.12213444291E+04  0.50400001928E-02 0.  1.
</event>
<event>
 5   0  0.9329929E-08  0.3200496E+04  0.7818609E-02  0.8188686E-01
       -2   -1    0    0    0  501  0.00000000000E+00  0.00000000000E+00  0.13910973678E+04  0.13910973678E+04  0.25500000920E-02 0.  1.
        2   -1    0    0  501    0  0.00000000000E+00  0.00000000000E+00 -0.18408444224E+04  0.18408444224E+04  0.25500000920E-02 0. -1.
    10030    2    1    2    0    0  0.00000000000E+00  0.00000000000E+00 -0.44974705459E+03  0.32319417901E+04  0.32004961056E+04 0.  0.
        1    1    3    3  502    0  0.72014655128E+03  0.67228396757E+01 -0.16679479381E+04  0.18167846807E+04  0.50400001928E-02 0. -1.
       -1    1    3    3    0  502 -0.72014655128E+03 -0.67228396757E+01  0.12182008835E+04  0.14151571094E+04  0.50400001928E-02 0.  1.
</event>
<event>
 5   0  0.3427667E-08  0.3200048E+04  0.7818609E-02  0.8188804E-01
       -1   -1    0    0    0  501  0.00000000000E+00  0.00000000000E+00  0.10685561091E+04  0.10685561091E+04  0.50400001928E-02 0. -1.
        1   -1    0    0  501    0  0.00000000000E+00  0.00000000000E+00 -0.23958285851E+04  0.23958285852E+04  0.50400001928E-02 0.  1.
    10030    2    1    2    0    0  0.00000000000E+00  0.00000000000E+00 -0.13272724760E+04  0.34643846943E+04  0.32000482940E+04 0.  0.
        2    1    3    3  502    0 -0.64605979155E+03 -0.24843310269E+03  0.89807943068E+03  0.11338690068E+04  0.25500000920E-02 0. -1.
       -2    1    3    3    0  502  0.64605979155E+03  0.24843310269E+03 -0.22253519067E+04  0.23305156875E+04  0.25500000920E-02 0.  1.
</event>
<event>
 5   0  0.3080500E-08  0.3200569E+04  0.7818609E-02  0.8188667E-01
       -4   -1    0    0    0  501  0.00000000000E+00  0.00000000000E+00  0.15329893810E+04  0.15329899070E+04  0.12699999809E+01 0.  1.
        4   -1    0    0  501    0  0.00000000000E+00  0.00000000000E+00 -0.16705322718E+04  0.16705327546E+04  0.12699999809E+01 0. -1.
    10030    2    1    2    0    0  0.00000000000E+00  0.00000000000E+00 -0.13754289085E+03  0.32035226616E+04  0.32005686052E+04 0.  0.
        5    1    3    3  502    0 -0.42387591574E+03 -0.15218692271E+04 -0.32421480004E+03  0.16127287630E+04  0.46999998093E+01 0. -1.
       -5    1    3    3    0  502  0.42387591574E+03  0.15218692271E+04  0.18667190919E+03  0.15907938987E+04  0.46999998093E+01 0.  1.
</event>
<event>
 5   0  0.9329929E-08  0.3196322E+04  0.7818609E-02  0.8189789E-01
       -2   -1    0    0    0  501  0.00000000000E+00  0.00000000000E+00  0.96169696432E+03  0.96169696432E+03  0.25500000920E-02 0. -1.
        2   -1    0    0  501    0  0.00000000000E+00  0.00000000000E+00 -0.26558450068E+04  0.26558450068E+04  0.25500000920E-02 0.  1.
    10030    2    1    2    0    0  0.00000000000E+00  0.00000000000E+00 -0.16941480424E+04  0.36175419711E+04  0.31963216864E+04 0.  0.
        1    1    3    3  502    0 -0.55354100679E+02 -0.90174045164E+03  0.64495667465E+03  0.11100310945E+04  0.50400001928E-02 0. -1.
       -1    1    3    3    0  502  0.55354100679E+02  0.90174045164E+03 -0.23391047171E+04  0.25075108766E+04  0.50400001928E-02 0.  1.
</event>
<event>
 5   0  0.9157524E-08  0.3200686E+04  0.7818609E-02  0.8188636E-01
       -2   -1    0    0    0  501  0.00000000000E+00  0.00000000000E+00  0.20180256203E+04  0.20180256203E+04  0.25500000920E-02 0.  1.
        2   -1    0    0  501    0  0.00000000000E+00  0.00000000000E+00 -0.12691107800E+04  0.12691107800E+04  0.25500000920E-02 0. -1.
    10030    2    1    2    0    0  0.00000000000E+00  0.00000000000E+00  0.74891484026E+03  0.32871364003E+04  0.32006862196E+04 0.  0.
        5    1    3    3  502    0 -0.47079845318E+03  0.93040857137E+03 -0.87231934007E+03  0.13595125649E+04  0.46999998093E+01 0. -1.
       -5    1    3    3    0  502  0.47079845318E+03 -0.93040857137E+03  0.16212341803E+04  0.19276238354E+04  0.46999998093E+01 0.  1.
</event>
<event>
 5   0  0.9727083E-08  0.3199693E+04  0.7818609E-02  0.8188898E-01
       -2   -1    0    0    0  501  0.00000000000E+00  0.00000000000E+00  0.84768916923E+03  0.84768916923E+03  0.25500000920E-02 0.  1.
        2   -1    0    0  501    0  0.00000000000E+00  0.00000000000E+00 -0.30193962207E+04  0.30193962207E+04  0.25500000920E-02 0. -1.
    10030    2    1    2    0    0  0.00000000000E+00  0.00000000000E+00 -0.21717070514E+04  0.38670853899E+04  0.31996934065E+04 0.  0.
        4    1    3    3  502    0 -0.33864961054E+02  0.70383577433E+03 -0.28217447490E+04  0.29083976128E+04  0.12699999809E+01 0. -1.
       -4    1    3    3    0  502  0.33864961054E+02 -0.70383577433E+03  0.65003769755E+03  0.95868777709E+03  0.12699999809E+01 0.  1.
</event>
<event>
 5   0  0.3343140E-08  0.3200094E+04  0.7818609E-02  0.8188792E-01
        1   -1    0    0  501    0  0.00000000000E+00  0.00000000000E+00  0.19977990134E+04  0.19977990134E+04  0.50400001928E-02 0.  1.
       -1   -1    0    0    0  501  0.00000000000E+00  0.00000000000E+00 -0.12814855914E+04  0.12814855914E+04  0.50400001928E-02 0. -1.
    10030    2    1    2    0    0  0.00000000000E+00  0.00000000000E+00  0.71631342202E+03  0.32792846048E+04  0.32000941550E+04 0.  0.
        1    1    3    3  502    0 -0.10678252776E+04 -0.80916310965E+02 -0.86010776469E+03  0.13735296282E+04  0.50400001928E-02 0. -1.
       -1    1    3    3    0  502  0.10678252776E+04  0.80916310965E+02  0.15764211867E+04  0.19057549766E+04  0.50400001928E-02 0.  1.
</event>
<event>
 5   0  0.9707721E-08  0.3200535E+04  0.7818609E-02  0.8188676E-01
        2   -1    0    0  501    0  0.00000000000E+00  0.00000000000E+00  0.31880920903E+04  0.31880920903E+04  0.25500000920E-02 0. -1.
       -2   -1    0    0    0  501  0.00000000000E+00  0.00000000000E+00 -0.80325672940E+03  0.80325672941E+03  0.25500000920E-02 0.  1.
    10030    2    1    2    0    0  0.00000000000E+00  0.00000000000E+00  0.23848353609E+04  0.39913488197E+04  0.32005352212E+04 0.  0.
        3    1    3    3  502    0 -0.91241507763E+03  0.79324351667E+03 -0.11501579916E+03  0.12144814510E+04  0.10100000352E+00 0.  1.
       -3    1    3    3    0  502  0.91241507763E+03 -0.79324351667E+03  0.24998511600E+04  0.27768673687E+04  0.10100000352E+00 0. -1.
</event>
<event>
 5   0  0.9329929E-08  0.3199532E+04  0.7818609E-02  0.8188941E-01
       -2   -1    0    0    0  501  0.00000000000E+00  0.00000000000E+00  0.94291429343E+03  0.94291429343E+03  0.25500000920E-02 0. -1.
        2   -1    0    0  501    0  0.00000000000E+00  0.00000000000E+00 -0.27141931836E+04  0.27141931836E+04  0.25500000920E-02 0.  1.
    10030    2    1    2    0    0  0.00000000000E+00  0.00000000000E+00 -0.17712788901E+04  0.36571074770E+04  0.31995321832E+04 0.  0.
        1    1    3    3  502    0  0.11565402865E+04  0.29483884447E+03  0.33194387472E+03  0.12388309467E+04  0.50400001928E-02 0. -1.
       -1    1    3    3    0  502 -0.11565402865E+04 -0.29483884447E+03 -0.21032227649E+04  0.24182765303E+04  0.50400001928E-02 0.  1.
</event>
<event>
 5   0  0.3220147E-08  0.3200542E+04  0.7818609E-02  0.8188674E-01
       -1   -1    0    0    0  501  0.00000000000E+00  0.00000000000E+00  0.10425695370E+04  0.10425695371E+04  0.50400001928E-02 0.  1.
        1   -1    0    0  501    0  0.00000000000E+00  0.00000000000E+00 -0.24563042146E+04  0.24563042146E+04  0.50400001928E-02 0. -1.
    10030    2    1    2    0    0  0.00000000000E+00  0.00000000000E+00 -0.14137346775E+04  0.34988737516E+04  0.32005424214E+04 0.  0.
        4    1    3    3  502    0 -0.14323135978E+04 -0.33357043142E+03 -0.17124722739E+02  0.14707434664E+04  0.12699999809E+01 0.  1.
       -4    1    3    3    0  502  0.14323135978E+04  0.33357043142E+03 -0.13966099548E+04  0.20281302852E+04  0.12699999809E+01 0. -1.
</event>
<event>
 5   0  0.9707721E-08  0.3196705E+04  0.7818609E-02  0.8189688E-01
       -2   -1    0    0    0  501  0.00000000000E+00  0.00000000000E+00  0.18602512401E+04  0.18602512401E+04  0.25500000920E-02 0.  1.
        2   -1    0    0  501    0  0.00000000000E+00  0.00000000000E+00 -0.13733257410E+04  0.13733257410E+04  0.25500000920E-02 0. -1.
    10030    2    1    2    0    0  0.00000000000E+00  0.00000000000E+00  0.48692549910E+03  0.32335769810E+04  0.31967051241E+04 0.  0.
        3    1    3    3  502    0 -0.26183551152E+03  0.72318981127E+03 -0.11738298961E+04  0.14033666568E+04  0.10100000352E+00 0. -1.
       -3    1    3    3    0  502  0.26183551152E+03 -0.72318981127E+03  0.16607553952E+04  0.18302103243E+04  0.10100000352E+00 0.  1.
</event>
<event>
 5   0  0.9329929E-08  0.3197509E+04  0.7818609E-02  0.8189475E-01
       -2   -1    0    0    0  501  0.00000000000E+00  0.00000000000E+00  0.15579021424E+04  0.15579021424E+04  0.25500000920E-02 0. -1.
        2   -1    0    0  501    0  0.00000000000E+00  0.00000000000E+00 -0.16406779049E+04  0.16406779049E+04  0.25500000920E-02 0.  1.
    10030    2    1    2    0    0  0.00000000000E+00  0.00000000000E+00 -0.82775762479E+02  0.31985800473E+04  0.31975087947E+04 0.  0.
        1    1    3    3  502    0  0.93510766461E+03  0.46430296695E+03 -0.12525833676E+04  0.16306344416E+04  0.50400001928E-02 0.  1.
       -1    1    3    3    0  502 -0.93510766461E+03 -0.46430296695E+03  0.11698076051E+04  0.15679456057E+04  0.50400001928E-02 0. -1.
</event>
<event>
 5   0  0.3427667E-08  0.3200062E+04  0.7818609E-02  0.8188801E-01
        1   -1    0    0  501    0  0.00000000000E+00  0.00000000000E+00  0.17678905759E+04  0.17678905759E+04  0.50400001928E-02 0. -1.
       -1   -1    0    0    0  501  0.00000000000E+00  0.00000000000E+00 -0.14481093386E+04  0.14481093386E+04  0.50400001928E-02 0.  1.
    10030    2    1    2    0    0  0.00000000000E+00  0.00000000000E+00  0.31978123729E+03  0.32159999145E+04  0.32000617822E+04 0.  0.
        2    1    3    3  502    0 -0.12290899031E+04  0.10220239228E+04  0.89513531186E+02  0.16010020490E+04  0.25500000920E-02 0. -1.
       -2    1    3    3    0  502  0.12290899031E+04 -0.10220239228E+04  0.23026770610E+03  0.16149978654E+04  0.25500000920E-02 0.  1.
</event>
<event>
 5   0  0.9157524E-08  0.3197734E+04  0.7818609E-02  0.8189416E-01
       -2   -1    0    0    0  501  0.00000000000E+00  0.00000000000E+00  0.10685065020E+04  0.10685065020E+04  0.25500000920E-02 0.  1.
        2   -1    0    0  501    0  0.00000000000E+00  0.00000000000E+00 -0.23924751912E+04  0.23924751912E+04  0.25500000920E-02 0. -1.
    10030    2    1    2    0    0  0.00000000000E+00  0.00000000000E+00 -0.13239686892E+04  0.34609816932E+04  0.31977337585E+04 0.  0.
        5    1    3    3  502    0 -0.51166401557E+03  0.10582760878E+04  0.51102885158E+03  0.12817647678E+04  0.46999998093E+01 0.  1.
       -5    1    3    3    0  502  0.51166401557E+03 -0.10582760878E+04 -0.18349975408E+04  0.21792169253E+04  0.46999998093E+01 0. -1.
</event>
<event>
 5   0  0.3343140E-08  0.3200236E+04  0.7818609E-02  0.8188755E-01
        1   -1    0    0  501    0  0.00000000000E+00  0.00000000000E+00  0.18973781766E+04  0.18973781766E+04  0.50400001928E-02 0.  1.
       -1   -1    0    0    0  501  0.00000000000E+00  0.00000000000E+00 -0.13494295953E+04  0.13494295953E+04  0.50400001928E-02 0. -1.
    10030    2    1    2    0    0  0.00000000000E+00  0.00000000000E+00  0.54794858130E+03  0.32468077720E+04  0.32002364069E+04 0.  0.
        1    1    3    3  502    0 -0.13708953031E+03  0.13661280525E+04 -0.55973779183E+03  0.14827021922E+04  0.50400001928E-02 0. -1.
       -1    1    3    3    0  502  0.13708953031E+03 -0.13661280525E+04  0.11076863731E+04  0.17641055797E+04  0.50400001928E-02 0.  1.
</event>
<event>
 5   0  0.9329929E-08  0.3200883E+04  0.7818609E-02  0.8188584E-01
       -2   -1    0    0    0  501  0.00000000000E+00  0.00000000000E+00  0.18766830051E+04  0.18766830051E+04  0.25500000920E-02 0. -1.
        2   -1    0    0  501    0  0.00000000000E+00  0.00000000000E+00 -0.13648620234E+04  0.13648620234E+04  0.25500000920E-02 0.  1.
    10030    2    1    2    0    0  0.00000000000E+00  0.00000000000E+00  0.51182098170E+03  0.32415450284E+04  0.32008832303E+04 0.  0.
        1    1    3    3  502    0  0.14346123458E+04 -0.68171850369E+03  0.57047269335E+02  0.15893731758E+04  0.50400001928E-02 0.  1.
       -1    1    3    3    0  502 -0.14346123458E+04  0.68171850369E+03  0.45477371237E+03  0.16521718526E+04  0.50400001928E-02 0. -1.
</event>
<event>
 5   0  0.9353994E-08  0.3199787E+04  0.7818609E-02  0.8188873E-01
        2   -1    0    0  501    0  0.00000000000E+00  0.00000000000E+00  0.21925229787E+04  0.21925229787E+04  0.25500000920E-02 0. -1.
       -2   -1    0    0    0  501  0.00000000000E+00  0.00000000000E+00 -0.11674494187E+04  0.11674494187E+04  0.25500000920E-02 0.  1.
    10030    2    1    2    0    0  0.00000000000E+00  0.00000000000E+00  0.10250735601E+04  0.33599723974E+04  0.31997872910E+04 0.  0.
        2    1    3    3  502    0  0.50100853964E+02  0.14815921817E+04  0.11443509953E+04  0.18727425581E+04  0.25500000920E-02 0. -1.
       -2    1    3    3    0  502 -0.50100853964E+02 -0.14815921817E+04 -0.11927743529E+03  0.14872298393E+04  0.25500000920E-02 0.  1.
</event>
<event>
 5   0  0.3283581E-08  0.3203023E+04  0.7818609E-02  0.8188019E-01
       -1   -1    0    0    0  501  0.00000000000E+00  0.00000000000E+00  0.11579217970E+04  0.11579217970E+04  0.50400001928E-02 0. -1.
        1   -1    0    0  501    0  0.00000000000E+00  0.00000000000E+00 -0.22150364840E+04  0.22150364841E+04  0.50400001928E-02 0.  1.
    10030    2    1    2    0    0  0.00000000000E+00  0.00000000000E+00 -0.10571146871E+04  0.33729582810E+04  0.32030229634E+04 0.  0.
        5    1    3    3  502    0 -0.14762895819E+04  0.19406319058E+03  0.92410595412E+02  0.14918623461E+04  0.46999998093E+01 0. -1.
       -5    1    3    3    0  502  0.14762895819E+04 -0.19406319058E+03 -0.11495252825E+04  0.18810959350E+04  0.46999998093E+01 0.  1.
</event>
<event>
 5   0  0.3270966E-08  0.3200921E+04  0.7818609E-02  0.8188574E-01
        1   -1    0    0  501    0  0.00000000000E+00  0.00000000000E+00  0.24019320380E+04  0.24019320380E+04  0.50400001928E-02 0. -1.
       -1   -1    0    0    0  501  0.00000000000E+00  0.00000000000E+00 -0.10664224898E+04  0.10664224898E+04  0.50400001928E-02 0.  1.
    10030    2    1    2    0    0  0.00000000000E+00  0.00000000000E+00  0.13355095481E+04  0.34683545278E+04  0.32009213326E+04 0.  0.
        3    1    3    3  502    0 -0.45819603517E+03  0.67359574297E+03 -0.82494905589E+03  0.11594032028E+04  0.10100000352E+00 0.  1.
       -3    1    3    3    0  502  0.45819603517E+03 -0.67359574297E+03  0.21604586040E+04  0.23089513251E+04  0.10100000352E+00 0. -1.
</event>
<event>
 5   0  0.9707721E-08  0.3200189E+04  0.7818609E-02  0.8188767E-01
        2   -1    0    0  501    0  0.00000000000E+00  0.00000000000E+00  0.20243385566E+04  0.20243385566E+04  0.25500000920E-02 0. -1.
       -2   -1    0    0    0  501  0.00000000000E+00  0.00000000000E+00 -0.12647602099E+04  0.12647602099E+04  0.25500000920E-02 0.  1.
    10030    2    1    2    0    0  0.00000000000E+00  0.00000000000E+00  0.75957834672E+03  0.32890987665E+04  0.32001892805E+04 0.  0.
        3    1    3    3  502    0 -0.11404412730E+03  0.13229009790E+04  0.12974728494E+04  0.18564775432E+04  0.10100000352E+00 0. -1.
       -3    1    3    3    0  502  0.11404412730E+03 -0.13229009790E+04 -0.53789450270E+03  0.14326212233E+04  0.10100000352E+00 0.  1.
</event>
<event>
 5   0  0.9157524E-08  0.3200958E+04  0.7818609E-02  0.8188564E-01
       -2   -1    0    0    0  501  0.00000000000E+00  0.00000000000E+00  0.14628042239E+04  0.14628042239E+04  0.25500000920E-02 0.  1.
        2   -1    0    0  501    0  0.00000000000E+00  0.00000000000E+00 -0.17511114696E+04  0.17511114696E+04  0.25500000920E-02 0. -1.
    10030    2    1    2    0    0  0.00000000000E+00  0.00000000000E+00 -0.28830724572E+03  0.32139156934E+04  0.32009581404E+04 0.  0.
        5    1    3    3  502    0  0.86040838390E+03 -0.85424814759E+03  0.90480926779E+03  0.15128596716E+04  0.46999998093E+01 0. -1.
       -5    1    3    3    0  502 -0.86040838390E+03  0.85424814759E+03 -0.11931165135E+04  0.17010560219E+04  0.46999998093E+01 0.  1.
</event>
<event>
 5   0  0.3283581E-08  0.3174988E+04  0.7818609E-02  0.8195454E-01
        1   -1    0    0  501    0  0.00000000000E+00  0.00000000000E+00  0.14597844554E+04  0.14597844554E+04  0.50400001928E-02 0. -1.
       -1   -1    0    0    0  501  0.00000000000E+00  0.00000000000E+00 -0.17263765346E+04  0.17263765347E+04  0.50400001928E-02 0.  1.
    10030    2    1    2    0    0  0.00000000000E+00  0.00000000000E+00 -0.26659207927E+03  0.31861609900E+04  0.31749882705E+04 0.  0.
        5    1    3    3  502    0 -0.72674659492E+03 -0.28648605526E+03 -0.15201435366E+04  0.17091206320E+04  0.46999998093E+01 0.  1.
       -5    1    3    3    0  502  0.72674659492E+03  0.28648605526E+03  0.12535514573E+04  0.14770403580E+04  0.46999998093E+01 0. -1.
</event>
<event>
 5   0  0.9329929E-08  0.3201011E+04  0.7818609E-02  0.8188550E-01
       -2   -1    0    0    0  501  0.00000000000E+00  0.00000000000E+00  0.11911214407E+04  0.11911214407E+04  0.25500000920E-02 0.  1.
        2   -1    0    0  501    0  0.00000000000E+00  0.00000000000E+00 -0.21505934839E+04  0.21505934839E+04  0.25500000920E-02 0. -1.
    10030    2    1    2    0    0  0.00000000000E+00  0.00000000000E+00 -0.95947204320E+03  0.33417149245E+04  0.32010110958E+04 0.  0.
        1    1    3    3  502    0 -0.17759841520E+03 -0.15810742188E+04 -0.66139975353E+03  0.17230166907E+04  0.50400001928E-02 0.  1.
       -1    1    3    3    0  502  0.17759841520E+03  0.15810742188E+04 -0.29807228967E+03  0.16186982339E+04  0.50400001928E-02 0. -1.
</event>
<event>
 5   0  0.3343140E-08  0.3199622E+04  0.7818609E-02  0.8188917E-01
       -1   -1    0    0    0  501  0.00000000000E+00  0.00000000000E+00  0.17229152470E+04  0.17229152470E+04  0.50400001928E-02 0.  1.
        1   -1    0    0  501    0  0.00000000000E+00  0.00000000000E+00 -0.14855026631E+04  0.14855026632E+04  0.50400001928E-02 0. -1.
    10030    2    1    2    0    0  0.00000000000E+00  0.00000000000E+00  0.23741258382E+03  0.32084179101E+04  0.31996219700E+04 0.  0.
        1    1    3    3  502    0 -0.10777554981E+04  0.17204085301E+02  0.13041330924E+04  0.16919267174E+04  0.50400001928E-02 0.  1.
       -1    1    3    3    0  502  0.10777554981E+04 -0.17204085301E+02 -0.10667205086E+04  0.15164911928E+04  0.50400001928E-02 0. -1.
</event>
<event>
 5   0  0.9707721E-08  0.3199850E+04  0.7818609E-02  0.8188857E-01
        2   -1    0    0  501    0  0.00000000000E+00  0.00000000000E+00  0.25292766046E+04  0.25292766046E+04  0.25500000920E-02 0. -1.
       -2   -1    0    0    0  501  0.00000000000E+00  0.00000000000E+00 -0.10120524756E+04  0.10120524756E+04  0.25500000920E-02 0.  1.
    10030    2    1    2    0    0  0.00000000000E+00  0.00000000000E+00  0.15172241291E+04  0.35413290802E+04  0.31998504022E+04 0.  0.
        3    1    3    3  502    0 -0.36411280055E+03 -0.14771116505E+04  0.13067708079E+04  0.20055141271E+04  0.10100000352E+00 0. -1.
       -3    1    3    3    0  502  0.36411280055E+03  0.14771116505E+04  0.21045332114E+03  0.15358149531E+04  0.10100000352E+00 0.  1.
</event>
<event>
 5   0  0.9727083E-08  0.3199690E+04  0.7818609E-02  0.8188899E-01
        2   -1    0    0  501    0  0.00000000000E+00  0.00000000000E+00  0.88323337160E+03  0.88323337161E+03  0.25500000920E-02 0.  1.
       -2   -1    0    0    0  501  0.00000000000E+00  0.00000000000E+00 -0.28978791450E+04  0.28978791450E+04  0.25500000920E-02 0. -1.
    10030    2    1    2    0    0  0.00000000000E+00  0.00000000000E+00 -0.20146457734E+04  0.37811125166E+04  0.31996897148E+04 0.  0.
        4    1    3    3  502    0  0.43488223445E+03 -0.12518186252E+03  0.80602173394E+03  0.92437314166E+03  0.12699999809E+01 0.  1.
       -4    1    3    3    0  502 -0.43488223445E+03  0.12518186252E+03 -0.28206675074E+04  0.28567393750E+04  0.12699999809E+01 0. -1.
</event>
<event>
 5   0  0.9353994E-08  0.3200296E+04  0.7818609E-02  0.8188739E-01
        2   -1    0    0  501    0  0.00000000000E+00  0.00000000000E+00  0.20277630405E+04  0.20277630405E+04  0.25500000920E-02 0.  1.
       -2   -1    0    0    0  501  0.00000000000E+00  0.00000000000E+00 -0.12627088358E+04  0.12627088358E+04  0.25500000920E-02 0. -1.
    10030    2    1    2    0    0  0.00000000000E+00  0.00000000000E+00  0.76505420471E+03  0.32904718763E+04  0.32002964289E+04 0.  0.
        2    1    3    3  502    0  0.15073707530E+04 -0.42365316536E+03  0.43344362425E+02  0.15663739417E+04  0.25500000920E-02 0.  1.
       -2    1    3    3    0  502 -0.15073707530E+04  0.42365316536E+03  0.72170984228E+03  0.17240979346E+04  0.25500000920E-02 0. -1.
</event>
<event>
 5   0  0.9353994E-08  0.3195712E+04  0.7818609E-02  0.8189951E-01
       -2   -1    0    0    0  501  0.00000000000E+00  0.00000000000E+00  0.13611258052E+04  0.13611258052E+04  0.25500000920E-02 0. -1.
        2   -1    0    0  501    0  0.00000000000E+00  0.00000000000E+00 -0.18757585558E+04  0.18757585558E+04  0.25500000920E-02 0.  1.
    10030    2    1    2    0    0  0.00000000000E+00  0.00000000000E+00 -0.51463275066E+03  0.32368843610E+04  0.31957117358E+04 0.  0.
        2    1    3    3  502    0  0.56891813489E+03  0.12446964208E+04 -0.10926884012E+04  0.17512581095E+04  0.25500000920E-02 0.  1.
       -2    1    3    3    0  502 -0.56891813489E+03 -0.12446964208E+04  0.57805565050E+03  0.14856262515E+04  0.25500000920E-02 0. -1.
</event>
<event>
 5   0  0.9329929E-08  0.3186734E+04  0.7818609E-02  0.8192329E-01
        2   -1    0    0  501    0  0.00000000000E+00  0.00000000000E+00  0.24837308248E+04  0.24837308248E+04  0.25500000920E-02 0.  1.
       -2   -1    0    0    0  501  0.00000000000E+00  0.00000000000E+00 -0.10221793751E+04  0.10221793751E+04  0.25500000920E-02 0. -1.
    10030    2    1    2    0    0  0.00000000000E+00  0.00000000000E+00  0.14615514497E+04  0.35059101999E+04  0.31867340161E+04 0.  0.
        1    1    3    3  502    0  0.81994781254E+03  0.13410531190E+04  0.44371983318E+03  0.16332866171E+04  0.50400001928E-02 0. -1.
       -1    1    3    3    0  502 -0.81994781254E+03 -0.13410531190E+04  0.10178316165E+04  0.18726235828E+04  0.50400001928E-02 0.  1.
</event>
<event>
 5   0  0.3283581E-08  0.3185575E+04  0.7818609E-02  0.8192637E-01
        1   -1    0    0  501    0  0.00000000000E+00  0.00000000000E+00  0.21028385289E+04  0.21028385289E+04  0.50400001928E-02 0.  1.
       -1   -1    0    0    0  501  0.00000000000E+00  0.00000000000E+00 -0.12064508596E+04  0.12064508597E+04  0.50400001928E-02 0. -1.
    10030    2    1    2    0    0  0.00000000000E+00  0.00000000000E+00  0.89638766929E+03  0.33092893886E+04  0.31855745798E+04 0.  0.
        5    1    3    3  502    0  0.80189144757E+03  0.56384047767E+03  0.17523377772E+04  0.20078983424E+04  0.46999998093E+01 0.  1.
       -5    1    3    3    0  502 -0.80189144757E+03 -0.56384047767E+03 -0.85595010790E+03  0.13013910462E+04  0.46999998093E+01 0. -1.
</event>
<event>
 5   0  0.3343140E-08  0.3198876E+04  0.7818609E-02  0.8189114E-01
        1   -1    0    0  501    0  0.00000000000E+00  0.00000000000E+00  0.17117490569E+04  0.17117490569E+04  0.50400001928E-02 0. -1.
       -1   -1    0    0    0  501  0.00000000000E+00  0.00000000000E+00 -0.14944958398E+04  0.14944958398E+04  0.50400001928E-02 0.  1.
    10030    2    1    2    0    0  0.00000000000E+00  0.00000000000E+00  0.21725321708E+03  0.32062448967E+04  0.31988759553E+04 0.  0.
        1    1    3    3  502    0  0.89272067030E+03  0.85312677082E+02 -0.12188008365E+04  0.15131767667E+04  0.50400001928E-02 0.  1.
       -1    1    3    3    0  502 -0.89272067030E+03 -0.85312677082E+02  0.14360540536E+04  0.16930681301E+04  0.50400001928E-02 0. -1.
</event>
<event>
 5   0  0.9329929E-08  0.3199859E+04  0.7818609E-02  0.8188854E-01
       -2   -1    0    0    0  501  0.00000000000E+00  0.00000000000E+00  0.13157070114E+04  0.13157070114E+04  0.25500000920E-02 0.  1.
        2   -1    0    0  501    0  0.00000000000E+00  0.00000000000E+00 -0.19455508448E+04  0.19455508448E+04  0.25500000920E-02 0. -1.
    10030    2    1    2    0    0  0.00000000000E+00  0.00000000000E+00 -0.62984383342E+03  0.32612578561E+04  0.31998593015E+04 0.  0.
        1    1    3    3  502    0 -0.74820130419E+03 -0.33005914742E+03 -0.17164556014E+04  0.19013058839E+04  0.50400001928E-02 0. -1.
       -1    1    3    3    0  502  0.74820130419E+03  0.33005914742E+03  0.10866117680E+04  0.13599519722E+04  0.50400001928E-02 0.  1.
</event>
<event>
 5   0  0.3427667E-08  0.3197934E+04  0.7818609E-02  0.8189363E-01
       -1   -1    0    0    0  501  0.00000000000E+00  0.00000000000E+00  0.90587022347E+03  0.90587022349E+03  0.50400001928E-02 0. -1.
        1   -1    0    0  501    0  0.00000000000E+00  0.00000000000E+00 -0.28223640634E+04  0.28223640634E+04  0.50400001928E-02 0.  1.
    10030    2    1    2    0    0  0.00000000000E+00  0.00000000000E+00 -0.19164938400E+04  0.37282342869E+04  0.31979340612E+04 0.  0.
        2    1    3    3  502    0  0.68145972993E+03  0.45123805656E+03 -0.25604380012E+04  0.26877213221E+04  0.25500000920E-02 0.  1.
       -2    1    3    3    0  502 -0.68145972993E+03 -0.45123805656E+03  0.64394416124E+03  0.10405129648E+04  0.25500000920E-02 0. -1.
</event>
<event>
 5   0  0.3270966E-08  0.3199658E+04  0.7818609E-02  0.8188907E-01
       -1   -1    0    0    0  501  0.00000000000E+00  0.00000000000E+00  0.14417604301E+04  0.14417604301E+04  0.50400001928E-02 0. -1.
        1   -1    0    0  501    0  0.00000000000E+00  0.00000000000E+00 -0.17752276767E+04  0.17752276767E+04  0.50400001928E-02 0.  1.
    10030    2    1    2    0    0  0.00000000000E+00  0.00000000000E+00 -0.33346724659E+03  0.32169881068E+04  0.31996581184E+04 0.  0.
        3    1    3    3  502    0 -0.86312395627E+03 -0.92263425179E+03  0.82001775374E+03  0.15062091665E+04  0.10100000352E+00 0. -1.
       -3    1    3    3    0  502  0.86312395627E+03  0.92263425179E+03 -0.11534850003E+04  0.17107789403E+04  0.10100000352E+00 0.  1.
</event>
<event>
 5   0  0.3220147E-08  0.3199282E+04  0.7818609E-02  0.8189007E-01
        1   -1    0    0  501    0  0.00000000000E+00  0.00000000000E+00  0.12966598511E+04  0.12966598511E+04  0.50400001928E-02 0.  1.
       -1   -1    0    0    0  501  0.00000000000E+00  0.00000000000E+00 -0.19734173652E+04  0.19734173652E+04  0.50400001928E-02 0. -1.
    10030    2    1    2    0    0  0.00000000000E+00  0.00000000000E+00 -0.67675751414E+03  0.32700772163E+04  0.31992818362E+04 0.  0.
        4    1    3    3  502    0  0.13341250509E+04 -0.45508241480E+03  0.43456926611E+03  0.14750734611E+04  0.12699999809E+01 0.  1.
       -4    1    3    3    0  502 -0.13341250509E+04  0.45508241480E+03 -0.11113267803E+04  0.17950037552E+04  0.12699999809E+01 0. -1.
</event>
<event>
 5   0  0.9329929E-08  0.3199886E+04  0.7818609E-02  0.8188847E-01
        2   -1    0    0  501    0  0.00000000000E+00  0.00000000000E+00  0.27108377630E+04  0.27108377630E+04  0.25500000920E-02 0.  1.
       -2   -1    0    0    0  501  0.00000000000E+00  0.00000000000E+00 -0.94429032308E+03  0.94429032309E+03  0.25500000920E-02 0. -1.
    10030    2    1    2    0    0  0.00000000000E+00  0.00000000000E+00  0.17665474399E+04  0.36551280861E+04  0.31998861649E+04 0.  0.
        1    1    3    3  502    0 -0.29606655093E+03 -0.15264050355E+04  0.45245515376E+03  0.16193465970E+04  0.50400001928E-02 0. -1.
       -1    1    3    3    0  502  0.29606655093E+03  0.15264050355E+04  0.13140922862E+04  0.20357814891E+04  0.50400001928E-02 0.  1.
</event>
<event>
 5   0  0.3427667E-08  0.3200358E+04  0.7818609E-02  0.8188723E-01
        1   -1    0    0  501    0  0.00000000000E+00  0.00000000000E+00  0.16646077593E+04  0.16646077593E+04  0.50400001928E-02 0.  1.
       -1   -1    0    0    0  501  0.00000000000E+00  0.00000000000E+00 -0.15382441110E+04  0.15382441110E+04  0.50400001928E-02 0. -1.
    10030    2    1    2    0    0  0.00000000000E+00  0.00000000000E+00  0.12636364832E+03  0.32028518703E+04  0.32003581568E+04 0.  0.
        2    1    3    3  502    0 -0.98997259485E+03 -0.99584425046E+03  0.83112684057E+03  0.16317240376E+04  0.25500000920E-02 0.  1.
       -2    1    3    3    0  502  0.98997259485E+03  0.99584425046E+03 -0.70476319224E+03  0.15711278328E+04  0.25500000920E-02 0. -1.
</event>
<event>
 5   0  0.3283581E-08  0.3202583E+04  0.7818609E-02  0.8188135E-01
       -1   -1    0    0    0  501  0.00000000000E+00  0.00000000000E+00  0.11320236027E+04  0.11320236027E+04  0.50400001928E-02 0.  1.
        1   -1    0    0  501    0  0.00000000000E+00  0.00000000000E+00 -0.22650886833E+04  0.22650886833E+04  0.50400001928E-02 0. -1.
    10030    2    1    2    0    0  0.00000000000E+00  0.00000000000E+00 -0.11330650807E+04  0.33971122860E+04  0.32025826151E+04 0.  0.
        5    1    3    3  502    0 -0.11566011613E+03  0.67940592688E+03 -0.20997139661E+04  0.22099299775E+04  0.46999998093E+01 0. -1.
       -5    1    3    3    0  502  0.11566011613E+03 -0.67940592688E+03  0.96664888544E+03  0.11871823085E+04  0.46999998093E+01 0.  1.
</event>
<event>
 5   0  0.3283581E-08  0.3218609E+04  0.7818609E-02  0.8183920E-01
        1   -1    0    0  501    0  0.00000000000E+00  0.00000000000E+00  0.20243284650E+04  0.20243284650E+04  0.50400001928E-02 0.  1.
       -1   -1    0    0    0  501  0.00000000000E+00  0.00000000000E+00 -0.12793683190E+04  0.12793683190E+04  0.50400001928E-02 0. -1.
    10030    2    1    2    0    0  0.00000000000E+00  0.00000000000E+00  0.74496014593E+03  0.33036967840E+04  0.32186094547E+04 0.  0.
        5    1    3    3  502    0 -0.52623459892E+03 -0.14571639569E+02  0.19334407548E+04  0.20038339323E+04  0.46999998093E+01 0.  1.
       -5    1    3    3    0  502  0.52623459892E+03  0.14571639569E+02 -0.11884806089E+04  0.12998628518E+04  0.46999998093E+01 0. -1.
</event>
<event>
 5   0  0.9329929E-08  0.3199703E+04  0.7818609E-02  0.8188896E-01
        2   -1    0    0  501    0  0.00000000000E+00  0.00000000000E+00  0.19313371034E+04  0.19313371034E+04  0.25500000920E-02 0. -1.
       -2   -1    0    0    0  501  0.00000000000E+00  0.00000000000E+00 -0.13252604736E+04  0.13252604736E+04  0.25500000920E-02 0.  1.
    10030    2    1    2    0    0  0.00000000000E+00  0.00000000000E+00  0.60607662973E+03  0.32565975770E+04  0.31997029389E+04 0.  0.
        1    1    3    3  502    0 -0.33938622785E+03  0.10084339518E+04 -0.91294520421E+03  0.14019953612E+04  0.50400001928E-02 0.  1.
       -1    1    3    3    0  502  0.33938622785E+03 -0.10084339518E+04  0.15190218339E+04  0.18546022158E+04  0.50400001928E-02 0. -1.
</event>
<event>
 5   0  0.3283581E-08  0.3201167E+04  0.7818609E-02  0.8188509E-01
       -1   -1    0    0    0  501  0.00000000000E+00  0.00000000000E+00  0.15433525721E+04  0.15433525721E+04  0.50400001928E-02 0. -1.
        1   -1    0    0  501    0  0.00000000000E+00  0.00000000000E+00 -0.16599369662E+04  0.16599369662E+04  0.50400001928E-02 0.  1.
    10030    2    1    2    0    0  0.00000000000E+00  0.00000000000E+00 -0.11658439413E+03  0.32032895383E+04  0.32011672786E+04 0.  0.
        5    1    3    3  502    0  0.14416675054E+04 -0.50918034829E+03  0.41549405542E+03  0.15844012192E+04  0.46999998093E+01 0. -1.
       -5    1    3    3    0  502 -0.14416675054E+04  0.50918034829E+03 -0.53207844955E+03  0.16188883191E+04  0.46999998093E+01 0.  1.
</event>
<event>
 5   0  0.9353994E-08  0.3200155E+04  0.7818609E-02  0.8188776E-01
        2   -1    0    0  501    0  0.00000000000E+00  0.00000000000E+00  0.25514065801E+04  0.25514065801E+04  0.25500000920E-02 0.  1.
       -2   -1    0    0    0  501  0.00000000000E+00  0.00000000000E+00 -0.10034653309E+04  0.10034653309E+04  0.25500000920E-02 0. -1.
    10030    2    1    2    0    0  0.00000000000E+00  0.00000000000E+00  0.15479412492E+04  0.35548719109E+04  0.32001550263E+04 0.  0.
        2    1    3    3  502    0 -0.14322704637E+04  0.57695706505E+03  0.12399558506E+04  0.19803455879E+04  0.25500000920E-02 0.  1.
       -2    1    3    3    0  502  0.14322704637E+04 -0.57695706505E+03  0.30798539863E+03  0.15745263230E+04  0.25500000920E-02 0. -1.
</event>
<event>
 5   0  0.3427667E-08  0.3200239E+04  0.7818609E-02  0.8188754E-01
        1   -1    0    0  501    0  0.00000000000E+00  0.00000000000E+00  0.28334342230E+04  0.28334342230E+04  0.50400001928E-02 0. -1.
       -1   -1    0    0    0  501  0.00000000000E+00  0.00000000000E+00 -0.90363226181E+03  0.90363226183E+03  0.50400001928E-02 0.  1.
    10030    2    1    2    0    0  0.00000000000E+00  0.00000000000E+00  0.19298019612E+04  0.37370664848E+04  0.32002391009E+04 0.  0.
        2    1    3    3  502    0  0.26464529812E+03 -0.74608624729E+03 -0.65893825363E+03  0.10299909923E+04  0.25500000920E-02 0.  1.
       -2    1    3    3    0  502 -0.26464529812E+03  0.74608624729E+03  0.25887402148E+04  0.27070754925E+04  0.25500000920E-02 0. -1.
</event>
<event>
 5   0  0.9157524E-08  0.3212090E+04  0.7818609E-02  0.8185631E-01
        2   -1    0    0  501    0  0.00000000000E+00  0.00000000000E+00  0.25858397652E+04  0.25858397652E+04  0.25500000920E-02 0. -1.
       -2   -1    0    0    0  501  0.00000000000E+00  0.00000000000E+00 -0.99750214179E+03  0.99750214179E+03  0.25500000920E-02 0.  1.
    10030    2    1    2    0    0  0.00000000000E+00  0.00000000000E+00  0.15883376234E+04  0.35833419070E+04  0.32120901009E+04 0.  0.
        5    1    3    3  502    0 -0.12453320083E+04  0.70191874533E+03  0.16107675876E+04  0.21536332202E+04  0.46999998093E+01 0. -1.
       -5    1    3    3    0  502  0.12453320083E+04 -0.70191874533E+03 -0.22429964181E+02  0.14297086868E+04  0.46999998093E+01 0.  1.
</event>
<event>
 5   0  0.9727083E-08  0.3199606E+04  0.7818609E-02  0.8188921E-01
        2   -1    0    0  501    0  0.00000000000E+00  0.00000000000E+00  0.12680895679E+04  0.12680895679E+04  0.25500000920E-02 0. -1.
       -2   -1    0    0    0  501  0.00000000000E+00  0.00000000000E+00 -0.20182872118E+04  0.20182872118E+04  0.25500000920E-02 0.  1.
    10030    2    1    2    0    0  0.00000000000E+00  0.00000000000E+00 -0.75019764394E+03  0.32863767798E+04  0.31996055747E+04 0.  0.
        4    1    3    3  502    0 -0.66054146510E+03  0.58818934532E+03  0.99412700994E+03  0.13306283695E+04  0.12699999809E+01 0. -1.
       -4    1    3    3    0  502  0.66054146510E+03 -0.58818934532E+03 -0.17443246539E+04  0.19557484102E+04  0.12699999809E+01 0.  1.
</event>
<event>
 5   0  0.9727083E-08  0.3199712E+04  0.7818609E-02  0.8188893E-01
        2   -1    0    0  501    0  0.00000000000E+00  0.00000000000E+00  0.18858490503E+04  0.18858490503E+04  0.25500000920E-02 0. -1.
       -2   -1    0    0    0  501  0.00000000000E+00  0.00000000000E+00 -0.13572348197E+04  0.13572348197E+04  0.25500000920E-02 0.  1.
    10030    2    1    2    0    0  0.00000000000E+00  0.00000000000E+00  0.52861423065E+03  0.32430838700E+04  0.31997124844E+04 0.  0.
        4    1    3    3  502    0 -0.41122398967E+03 -0.15272319383E+04  0.20219597589E+02  0.15817563049E+04  0.12699999809E+01 0.  1.
       -4    1    3    3    0  502  0.41122398967E+03  0.15272319383E+04  0.50839463307E+03  0.16613275652E+04  0.12699999809E+01 0. -1.
</event>
<event>
 5   0  0.3283581E-08  0.3204091E+04  0.7818609E-02  0.8187738E-01
        1   -1    0    0  501    0  0.00000000000E+00  0.00000000000E+00  0.22931847210E+04  0.22931847210E+04  0.50400001928E-02 0.  1.
       -1   -1    0    0    0  501  0.00000000000E+00  0.00000000000E+00 -0.11192073297E+04  0.11192073297E+04  0.50400001928E-02 0. -1.
    10030    2    1    2    0    0  0.00000000000E+00  0.00000000000E+00  0.11739773913E+04  0.34123920507E+04  0.32040906030E+04 0.  0.
        5    1    3    3  502    0 -0.93538751765E+03  0.57268543188E+03 -0.65666368755E+03  0.12783378664E+04  0.46999998093E+01 0. -1.
       -5    1    3    3    0  502  0.93538751765E+03 -0.57268543188E+03  0.18306410788E+04  0.21340541843E+04  0.46999998093E+01 0.  1.
</event>
<event>
 5   0  0.3080500E-08  0.3198582E+04  0.7818609E-02  0.8189192E-01
       -3   -1    0    0    0  501  0.00000000000E+00  0.00000000000E+00  0.11488740284E+04  0.11488740329E+04  0.10100000352E+00 0. -1.
        3   -1    0    0  501    0  0.00000000000E+00  0.00000000000E+00 -0.22262946562E+04  0.22262946585E+04  0.10100000352E+00 0.  1.
    10030    2    1    2    0    0  0.00000000000E+00  0.00000000000E+00 -0.10774206278E+04  0.33751686914E+04  0.31985822619E+04 0.  0.
        1    1    3    3  502    0  0.88996624791E+03 -0.12629947481E+03  0.85709484466E+03  0.12420157215E+04  0.50400001928E-02 0. -1.
       -1    1    3    3    0  502 -0.88996624791E+03  0.12629947481E+03 -0.19345154724E+04  0.21331529699E+04  0.50400001928E-02 0.  1.
</event>
<event>
 5   0  0.3283581E-08  0.3200252E+04  0.7818609E-02  0.8188751E-01
        1   -1    0    0  501    0  0.00000000000E+00  0.00000000000E+00  0.15665903002E+04  0.15665903002E+04  0.50400001928E-02 0. -1.
       -1   -1    0    0    0  501  0.00000000000E+00  0.00000000000E+00 -0.16343795883E+04  0.16343795884E+04  0.50400001928E-02 0.  1.
    10030    2    1    2    0    0  0.00000000000E+00  0.00000000000E+00 -0.67789288167E+02  0.32009698885E+04  0.32002519963E+04 0.  0.
        5    1    3    3  502    0 -0.14895156663E+04 -0.43958978083E+03 -0.41931863046E+03  0.16086473509E+04  0.46999998093E+01 0.  1.
       -5    1    3    3    0  502  0.14895156663E+04  0.43958978083E+03  0.35152934229E+03  0.15923225377E+04  0.46999998093E+01 0. -1.
</event>
<event>
 5   0  0.9727083E-08  0.3199490E+04  0.7818609E-02  0.8188952E-01
       -2   -1    0    0    0  501  0.00000000000E+00  0.00000000000E+00  0.13718672670E+04  0.13718672670E+04  0.25500000920E-02 0.  1.
        2   -1    0    0  501    0  0.00000000000E+00  0.00000000000E+00 -0.18654753686E+04  0.18654753686E+04  0.25500000920E-02 0. -1.
    10030    2    1    2    0    0  0.00000000000E+00  0.00000000000E+00 -0.49360810158E+03  0.32373426356E+04  0.31994903317E+04 0.  0.
        4    1    3    3  502    0 -0.55963564309E+03 -0.13338322200E+04 -0.93817588143E+03  0.17240870168E+04  0.12699999809E+01 0. -1.
       -4    1    3    3    0  502  0.55963564309E+03  0.13338322200E+04  0.44456777985E+03  0.15132556188E+04  0.12699999809E+01 0.  1.
</event>
<event>
 5   0  0.9157524E-08  0.3203054E+04  0.7818609E-02  0.8188011E-01
        2   -1    0    0  501    0  0.00000000000E+00  0.00000000000E+00  0.23019180093E+04  0.23019180093E+04  0.25500000920E-02 0. -1.
       -2   -1    0    0    0  501  0.00000000000E+00  0.00000000000E+00 -0.11142400246E+04  0.11142400246E+04  0.25500000920E-02 0.  1.
    10030    2    1    2    0    0  0.00000000000E+00  0.00000000000E+00  0.11876779847E+04  0.34161580338E+04  0.32030542794E+04 0.  0.
        5    1    3    3  502    0  0.10800059528E+04 -0.36738650898E+03  0.17926703071E+04  0.21248704960E+04  0.46999998093E+01 0. -1.
       -5    1    3    3    0  502 -0.10800059528E+04  0.36738650898E+03 -0.60499232240E+03  0.12912875378E+04  0.46999998093E+01 0.  1.
</event>
<event>
 5   0  0.3270966E-08  0.3200593E+04  0.7818609E-02  0.8188660E-01
        1   -1    0    0  501    0  0.00000000000E+00  0.00000000000E+00  0.12851702736E+04  0.12851702736E+04  0.50400001928E-02 0.  1.
       -1   -1    0    0    0  501  0.00000000000E+00  0.00000000000E+00 -0.19926927702E+04  0.19926927702E+04  0.50400001928E-02 0. -1.
    10030    2    1    2    0    0  0.00000000000E+00  0.00000000000E+00 -0.70752249663E+03  0.32778630438E+04  0.32005933904E+04 0.  0.
        3    1    3    3  502    0  0.92115869432E+03  0.60460405231E+03 -0.15423268471E+04  0.18954818685E+04  0.10100000352E+00 0. -1.
       -3    1    3    3    0  502 -0.92115869432E+03 -0.60460405231E+03  0.83480435047E+03  0.13823811753E+04  0.10100000352E+00 0.  1.
</event>
<event>
 5   0  0.9727083E-08  0.3200923E+04  0.7818609E-02  0.8188573E-01
       -2   -1    0    0    0  501  0.00000000000E+00  0.00000000000E+00  0.16515860765E+04  0.16515860765E+04  0.25500000920E-02 0.  1.
        2   -1    0    0  501    0  0.00000000000E+00  0.00000000000E+00 -0.15509197724E+04  0.15509197724E+04  0.25500000920E-02 0. -1.
    10030    2    1    2    0    0  0.00000000000E+00  0.00000000000E+00  0.10066630405E+03  0.32025058489E+04  0.32009233054E+04 0.  0.
        4    1    3    3  502    0 -0.57196223487E+03 -0.65904368460E+03 -0.12919696443E+04  0.15590595085E+04  0.12699999809E+01 0. -1.
       -4    1    3    3    0  502  0.57196223487E+03  0.65904368460E+03  0.13926359483E+04  0.16434463404E+04  0.12699999809E+01 0.  1.
</event>
<event>
 5   0  0.9329929E-08  0.3197029E+04  0.7818609E-02  0.8189602E-01
        2   -1    0    0  501    0  0.00000000000E+00  0.00000000000E+00  0.14696866832E+04  0.14696866832E+04  0.25500000920E-02 0.  1.
       -2   -1    0    0    0  501  0.00000000000E+00  0.00000000000E+00 -0.17386352514E+04  0.17386352514E+04  0.25500000920E-02 0. -1.
    10030    2    1    2    0    0  0.00000000000E+00  0.00000000000E+00 -0.26894856816E+03  0.32083219346E+04  0.31970292936E+04 0.  0.
        1    1    3    3  502    0  0.10811603757E+02 -0.15533267548E+04 -0.51304433557E+03  0.16358958977E+04  0.50400001928E-02 0. -1.
       -1    1    3    3    0  502 -0.10811603757E+02  0.15533267548E+04  0.24409576740E+03  0.15724260369E+04  0.50400001928E-02 0.  1.
</event>
<event>
 5   0  0.3270966E-08  0.3200548E+04  0.7818609E-02  0.8188672E-01
        1   -1    0    0  501    0  0.00000000000E+00  0.00000000000E+00  0.13885761494E+04  0.13885761494E+04  0.50400001928E-02 0.  1.
       -1   -1    0    0    0  501  0.00000000000E+00  0.00000000000E+00 -0.18442471259E+04  0.18442471259E+04  0.50400001928E-02 0. -1.
    10030    2    1    2    0    0  0.00000000000E+00  0.00000000000E+00 -0.45567097642E+03  0.32328232753E+04  0.32005484359E+04 0.  0.
        3    1    3    3  502    0  0.10633495086E+04 -0.11958617800E+04 -0.23686927627E+03  0.16176849628E+04  0.10100000352E+00 0.  1.
       -3    1    3    3    0  502 -0.10633495086E+04  0.11958617800E+04 -0.21880170015E+03  0.16151383126E+04  0.10100000352E+00 0. -1.
</event>
<event>
 5   0  0.9707721E-08  0.3200072E+04  0.7818609E-02  0.8188798E-01
        2   -1    0    0  501    0  0.00000000000E+00  0.00000000000E+00  0.25490409650E+04  0.25490409650E+04  0.25500000920E-02 0. -1.
       -2   -1    0    0    0  501  0.00000000000E+00  0.00000000000E+00 -0.10043444980E+04  0.10043444980E+04  0.25500000920E-02 0.  1.
    10030    2    1    2    0    0  0.00000000000E+00  0.00000000000E+00  0.15446964670E+04  0.35533854630E+04  0.32000720419E+04 0.  0.
        3    1    3    3  502    0  0.83853362487E+03  0.44477765869E+03  0.22026422434E+04  0.23984575602E+04  0.10100000352E+00 0. -1.
       -3    1    3    3    0  502 -0.83853362487E+03 -0.44477765869E+03 -0.65794577639E+03  0.11549279028E+04  0.10100000352E+00 0.  1.
</event>
<event>
 5   0  0.3270966E-08  0.3203163E+04  0.7818609E-02  0.8187982E-01
        1   -1    0    0  501    0  0.00000000000E+00  0.00000000000E+00  0.15067021999E+04  0.15067021999E+04  0.50400001928E-02 0. -1.
       -1   -1    0    0    0  501  0.00000000000E+00  0.00000000000E+00 -0.17024350674E+04  0.17024350674E+04  0.50400001928E-02 0.  1.
    10030    2    1    2    0    0  0.00000000000E+00  0.00000000000E+00 -0.19573286757E+03  0.32091372673E+04  0.32031626005E+04 0.  0.
        3    1    3    3  502    0 -0.58107510419E+03  0.12355965702E+04 -0.93651530722E+03  0.16557198108E+04  0.10100000352E+00 0.  1.
       -3    1    3    3    0  502  0.58107510419E+03 -0.12355965702E+04  0.74078243965E+03  0.15534174565E+04  0.10100000352E+00 0. -1.
</event>
<event>
 5   0  0.3283581E-08  0.3199211E+04  0.7818609E-02  0.8189026E-01
        1   -1    0    0  501    0  0.00000000000E+00  0.00000000000E+00  0.15004237360E+04  0.15004237360E+04  0.50400001928E-02 0. -1.
       -1   -1    0    0    0  501  0.00000000000E+00  0.00000000000E+00 -0.17053435781E+04  0.17053435781E+04  0.50400001928E-02 0.  1.
    10030    2    1    2    0    0  0.00000000000E+00  0.00000000000E+00 -0.20491984214E+03  0.32057673141E+04  0.31992111419E+04 0.  0.
        5    1    3    3  502    0  0.66729368590E+03 -0.14513036540E+04 -0.17712769477E+02  0.15974664289E+04  0.46999998093E+01 0.  1.
       -5    1    3    3    0  502 -0.66729368590E+03  0.14513036540E+04 -0.18720707266E+03  0.16083008852E+04  0.46999998093E+01 0. -1.
</event>
<event>
 5   0  0.3343140E-08  0.3194946E+04  0.7818609E-02  0.8190153E-01
        1   -1    0    0  501    0  0.00000000000E+00  0.00000000000E+00  0.20638799498E+04  0.20638799498E+04  0.50400001928E-02 0. -1.
       -1   -1    0    0    0  501  0.00000000000E+00  0.00000000000E+00 -0.12364675673E+04  0.12364675673E+04  0.50400001928E-02 0.  1.
    10030    2    1    2    0    0  0.00000000000E+00  0.00000000000E+00  0.82741238247E+03  0.33003475171E+04  0.31949463976E+04 0.  0.
        1    1    3    3  502    0  0.34921658075E+03  0.13198444995E+03 -0.11907731250E+04  0.12479233753E+04  0.50400001928E-02 0.  1.
       -1    1    3    3    0  502 -0.34921658075E+03 -0.13198444995E+03  0.20181855075E+04  0.20524241418E+04  0.50400001928E-02 0. -1.
</event>
<event>
 5   0  0.3343140E-08  0.3199702E+04  0.7818609E-02  0.8188896E-01
       -1   -1    0    0    0  501  0.00000000000E+00  0.00000000000E+00  0.97991159258E+03  0.97991159259E+03  0.50400001928E-02 0. -1.
        1   -1    0    0  501    0  0.00000000000E+00  0.00000000000E+00 -0.26119939556E+04  0.26119939556E+04  0.50400001928E-02 0.  1.
    10030    2    1    2    0    0  0.00000000000E+00  0.00000000000E+00 -0.16320823630E+04  0.35919055482E+04  0.31997019592E+04 0.  0.
        1    1    3    3  502    0 -0.83553810456E+02  0.12711814602E+04 -0.19024709113E+04  0.22896023918E+04  0.50400001928E-02 0.  1.
       -1    1    3    3    0  502  0.83553810456E+02 -0.12711814602E+04  0.27038854830E+03  0.13023031564E+04  0.50400001928E-02 0. -1.
</event>
<event>
 5   0  0.9707721E-08  0.3197212E+04  0.7818609E-02  0.8189554E-01
       -2   -1    0    0    0  501  0.00000000000E+00  0.00000000000E+00  0.12061053385E+04  0.12061053385E+04  0.25500000920E-02 0. -1.
        2   -1    0    0  501    0  0.00000000000E+00  0.00000000000E+00 -0.21188376850E+04  0.21188376851E+04  0.25500000920E-02 0.  1.
    10030    2    1    2    0    0  0.00000000000E+00  0.00000000000E+00 -0.91273234659E+03  0.33249430235E+04  0.31972121877E+04 0.  0.
        3    1    3    3  502    0  0.26202648231E+03  0.31553683387E+02 -0.20960251077E+04  0.21125753891E+04  0.10100000352E+00 0.  1.
       -3    1    3    3    0  502 -0.26202648231E+03 -0.31553683387E+02  0.11832927611E+04  0.12123676344E+04  0.10100000352E+00 0. -1.
</event>
<event>
 5   0  0.3343140E-08  0.3194281E+04  0.7818609E-02  0.8190329E-01
       -1   -1    0    0    0  501  0.00000000000E+00  0.00000000000E+00  0.23256311586E+04  0.23256311587E+04  0.50400001928E-02 0.  1.
        1   -1    0    0  501    0  0.00000000000E+00  0.00000000000E+00 -0.10968453113E+04  0.10968453113E+04  0.50400001928E-02 0. -1.
    10030    2    1    2    0    0  0.00000000000E+00  0.00000000000E+00  0.12287858473E+04  0.34224764700E+04  0.31942809095E+04 0.  0.
        1    1    3    3  502    0 -0.15711250388E+03  0.14105995957E+04 -0.17030859407E+03  0.14295036116E+04  0.50400001928E-02 0. -1.
       -1    1    3    3    0  502  0.15711250388E+03 -0.14105995957E+04  0.13990944414E+04  0.19929728584E+04  0.50400001928E-02 0.  1.
</event>
<event>
 5   0  0.3427667E-08  0.3200663E+04  0.7818609E-02  0.8188642E-01
       -1   -1    0    0    0  501  0.00000000000E+00  0.00000000000E+00  0.14613114814E+04  0.14613114814E+04  0.50400001928E-02 0. -1.
        1   -1    0    0  501    0  0.00000000000E+00  0.00000000000E+00 -0.17525770401E+04  0.17525770401E+04  0.50400001928E-02 0.  1.
    10030    2    1    2    0    0  0.00000000000E+00  0.00000000000E+00 -0.29126555875E+03  0.32138885215E+04  0.32006630256E+04 0.  0.
        2    1    3    3  502    0 -0.16872758864E+02  0.30042953519E+03  0.14326502914E+04  0.14639089634E+04  0.25500000920E-02 0. -1.
       -2    1    3    3    0  502  0.16872758864E+02 -0.30042953519E+03 -0.17239158501E+04  0.17499795582E+04  0.25500000920E-02 0.  1.
</event>
<event>
 5   0  0.3283581E-08  0.3207461E+04  0.7818609E-02  0.8186849E-01
       -1   -1    0    0    0  501  0.00000000000E+00  0.00000000000E+00  0.22762455473E+04  0.22762455473E+04  0.50400001928E-02 0. -1.
        1   -1    0    0  501    0  0.00000000000E+00  0.00000000000E+00 -0.11299098302E+04  0.11299098302E+04  0.50400001928E-02 0.  1.
    10030    2    1    2    0    0  0.00000000000E+00  0.00000000000E+00  0.11463357171E+04  0.34061553775E+04  0.32074614385E+04 0.  0.
        5    1    3    3  502    0 -0.18339010025E+02  0.15301163743E+04  0.63502030030E+02  0.15315505333E+04  0.46999998093E+01 0.  1.
       -5    1    3    3    0  502  0.18339010025E+02 -0.15301163743E+04  0.10828336870E+04  0.18746048442E+04  0.46999998093E+01 0. -1.
</event>
<event>
 5   0  0.9329929E-08  0.3200484E+04  0.7818609E-02  0.8188689E-01
       -2   -1    0    0    0  501  0.00000000000E+00  0.00000000000E+00  0.12577327221E+04  0.12577327221E+04  0.25500000920E-02 0. -1.
        2   -1    0    0  501    0  0.00000000000E+00  0.00000000000E+00 -0.20360247180E+04  0.20360247180E+04  0.25500000920E-02 0.  1.
    10030    2    1    2    0    0  0.00000000000E+00  0.00000000000E+00 -0.77829199591E+03  0.32937574401E+04  0.32004842826E+04 0.  0.
        1    1    3    3  502    0  0.89891659559E+02 -0.15422599175E+04 -0.81859455949E+03  0.17483544311E+04  0.50400001928E-02 0.  1.
       -1    1    3    3    0  502 -0.89891659559E+02  0.15422599175E+04  0.40302563580E+02  0.15454030091E+04  0.50400001928E-02 0. -1.
</event>
<event>
 5   0  0.9707721E-08  0.3199816E+04  0.7818609E-02  0.8188866E-01
       -2   -1    0    0    0  501  0.00000000000E+00  0.00000000000E+00  0.12900123613E+04  0.12900123613E+04  0.25500000920E-02 0. -1.
        2   -1    0    0  501    0  0.00000000000E+00  0.00000000000E+00 -0.19842486107E+04  0.19842486107E+04  0.25500000920E-02 0.  1.
    10030    2    1    2    0    0  0.00000000000E+00  0.00000000000E+00 -0.69423624937E+03  0.32742609720E+04  0.31998157670E+04 0.  0.
        3    1    3    3  502    0 -0.20750618736E+03  0.53113383225E+03  0.11824988726E+04  0.13128082721E+04  0.10100000352E+00 0. -1.
       -3    1    3    3    0  502  0.20750618736E+03 -0.53113383225E+03 -0.18767351220E+04  0.19614526999E+04  0.10100000352E+00 0.  1.
</event>
<event>
 5   0  0.3343140E-08  0.3200630E+04  0.7818609E-02  0.8188651E-01
        1   -1    0    0  501    0  0.00000000000E+00  0.00000000000E+00  0.13517678026E+04  0.13517678026E+04  0.50400001928E-02 0. -1.
       -1   -1    0    0    0  501  0.00000000000E+00  0.00000000000E+00 -0.18945625518E+04  0.18945625518E+04  0.50400001928E-02 0.  1.
    10030    2    1    2    0    0  0.00000000000E+00  0.00000000000E+00 -0.54279474914E+03  0.32463303544E+04  0.32006303489E+04 0.  0.
        1    1    3    3  502    0 -0.14752638042E+03 -0.92651544230E+03  0.10435760957E+04  0.14032982453E+04  0.50400001928E-02 0. -1.
       -1    1    3    3    0  502  0.14752638042E+03  0.92651544230E+03 -0.15863708448E+04  0.18430321091E+04  0.50400001928E-02 0.  1.
</event>
<event>
 5   0  0.3427667E-08  0.3198527E+04  0.7818609E-02  0.8189206E-01
        1   -1    0    0  501    0  0.00000000000E+00  0.00000000000E+00  0.21196282596E+04  0.21196282596E+04  0.50400001928E-02 0.  1.
       -1   -1    0    0    0  501  0.00000000000E+00  0.00000000000E+00 -0.12066476649E+04  0.12066476649E+04  0.50400001928E-02 0. -1.
    10030    2    1    2    0    0  0.00000000000E+00  0.00000000000E+00  0.91298059467E+03  0.33262759245E+04  0.31985274674E+04 0.  0.
        2    1    3    3  502    0 -0.83398370382E+02 -0.42453317511E+03  0.20576128520E+04  0.21026065618E+04  0.25500000920E-02 0.  1.
       -2    1    3    3    0  502  0.83398370382E+02  0.42453317511E+03 -0.11446322573E+04  0.12236693628E+04  0.25500000920E-02 0. -1.
</event>
<event>
 5   0  0.3220147E-08  0.3197853E+04  0.7818609E-02  0.8189385E-01
       -1   -1    0    0    0  501  0.00000000000E+00  0.00000000000E+00  0.91654024240E+03  0.91654024242E+03  0.50400001928E-02 0.  1.
        1   -1    0    0  501    0  0.00000000000E+00  0.00000000000E+00 -0.27893650464E+04  0.27893650464E+04  0.50400001928E-02 0. -1.
    10030    2    1    2    0    0  0.00000000000E+00  0.00000000000E+00 -0.18728248040E+04  0.37059052888E+04  0.31978526019E+04 0.  0.
        4    1    3    3  502    0 -0.13951138811E+04 -0.12031933884E+02 -0.31247067428E+02  0.13955162130E+04  0.12699999809E+01 0.  1.
       -4    1    3    3    0  502  0.13951138811E+04  0.12031933884E+02 -0.18415777366E+04  0.23103890758E+04  0.12699999809E+01 0. -1.
</event>
<event>
 5   0  0.3270966E-08  0.3198826E+04  0.7818609E-02  0.8189127E-01
       -1   -1    0    0    0  501  0.00000000000E+00  0.00000000000E+00  0.16482189605E+04  0.16482189605E+04  0.50400001928E-02 0. -1.
        1   -1    0    0  501    0  0.00000000000E+00  0.00000000000E+00 -0.15520525480E+04  0.15520525480E+04  0.50400001928E-02 0.  1.
    10030    2    1    2    0    0  0.00000000000E+00  0.00000000000E+00  0.96166412494E+02  0.32002715085E+04  0.31988263080E+04 0.  0.
        3    1    3    3  502    0 -0.13984138695E+04  0.41573641575E+03 -0.60774656443E+03  0.15804284275E+04  0.10100000352E+00 0.  1.
       -3    1    3    3    0  502  0.13984138695E+04 -0.41573641575E+03  0.70391297692E+03  0.16198430810E+04  0.10100000352E+00 0. -1.
</event>
<event>
 5   0  0.3343140E-08  0.3190878E+04  0.7818609E-02  0.8191230E-01
       -1   -1    0    0    0  501  0.00000000000E+00  0.00000000000E+00  0.10962732045E+04  0.10962732045E+04  0.50400001928E-02 0. -1.
        1   -1    0    0  501    0  0.00000000000E+00  0.00000000000E+00 -0.23218902315E+04  0.23218902315E+04  0.50400001928E-02 0.  1.
    10030    2    1    2    0    0  0.00000000000E+00  0.00000000000E+00 -0.12256170270E+04  0.34181634360E+04  0.31908782770E+04 0.  0.
        1    1    3    3  502    0  0.12072518211E+04  0.66180625013E+03  0.25083220274E+03  0.13994146155E+04  0.50400001928E-02 0. -1.
       -1    1    3    3    0  502 -0.12072518211E+04 -0.66180625013E+03 -0.14764492297E+04  0.20187488205E+04  0.50400001928E-02 0.  1.
</event>
<event>
 5   0  0.9727083E-08  0.3184598E+04  0.7818609E-02  0.8192897E-01
        2   -1    0    0  501    0  0.00000000000E+00  0.00000000000E+00  0.17790768251E+04  0.17790768251E+04  0.25500000920E-02 0. -1.
       -2   -1    0    0    0  501  0.00000000000E+00  0.00000000000E+00 -0.14251302965E+04  0.14251302965E+04  0.25500000920E-02 0.  1.
    10030    2    1    2    0    0  0.00000000000E+00  0.00000000000E+00  0.35394652864E+03  0.32042071216E+04  0.31845981117E+04 0.  0.
        4    1    3    3  502    0 -0.62447136387E+03  0.42845789370E+03  0.15862669499E+04  0.17577784560E+04  0.12699999809E+01 0. -1.
       -4    1    3    3    0  502  0.62447136387E+03 -0.42845789370E+03 -0.12323204213E+04  0.14464286656E+04  0.12699999809E+01 0.  1.
</event>
<event>
 5   0  0.9727083E-08  0.3198332E+04  0.7818609E-02  0.8189258E-01
        2   -1    0    0  501    0  0.00000000000E+00  0.00000000000E+00  0.25484780347E+04  0.25484780347E+04  0.25500000920E-02 0.  1.
       -2   -1    0    0    0  501  0.00000000000E+00  0.00000000000E+00 -0.10034743375E+04  0.10034743375E+04  0.25500000920E-02 0. -1.
    10030    2    1    2    0    0  0.00000000000E+00  0.00000000000E+00  0.15450036972E+04  0.35519523722E+04  0.31983322576E+04 0.  0.
        4    1    3    3  502    0 -0.77795101507E+03  0.13927226727E+04  0.89640052001E+03  0.18298687740E+04  0.12699999809E+01 0.  1.
       -4    1    3    3    0  502  0.77795101507E+03 -0.13927226727E+04  0.64860317717E+03  0.17220835982E+04  0.12699999809E+01 0. -1.
</event>
<event>
 5   0  0.3343140E-08  0.3199556E+04  0.7818609E-02  0.8188935E-01
       -1   -1    0    0    0  501  0.00000000000E+00  0.00000000000E+00  0.17715682494E+04  0.17715682494E+04  0.50400001928E-02 0. -1.
        1   -1    0    0  501    0  0.00000000000E+00  0.00000000000E+00 -0.14446460431E+04  0.14446460431E+04  0.50400001928E-02 0.  1.
    10030    2    1    2    0    0  0.00000000000E+00  0.00000000000E+00  0.32692220635E+03  0.32162142925E+04  0.31995556326E+04 0.  0.
        1    1    3    3  502    0  0.14044061061E+04 -0.61758123574E+03  0.61917121244E+03  0.16544292320E+04  0.50400001928E-02 0. -1.
       -1    1    3    3    0  502 -0.14044061061E+04  0.61758123574E+03 -0.29224900609E+03  0.15617850605E+04  0.50400001928E-02 0.  1.
</event>
<event>
 5   0  0.3220147E-08  0.3201139E+04  0.7818609E-02  0.8188516E-01
        1   -1    0    0  501    0  0.00000000000E+00  0.00000000000E+00  0.84350362407E+03  0.84350362409E+03  0.50400001928E-02 0.  1.
       -1   -1    0    0    0  501  0.00000000000E+00  0.00000000000E+00 -0.30371218860E+04  0.30371218860E+04  0.50400001928E-02 0. -1.
    10030    2    1    2    0    0  0.00000000000E+00  0.00000000000E+00 -0.21936182620E+04  0.38806255101E+04  0.32011393707E+04 0.  0.
        4    1    3    3  502    0  0.13540847559E+04 -0.39307137691E+03 -0.17854742078E+03  0.14212429166E+04  0.12699999809E+01 0. -1.
       -4    1    3    3    0  502 -0.13540847559E+04  0.39307137691E+03 -0.20150708412E+04  0.24593825935E+04  0.12699999809E+01 0.  1.
</event>
<event>
 5   0  0.9727083E-08  0.3198617E+04  0.7818609E-02  0.8189182E-01
        2   -1    0    0  501    0  0.00000000000E+00  0.00000000000E+00  0.19418017798E+04  0.19418017798E+04  0.25500000920E-02 0.  1.
       -2   -1    0    0    0  501  0.00000000000E+00  0.00000000000E+00 -0.13172240683E+04  0.13172240683E+04  0.25500000920E-02 0. -1.
    10030    2    1    2    0    0  0.00000000000E+00  0.00000000000E+00  0.62457771156E+03  0.32590258481E+04  0.31986172264E+04 0.  0.
        4    1    3    3  502    0 -0.12484840032E+03  0.13352211970E+04 -0.57559499513E+03  0.14593539595E+04  0.12699999809E+01 0. -1.
       -4    1    3    3    0  502  0.12484840032E+03 -0.13352211970E+04  0.12001727067E+04  0.17996718886E+04  0.12699999809E+01 0.  1.
</event>
<event>
 5   0  0.9727083E-08  0.3203697E+04  0.7818609E-02  0.8187841E-01
        2   -1    0    0  501    0  0.00000000000E+00  0.00000000000E+00  0.10531196180E+04  0.10531196180E+04  0.25500000920E-02 0. -1.
       -2   -1    0    0    0  501  0.00000000000E+00  0.00000000000E+00 -0.24364935954E+04  0.24364935954E+04  0.25500000920E-02 0.  1.
    10030    2    1    2    0    0  0.00000000000E+00  0.00000000000E+00 -0.13833739773E+04  0.34896132134E+04  0.32036973668E+04 0.  0.
        4    1    3    3  502    0 -0.28061915581E+03 -0.11906044079E+04 -0.18182174145E+04  0.21913927412E+04  0.12699999809E+01 0.  1.
       -4    1    3    3    0  502  0.28061915581E+03  0.11906044079E+04  0.43484343715E+03  0.12982204722E+04  0.12699999809E+01 0. -1.
</event>
<event>
 5   0  0.9157524E-08  0.3187361E+04  0.7818609E-02  0.8192163E-01
       -2   -1    0    0    0  501  0.00000000000E+00  0.00000000000E+00  0.10637215000E+04  0.10637215000E+04  0.25500000920E-02 0. -1.
        2   -1    0    0  501    0  0.00000000000E+00  0.00000000000E+00 -0.23876714017E+04  0.23876714017E+04  0.25500000920E-02 0.  1.
    10030    2    1    2    0    0  0.00000000000E+00  0.00000000000E+00 -0.13239499017E+04  0.34513929018E+04  0.31873609178E+04 0.  0.
        5    1    3    3  502    0  0.38673252289E+03 -0.15203310071E+04 -0.35795619262E+03  0.16090752442E+04  0.46999998093E+01 0.  1.
       -5    1    3    3    0  502 -0.38673252289E+03  0.15203310071E+04 -0.96599370910E+03  0.18423176576E+04  0.46999998093E+01 0. -1.
</event>
<event>
 5   0  0.9329929E-08  0.3201177E+04  0.7818609E-02  0.8188506E-01
        2   -1    0    0  501    0  0.00000000000E+00  0.00000000000E+00  0.21195505816E+04  0.21195505816E+04  0.25500000920E-02 0. -1.
       -2   -1    0    0    0  501  0.00000000000E+00  0.00000000000E+00 -0.12086921395E+04  0.12086921395E+04  0.25500000920E-02 0.  1.
    10030    2    1    2    0    0  0.00000000000E+00  0.00000000000E+00  0.91085844214E+03  0.33282427211E+04  0.32011773630E+04 0.  0.
        1    1    3    3  502    0 -0.43167137365E+03 -0.33689366038E+02 -0.11466464182E+04  0.12256725324E+04  0.50400001928E-02 0.  1.
       -1    1    3    3    0  502  0.43167137365E+03  0.33689366038E+02  0.20575048604E+04  0.21025701887E+04  0.50400001928E-02 0. -1.
</event>
<event>
 5   0  0.3283581E-08  0.3198616E+04  0.7818609E-02  0.8189183E-01
       -1   -1    0    0    0  501  0.00000000000E+00  0.00000000000E+00  0.14814054222E+04  0.14814054222E+04  0.50400001928E-02 0. -1.
        1   -1    0    0  501    0  0.00000000000E+00  0.00000000000E+00 -0.17265942438E+04  0.17265942438E+04  0.50400001928E-02 0.  1.
    10030    2    1    2    0    0  0.00000000000E+00  0.00000000000E+00 -0.24518882153E+03  0.32079996660E+04  0.31986159974E+04 0.  0.
        5    1    3    3  502    0 -0.60987050433E+03  0.86182670694E+03  0.10822110123E+04  0.15119160261E+04  0.46999998093E+01 0. -1.
       -5    1    3    3    0  502  0.60987050433E+03 -0.86182670694E+03 -0.13273998338E+04  0.16960836399E+04  0.46999998093E+01 0.  1.
</event>
<event>
 5   0  0.9157524E-08  0.3199826E+04  0.7818609E-02  0.8188863E-01
       -2   -1    0    0    0  501  0.00000000000E+00  0.00000000000E+00  0.14309427482E+04  0.14309427482E+04  0.25500000920E-02 0. -1.
        2   -1    0    0  501    0  0.00000000000E+00  0.00000000000E+00 -0.17888361507E+04  0.17888361507E+04  0.25500000920E-02 0.  1.
    10030    2    1    2    0    0  0.00000000000E+00  0.00000000000E+00 -0.35789340254E+03  0.32197788989E+04  0.31998263188E+04 0.  0.
        5    1    3    3  502    0  0.48170096059E+03  0.83683900616E+03 -0.14625832908E+04  0.17525716277E+04  0.46999998093E+01 0.  1.
       -5    1    3    3    0  502 -0.48170096059E+03 -0.83683900616E+03  0.11046898882E+04  0.14672072713E+04  0.46999998093E+01 0. -1.
</event>
<event>
 5   0  0.3427667E-08  0.3200290E+04  0.7818609E-02  0.8188741E-01
        1   -1    0    0  501    0  0.00000000000E+00  0.00000000000E+00  0.16424097868E+04  0.16424097868E+04  0.50400001928E-02 0. -1.
       -1   -1    0    0    0  501  0.00000000000E+00  0.00000000000E+00 -0.15589675587E+04  0.15589675587E+04  0.50400001928E-02 0.  1.
    10030    2    1    2    0    0  0.00000000000E+00  0.00000000000E+00  0.83442228107E+02  0.32013773455E+04  0.32002897217E+04 0.  0.
        2    1    3    3  502    0 -0.15943530951E+04  0.13549656791E+03  0.53660999219E+02  0.16009998796E+04  0.25500000920E-02 0. -1.
       -2    1    3    3    0  502  0.15943530951E+04 -0.13549656791E+03  0.29781228888E+02  0.16003774659E+04  0.25500000920E-02 0.  1.
</event>
<event>
 5   0  0.9157524E-08  0.3200517E+04  0.7818609E-02  0.8188681E-01
        2   -1    0    0  501    0  0.00000000000E+00  0.00000000000E+00  0.12878109000E+04  0.12878109000E+04  0.25500000920E-02 0.  1.
       -2   -1    0    0    0  501  0.00000000000E+00  0.00000000000E+00 -0.19885121853E+04  0.19885121853E+04  0.25500000920E-02 0. -1.
    10030    2    1    2    0    0  0.00000000000E+00  0.00000000000E+00 -0.70070128524E+03  0.32763230853E+04  0.32005172501E+04 0.  0.
        5    1    3    3  502    0  0.89868964748E+02 -0.50704833404E+03  0.12006700883E+04  0.13064475477E+04  0.46999998093E+01 0.  1.
       -5    1    3    3    0  502 -0.89868964748E+02  0.50704833404E+03 -0.19013713735E+04  0.19698755377E+04  0.46999998093E+01 0. -1.
</event>
<event>
 5   0  0.3270966E-08  0.3199767E+04  0.7818609E-02  0.8188879E-01
        1   -1    0    0  501    0  0.00000000000E+00  0.00000000000E+00  0.12127011343E+04  0.12127011343E+04  0.50400001928E-02 0. -1.
       -1   -1    0    0    0  501  0.00000000000E+00  0.00000000000E+00 -0.21106827938E+04  0.21106827938E+04  0.50400001928E-02 0.  1.
    10030    2    1    2    0    0  0.00000000000E+00  0.00000000000E+00 -0.89798165949E+03  0.33233839282E+04  0.31997671280E+04 0.  0.
        3    1    3    3  502    0 -0.11284202224E+04  0.61786950646E+03 -0.14368026680E+04  0.19285997102E+04  0.10100000352E+00 0.  1.
       -3    1    3    3    0  502  0.11284202224E+04 -0.61786950646E+03  0.53882100849E+03  0.13947842180E+04  0.10100000352E+00 0. -1.
</event>
<event>
 5   0  0.3220147E-08  0.3200332E+04  0.7818609E-02  0.8188730E-01
        1   -1    0    0  501    0  0.00000000000E+00  0.00000000000E+00  0.11265597839E+04  0.11265597839E+04  0.50400001928E-02 0. -1.
       -1   -1    0    0    0  501  0.00000000000E+00  0.00000000000E+00 -0.22728762255E+04  0.22728762255E+04  0.50400001928E-02 0.  1.
    10030    2    1    2    0    0  0.00000000000E+00  0.00000000000E+00 -0.11463164416E+04  0.33994360094E+04  0.32003318262E+04 0.  0.
        4    1    3    3  502    0  0.38775872425E+03 -0.12424736173E+04  0.41557484067E+03  0.13663094741E+04  0.12699999809E+01 0. -1.
       -4    1    3    3    0  502 -0.38775872425E+03  0.12424736173E+04 -0.15618912823E+04  0.20331265353E+04  0.12699999809E+01 0.  1.
</event>
<event>
 5   0  0.3270966E-08  0.3201010E+04  0.7818609E-02  0.8188550E-01
       -1   -1    0    0    0  501  0.00000000000E+00  0.00000000000E+00  0.15740689417E+04  0.15740689417E+04  0.50400001928E-02 0. -1.
        1   -1    0    0  501    0  0.00000000000E+00  0.00000000000E+00 -0.16273851923E+04  0.16273851923E+04  0.50400001928E-02 0.  1.
    10030    2    1    2    0    0  0.00000000000E+00  0.00000000000E+00 -0.53316250665E+02  0.32014541340E+04  0.32010101452E+04 0.  0.
        3    1    3    3  502    0 -0.25239975209E+03  0.36772677835E+02  0.15536112250E+04  0.15744096396E+04  0.10100000352E+00 0. -1.
       -3    1    3    3    0  502  0.25239975209E+03 -0.36772677835E+02 -0.16069274756E+04  0.16270444944E+04  0.10100000352E+00 0.  1.
</event>
<event>
 5   0  0.3270966E-08  0.3199882E+04  0.7818609E-02  0.8188848E-01
       -1   -1    0    0    0  501  0.00000000000E+00  0.00000000000E+00  0.11877516162E+04  0.11877516162E+04  0.50400001928E-02 0. -1.
        1   -1    0    0  501    0  0.00000000000E+00  0.00000000000E+00 -0.21551741723E+04  0.21551741723E+04  0.50400001928E-02 0.  1.
    10030    2    1    2    0    0  0.00000000000E+00  0.00000000000E+00 -0.96742255615E+03  0.33429257885E+04  0.31998822518E+04 0.  0.
        3    1    3    3  502    0 -0.58614928946E+03 -0.13138638817E+04  0.24758236845E+03  0.14598309247E+04  0.10100000352E+00 0. -1.
       -3    1    3    3    0  502  0.58614928946E+03  0.13138638817E+04 -0.12150049246E+04  0.18830948639E+04  0.10100000352E+00 0.  1.
</event>
<event>
 5   0  0.9353994E-08  0.3199927E+04  0.7818609E-02  0.8188836E-01
        2   -1    0    0  501    0  0.00000000000E+00  0.00000000000E+00  0.15317097985E+04  0.15317097985E+04  0.25500000920E-02 0.  1.
       -2   -1    0    0    0  501  0.00000000000E+00  0.00000000000E+00 -0.16712584842E+04  0.16712584842E+04  0.25500000920E-02 0. -1.
    10030    2    1    2    0    0  0.00000000000E+00  0.00000000000E+00 -0.13954868574E+03  0.32029682827E+04  0.31999268717E+04 0.  0.
        2    1    3    3  502    0 -0.15782549698E+04 -0.85423969372E+02  0.17885053294E+03  0.15906519159E+04  0.25500000920E-02 0.  1.
       -2    1    3    3    0  502  0.15782549698E+04  0.85423969372E+02 -0.31839921868E+03  0.16123163668E+04  0.25500000920E-02 0. -1.
</event>
<event>
 5   0  0.3283581E-08  0.3198777E+04  0.7818609E-02  0.8189140E-01
       -1   -1    0    0    0  501  0.00000000000E+00  0.00000000000E+00  0.19920677424E+04  0.19920677424E+04  0.50400001928E-02 0. -1.
        1   -1    0    0  501    0  0.00000000000E+00  0.00000000000E+00 -0.12841149295E+04  0.12841149295E+04  0.50400001928E-02 0.  1.
    10030    2    1    2    0    0  0.00000000000E+00  0.00000000000E+00  0.70795281296E+03  0.32761826719E+04  0.31987772217E+04 0.  0.
        5    1    3    3  502    0 -0.10722601521E+04  0.48366203790E+03 -0.75592162767E+03  0.13982526230E+04  0.46999998093E+01 0.  1.
       -5    1    3    3    0  502  0.10722601521E+04 -0.48366203790E+03  0.14638744406E+04  0.18779300489E+04  0.46999998093E+01 0. -1.
</event>
<event>
 5   0  0.3427667E-08  0.3200545E+04  0.7818609E-02  0.8188673E-01
        1   -1    0    0  501    0  0.00000000000E+00  0.00000000000E+00  0.12433853794E+04  0.12433853794E+04  0.50400001928E-02 0.  1.
       -1   -1    0    0    0  501  0.00000000000E+00  0.00000000000E+00 -0.20595960245E+04  0.20595960246E+04  0.50400001928E-02 0. -1.
    10030    2    1    2    0    0  0.00000000000E+00  0.00000000000E+00 -0.81621064513E+03  0.33029814040E+04  0.32005446939E+04 0.  0.
        2    1    3    3  502    0 -0.87839135957E+03 -0.30253497426E+03  0.93658418824E+03  0.13192000352E+04  0.25500000920E-02 0.  1.
       -2    1    3    3    0  502  0.87839135957E+03  0.30253497426E+03 -0.17527948334E+04  0.19837813688E+04  0.25500000920E-02 0. -1.
</event>
<event>
 5   0  0.3270966E-08  0.3200027E+04  0.7818609E-02  0.8188810E-01
        1   -1    0    0  501    0  0.00000000000E+00  0.00000000000E+00  0.19692087868E+04  0.19692087869E+04  0.50400001928E-02 0. -1.
       -1   -1    0    0    0  501  0.00000000000E+00  0.00000000000E+00 -0.13000367336E+04  0.13000367336E+04  0.50400001928E-02 0.  1.
    10030    2    1    2    0    0  0.00000000000E+00  0.00000000000E+00  0.66917205323E+03  0.32692455205E+04  0.32000273493E+04 0.  0.
        3    1    3    3  502    0  0.15487767979E+04  0.37815926811E+03  0.19627013445E+03  0.16063112954E+04  0.10100000352E+00 0.  1.
       -3    1    3    3    0  502 -0.15487767979E+04 -0.37815926811E+03  0.47290191878E+03  0.16629342251E+04  0.10100000352E+00 0. -1.
</event>
<event>
 5   0  0.9329929E-08  0.3200394E+04  0.7818609E-02  0.8188713E-01
       -2   -1    0    0    0  501  0.00000000000E+00  0.00000000000E+00  0.10984247780E+04  0.10984247780E+04  0.25500000920E-02 0. -1.
        2   -1    0    0  501    0  0.00000000000E+00  0.00000000000E+00 -0.23311846962E+04  0.23311846962E+04  0.25500000920E-02 0.  1.
    10030    2    1    2    0    0  0.00000000000E+00  0.00000000000E+00 -0.12327599182E+04  0.34296094742E+04  0.32003943709E+04 0.  0.
        1    1    3    3  502    0  0.46628693122E+03 -0.15260427729E+04 -0.74497886570E+03  0.17610291188E+04  0.50400001928E-02 0.  1.
       -1    1    3    3    0  502 -0.46628693122E+03  0.15260427729E+04 -0.48778105253E+03  0.16685803554E+04  0.50400001928E-02 0. -1.
</event>
<event>
 5   0  0.9353994E-08  0.3200677E+04  0.7818609E-02  0.8188638E-01
       -2   -1    0    0    0  501  0.00000000000E+00  0.00000000000E+00  0.10863084663E+04  0.10863084663E+04  0.25500000920E-02 0. -1.
        2   -1    0    0  501    0  0.00000000000E+00  0.00000000000E+00 -0.23576026360E+04  0.23576026360E+04  0.25500000920E-02 0.  1.
    10030    2    1    2    0    0  0.00000000000E+00  0.00000000000E+00 -0.12712941697E+04  0.34439111023E+04  0.32006772431E+04 0.  0.
        2    1    3    3  502    0 -0.32390585955E+03  0.44766585268E+03  0.98041067697E+03  0.11253998476E+04  0.25500000920E-02 0. -1.
       -2    1    3    3    0  502  0.32390585955E+03 -0.44766585268E+03 -0.22517048466E+04  0.23185112546E+04  0.25500000920E-02 0.  1.
</event>
<event>
 5   0  0.3270966E-08  0.3200240E+04  0.7818609E-02  0.8188754E-01
       -1   -1    0    0    0  501  0.00000000000E+00  0.00000000000E+00  0.10673950415E+04  0.10673950415E+04  0.50400001928E-02 0.  1.
        1   -1    0    0  501    0  0.00000000000E+00  0.00000000000E+00 -0.23987213510E+04  0.23987213510E+04  0.50400001928E-02 0. -1.
    10030    2    1    2    0    0  0.00000000000E+00  0.00000000000E+00 -0.13313263095E+04  0.34661163925E+04  0.32002395385E+04 0.  0.
        3    1    3    3  502    0  0.29708383659E+03  0.14649641004E+04 -0.12840675240E+04  0.19705857093E+04  0.10100000352E+00 0. -1.
       -3    1    3    3    0  502 -0.29708383659E+03 -0.14649641004E+04 -0.47258785518E+02  0.14955306832E+04  0.10100000352E+00 0.  1.
</event>
<event>
 5   0  0.9329929E-08  0.3196943E+04  0.7818609E-02  0.8189625E-01
        2   -1    0    0  501    0  0.00000000000E+00  0.00000000000E+00  0.22152167758E+04  0.22152167758E+04  0.25500000920E-02 0.  1.
       -2   -1    0    0    0  501  0.00000000000E+00  0.00000000000E+00 -0.11534358781E+04  0.11534358781E+04  0.25500000920E-02 0. -1.
    10030    2    1    2    0    0  0.00000000000E+00  0.00000000000E+00  0.10617808977E+04  0.33686526539E+04  0.31969426063E+04 0.  0.
        1    1    3    3  502    0 -0.82326793700E+03  0.71484164044E+03 -0.70079859067E+03  0.12961046762E+04  0.50400001928E-02 0. -1.
       -1    1    3    3    0  502  0.82326793700E+03 -0.71484164044E+03  0.17625794884E+04  0.20725479777E+04  0.50400001928E-02 0.  1.
</event>
<event>
 5   0  0.3343140E-08  0.3199773E+04  0.7818609E-02  0.8188877E-01
        1   -1    0    0  501    0  0.00000000000E+00  0.00000000000E+00  0.85983401309E+03  0.85983401310E+03  0.50400001928E-02 0. -1.
       -1   -1    0    0    0  501  0.00000000000E+00  0.00000000000E+00 -0.29768965342E+04  0.29768965342E+04  0.50400001928E-02 0.  1.
    10030    2    1    2    0    0  0.00000000000E+00  0.00000000000E+00 -0.21170625211E+04  0.38367305473E+04  0.31997730505E+04 0.  0.
        1    1    3    3  502    0 -0.11513715925E+04 -0.42952065783E+03  0.16984598508E+03  0.12405612433E+04  0.50400001928E-02 0. -1.
       -1    1    3    3    0  502  0.11513715925E+04  0.42952065783E+03 -0.22869085062E+04  0.25961693041E+04  0.50400001928E-02 0.  1.
</event>
<event>
 5   0  0.3270966E-08  0.3176993E+04  0.7818609E-02  0.8194920E-01
       -1   -1    0    0    0  501  0.00000000000E+00  0.00000000000E+00  0.17828371200E+04  0.17828371200E+04  0.50400001928E-02 0. -1.
        1   -1    0    0  501    0  0.00000000000E+00  0.00000000000E+00 -0.14153405721E+04  0.14153405721E+04  0.50400001928E-02 0.  1.
    10030    2    1    2    0    0  0.00000000000E+00  0.00000000000E+00  0.36749654787E+03  0.31981776922E+04  0.31769933645E+04 0.  0.
        3    1    3    3  502    0  0.89579915958E+03  0.12386591915E+04  0.61858805478E+03  0.16490554626E+04  0.10100000352E+00 0.  1.
       -3    1    3    3    0  502 -0.89579915958E+03 -0.12386591915E+04 -0.25109150691E+03  0.15491222296E+04  0.10100000352E+00 0. -1.
</event>
<event>
 5   0  0.9727083E-08  0.3197862E+04  0.7818609E-02  0.8189382E-01
       -2   -1    0    0    0  501  0.00000000000E+00  0.00000000000E+00  0.16662350631E+04  0.16662350631E+04  0.25500000920E-02 0.  1.
        2   -1    0    0  501    0  0.00000000000E+00  0.00000000000E+00 -0.15343458744E+04  0.15343458744E+04  0.25500000920E-02 0. -1.
    10030    2    1    2    0    0  0.00000000000E+00  0.00000000000E+00  0.13188918873E+03  0.32005809374E+04  0.31978623452E+04 0.  0.
        4    1    3    3  502    0 -0.74108886750E+03  0.12770097904E+04  0.68015398650E+03  0.16256007421E+04  0.12699999809E+01 0.  1.
       -4    1    3    3    0  502  0.74108886750E+03 -0.12770097904E+04 -0.54826479777E+03  0.15749801954E+04  0.12699999809E+01 0. -1.
</event>
<event>
 5   0  0.9157524E-08  0.3200906E+04  0.7818609E-02  0.8188578E-01
       -2   -1    0    0    0  501  0.00000000000E+00  0.00000000000E+00  0.11541847756E+04  0.11541847756E+04  0.25500000920E-02 0. -1.
        2   -1    0    0  501    0  0.00000000000E+00  0.00000000000E+00 -0.22192719903E+04  0.22192719903E+04  0.25500000920E-02 0.  1.
    10030    2    1    2    0    0  0.00000000000E+00  0.00000000000E+00 -0.10650872147E+04  0.33734567658E+04  0.32009060867E+04 0.  0.
        5    1    3    3  502    0 -0.49027932794E+03 -0.14514557565E+04 -0.10204583298E+04  0.18407756314E+04  0.46999998093E+01 0.  1.
       -5    1    3    3    0  502  0.49027932794E+03  0.14514557565E+04 -0.44628884873E+02  0.15326811344E+04  0.46999998093E+01 0. -1.
</event>
<event>
 5   0  0.9329929E-08  0.3201831E+04  0.7818609E-02  0.8188334E-01
       -2   -1    0    0    0  501  0.00000000000E+00  0.00000000000E+00  0.15201347820E+04  0.15201347820E+04  0.25500000920E-02 0. -1.
        2   -1    0    0  501    0  0.00000000000E+00  0.00000000000E+00 -0.16859891245E+04  0.16859891245E+04  0.25500000920E-02 0.  1.
    10030    2    1    2    0    0  0.00000000000E+00  0.00000000000E+00 -0.16585434251E+03  0.32061239065E+04  0.32018311699E+04 0.  0.
        1    1    3    3  502    0  0.39770464089E+03  0.84642658777E+03  0.12181700235E+04  0.15357555652E+04  0.50400001928E-02 0. -1.
       -1    1    3    3    0  502 -0.39770464089E+03 -0.84642658777E+03 -0.13840243660E+04  0.16703683413E+04  0.50400001928E-02 0.  1.
</event>
<event>
 5   0  0.9157524E-08  0.3198507E+04  0.7818609E-02  0.8189211E-01
       -2   -1    0    0    0  501  0.00000000000E+00  0.00000000000E+00  0.86503049343E+03  0.86503049344E+03  0.25500000920E-02 0.  1.
        2   -1    0    0  501    0  0.00000000000E+00  0.00000000000E+00 -0.29566731139E+04  0.29566731139E+04  0.25500000920E-02 0. -1.
    10030    2    1    2    0    0  0.00000000000E+00  0.00000000000E+00 -0.20916426204E+04  0.38217036073E+04  0.31985074035E+04 0.  0.
        5    1    3    3  502    0 -0.47863263208E+03  0.14199205600E+03 -0.28611675566E+04  0.29044023167E+04  0.46999998093E+01 0. -1.
       -5    1    3    3    0  502  0.47863263208E+03 -0.14199205600E+03  0.76952493612E+03  0.91730129062E+03  0.46999998093E+01 0.  1.
</event>
<event>
 5   0  0.9727083E-08  0.3200497E+04  0.7818609E-02  0.8188686E-01
        2   -1    0    0  501    0  0.00000000000E+00  0.00000000000E+00  0.18202107528E+04  0.18202107528E+04  0.25500000920E-02 0.  1.
       -2   -1    0    0    0  501  0.00000000000E+00  0.00000000000E+00 -0.14068673214E+04  0.14068673214E+04  0.25500000920E-02 0. -1.
    10030    2    1    2    0    0  0.00000000000E+00  0.00000000000E+00  0.41334343139E+03  0.32270780742E+04  0.32004968528E+04 0.  0.
        4    1    3    3  502    0 -0.12557098964E+04  0.23912458623E+03 -0.76403127955E+03  0.14892056005E+04  0.12699999809E+01 0. -1.
       -4    1    3    3    0  502  0.12557098964E+04 -0.23912458623E+03  0.11773747109E+04  0.17378724736E+04  0.12699999809E+01 0.  1.
</event>
<event>
 5   0  0.3270966E-08  0.3200400E+04  0.7818609E-02  0.8188711E-01
        1   -1    0    0  501    0  0.00000000000E+00  0.00000000000E+00  0.17509827768E+04  0.17509827768E+04  0.50400001928E-02 0.  1.
       -1   -1    0    0    0  501  0.00000000000E+00  0.00000000000E+00 -0.14624019067E+04  0.14624019067E+04  0.50400001928E-02 0. -1.
    10030    2    1    2    0    0  0.00000000000E+00  0.00000000000E+00  0.28858087011E+03  0.32133846836E+04  0.32004003196E+04 0.  0.
        3    1    3    3  502    0 -0.20155457471E+02  0.65846620522E+03  0.16085129944E+04  0.17381881513E+04  0.10100000352E+00 0.  1.
       -3    1    3    3    0  502  0.20155457471E+02 -0.65846620522E+03 -0.13199321243E+04  0.14751965323E+04  0.10100000352E+00 0. -1.
</event>
<event>
 5   0  0.3270966E-08  0.3198399E+04  0.7818609E-02  0.8189240E-01
       -1   -1    0    0    0  501  0.00000000000E+00  0.00000000000E+00  0.14770355351E+04  0.14770355351E+04  0.50400001928E-02 0. -1.
        1   -1    0    0  501    0  0.00000000000E+00  0.00000000000E+00 -0.17314670775E+04  0.17314670775E+04  0.50400001928E-02 0.  1.
    10030    2    1    2    0    0  0.00000000000E+00  0.00000000000E+00 -0.25443154239E+03  0.32085026126E+04  0.31983986001E+04 0.  0.
        3    1    3    3  502    0  0.13763661318E+04  0.28498449856E+03  0.63797731486E+03  0.15435721420E+04  0.10100000352E+00 0. -1.
       -3    1    3    3    0  502 -0.13763661318E+04 -0.28498449856E+03 -0.89240885726E+03  0.16649304706E+04  0.10100000352E+00 0.  1.
</event>
<event>
 5   0  0.9707721E-08  0.3198924E+04  0.7818609E-02  0.8189101E-01
       -2   -1    0    0    0  501  0.00000000000E+00  0.00000000000E+00  0.12138420786E+04  0.12138420786E+04  0.25500000920E-02 0.  1.
        2   -1    0    0  501    0  0.00000000000E+00  0.00000000000E+00 -0.21075873852E+04  0.21075873852E+04  0.25500000920E-02 0. -1.
    10030    2    1    2    0    0  0.00000000000E+00  0.00000000000E+00 -0.89374530658E+03  0.33214294637E+04  0.31989237268E+04 0.  0.
        3    1    3    3  502    0  0.54450629430E+03  0.39915620845E+03 -0.19523893749E+04  0.20658260005E+04  0.10100000352E+00 0. -1.
       -3    1    3    3    0  502 -0.54450629430E+03 -0.39915620845E+03  0.10586440683E+04  0.12556034632E+04  0.10100000352E+00 0.  1.
</event>
<event>
 5   0  0.9727083E-08  0.3199822E+04  0.7818609E-02  0.8188864E-01
       -2   -1    0    0    0  501  0.00000000000E+00  0.00000000000E+00  0.14018263099E+04  0.14018263099E+04  0.25500000920E-02 0. -1.
        2   -1    0    0  501    0  0.00000000000E+00  0.00000000000E+00 -0.18259862890E+04  0.18259862890E+04  0.25500000920E-02 0.  1.
    10030    2    1    2    0    0  0.00000000000E+00  0.00000000000E+00 -0.42415997912E+03  0.32278125990E+04  0.31998222585E+04 0.  0.
        4    1    3    3  502    0 -0.12154585369E+04 -0.10266137889E+04 -0.41967112238E+02  0.15915521286E+04  0.12699999809E+01 0. -1.
       -4    1    3    3    0  502  0.12154585369E+04  0.10266137889E+04 -0.38219286688E+03  0.16362604704E+04  0.12699999809E+01 0.  1.
</event>
<event>
 5   0  0.3427667E-08  0.3207695E+04  0.7818609E-02  0.8186788E-01
        1   -1    0    0  501    0  0.00000000000E+00  0.00000000000E+00  0.91425629358E+03  0.91425629359E+03  0.50400001928E-02 0. -1.
       -1   -1    0    0    0  501  0.00000000000E+00  0.00000000000E+00 -0.28135734473E+04  0.28135734473E+04  0.50400001928E-02 0.  1.
    10030    2    1    2    0    0  0.00000000000E+00  0.00000000000E+00 -0.18993171537E+04  0.37278297409E+04  0.32076952671E+04 0.  0.
        2    1    3    3  502    0 -0.12160174233E+04  0.95506872078E+03 -0.45458643131E+03  0.16116772191E+04  0.25500000920E-02 0. -1.
       -2    1    3    3    0  502  0.12160174233E+04 -0.95506872078E+03 -0.14447307224E+04  0.21161525218E+04  0.25500000920E-02 0.  1.
</event>
<event>
 5   0  0.3343140E-08  0.3206557E+04  0.7818609E-02  0.8187088E-01
       -1   -1    0    0    0  501  0.00000000000E+00  0.00000000000E+00  0.99633059354E+03  0.99633059356E+03  0.50400001928E-02 0. -1.
        1   -1    0    0  501    0  0.00000000000E+00  0.00000000000E+00 -0.25799695345E+04  0.25799695345E+04  0.50400001928E-02 0.  1.
    10030    2    1    2    0    0  0.00000000000E+00  0.00000000000E+00 -0.15836389409E+04  0.35763001280E+04  0.32065573924E+04 0.  0.
        1    1    3    3  502    0  0.83710031634E+03 -0.68818909405E+03  0.52602074218E+03  0.12045907977E+04  0.50400001928E-02 0. -1.
       -1    1    3    3    0  502 -0.83710031634E+03  0.68818909405E+03 -0.21096596831E+04  0.23717093303E+04  0.50400001928E-02 0.  1.
</event>
<event>
 5   0  0.3427667E-08  0.3199425E+04  0.7818609E-02  0.8188969E-01
        1   -1    0    0  501    0  0.00000000000E+00  0.00000000000E+00  0.16092723766E+04  0.16092723766E+04  0.50400001928E-02 0.  1.
       -1   -1    0    0    0  501  0.00000000000E+00  0.00000000000E+00 -0.15902094250E+04  0.15902094250E+04  0.50400001928E-02 0. -1.
    10030    2    1    2    0    0  0.00000000000E+00  0.00000000000E+00  0.19062951547E+02  0.31994818016E+04  0.31994250113E+04 0.  0.
        2    1    3    3  502    0 -0.11831510816E+04 -0.67061510815E+03 -0.83280704501E+03  0.15947221323E+04  0.25500000920E-02 0. -1.
       -2    1    3    3    0  502  0.11831510816E+04  0.67061510815E+03  0.85186999655E+03  0.16047596693E+04  0.25500000920E-02 0.  1.
</event>
<event>
 5   0  0.9727083E-08  0.3193715E+04  0.7818609E-02  0.8190479E-01
        2   -1    0    0  501    0  0.00000000000E+00  0.00000000000E+00  0.10992279121E+04  0.10992279121E+04  0.25500000920E-02 0.  1.
       -2   -1    0    0    0  501  0.00000000000E+00  0.00000000000E+00 -0.23197688219E+04  0.23197688219E+04  0.25500000920E-02 0. -1.
    10030    2    1    2    0    0  0.00000000000E+00  0.00000000000E+00 -0.12205409097E+04  0.34189967340E+04  0.31937154781E+04 0.  0.
        4    1    3    3  502    0 -0.82980206343E+03 -0.10320954790E+04 -0.15654890582E+04  0.20504999747E+04  0.12699999809E+01 0. -1.
       -4    1    3    3    0  502  0.82980206343E+03  0.10320954790E+04  0.34494814844E+03  0.13684967593E+04  0.12699999809E+01 0.  1.
</event>
<event>
 5   0  0.9727083E-08  0.3199629E+04  0.7818609E-02  0.8188915E-01
        2   -1    0    0  501    0  0.00000000000E+00  0.00000000000E+00  0.22999536798E+04  0.22999536798E+04  0.25500000920E-02 0.  1.
       -2   -1    0    0    0  501  0.00000000000E+00  0.00000000000E+00 -0.11128079992E+04  0.11128079992E+04  0.25500000920E-02 0. -1.
    10030    2    1    2    0    0  0.00000000000E+00  0.00000000000E+00  0.11871456806E+04  0.34127616790E+04  0.31996292615E+04 0.  0.
        4    1    3    3  502    0  0.12062255393E+02  0.93002220295E+03 -0.79479268437E+03  0.12234311668E+04  0.12699999809E+01 0. -1.
       -4    1    3    3    0  502 -0.12062255393E+02 -0.93002220295E+03  0.19819383650E+04  0.21893305122E+04  0.12699999809E+01 0.  1.
</event>
<event>
 5   0  0.9157524E-08  0.3199656E+04  0.7818609E-02  0.8188908E-01
       -2   -1    0    0    0  501  0.00000000000E+00  0.00000000000E+00  0.17222914452E+04  0.17222914452E+04  0.25500000920E-02 0. -1.
        2   -1    0    0  501    0  0.00000000000E+00  0.00000000000E+00 -0.14860726125E+04  0.14860726125E+04  0.25500000920E-02 0.  1.
    10030    2    1    2    0    0  0.00000000000E+00  0.00000000000E+00  0.23621883264E+03  0.32083640577E+04  0.31996563237E+04 0.  0.
        5    1    3    3  502    0  0.83141355610E+03 -0.91688932428E+03 -0.89830275229E+03  0.15293477234E+04  0.46999998093E+01 0.  1.
       -5    1    3    3    0  502 -0.83141355610E+03  0.91688932428E+03  0.11345215849E+04  0.16790163343E+04  0.46999998093E+01 0. -1.
</event>
<event>
 5   0  0.3270966E-08  0.3199780E+04  0.7818609E-02  0.8188875E-01
       -1   -1    0    0    0  501  0.00000000000E+00  0.00000000000E+00  0.12671119738E+04  0.12671119738E+04  0.50400001928E-02 0.  1.
        1   -1    0    0  501    0  0.00000000000E+00  0.00000000000E+00 -0.20200648883E+04  0.20200648883E+04  0.50400001928E-02 0. -1.
    10030    2    1    2    0    0  0.00000000000E+00  0.00000000000E+00 -0.75295291450E+03  0.32871768622E+04  0.31997802474E+04 0.  0.
        3    1    3    3  502    0  0.59037008359E+03  0.13877685977E+04 -0.92511359533E+03  0.17692579492E+04  0.10100000352E+00 0. -1.
       -3    1    3    3    0  502 -0.59037008359E+03 -0.13877685977E+04  0.17216068084E+03  0.15179189130E+04  0.10100000352E+00 0.  1.
</event>
<event>
 5   0  0.3427667E-08  0.3200661E+04  0.7818609E-02  0.8188643E-01
       -1   -1    0    0    0  501  0.00000000000E+00  0.00000000000E+00  0.13751064366E+04  0.13751064366E+04  0.50400001928E-02 0. -1.
        1   -1    0    0  501    0  0.00000000000E+00  0.00000000000E+00 -0.18624433426E+04  0.18624433426E+04  0.50400001928E-02 0.  1.
    10030    2    1    2    0    0  0.00000000000E+00  0.00000000000E+00 -0.48733690606E+03  0.32375497792E+04  0.32006610743E+04 0.  0.
        2    1    3    3  502    0  0.11742633055E+04 -0.36858993215E+03  0.79101120920E+03  0.14630282232E+04  0.25500000920E-02 0. -1.
       -2    1    3    3    0  502 -0.11742633055E+04  0.36858993215E+03 -0.12783481153E+04  0.17745215560E+04  0.25500000920E-02 0.  1.
</event>
<event>
 5   0  0.9329929E-08  0.3202688E+04  0.7818609E-02  0.8188108E-01
        2   -1    0    0  501    0  0.00000000000E+00  0.00000000000E+00  0.22464153039E+04  0.22464153039E+04  0.25500000920E-02 0.  1.
       -2   -1    0    0    0  501  0.00000000000E+00  0.00000000000E+00 -0.11415087733E+04  0.11415087733E+04  0.25500000920E-02 0. -1.
    10030    2    1    2    0    0  0.00000000000E+00  0.00000000000E+00  0.11049065305E+04  0.33879240772E+04  0.32026881072E+04 0.  0.
        1    1    3    3  502    0  0.10756122732E+03 -0.58618595075E+03 -0.10198221228E+04  0.11811945431E+04  0.50400001928E-02 0. -1.
       -1    1    3    3    0  502 -0.10756122732E+03  0.58618595075E+03  0.21247286533E+04  0.22067295341E+04  0.50400001928E-02 0.  1.
</event>
<event>
 5   0  0.3220147E-08  0.3195193E+04  0.7818609E-02  0.8190088E-01
        1   -1    0    0  501    0  0.00000000000E+00  0.00000000000E+00  0.25449473133E+04  0.25449473133E+04  0.50400001928E-02 0.  1.
       -1   -1    0    0    0  501  0.00000000000E+00  0.00000000000E+00 -0.10028951353E+04  0.10028951353E+04  0.50400001928E-02 0. -1.
    10030    2    1    2    0    0  0.00000000000E+00  0.00000000000E+00  0.15420521781E+04  0.35478424486E+04  0.31951934402E+04 0.  0.
        4    1    3    3  502    0  0.19035289565E+02 -0.83366686731E+03 -0.74207302704E+03  0.11162601750E+04  0.12699999809E+01 0. -1.
       -4    1    3    3    0  502 -0.19035289565E+02  0.83366686731E+03  0.22841252051E+04  0.24315822736E+04  0.12699999809E+01 0.  1.
</event>
<event>
 5   0  0.9727083E-08  0.3201118E+04  0.7818609E-02  0.8188522E-01
       -2   -1    0    0    0  501  0.00000000000E+00  0.00000000000E+00  0.11320009143E+04  0.11320009143E+04  0.25500000920E-02 0.  1.
        2   -1    0    0  501    0  0.00000000000E+00  0.00000000000E+00 -0.22630621480E+04  0.22630621480E+04  0.25500000920E-02 0. -1.
    10030    2    1    2    0    0  0.00000000000E+00  0.00000000000E+00 -0.11310612337E+04  0.33950630624E+04  0.32011175678E+04 0.  0.
        4    1    3    3  502    0  0.31165457006E+03 -0.18799959891E+03 -0.22185885796E+04  0.22482458314E+04  0.12699999809E+01 0. -1.
       -4    1    3    3    0  502 -0.31165457006E+03  0.18799959891E+03  0.10875273459E+04  0.11468172309E+04  0.12699999809E+01 0.  1.
</event>
<event>
 5   0  0.9353994E-08  0.3200393E+04  0.7818609E-02  0.8188713E-01
        2   -1    0    0  501    0  0.00000000000E+00  0.00000000000E+00  0.26691419779E+04  0.26691419779E+04  0.25500000920E-02 0.  1.
       -2   -1    0    0    0  501  0.00000000000E+00  0.00000000000E+00 -0.95934559575E+03  0.95934559575E+03  0.25500000920E-02 0. -1.
    10030    2    1    2    0    0  0.00000000000E+00  0.00000000000E+00  0.17097963821E+04  0.36284875736E+04  0.32003934764E+04 0.  0.
        2    1    3    3  502    0  0.38171701263E+03  0.12172895829E+04  0.19500966561E+04  0.23303173120E+04  0.25500000920E-02 0.  1.
       -2    1    3    3    0  502 -0.38171701263E+03 -0.12172895829E+04 -0.24030027398E+03  0.12981702616E+04  0.25500000920E-02 0. -1.
</event>
<event>
 5   0  0.3220147E-08  0.3199818E+04  0.7818609E-02  0.8188865E-01
        1   -1    0    0  501    0  0.00000000000E+00  0.00000000000E+00  0.26088226307E+04  0.26088226307E+04  0.50400001928E-02 0. -1.
       -1   -1    0    0    0  501  0.00000000000E+00  0.00000000000E+00 -0.98117420759E+03  0.98117420760E+03  0.50400001928E-02 0.  1.
    10030    2    1    2    0    0  0.00000000000E+00  0.00000000000E+00  0.16276484231E+04  0.35899968383E+04  0.31998184182E+04 0.  0.
        4    1    3    3  502    0  0.13099825518E+04 -0.54589083789E+03 -0.14935263823E+02  0.14192518339E+04  0.12699999809E+01 0.  1.
       -4    1    3    3    0  502 -0.13099825518E+04  0.54589083789E+03  0.16425836869E+04  0.21707450044E+04  0.12699999809E+01 0. -1.
</event>
<event>
 5   0  0.9727083E-08  0.3196548E+04  0.7818609E-02  0.8189729E-01
       -2   -1    0    0    0  501  0.00000000000E+00  0.00000000000E+00  0.23634753854E+04  0.23634753854E+04  0.25500000920E-02 0. -1.
        2   -1    0    0  501    0  0.00000000000E+00  0.00000000000E+00 -0.10808150822E+04  0.10808150822E+04  0.25500000920E-02 0.  1.
    10030    2    1    2    0    0  0.00000000000E+00  0.00000000000E+00  0.12826603032E+04  0.34442904676E+04  0.31965480400E+04 0.  0.
        4    1    3    3  502    0  0.51392420071E+03  0.13667005200E+04 -0.59038446996E+02  0.14613266393E+04  0.12699999809E+01 0.  1.
       -4    1    3    3    0  502 -0.51392420071E+03 -0.13667005200E+04  0.13416987502E+04  0.19829638284E+04  0.12699999809E+01 0. -1.
</event>
<event>
 5   0  0.3270966E-08  0.3201360E+04  0.7818609E-02  0.8188458E-01
        1   -1    0    0  501    0  0.00000000000E+00  0.00000000000E+00  0.16574279141E+04  0.16574279142E+04  0.50400001928E-02 0.  1.
       -1   -1    0    0    0  501  0.00000000000E+00  0.00000000000E+00 -0.15458755332E+04  0.15458755332E+04  0.50400001928E-02 0. -1.
    10030    2    1    2    0    0  0.00000000000E+00  0.00000000000E+00  0.11155238096E+03  0.32033034473E+04  0.32013604986E+04 0.  0.
        3    1    3    3  502    0  0.62551243087E+02 -0.10234831599E+04 -0.11740941910E+04  0.15588225095E+04  0.10100000352E+00 0. -1.
       -3    1    3    3    0  502 -0.62551243087E+02  0.10234831599E+04  0.12856465720E+04  0.16444809378E+04  0.10100000352E+00 0.  1.
</event>
<event>
 5   0  0.9157524E-08  0.3201026E+04  0.7818609E-02  0.8188546E-01
        2   -1    0    0  501    0  0.00000000000E+00  0.00000000000E+00  0.91328206530E+03  0.91328206530E+03  0.25500000920E-02 0.  1.
       -2   -1    0    0    0  501  0.00000000000E+00  0.00000000000E+00 -0.28048754342E+04  0.28048754342E+04  0.25500000920E-02 0. -1.
    10030    2    1    2    0    0  0.00000000000E+00  0.00000000000E+00 -0.18915933689E+04  0.37181574995E+04  0.32010263538E+04 0.  0.
        5    1    3    3  502    0  0.67035568855E+02 -0.14774991248E+04 -0.16562665849E+04  0.22205266316E+04  0.46999998093E+01 0. -1.
       -5    1    3    3    0  502 -0.67035568855E+02  0.14774991248E+04 -0.23532678400E+03  0.14976308679E+04  0.46999998093E+01 0.  1.
</event>
<event>
 5   0  0.9157524E-08  0.3200457E+04  0.7818609E-02  0.8188696E-01
       -2   -1    0    0    0  501  0.00000000000E+00  0.00000000000E+00  0.10495050055E+04  0.10495050055E+04  0.25500000920E-02 0. -1.
        2   -1    0    0  501    0  0.00000000000E+00  0.00000000000E+00 -0.24399425321E+04  0.24399425321E+04  0.25500000920E-02 0.  1.
    10030    2    1    2    0    0  0.00000000000E+00  0.00000000000E+00 -0.13904375265E+04  0.34894475376E+04  0.32004574052E+04 0.  0.
        5    1    3    3  502    0 -0.60202236893E+03  0.10728255527E+04  0.42057824703E+03  0.13001129763E+04  0.46999998093E+01 0. -1.
       -5    1    3    3    0  502  0.60202236893E+03 -0.10728255527E+04 -0.18110157736E+04  0.21893345613E+04  0.46999998093E+01 0.  1.
</event>
<event>
 5   0  0.9329929E-08  0.3200531E+04  0.7818609E-02  0.8188677E-01
        2   -1    0    0  501    0  0.00000000000E+00  0.00000000000E+00  0.11640546657E+04  0.11640546657E+04  0.25500000920E-02 0.  1.
       -2   -1    0    0    0  501  0.00000000000E+00  0.00000000000E+00 -0.21999391370E+04  0.21999391370E+04  0.25500000920E-02 0. -1.
    10030    2    1    2    0    0  0.00000000000E+00  0.00000000000E+00 -0.10358844713E+04  0.33639938027E+04  0.32005308414E+04 0.  0.
        1    1    3    3  502    0  0.40061063998E+03 -0.96973572190E+03  0.75206327860E+03  0.12909203811E+04  0.50400001928E-02 0.  1.
       -1    1    3    3    0  502 -0.40061063998E+03  0.96973572190E+03 -0.17879477499E+04  0.20730734216E+04  0.50400001928E-02 0. -1.
</event>
<event>
 5   0  0.3220147E-08  0.3200494E+04  0.7818609E-02  0.8188687E-01
        1   -1    0    0  501    0  0.00000000000E+00  0.00000000000E+00  0.11787041555E+04  0.11787041556E+04  0.50400001928E-02 0.  1.
       -1   -1    0    0    0  501  0.00000000000E+00  0.00000000000E+00 -0.21725466651E+04  0.21725466651E+04  0.50400001928E-02 0. -1.
    10030    2    1    2    0    0  0.00000000000E+00  0.00000000000E+00 -0.99384250953E+03  0.33512508206E+04  0.32004935759E+04 0.  0.
        4    1    3    3  502    0 -0.34876739099E+03  0.22186472965E+03  0.11218375988E+04  0.11955684264E+04  0.12699999809E+01 0.  1.
       -4    1    3    3    0  502  0.34876739099E+03 -0.22186472965E+03 -0.21156801083E+04  0.21556823942E+04  0.12699999809E+01 0. -1.
</event>
<event>
 5   0  0.3270966E-08  0.3199323E+04  0.7818609E-02  0.8188996E-01
       -1   -1    0    0    0  501  0.00000000000E+00  0.00000000000E+00  0.13909143041E+04  0.13909143041E+04  0.50400001928E-02 0. -1.
        1   -1    0    0  501    0  0.00000000000E+00  0.00000000000E+00 -0.18397375857E+04  0.18397375857E+04  0.50400001928E-02 0.  1.
    10030    2    1    2    0    0  0.00000000000E+00  0.00000000000E+00 -0.44882328163E+03  0.32306518898E+04  0.31993232558E+04 0.  0.
        3    1    3    3  502    0 -0.13502130450E+04  0.58524942770E+03  0.40888604662E+03  0.15273440898E+04  0.10100000352E+00 0. -1.
       -3    1    3    3    0  502  0.13502130450E+04 -0.58524942770E+03 -0.85770932825E+03  0.17033078000E+04  0.10100000352E+00 0.  1.
</event>
<event>
 5   0  0.3270966E-08  0.3199331E+04  0.7818609E-02  0.8188994E-01
        1   -1    0    0  501    0  0.00000000000E+00  0.00000000000E+00  0.16706419530E+04  0.16706419530E+04  0.50400001928E-02 0.  1.
       -1   -1    0    0    0  501  0.00000000000E+00  0.00000000000E+00 -0.15317048701E+04  0.15317048701E+04  0.50400001928E-02 0. -1.
    10030    2    1    2    0    0  0.00000000000E+00  0.00000000000E+00  0.13893708294E+03  0.32023468231E+04  0.31993314399E+04 0.  0.
        3    1    3    3  502    0  0.12639075713E+04  0.91059419027E+03  0.43352314652E+03  0.16169682919E+04  0.10100000352E+00 0.  1.
       -3    1    3    3    0  502 -0.12639075713E+04 -0.91059419027E+03 -0.29458606357E+03  0.15853785312E+04  0.10100000352E+00 0. -1.
</event>
<event>
 5   0  0.9727083E-08  0.3199843E+04  0.7818609E-02  0.8188859E-01
        2   -1    0    0  501    0  0.00000000000E+00  0.00000000000E+00  0.19657886932E+04  0.19657886932E+04  0.25500000920E-02 0. -1.
       -2   -1    0    0    0  501  0.00000000000E+00  0.00000000000E+00 -0.13021486719E+04  0.13021486719E+04  0.25500000920E-02 0.  1.
    10030    2    1    2    0    0  0.00000000000E+00  0.00000000000E+00  0.66364002136E+03  0.32679373651E+04  0.31998432062E+04 0.  0.
        4    1    3    3  502    0 -0.31505721298E+03  0.15082479013E+04 -0.10824966455E+03  0.15446010429E+04  0.12699999809E+01 0.  1.
       -4    1    3    3    0  502  0.31505721298E+03 -0.15082479013E+04  0.77188968591E+03  0.17233363221E+04  0.12699999809E+01 0. -1.
</event>
<event>
 5   0  0.3283581E-08  0.3176653E+04  0.7818609E-02  0.8195011E-01
        1   -1    0    0  501    0  0.00000000000E+00  0.00000000000E+00  0.18660335026E+04  0.18660335026E+04  0.50400001928E-02 0. -1.
       -1   -1    0    0    0  501  0.00000000000E+00  0.00000000000E+00 -0.13519481019E+04  0.13519481019E+04  0.50400001928E-02 0.  1.
    10030    2    1    2    0    0  0.00000000000E+00  0.00000000000E+00  0.51408540068E+03  0.32179816045E+04  0.31766526105E+04 0.  0.
        5    1    3    3  502    0 -0.12356319835E+04 -0.48697102681E+03 -0.62539980165E+03  0.14680170917E+04  0.46999998093E+01 0.  1.
       -5    1    3    3    0  502  0.12356319835E+04  0.48697102681E+03  0.11394852023E+04  0.17499645128E+04  0.46999998093E+01 0. -1.
</event>
<event>
 5   0  0.3220147E-08  0.3199394E+04  0.7818609E-02  0.8188977E-01
        1   -1    0    0  501    0  0.00000000000E+00  0.00000000000E+00  0.20170149589E+04  0.20170149589E+04  0.50400001928E-02 0.  1.
       -1   -1    0    0    0  501  0.00000000000E+00  0.00000000000E+00 -0.12687213218E+04  0.12687213218E+04  0.50400001928E-02 0. -1.
    10030    2    1    2    0    0  0.00000000000E+00  0.00000000000E+00  0.74829363709E+03  0.32857362807E+04  0.31993936205E+04 0.  0.
        4    1    3    3  502    0  0.37686134146E+03  0.15278475883E+04  0.66945796083E+03  0.17101223050E+04  0.12699999809E+01 0.  1.
       -4    1    3    3    0  502 -0.37686134146E+03 -0.15278475883E+04  0.78835676257E+02  0.15756139757E+04  0.12699999809E+01 0. -1.
</event>
<event>
 5   0  0.3427667E-08  0.3200581E+04  0.7818609E-02  0.8188664E-01
       -1   -1    0    0    0  501  0.00000000000E+00  0.00000000000E+00  0.12763088399E+04  0.12763088399E+04  0.50400001928E-02 0. -1.
        1   -1    0    0  501    0  0.00000000000E+00  0.00000000000E+00 -0.20065119124E+04  0.20065119124E+04  0.50400001928E-02 0.  1.
    10030    2    1    2    0    0  0.00000000000E+00  0.00000000000E+00 -0.73020307250E+03  0.32828207523E+04  0.32005805043E+04 0.  0.
        2    1    3    3  502    0 -0.51601098500E+03 -0.13457130661E+04  0.34826789145E+03  0.14827344729E+04  0.25500000920E-02 0. -1.
       -2    1    3    3    0  502  0.51601098500E+03  0.13457130661E+04 -0.10784709639E+04  0.18000862794E+04  0.25500000920E-02 0.  1.
</event>
<event>
 5   0  0.9707721E-08  0.3200359E+04  0.7818609E-02  0.8188722E-01
        2   -1    0    0  501    0  0.00000000000E+00  0.00000000000E+00  0.17188563009E+04  0.17188563009E+04  0.25500000920E-02 0.  1.
       -2   -1    0    0    0  501  0.00000000000E+00  0.00000000000E+00 -0.14896964289E+04  0.14896964289E+04  0.25500000920E-02 0. -1.
    10030    2    1    2    0    0  0.00000000000E+00  0.00000000000E+00  0.22915987195E+03  0.32085527298E+04  0.32003587881E+04 0.  0.
        3    1    3    3  502    0 -0.10590656482E+04  0.11995376038E+04  0.12257360794E+03  0.16048472855E+04  0.10100000352E+00 0. -1.
       -3    1    3    3    0  502  0.10590656482E+04 -0.11995376038E+04  0.10658626401E+03  0.16037054443E+04  0.10100000352E+00 0.  1.
</event>
<event>
 5   0  0.9727083E-08  0.3199448E+04  0.7818609E-02  0.8188963E-01
       -2   -1    0    0    0  501  0.00000000000E+00  0.00000000000E+00  0.12503603985E+04  0.12503603985E+04  0.25500000920E-02 0. -1.
        2   -1    0    0  501    0  0.00000000000E+00  0.00000000000E+00 -0.20467035974E+04  0.20467035974E+04  0.25500000920E-02 0.  1.
    10030    2    1    2    0    0  0.00000000000E+00  0.00000000000E+00 -0.79634319887E+03  0.32970639959E+04  0.31994481560E+04 0.  0.
        4    1    3    3  502    0  0.10664195498E+04 -0.93468175664E+03  0.36484788341E+03  0.14642391312E+04  0.12699999809E+01 0. -1.
       -4    1    3    3    0  502 -0.10664195498E+04  0.93468175664E+03 -0.11611910823E+04  0.18328248647E+04  0.12699999809E+01 0.  1.
</event>
<event>
 5   0  0.9329929E-08  0.3199997E+04  0.7818609E-02  0.8188818E-01
       -2   -1    0    0    0  501  0.00000000000E+00  0.00000000000E+00  0.11618688736E+04  0.11618688736E+04  0.25500000920E-02 0.  1.
        2   -1    0    0  501    0  0.00000000000E+00  0.00000000000E+00 -0.22033428331E+04  0.22033428331E+04  0.25500000920E-02 0. -1.
    10030    2    1    2    0    0  0.00000000000E+00  0.00000000000E+00 -0.10414739596E+04  0.33652117067E+04  0.31999971597E+04 0.  0.
        1    1    3    3  502    0  0.34343693064E+03  0.25561046029E+03  0.11005163413E+04  0.11808564055E+04  0.50400001928E-02 0.  1.
       -1    1    3    3    0  502 -0.34343693064E+03 -0.25561046029E+03 -0.21419903009E+04  0.21843553012E+04  0.50400001928E-02 0. -1.
</event>
<event>
 5   0  0.9707721E-08  0.3208040E+04  0.7818609E-02  0.8186697E-01
       -2   -1    0    0    0  501  0.00000000000E+00  0.00000000000E+00  0.14081364706E+04  0.14081364706E+04  0.25500000920E-02 0.  1.
        2   -1    0    0  501    0  0.00000000000E+00  0.00000000000E+00 -0.18271526575E+04  0.18271526575E+04  0.25500000920E-02 0. -1.
    10030    2    1    2    0    0  0.00000000000E+00  0.00000000000E+00 -0.41901618690E+03  0.32352891281E+04  0.32080400835E+04 0.  0.
        3    1    3    3  502    0  0.96567110266E+03 -0.74593686360E+03  0.84045852882E+03  0.14816588784E+04  0.10100000352E+00 0.  1.
       -3    1    3    3    0  502 -0.96567110266E+03  0.74593686360E+03 -0.12594747157E+04  0.17536302497E+04  0.10100000352E+00 0. -1.
</event>
<event>
 5   0  0.3283581E-08  0.3200187E+04  0.7818609E-02  0.8188768E-01
       -1   -1    0    0    0  501  0.00000000000E+00  0.00000000000E+00  0.13636390170E+04  0.13636390170E+04  0.50400001928E-02 0. -1.
        1   -1    0    0  501    0  0.00000000000E+00  0.00000000000E+00 -0.18775495104E+04  0.18775495104E+04  0.50400001928E-02 0.  1.
    10030    2    1    2    0    0  0.00000000000E+00  0.00000000000E+00 -0.51391049343E+03  0.32411885274E+04  0.32001873500E+04 0.  0.
        5    1    3    3  502    0 -0.11901611858E+03  0.27316243239E+03  0.13352856265E+04  0.13681346225E+04  0.46999998093E+01 0. -1.
       -5    1    3    3    0  502  0.11901611858E+03 -0.27316243239E+03 -0.18491961199E+04  0.18730539049E+04  0.46999998093E+01 0.  1.
</event>
<event>
 5   0  0.3220147E-08  0.3200185E+04  0.7818609E-02  0.8188768E-01
        1   -1    0    0  501    0  0.00000000000E+00  0.00000000000E+00  0.17414909723E+04  0.17414909724E+04  0.50400001928E-02 0.  1.
       -1   -1    0    0    0  501  0.00000000000E+00  0.00000000000E+00 -0.14701749630E+04  0.14701749630E+04  0.50400001928E-02 0. -1.
    10030    2    1    2    0    0  0.00000000000E+00  0.00000000000E+00  0.27131600934E+03  0.32116659354E+04  0.32001852608E+04 0.  0.
        4    1    3    3  502    0 -0.46988467488E+03 -0.11562033878E+04 -0.86928189045E+03  0.15209373753E+04  0.12699999809E+01 0. -1.
       -4    1    3    3    0  502  0.46988467488E+03  0.11562033878E+04  0.11405978998E+04  0.16907285600E+04  0.12699999809E+01 0.  1.
</event>
<event>
 5   0  0.3283581E-08  0.3199707E+04  0.7818609E-02  0.8188894E-01
        1   -1    0    0  501    0  0.00000000000E+00  0.00000000000E+00  0.13739702197E+04  0.13739702197E+04  0.50400001928E-02 0. -1.
       -1   -1    0    0    0  501  0.00000000000E+00  0.00000000000E+00 -0.18628727623E+04  0.18628727623E+04  0.50400001928E-02 0.  1.
    10030    2    1    2    0    0  0.00000000000E+00  0.00000000000E+00 -0.48890254258E+03  0.32368429819E+04  0.31997072981E+04 0.  0.
        5    1    3    3  502    0 -0.49634916231E+03  0.10506172930E+02 -0.17829694989E+04  0.18508039320E+04  0.46999998093E+01 0.  1.
       -5    1    3    3    0  502  0.49634916231E+03 -0.10506172930E+02  0.12940669563E+04  0.13860390500E+04  0.46999998093E+01 0. -1.
</event>
<event>
 5   0  0.3343140E-08  0.3200878E+04  0.7818609E-02  0.8188585E-01
       -1   -1    0    0    0  501  0.00000000000E+00  0.00000000000E+00  0.22708426178E+04  0.22708426178E+04  0.50400001928E-02 0. -1.
        1   -1    0    0  501    0  0.00000000000E+00  0.00000000000E+00 -0.11279535870E+04  0.11279535870E+04  0.50400001928E-02 0.  1.
    10030    2    1    2    0    0  0.00000000000E+00  0.00000000000E+00  0.11428890308E+04  0.33987962049E+04  0.32008780523E+04 0.  0.
        1    1    3    3  502    0  0.10161569902E+04 -0.10771834276E+04  0.12160265920E+04  0.19161471337E+04  0.50400001928E-02 0. -1.
       -1    1    3    3    0  502 -0.10161569902E+04  0.10771834276E+04 -0.73137561226E+02  0.14826490712E+04  0.50400001928E-02 0.  1.
</event>
<event>
 5   0  0.9727083E-08  0.3200072E+04  0.7818609E-02  0.8188798E-01
        2   -1    0    0  501    0  0.00000000000E+00  0.00000000000E+00  0.23105775077E+04  0.23105775077E+04  0.25500000920E-02 0. -1.
       -2   -1    0    0    0  501  0.00000000000E+00  0.00000000000E+00 -0.11079982320E+04  0.11079982320E+04  0.25500000920E-02 0.  1.
    10030    2    1    2    0    0  0.00000000000E+00  0.00000000000E+00  0.12025792757E+04  0.34185757396E+04  0.32000723700E+04 0.  0.
        4    1    3    3  502    0 -0.49331517204E+03 -0.40063259895E+03 -0.96739175498E+03  0.11574604783E+04  0.12699999809E+01 0.  1.
       -4    1    3    3    0  502  0.49331517204E+03  0.40063259895E+03  0.21699710307E+04  0.22611152613E+04  0.12699999809E+01 0. -1.
</event>
<event>
 5   0  0.9329929E-08  0.3199967E+04  0.7818609E-02  0.8188826E-01
       -2   -1    0    0    0  501  0.00000000000E+00  0.00000000000E+00  0.16799709076E+04  0.16799709076E+04  0.25500000920E-02 0.  1.
        2   -1    0    0  501    0  0.00000000000E+00  0.00000000000E+00 -0.15238041403E+04  0.15238041403E+04  0.25500000920E-02 0. -1.
    10030    2    1    2    0    0  0.00000000000E+00  0.00000000000E+00  0.15616676726E+03  0.32037750479E+04  0.31999666402E+04 0.  0.
        1    1    3    3  502    0  0.10039396096E+04 -0.42935117658E+03 -0.10927995824E+04  0.15448132897E+04  0.50400001928E-02 0. -1.
       -1    1    3    3    0  502 -0.10039396096E+04  0.42935117658E+03  0.12489663497E+04  0.16589617582E+04  0.50400001928E-02 0.  1.
</event>
<event>
 5   0  0.9353994E-08  0.3197799E+04  0.7818609E-02  0.8189399E-01
        2   -1    0    0  501    0  0.00000000000E+00  0.00000000000E+00  0.18776236418E+04  0.18776236418E+04  0.25500000920E-02 0.  1.
       -2   -1    0    0    0  501  0.00000000000E+00  0.00000000000E+00 -0.13615505316E+04  0.13615505316E+04  0.25500000920E-02 0. -1.
    10030    2    1    2    0    0  0.00000000000E+00  0.00000000000E+00  0.51607311022E+03  0.32391741734E+04  0.31977989103E+04 0.  0.
        2    1    3    3  502    0  0.37862198381E+03  0.10982628925E+04 -0.85478778811E+03  0.14422892049E+04  0.25500000920E-02 0. -1.
       -2    1    3    3    0  502 -0.37862198381E+03 -0.10982628925E+04  0.13708608983E+04  0.17968849686E+04  0.25500000920E-02 0.  1.
</event>
<event>
 5   0  0.3270966E-08  0.3208898E+04  0.7818609E-02  0.8186471E-01
       -1   -1    0    0    0  501  0.00000000000E+00  0.00000000000E+00  0.12239518225E+04  0.12239518225E+04  0.50400001928E-02 0.  1.
        1   -1    0    0  501    0  0.00000000000E+00  0.00000000000E+00 -0.21032330678E+04  0.21032330678E+04  0.50400001928E-02 0. -1.
    10030    2    1    2    0    0  0.00000000000E+00  0.00000000000E+00 -0.87928124523E+03  0.33271848903E+04  0.32088975967E+04 0.  0.
        3    1    3    3  502    0 -0.94867887492E+03 -0.11197699526E+04  0.23262651782E+03  0.14859311766E+04  0.10100000352E+00 0.  1.
       -3    1    3    3    0  502  0.94867887492E+03  0.11197699526E+04 -0.11119077630E+04  0.18412537137E+04  0.10100000352E+00 0. -1.
</event>
<event>
 5   0  0.9707721E-08  0.3200092E+04  0.7818609E-02  0.8188793E-01
        2   -1    0    0  501    0  0.00000000000E+00  0.00000000000E+00  0.26153346864E+04  0.26153346864E+04  0.25500000920E-02 0.  1.
       -2   -1    0    0    0  501  0.00000000000E+00  0.00000000000E+00 -0.97889874522E+03  0.97889874522E+03  0.25500000920E-02 0. -1.
    10030    2    1    2    0    0  0.00000000000E+00  0.00000000000E+00  0.16364359412E+04  0.35942334316E+04  0.32000924005E+04 0.  0.
        3    1    3    3  502    0  0.11979807824E+03  0.75335869904E+03 -0.76151619350E+03  0.10778718997E+04  0.10100000352E+00 0. -1.
       -3    1    3    3    0  502 -0.11979807824E+03 -0.75335869904E+03  0.23979521347E+04  0.25163615320E+04  0.10100000352E+00 0.  1.
</event>
<event>
 5   0  0.9157524E-08  0.3200556E+04  0.7818609E-02  0.8188670E-01
       -2   -1    0    0    0  501  0.00000000000E+00  0.00000000000E+00  0.11368698440E+04  0.11368698440E+04  0.25500000920E-02 0.  1.
        2   -1    0    0  501    0  0.00000000000E+00  0.00000000000E+00 -0.22525796222E+04  0.22525796222E+04  0.25500000920E-02 0. -1.
    10030    2    1    2    0    0  0.00000000000E+00  0.00000000000E+00 -0.11157097782E+04  0.33894494662E+04  0.32005561040E+04 0.  0.
        5    1    3    3  502    0  0.24662555856E+03 -0.78424125180E+02 -0.22302644750E+04  0.22452341143E+04  0.46999998093E+01 0. -1.
       -5    1    3    3    0  502 -0.24662555856E+03  0.78424125180E+02  0.11145546968E+04  0.11442153520E+04  0.46999998093E+01 0.  1.
</event>
<event>
 5   0  0.9329929E-08  0.3202398E+04  0.7818609E-02  0.8188184E-01
       -2   -1    0    0    0  501  0.00000000000E+00  0.00000000000E+00  0.10794530486E+04  0.10794530486E+04  0.25500000920E-02 0. -1.
        2   -1    0    0  501    0  0.00000000000E+00  0.00000000000E+00 -0.23751278657E+04  0.23751278657E+04  0.25500000920E-02 0.  1.
    10030    2    1    2    0    0  0.00000000000E+00  0.00000000000E+00 -0.12956748171E+04  0.34545809143E+04  0.32023984858E+04 0.  0.
        1    1    3    3  502    0  0.11858203788E+04  0.72399252217E+03  0.21077000601E+03  0.14052612350E+04  0.50400001928E-02 0. -1.
       -1    1    3    3    0  502 -0.11858203788E+04 -0.72399252217E+03 -0.15064448232E+04  0.20493196794E+04  0.50400001928E-02 0.  1.
</event>
<event>
 5   0  0.3270966E-08  0.3199918E+04  0.7818609E-02  0.8188839E-01
       -1   -1    0    0    0  501  0.00000000000E+00  0.00000000000E+00  0.12685362436E+04  0.12685362436E+04  0.50400001928E-02 0.  1.
        1   -1    0    0  501    0  0.00000000000E+00  0.00000000000E+00 -0.20179710932E+04  0.20179710932E+04  0.50400001928E-02 0. -1.
    10030    2    1    2    0    0  0.00000000000E+00  0.00000000000E+00 -0.74943484955E+03  0.32865073368E+04  0.31999184179E+04 0.  0.
        3    1    3    3  502    0  0.14492689949E+04  0.41803987459E+03 -0.92275894325E+03  0.17682256739E+04  0.10100000352E+00 0. -1.
       -3    1    3    3    0  502 -0.14492689949E+04 -0.41803987459E+03  0.17332409370E+03  0.15182816629E+04  0.10100000352E+00 0.  1.
</event>
<event>
 5   0  0.3220147E-08  0.3200170E+04  0.7818609E-02  0.8188772E-01
        1   -1    0    0  501    0  0.00000000000E+00  0.00000000000E+00  0.20472245883E+04  0.20472245883E+04  0.50400001928E-02 0. -1.
       -1   -1    0    0    0  501  0.00000000000E+00  0.00000000000E+00 -0.12506064121E+04  0.12506064121E+04  0.50400001928E-02 0.  1.
    10030    2    1    2    0    0  0.00000000000E+00  0.00000000000E+00  0.79661817619E+03  0.32978310004E+04  0.32001701187E+04 0.  0.
        4    1    3    3  502    0  0.84962449554E+03  0.13557817223E+04  0.41507590310E+03  0.16529656621E+04  0.12699999809E+01 0.  1.
       -4    1    3    3    0  502 -0.84962449554E+03 -0.13557817223E+04  0.38154227309E+03  0.16448653383E+04  0.12699999809E+01 0. -1.
</event>
<event>
 5   0  0.3270966E-08  0.3199803E+04  0.7818609E-02  0.8188869E-01
       -1   -1    0    0    0  501  0.00000000000E+00  0.00000000000E+00  0.11021132557E+04  0.11021132557E+04  0.50400001928E-02 0.  1.
        1   -1    0    0  501    0  0.00000000000E+00  0.00000000000E+00 -0.23225238810E+04  0.23225238810E+04  0.50400001928E-02 0. -1.
    10030    2    1    2    0    0  0.00000000000E+00  0.00000000000E+00 -0.12204106254E+04  0.34246371367E+04  0.31998027163E+04 0.  0.
        3    1    3    3  502    0 -0.11912613641E+04  0.57178266147E+03 -0.15756089219E+04  0.20563517536E+04  0.10100000352E+00 0. -1.
       -3    1    3    3    0  502  0.11912613641E+04 -0.57178266147E+03  0.35519829649E+03  0.13682853831E+04  0.10100000352E+00 0.  1.
</event>
<event>
 5   0  0.9727083E-08  0.3200292E+04  0.7818609E-02  0.8188740E-01
       -2   -1    0    0    0  501  0.00000000000E+00  0.00000000000E+00  0.82560782961E+03  0.82560782961E+03  0.25500000920E-02 0.  1.
        2   -1    0    0  501    0  0.00000000000E+00  0.00000000000E+00 -0.31013113329E+04  0.31013113329E+04  0.25500000920E-02 0. -1.
    10030    2    1    2    0    0  0.00000000000E+00  0.00000000000E+00 -0.22757035033E+04  0.39269191625E+04  0.32002918108E+04 0.  0.
        4    1    3    3  502    0 -0.93808591771E+03  0.28093302874E+03  0.41500300021E+03  0.10635589587E+04  0.12699999809E+01 0.  1.
       -4    1    3    3    0  502  0.93808591771E+03 -0.28093302874E+03 -0.26907065035E+04  0.28633602038E+04  0.12699999809E+01 0. -1.
</event>
<event>
 5   0  0.9157524E-08  0.3200172E+04  0.7818609E-02  0.8188772E-01
       -2   -1    0    0    0  501  0.00000000000E+00  0.00000000000E+00  0.12269871674E+04  0.12269871674E+04  0.25500000920E-02 0. -1.
        2   -1    0    0  501    0  0.00000000000E+00  0.00000000000E+00 -0.20866354743E+04  0.20866354743E+04  0.25500000920E-02 0.  1.
    10030    2    1    2    0    0  0.00000000000E+00  0.00000000000E+00 -0.85964830687E+03  0.33136226416E+04  0.32001718391E+04 0.  0.
        5    1    3    3  502    0 -0.37197287360E+03 -0.77392184382E+02 -0.20392433644E+04  0.20743406081E+04  0.46999998093E+01 0.  1.
       -5    1    3    3    0  502  0.37197287360E+03  0.77392184382E+02  0.11795950576E+04  0.12392820336E+04  0.46999998093E+01 0. -1.
</event>
<event>
 5   0  0.9353994E-08  0.3200664E+04  0.7818609E-02  0.8188642E-01
       -2   -1    0    0    0  501  0.00000000000E+00  0.00000000000E+00  0.10657656120E+04  0.10657656120E+04  0.25500000920E-02 0.  1.
        2   -1    0    0  501    0  0.00000000000E+00  0.00000000000E+00 -0.24030258559E+04  0.24030258559E+04  0.25500000920E-02 0. -1.
    10030    2    1    2    0    0  0.00000000000E+00  0.00000000000E+00 -0.13372602440E+04  0.34687914679E+04  0.32006638823E+04 0.  0.
        2    1    3    3  502    0 -0.74613990002E+03 -0.79924107597E+03 -0.19350920219E+04  0.22226318141E+04  0.25500000920E-02 0. -1.
       -2    1    3    3    0  502  0.74613990002E+03  0.79924107597E+03  0.59783177796E+03  0.12461596538E+04  0.25500000920E-02 0.  1.
</event>
<event>
 5   0  0.9707721E-08  0.3193275E+04  0.7818609E-02  0.8190595E-01
       -2   -1    0    0    0  501  0.00000000000E+00  0.00000000000E+00  0.19135735029E+04  0.19135735029E+04  0.25500000920E-02 0.  1.
        2   -1    0    0  501    0  0.00000000000E+00  0.00000000000E+00 -0.13321941944E+04  0.13321941944E+04  0.25500000920E-02 0. -1.
    10030    2    1    2    0    0  0.00000000000E+00  0.00000000000E+00  0.58137930852E+03  0.32457676973E+04  0.31932751282E+04 0.  0.
        3    1    3    3  502    0 -0.18596625584E+03 -0.24486709321E+02 -0.13209563087E+04  0.13342071154E+04  0.10100000352E+00 0. -1.
       -3    1    3    3    0  502  0.18596625584E+03  0.24486709321E+02  0.19023356172E+04  0.19115605818E+04  0.10100000352E+00 0.  1.
</event>
<event>
 5   0  0.9353994E-08  0.3200035E+04  0.7818609E-02  0.8188808E-01
        2   -1    0    0  501    0  0.00000000000E+00  0.00000000000E+00  0.17138155581E+04  0.17138155581E+04  0.25500000920E-02 0. -1.
       -2   -1    0    0    0  501  0.00000000000E+00  0.00000000000E+00 -0.14937754447E+04  0.14937754447E+04  0.25500000920E-02 0.  1.
    10030    2    1    2    0    0  0.00000000000E+00  0.00000000000E+00  0.22004011339E+03  0.32075910028E+04  0.32000347482E+04 0.  0.
        2    1    3    3  502    0 -0.95297727948E+03  0.97094680500E+03  0.95412029123E+03  0.16617006119E+04  0.25500000920E-02 0. -1.
       -2    1    3    3    0  502  0.95297727948E+03 -0.97094680500E+03 -0.73408017784E+03  0.15458903910E+04  0.25500000920E-02 0.  1.
</event>
<event>
 5   0  0.9707721E-08  0.3200370E+04  0.7818609E-02  0.8188719E-01
        2   -1    0    0  501    0  0.00000000000E+00  0.00000000000E+00  0.21982067725E+04  0.21982067725E+04  0.25500000920E-02 0.  1.
       -2   -1    0    0    0  501  0.00000000000E+00  0.00000000000E+00 -0.11648551933E+04  0.11648551933E+04  0.25500000920E-02 0. -1.
    10030    2    1    2    0    0  0.00000000000E+00  0.00000000000E+00  0.10333515792E+04  0.33630619659E+04  0.32003703379E+04 0.  0.
        3    1    3    3  502    0 -0.11478109711E+03  0.39679645158E+03 -0.11078660377E+04  0.11823659721E+04  0.10100000352E+00 0. -1.
       -3    1    3    3    0  502  0.11478109711E+03 -0.39679645158E+03  0.21412176169E+04  0.21806959938E+04  0.10100000352E+00 0.  1.
</event>
<event>
 5   0  0.9707721E-08  0.3201023E+04  0.7818609E-02  0.8188547E-01
       -2   -1    0    0    0  501  0.00000000000E+00  0.00000000000E+00  0.11720168050E+04  0.11720168050E+04  0.25500000920E-02 0. -1.
        2   -1    0    0  501    0  0.00000000000E+00  0.00000000000E+00 -0.21856661738E+04  0.21856661738E+04  0.25500000920E-02 0.  1.
    10030    2    1    2    0    0  0.00000000000E+00  0.00000000000E+00 -0.10136493689E+04  0.33576829788E+04  0.32010232650E+04 0.  0.
        3    1    3    3  502    0  0.10782998652E+04 -0.11372208602E+04 -0.84774744213E+03  0.17817625038E+04  0.10100000352E+00 0.  1.
       -3    1    3    3    0  502 -0.10782998652E+04  0.11372208602E+04 -0.16590192674E+03  0.15759204750E+04  0.10100000352E+00 0. -1.
</event>
<event>
 5   0  0.9727083E-08  0.3200547E+04  0.7818609E-02  0.8188673E-01
        2   -1    0    0  501    0  0.00000000000E+00  0.00000000000E+00  0.18715820894E+04  0.18715820894E+04  0.25500000920E-02 0.  1.
       -2   -1    0    0    0  501  0.00000000000E+00  0.00000000000E+00 -0.13682945912E+04  0.13682945912E+04  0.25500000920E-02 0. -1.
    10030    2    1    2    0    0  0.00000000000E+00  0.00000000000E+00  0.50328749819E+03  0.32398766805E+04  0.32005472343E+04 0.  0.
        4    1    3    3  502    0  0.13910399514E+04 -0.29647500902E+03 -0.49084367861E+03  0.15045991849E+04  0.12699999809E+01 0. -1.
       -4    1    3    3    0  502 -0.13910399514E+04  0.29647500902E+03  0.99413117680E+03  0.17352774957E+04  0.12699999809E+01 0.  1.
</event>
<event>
 5   0  0.3283581E-08  0.3200416E+04  0.7818609E-02  0.8188707E-01
       -1   -1    0    0    0  501  0.00000000000E+00  0.00000000000E+00  0.10827718795E+04  0.10827718795E+04  0.50400001928E-02 0.  1.
        1   -1    0    0  501    0  0.00000000000E+00  0.00000000000E+00 -0.23649167831E+04  0.23649167831E+04  0.50400001928E-02 0. -1.
    10030    2    1    2    0    0  0.00000000000E+00  0.00000000000E+00 -0.12821449036E+04  0.34476886627E+04  0.32004158419E+04 0.  0.
        5    1    3    3  502    0  0.99076291842E+02  0.13783554164E+04  0.22808800579E+03  0.14006162907E+04  0.46999998093E+01 0.  1.
       -5    1    3    3    0  502 -0.99076291842E+02 -0.13783554164E+04 -0.15102329094E+04  0.20470723719E+04  0.46999998093E+01 0. -1.
</event>
<event>
 5   0  0.3427667E-08  0.3200348E+04  0.7818609E-02  0.8188725E-01
       -1   -1    0    0    0  501  0.00000000000E+00  0.00000000000E+00  0.13803826926E+04  0.13803826926E+04  0.50400001928E-02 0.  1.
        1   -1    0    0  501    0  0.00000000000E+00  0.00000000000E+00 -0.18549615801E+04  0.18549615802E+04  0.50400001928E-02 0. -1.
    10030    2    1    2    0    0  0.00000000000E+00  0.00000000000E+00 -0.47457888753E+03  0.32353442728E+04  0.32003480190E+04 0.  0.
        2    1    3    3  502    0 -0.62042311816E+03  0.71460649727E+03 -0.15417364579E+04  0.18090159195E+04  0.25500000920E-02 0. -1.
       -2    1    3    3    0  502  0.62042311816E+03 -0.71460649727E+03  0.10671575703E+04  0.14263283533E+04  0.25500000920E-02 0.  1.
</event>
<event>
 5   0  0.3427667E-08  0.3200476E+04  0.7818609E-02  0.8188691E-01
        1   -1    0    0  501    0  0.00000000000E+00  0.00000000000E+00  0.15681299839E+04  0.15681299839E+04  0.50400001928E-02 0. -1.
       -1   -1    0    0    0  501  0.00000000000E+00  0.00000000000E+00 -0.16330039072E+04  0.16330039072E+04  0.50400001928E-02 0.  1.
    10030    2    1    2    0    0  0.00000000000E+00  0.00000000000E+00 -0.64873923382E+02  0.32011338911E+04  0.32004764587E+04 0.  0.
        2    1    3    3  502    0 -0.94018319074E+03 -0.12608662096E+04  0.26263950382E+03  0.15945869495E+04  0.25500000920E-02 0. -1.
       -2    1    3    3    0  502  0.94018319074E+03  0.12608662096E+04 -0.32751342721E+03  0.16065469416E+04  0.25500000920E-02 0.  1.
</event>
<event>
 5   0  0.3270966E-08  0.3199527E+04  0.7818609E-02  0.8188942E-01
       -1   -1    0    0    0  501  0.00000000000E+00  0.00000000000E+00  0.11321882134E+04  0.11321882135E+04  0.50400001928E-02 0.  1.
        1   -1    0    0  501    0  0.00000000000E+00  0.00000000000E+00 -0.22604396308E+04  0.22604396308E+04  0.50400001928E-02 0. -1.
    10030    2    1    2    0    0  0.00000000000E+00  0.00000000000E+00 -0.11282514174E+04  0.33926278443E+04  0.31995269070E+04 0.  0.
        3    1    3    3  502    0  0.28048993308E+03 -0.16475518672E+03  0.10967486478E+04  0.11439739860E+04  0.10100000352E+00 0.  1.
       -3    1    3    3    0  502 -0.28048993308E+03  0.16475518672E+03 -0.22250000651E+04  0.22486538582E+04  0.10100000352E+00 0. -1.
</event>
<event>
 5   0  0.9329929E-08  0.3200622E+04  0.7818609E-02  0.8188653E-01
        2   -1    0    0  501    0  0.00000000000E+00  0.00000000000E+00  0.22755492773E+04  0.22755492773E+04  0.25500000920E-02 0.  1.
       -2   -1    0    0    0  501  0.00000000000E+00  0.00000000000E+00 -0.11254401773E+04  0.11254401773E+04  0.25500000920E-02 0. -1.
    10030    2    1    2    0    0  0.00000000000E+00  0.00000000000E+00  0.11501090999E+04  0.34009894546E+04  0.32006215535E+04 0.  0.
        1    1    3    3  502    0  0.55067947856E+03 -0.40215145845E+03 -0.96334365343E+03  0.11802561918E+04  0.50400001928E-02 0. -1.
       -1    1    3    3    0  502 -0.55067947856E+03  0.40215145845E+03  0.21134527534E+04  0.22207332628E+04  0.50400001928E-02 0.  1.
</event>
<event>
 5   0  0.3270966E-08  0.3197542E+04  0.7818609E-02  0.8189467E-01
        1   -1    0    0  501    0  0.00000000000E+00  0.00000000000E+00  0.16192617919E+04  0.16192617919E+04  0.50400001928E-02 0.  1.
       -1   -1    0    0    0  501  0.00000000000E+00  0.00000000000E+00 -0.15785395212E+04  0.15785395212E+04  0.50400001928E-02 0. -1.
    10030    2    1    2    0    0  0.00000000000E+00  0.00000000000E+00  0.40722270752E+02  0.31978013131E+04  0.31975420146E+04 0.  0.
        3    1    3    3  502    0  0.82818143678E+03  0.48701985149E+02  0.13871512779E+04  0.16163059900E+04  0.10100000352E+00 0.  1.
       -3    1    3    3    0  502 -0.82818143678E+03 -0.48701985149E+02 -0.13464290071E+04  0.15814953231E+04  0.10100000352E+00 0. -1.
</event>
<event>
 5   0  0.9707721E-08  0.3199165E+04  0.7818609E-02  0.8189038E-01
       -2   -1    0    0    0  501  0.00000000000E+00  0.00000000000E+00  0.14513766163E+04  0.14513766163E+04  0.25500000920E-02 0.  1.
        2   -1    0    0  501    0  0.00000000000E+00  0.00000000000E+00 -0.17629223119E+04  0.17629223119E+04  0.25500000920E-02 0. -1.
    10030    2    1    2    0    0  0.00000000000E+00  0.00000000000E+00 -0.31154569553E+03  0.32142989282E+04  0.31991650285E+04 0.  0.
        3    1    3    3  502    0  0.95271629505E+03  0.45639384659E+03 -0.13625795546E+04  0.17241191185E+04  0.10100000352E+00 0. -1.
       -3    1    3    3    0  502 -0.95271629505E+03 -0.45639384659E+03  0.10510338591E+04  0.14901798097E+04  0.10100000352E+00 0.  1.
</event>
<event>
 5   0  0.3343140E-08  0.3199670E+04  0.7818609E-02  0.8188904E-01
        1   -1    0    0  501    0  0.00000000000E+00  0.00000000000E+00  0.20345146072E+04  0.20345146073E+04  0.50400001928E-02 0.  1.
       -1   -1    0    0    0  501  0.00000000000E+00  0.00000000000E+00 -0.12580262704E+04  0.12580262704E+04  0.50400001928E-02 0. -1.
    10030    2    1    2    0    0  0.00000000000E+00  0.00000000000E+00  0.77648833684E+03  0.32925408777E+04  0.31996704977E+04 0.  0.
        1    1    3    3  502    0  0.15578894821E+04  0.33422045132E+02  0.15322118903E+02  0.15583232780E+04  0.50400001928E-02 0. -1.
       -1    1    3    3    0  502 -0.15578894821E+04 -0.33422045132E+02  0.76116621794E+03  0.17342175996E+04  0.50400001928E-02 0.  1.
</event>
<event>
 5   0  0.9727083E-08  0.3199527E+04  0.7818609E-02  0.8188942E-01
        2   -1    0    0  501    0  0.00000000000E+00  0.00000000000E+00  0.18285382811E+04  0.18285382811E+04  0.25500000920E-02 0.  1.
       -2   -1    0    0    0  501  0.00000000000E+00  0.00000000000E+00 -0.13996115871E+04  0.13996115871E+04  0.25500000920E-02 0. -1.
    10030    2    1    2    0    0  0.00000000000E+00  0.00000000000E+00  0.42892669407E+03  0.32281498682E+04  0.31995270686E+04 0.  0.
        4    1    3    3  502    0 -0.70411178378E+03 -0.14360336987E+04  0.25049790376E+03  0.16188628727E+04  0.12699999809E+01 0. -1.
       -4    1    3    3    0  502  0.70411178378E+03  0.14360336987E+04  0.17842879031E+03  0.16092869955E+04  0.12699999809E+01 0.  1.
</event>
<event>
 5   0  0.9727083E-08  0.3201668E+04  0.7818609E-02  0.8188377E-01
        2   -1    0    0  501    0  0.00000000000E+00  0.00000000000E+00  0.13179412264E+04  0.13179412264E+04  0.25500000920E-02 0.  1.
       -2   -1    0    0    0  501  0.00000000000E+00  0.00000000000E+00 -0.19444486230E+04  0.19444486230E+04  0.25500000920E-02 0. -1.
    10030    2    1    2    0    0  0.00000000000E+00  0.00000000000E+00 -0.62650739661E+03  0.32623898495E+04  0.32016676923E+04 0.  0.
        4    1    3    3  502    0  0.15875567073E+03  0.31554053545E+03 -0.19042434667E+04  0.19367276488E+04  0.12699999809E+01 0. -1.
       -4    1    3    3    0  502 -0.15875567073E+03 -0.31554053545E+03  0.12777360701E+04  0.13256622006E+04  0.12699999809E+01 0.  1.
</event>
<event>
 5   0  0.3283581E-08  0.3200100E+04  0.7818609E-02  0.8188791E-01
       -1   -1    0    0    0  501  0.00000000000E+00  0.00000000000E+00  0.11230268275E+04  0.11230268275E+04  0.50400001928E-02 0. -1.
        1   -1    0    0  501    0  0.00000000000E+00  0.00000000000E+00 -0.22796962160E+04  0.22796962160E+04  0.50400001928E-02 0.  1.
    10030    2    1    2    0    0  0.00000000000E+00  0.00000000000E+00 -0.11566693885E+04  0.34027230434E+04  0.32001000041E+04 0.  0.
        5    1    3    3  502    0 -0.10957069134E+04  0.33319640000E+03 -0.17664676820E+04  0.21052371939E+04  0.46999998093E+01 0.  1.
       -5    1    3    3    0  502  0.10957069134E+04 -0.33319640000E+03  0.60979829348E+03  0.12974858496E+04  0.46999998093E+01 0. -1.
</event>
<event>
 5   0  0.3270966E-08  0.3198852E+04  0.7818609E-02  0.8189121E-01
       -1   -1    0    0    0  501  0.00000000000E+00  0.00000000000E+00  0.19900343103E+04  0.19900343103E+04  0.50400001928E-02 0.  1.
        1   -1    0    0  501    0  0.00000000000E+00  0.00000000000E+00 -0.12854868859E+04  0.12854868859E+04  0.50400001928E-02 0. -1.
    10030    2    1    2    0    0  0.00000000000E+00  0.00000000000E+00  0.70454742441E+03  0.32755211962E+04  0.31988516742E+04 0.  0.
        3    1    3    3  502    0  0.92651475683E+03  0.35288537013E+03  0.16374268946E+04  0.19141903051E+04  0.10100000352E+00 0.  1.
       -3    1    3    3    0  502 -0.92651475683E+03 -0.35288537013E+03 -0.93287947014E+03  0.13613308911E+04  0.10100000352E+00 0. -1.
</event>
<event>
 5   0  0.3427667E-08  0.3200275E+04  0.7818609E-02  0.8188745E-01
       -1   -1    0    0    0  501  0.00000000000E+00  0.00000000000E+00  0.12590075725E+04  0.12590075725E+04  0.50400001928E-02 0. -1.
        1   -1    0    0  501    0  0.00000000000E+00  0.00000000000E+00 -0.20336970919E+04  0.20336970919E+04  0.50400001928E-02 0.  1.
    10030    2    1    2    0    0  0.00000000000E+00  0.00000000000E+00 -0.77468951943E+03  0.32927046644E+04  0.32002750125E+04 0.  0.
        2    1    3    3  502    0  0.13359259429E+04 -0.30254790215E+03 -0.12384027108E+04  0.18465845857E+04  0.25500000920E-02 0.  1.
       -2    1    3    3    0  502 -0.13359259429E+04  0.30254790215E+03  0.46371319142E+03  0.14461200787E+04  0.25500000920E-02 0. -1.
</event>
<event>
 5   0  0.9727083E-08  0.3197527E+04  0.7818609E-02  0.8189471E-01
       -2   -1    0    0    0  501  0.00000000000E+00  0.00000000000E+00  0.10135634545E+04  0.10135634545E+04  0.25500000920E-02 0.  1.
        2   -1    0    0  501    0  0.00000000000E+00  0.00000000000E+00 -0.25218399314E+04  0.25218399314E+04  0.25500000920E-02 0. -1.
    10030    2    1    2    0    0  0.00000000000E+00  0.00000000000E+00 -0.15082764769E+04  0.35354033859E+04  0.31975270398E+04 0.  0.
        4    1    3    3  502    0 -0.47784198415E+03  0.66823858789E+03 -0.22706244664E+04  0.24146661990E+04  0.12699999809E+01 0. -1.
       -4    1    3    3    0  502  0.47784198415E+03 -0.66823858789E+03  0.76234798950E+03  0.11207371869E+04  0.12699999809E+01 0.  1.
</event>
<event>
 5   0  0.3270966E-08  0.3198704E+04  0.7818609E-02  0.8189159E-01
        1   -1    0    0  501    0  0.00000000000E+00  0.00000000000E+00  0.16032769921E+04  0.16032769921E+04  0.50400001928E-02 0.  1.
       -1   -1    0    0    0  501  0.00000000000E+00  0.00000000000E+00 -0.15954369216E+04  0.15954369216E+04  0.50400001928E-02 0. -1.
    10030    2    1    2    0    0  0.00000000000E+00  0.00000000000E+00  0.78400704677E+01  0.31987139137E+04  0.31987043056E+04 0.  0.
        3    1    3    3  502    0 -0.22267637319E+03  0.13791038095E+04 -0.77480896577E+03  0.15974482865E+04  0.10100000352E+00 0. -1.
       -3    1    3    3    0  502  0.22267637319E+03 -0.13791038095E+04  0.78264903623E+03  0.16012656271E+04  0.10100000352E+00 0.  1.
</event>
<event>
 5   0  0.9353994E-08  0.3201306E+04  0.7818609E-02  0.8188472E-01
        2   -1    0    0  501    0  0.00000000000E+00  0.00000000000E+00  0.21342518227E+04  0.21342518227E+04  0.25500000920E-02 0.  1.
       -2   -1    0    0    0  501  0.00000000000E+00  0.00000000000E+00 -0.12004626720E+04  0.12004626720E+04  0.25500000920E-02 0. -1.
    10030    2    1    2    0    0  0.00000000000E+00  0.00000000000E+00  0.93378915070E+03  0.33347144947E+04  0.32013057623E+04 0.  0.
        2    1    3    3  502    0 -0.78878030576E+03 -0.10082759668E+03 -0.98015003877E+03  0.12621547740E+04  0.25500000920E-02 0. -1.
       -2    1    3    3    0  502  0.78878030576E+03  0.10082759668E+03  0.19139391895E+04  0.20725597207E+04  0.25500000920E-02 0.  1.
</event>
<event>
 5   0  0.9727083E-08  0.3199586E+04  0.7818609E-02  0.8188927E-01
        2   -1    0    0  501    0  0.00000000000E+00  0.00000000000E+00  0.21274452842E+04  0.21274452842E+04  0.25500000920E-02 0.  1.
       -2   -1    0    0    0  501  0.00000000000E+00  0.00000000000E+00 -0.12030097051E+04  0.12030097051E+04  0.25500000920E-02 0. -1.
    10030    2    1    2    0    0  0.00000000000E+00  0.00000000000E+00  0.92443557902E+03  0.33304549893E+04  0.31995858007E+04 0.  0.
        4    1    3    3  502    0 -0.83943437742E+03 -0.13510146589E+04  0.28360366600E+03  0.16156495087E+04  0.12699999809E+01 0.  1.
       -4    1    3    3    0  502  0.83943437742E+03  0.13510146589E+04  0.64083191302E+03  0.17148054806E+04  0.12699999809E+01 0. -1.
</event>
<event>
 5   0  0.3283581E-08  0.3201558E+04  0.7818609E-02  0.8188406E-01
        1   -1    0    0  501    0  0.00000000000E+00  0.00000000000E+00  0.21191195259E+04  0.21191195259E+04  0.50400001928E-02 0.  1.
       -1   -1    0    0    0  501  0.00000000000E+00  0.00000000000E+00 -0.12092256947E+04  0.12092256947E+04  0.50400001928E-02 0. -1.
    10030    2    1    2    0    0  0.00000000000E+00  0.00000000000E+00  0.90989383123E+03  0.33283452206E+04  0.32015582337E+04 0.  0.
        5    1    3    3  502    0 -0.15833933577E+04 -0.83403977249E+02  0.68361424550E+03  0.17266850539E+04  0.46999998093E+01 0.  1.
       -5    1    3    3    0  502  0.15833933577E+04  0.83403977249E+02  0.22627958573E+03  0.16016601667E+04  0.46999998093E+01 0. -1.
</event>
<event>
 5   0  0.3427667E-08  0.3201854E+04  0.7818609E-02  0.8188328E-01
        1   -1    0    0  501    0  0.00000000000E+00  0.00000000000E+00  0.19852313604E+04  0.19852313604E+04  0.50400001928E-02 0.  1.
       -1   -1    0    0    0  501  0.00000000000E+00  0.00000000000E+00 -0.12910167405E+04  0.12910167405E+04  0.50400001928E-02 0. -1.
    10030    2    1    2    0    0  0.00000000000E+00  0.00000000000E+00  0.69421461988E+03  0.32762481009E+04  0.32018537881E+04 0.  0.
        2    1    3    3  502    0  0.15229911229E+04 -0.41263200426E+03  0.70266443681E+02  0.15794633597E+04  0.25500000920E-02 0.  1.
       -2    1    3    3    0  502 -0.15229911229E+04  0.41263200426E+03  0.62394817620E+03  0.16967847412E+04  0.25500000920E-02 0. -1.
</event>
<event>
 5   0  0.9353994E-08  0.3200712E+04  0.7818609E-02  0.8188629E-01
       -2   -1    0    0    0  501  0.00000000000E+00  0.00000000000E+00  0.21460616244E+04  0.21460616244E+04  0.25500000920E-02 0.  1.
        2   -1    0    0  501    0  0.00000000000E+00  0.00000000000E+00 -0.11934134577E+04  0.11934134577E+04  0.25500000920E-02 0. -1.
    10030    2    1    2    0    0  0.00000000000E+00  0.00000000000E+00  0.95264816664E+03  0.33394750821E+04  0.32007116856E+04 0.  0.
        2    1    3    3  502    0 -0.11405766791E+03  0.43806107485E+03  0.20778747852E+04  0.21266100442E+04  0.25500000920E-02 0.  1.
       -2    1    3    3    0  502  0.11405766791E+03 -0.43806107485E+03 -0.11252266186E+04  0.12128650379E+04  0.25500000920E-02 0. -1.
</event>
<event>
 5   0  0.9707721E-08  0.3200287E+04  0.7818609E-02  0.8188741E-01
       -2   -1    0    0    0  501  0.00000000000E+00  0.00000000000E+00  0.98637100670E+03  0.98637100670E+03  0.25500000920E-02 0. -1.
        2   -1    0    0  501    0  0.00000000000E+00  0.00000000000E+00 -0.25958385174E+04  0.25958385174E+04  0.25500000920E-02 0.  1.
    10030    2    1    2    0    0  0.00000000000E+00  0.00000000000E+00 -0.16094675107E+04  0.35822095241E+04  0.32002873944E+04 0.  0.
        3    1    3    3  502    0 -0.39796666494E+02  0.63274567102E+03  0.83978538859E+03  0.10522311381E+04  0.10100000352E+00 0. -1.
       -3    1    3    3    0  502  0.39796666494E+02 -0.63274567102E+03 -0.24492528993E+04  0.25299783860E+04  0.10100000352E+00 0.  1.
</event>
<event>
 5   0  0.9157524E-08  0.3203039E+04  0.7818609E-02  0.8188015E-01
       -2   -1    0    0    0  501  0.00000000000E+00  0.00000000000E+00  0.14260404631E+04  0.14260404631E+04  0.25500000920E-02 0. -1.
        2   -1    0    0  501    0  0.00000000000E+00  0.00000000000E+00 -0.17985922348E+04  0.17985922348E+04  0.25500000920E-02 0.  1.
    10030    2    1    2    0    0  0.00000000000E+00  0.00000000000E+00 -0.37255177167E+03  0.32246326979E+04  0.32030393713E+04 0.  0.
        5    1    3    3  502    0 -0.11650304706E+04 -0.60301825104E+03 -0.11111180890E+04  0.17191662241E+04  0.46999998093E+01 0.  1.
       -5    1    3    3    0  502  0.11650304706E+04  0.60301825104E+03  0.73856631737E+03  0.15054664738E+04  0.46999998093E+01 0. -1.
</event>
<event>
 5   0  0.3427667E-08  0.3201131E+04  0.7818609E-02  0.8188518E-01
       -1   -1    0    0    0  501  0.00000000000E+00  0.00000000000E+00  0.18007724381E+04  0.18007724381E+04  0.50400001928E-02 0.  1.
        1   -1    0    0  501    0  0.00000000000E+00  0.00000000000E+00 -0.14226174342E+04  0.14226174342E+04  0.50400001928E-02 0. -1.
    10030    2    1    2    0    0  0.00000000000E+00  0.00000000000E+00  0.37815500386E+03  0.32233898723E+04  0.32011312160E+04 0.  0.
        2    1    3    3  502    0  0.85594809339E+03  0.10119113878E+04  0.10926454795E+04  0.17176978603E+04  0.25500000920E-02 0.  1.
       -2    1    3    3    0  502 -0.85594809339E+03 -0.10119113878E+04 -0.71449047565E+03  0.15056920120E+04  0.25500000920E-02 0. -1.
</event>
<event>
 5   0  0.9353994E-08  0.3193490E+04  0.7818609E-02  0.8190538E-01
        2   -1    0    0  501    0  0.00000000000E+00  0.00000000000E+00  0.17123523189E+04  0.17123523189E+04  0.25500000920E-02 0. -1.
       -2   -1    0    0    0  501  0.00000000000E+00  0.00000000000E+00 -0.14889430819E+04  0.14889430819E+04  0.25500000920E-02 0.  1.
    10030    2    1    2    0    0  0.00000000000E+00  0.00000000000E+00  0.22340923698E+03  0.32012954008E+04  0.31934903407E+04 0.  0.
        2    1    3    3  502    0  0.10577931322E+04  0.10269760550E+04 -0.50297345263E+03  0.15577510784E+04  0.25500000920E-02 0.  1.
       -2    1    3    3    0  502 -0.10577931322E+04 -0.10269760550E+04  0.72638268961E+03  0.16435443225E+04  0.25500000920E-02 0. -1.
</event>
<event>
 5   0  0.3427667E-08  0.3199013E+04  0.7818609E-02  0.8189078E-01
        1   -1    0    0  501    0  0.00000000000E+00  0.00000000000E+00  0.20906672080E+04  0.20906672080E+04  0.50400001928E-02 0. -1.
       -1   -1    0    0    0  501  0.00000000000E+00  0.00000000000E+00 -0.12237338605E+04  0.12237338605E+04  0.50400001928E-02 0.  1.
    10030    2    1    2    0    0  0.00000000000E+00  0.00000000000E+00  0.86693334756E+03  0.33144010685E+04  0.31990125061E+04 0.  0.
        2    1    3    3  502    0 -0.36295762886E+03 -0.44377741356E+03 -0.11136269186E+04  0.12525340502E+04  0.25500000920E-02 0.  1.
       -2    1    3    3    0  502  0.36295762886E+03  0.44377741356E+03  0.19805602662E+04  0.20618670183E+04  0.25500000920E-02 0. -1.
</event>
<event>
 5   0  0.9157524E-08  0.3197550E+04  0.7818609E-02  0.8189465E-01
        2   -1    0    0  501    0  0.00000000000E+00  0.00000000000E+00  0.16750232306E+04  0.16750232306E+04  0.25500000920E-02 0.  1.
       -2   -1    0    0    0  501  0.00000000000E+00  0.00000000000E+00 -0.15259972873E+04  0.15259972873E+04  0.25500000920E-02 0. -1.
    10030    2    1    2    0    0  0.00000000000E+00  0.00000000000E+00  0.14902594331E+03  0.32010205180E+04  0.31975496282E+04 0.  0.
        5    1    3    3  502    0 -0.80144342487E+03  0.39942970724E+03  0.14004140044E+04  0.16622385894E+04  0.46999998093E+01 0.  1.
       -5    1    3    3    0  502  0.80144342487E+03 -0.39942970724E+03 -0.12513880611E+04  0.15387819286E+04  0.46999998093E+01 0. -1.
</event>
<event>
 5   0  0.3343140E-08  0.3199432E+04  0.7818609E-02  0.8188967E-01
       -1   -1    0    0    0  501  0.00000000000E+00  0.00000000000E+00  0.13611587858E+04  0.13611587858E+04  0.50400001928E-02 0. -1.
        1   -1    0    0  501    0  0.00000000000E+00  0.00000000000E+00 -0.18800825782E+04  0.18800825782E+04  0.50400001928E-02 0.  1.
    10030    2    1    2    0    0  0.00000000000E+00  0.00000000000E+00 -0.51892379241E+03  0.32412413640E+04  0.31994317742E+04 0.  0.
        1    1    3    3  502    0  0.10919384212E+04  0.84036468243E+03  0.56390027302E+03  0.14888001320E+04  0.50400001928E-02 0. -1.
       -1    1    3    3    0  502 -0.10919384212E+04 -0.84036468243E+03 -0.10828240654E+04  0.17524412320E+04  0.50400001928E-02 0.  1.
</event>
<event>
 5   0  0.3220147E-08  0.3199501E+04  0.7818609E-02  0.8188949E-01
        1   -1    0    0  501    0  0.00000000000E+00  0.00000000000E+00  0.18107563753E+04  0.18107563753E+04  0.50400001928E-02 0. -1.
       -1   -1    0    0    0  501  0.00000000000E+00  0.00000000000E+00 -0.14133332083E+04  0.14133332083E+04  0.50400001928E-02 0.  1.
    10030    2    1    2    0    0  0.00000000000E+00  0.00000000000E+00  0.39742316698E+03  0.32240895836E+04  0.31995012845E+04 0.  0.
        4    1    3    3  502    0  0.11653375420E+04  0.10943788838E+04  0.25852918116E+03  0.16194183149E+04  0.12699999809E+01 0.  1.
       -4    1    3    3    0  502 -0.11653375420E+04 -0.10943788838E+04  0.13889398583E+03  0.16046712687E+04  0.12699999809E+01 0. -1.
</event>
<event>
 5   0  0.3343140E-08  0.3221615E+04  0.7818609E-02  0.8183132E-01
       -1   -1    0    0    0  501  0.00000000000E+00  0.00000000000E+00  0.17379213170E+04  0.17379213170E+04  0.50400001928E-02 0. -1.
        1   -1    0    0  501    0  0.00000000000E+00  0.00000000000E+00 -0.14929905246E+04  0.14929905246E+04  0.50400001928E-02 0.  1.
    10030    2    1    2    0    0  0.00000000000E+00  0.00000000000E+00  0.24493079242E+03  0.32309118416E+04  0.32216145386E+04 0.  0.
        1    1    3    3  502    0 -0.44293261832E+03  0.14125546330E+04  0.75927833839E+03  0.16637317965E+04  0.50400001928E-02 0. -1.
       -1    1    3    3    0  502  0.44293261832E+03 -0.14125546330E+04 -0.51434754597E+03  0.15671800451E+04  0.50400001928E-02 0.  1.
</event>
<event>
 5   0  0.9157524E-08  0.3201834E+04  0.7818609E-02  0.8188333E-01
       -2   -1    0    0    0  501  0.00000000000E+00  0.00000000000E+00  0.17440012760E+04  0.17440012760E+04  0.25500000920E-02 0.  1.
        2   -1    0    0  501    0  0.00000000000E+00  0.00000000000E+00 -0.14695715544E+04  0.14695715544E+04  0.25500000920E-02 0. -1.
    10030    2    1    2    0    0  0.00000000000E+00  0.00000000000E+00  0.27442972157E+03  0.32135728304E+04  0.32018336410E+04 0.  0.
        5    1    3    3  502    0 -0.99905021127E+03 -0.10070573405E+04 -0.60756157846E+03  0.15431846854E+04  0.46999998093E+01 0.  1.
       -5    1    3    3    0  502  0.99905021127E+03  0.10070573405E+04  0.88199130003E+03  0.16703881450E+04  0.46999998093E+01 0. -1.
</event>
<event>
 5   0  0.3283581E-08  0.3198912E+04  0.7818609E-02  0.8189105E-01
       -1   -1    0    0    0  501  0.00000000000E+00  0.00000000000E+00  0.24173032336E+04  0.24173032336E+04  0.50400001928E-02 0.  1.
        1   -1    0    0  501    0  0.00000000000E+00  0.00000000000E+00 -0.10583113940E+04  0.10583113940E+04  0.50400001928E-02 0. -1.
    10030    2    1    2    0    0  0.00000000000E+00  0.00000000000E+00  0.13589918396E+04  0.34756146277E+04  0.31989120369E+04 0.  0.
        5    1    3    3  502    0 -0.54820839968E+03 -0.13965450407E+04  0.12818583995E+04  0.19733356396E+04  0.46999998093E+01 0. -1.
       -5    1    3    3    0  502  0.54820839968E+03  0.13965450407E+04  0.77133440042E+02  0.15022789880E+04  0.46999998093E+01 0.  1.
</event>
<event>
 5   0  0.3270966E-08  0.3196585E+04  0.7818609E-02  0.8189720E-01
       -1   -1    0    0    0  501  0.00000000000E+00  0.00000000000E+00  0.13165620342E+04  0.13165620343E+04  0.50400001928E-02 0.  1.
        1   -1    0    0  501    0  0.00000000000E+00  0.00000000000E+00 -0.19403107966E+04  0.19403107966E+04  0.50400001928E-02 0. -1.
    10030    2    1    2    0    0  0.00000000000E+00  0.00000000000E+00 -0.62374876239E+03  0.32568728309E+04  0.31965853841E+04 0.  0.
        3    1    3    3  502    0 -0.95717542130E+03 -0.12319547023E+04  0.42012427811E+02  0.15606608311E+04  0.10100000352E+00 0.  1.
       -3    1    3    3    0  502  0.95717542130E+03  0.12319547023E+04 -0.66576119020E+03  0.16962119998E+04  0.10100000352E+00 0. -1.
</event>
<event>
 5   0  0.9329929E-08  0.3202225E+04  0.7818609E-02  0.8188230E-01
       -2   -1    0    0    0  501  0.00000000000E+00  0.00000000000E+00  0.12988231189E+04  0.12988231189E+04  0.25500000920E-02 0.  1.
        2   -1    0    0  501    0  0.00000000000E+00  0.00000000000E+00 -0.19737573936E+04  0.19737573936E+04  0.25500000920E-02 0. -1.
    10030    2    1    2    0    0  0.00000000000E+00  0.00000000000E+00 -0.67493427468E+03  0.32725805124E+04  0.32022253099E+04 0.  0.
        1    1    3    3  502    0  0.41738599044E+03  0.11627799710E+04 -0.13783198132E+04  0.18509548437E+04  0.50400001928E-02 0. -1.
       -1    1    3    3    0  502 -0.41738599044E+03 -0.11627799710E+04  0.70338553852E+03  0.14216256687E+04  0.50400001928E-02 0.  1.
</event>
<event>
 5   0  0.3270966E-08  0.3199100E+04  0.7818609E-02  0.8189055E-01
        1   -1    0    0  501    0  0.00000000000E+00  0.00000000000E+00  0.23220534774E+04  0.23220534774E+04  0.50400001928E-02 0.  1.
       -1   -1    0    0    0  501  0.00000000000E+00  0.00000000000E+00 -0.11018527299E+04  0.11018527299E+04  0.50400001928E-02 0. -1.
    10030    2    1    2    0    0  0.00000000000E+00  0.00000000000E+00  0.12202007476E+04  0.34239062073E+04  0.31991004755E+04 0.  0.
        3    1    3    3  502    0 -0.23080480931E+03 -0.86301195332E+03  0.20301778873E+04  0.22180357878E+04  0.10100000352E+00 0.  1.
       -3    1    3    3    0  502  0.23080480931E+03  0.86301195332E+03 -0.80997713974E+03  0.12058704195E+04  0.10100000352E+00 0. -1.
</event>
<event>
 5   0  0.9707721E-08  0.3199398E+04  0.7818609E-02  0.8188976E-01
        2   -1    0    0  501    0  0.00000000000E+00  0.00000000000E+00  0.19862602936E+04  0.19862602936E+04  0.25500000920E-02 0. -1.
       -2   -1    0    0    0  501  0.00000000000E+00  0.00000000000E+00 -0.12883692578E+04  0.12883692578E+04  0.25500000920E-02 0.  1.
    10030    2    1    2    0    0  0.00000000000E+00  0.00000000000E+00  0.69789103576E+03  0.32746295514E+04  0.31993978811E+04 0.  0.
        3    1    3    3  502    0 -0.22524156354E+03  0.10023599761E+04 -0.90609232004E+03  0.13698403506E+04  0.10100000352E+00 0.  1.
       -3    1    3    3    0  502  0.22524156354E+03 -0.10023599761E+04  0.16039833558E+04  0.19047892008E+04  0.10100000352E+00 0. -1.
</event>
<event>
 5   0  0.3343140E-08  0.3199747E+04  0.7818609E-02  0.8188884E-01
        1   -1    0    0  501    0  0.00000000000E+00  0.00000000000E+00  0.24355351452E+04  0.24355351452E+04  0.50400001928E-02 0.  1.
       -1   -1    0    0    0  501  0.00000000000E+00  0.00000000000E+00 -0.10509373368E+04  0.10509373368E+04  0.50400001928E-02 0. -1.
    10030    2    1    2    0    0  0.00000000000E+00  0.00000000000E+00  0.13845978084E+04  0.34864724820E+04  0.31997467520E+04 0.  0.
        1    1    3    3  502    0  0.19971526322E+03  0.76569841131E+03  0.22073704052E+04  0.23449231009E+04  0.50400001928E-02 0.  1.
       -1    1    3    3    0  502 -0.19971526322E+03 -0.76569841131E+03 -0.82277259679E+03  0.11415493811E+04  0.50400001928E-02 0. -1.
</event>
<event>
 5   0  0.3343140E-08  0.3199791E+04  0.7818609E-02  0.8188872E-01
        1   -1    0    0  501    0  0.00000000000E+00  0.00000000000E+00  0.19296673871E+04  0.19296673871E+04  0.50400001928E-02 0. -1.
       -1   -1    0    0    0  501  0.00000000000E+00  0.00000000000E+00 -0.13264801357E+04  0.13264801357E+04  0.50400001928E-02 0.  1.
    10030    2    1    2    0    0  0.00000000000E+00  0.00000000000E+00  0.60318725137E+03  0.32561475228E+04  0.31997909041E+04 0.  0.
        1    1    3    3  502    0  0.62795323924E+03  0.14131962194E+04 -0.11577225236E+03  0.15507585369E+04  0.50400001928E-02 0.  1.
       -1    1    3    3    0  502 -0.62795323924E+03 -0.14131962194E+04  0.71895950373E+03  0.17053889859E+04  0.50400001928E-02 0. -1.
</event>
<event>
 5   0  0.9329929E-08  0.3200261E+04  0.7818609E-02  0.8188748E-01
        2   -1    0    0  501    0  0.00000000000E+00  0.00000000000E+00  0.19826928055E+04  0.19826928055E+04  0.25500000920E-02 0. -1.
       -2   -1    0    0    0  501  0.00000000000E+00  0.00000000000E+00 -0.12913837112E+04  0.12913837112E+04  0.25500000920E-02 0.  1.
    10030    2    1    2    0    0  0.00000000000E+00  0.00000000000E+00  0.69130909437E+03  0.32740765167E+04  0.32002607352E+04 0.  0.
        1    1    3    3  502    0  0.87710525606E+03  0.81889666116E+03  0.14286127200E+04  0.18657008537E+04  0.50400001928E-02 0. -1.
       -1    1    3    3    0  502 -0.87710525606E+03 -0.81889666116E+03 -0.73730362559E+03  0.14083756630E+04  0.50400001928E-02 0.  1.
</event>
<event>
 5   0  0.3270966E-08  0.3200510E+04  0.7818609E-02  0.8188683E-01
        1   -1    0    0  501    0  0.00000000000E+00  0.00000000000E+00  0.14665169225E+04  0.14665169225E+04  0.50400001928E-02 0. -1.
       -1   -1    0    0    0  501  0.00000000000E+00  0.00000000000E+00 -0.17461887837E+04  0.17461887837E+04  0.50400001928E-02 0.  1.
    10030    2    1    2    0    0  0.00000000000E+00  0.00000000000E+00 -0.27967186122E+03  0.32127057062E+04  0.32005095852E+04 0.  0.
        3    1    3    3  502    0  0.68696728038E+03  0.12553937623E+04 -0.85871987380E+03  0.16689330048E+04  0.10100000352E+00 0.  1.
       -3    1    3    3    0  502 -0.68696728038E+03 -0.12553937623E+04  0.57904801258E+03  0.15437727014E+04  0.10100000352E+00 0. -1.
</event>
<event>
 5   0  0.3343140E-08  0.3199042E+04  0.7818609E-02  0.8189070E-01
        1   -1    0    0  501    0  0.00000000000E+00  0.00000000000E+00  0.14162444344E+04  0.14162444344E+04  0.50400001928E-02 0. -1.
       -1   -1    0    0    0  501  0.00000000000E+00  0.00000000000E+00 -0.18065155155E+04  0.18065155155E+04  0.50400001928E-02 0.  1.
    10030    2    1    2    0    0  0.00000000000E+00  0.00000000000E+00 -0.39027108109E+03  0.32227599499E+04  0.31990420719E+04 0.  0.
        1    1    3    3  502    0 -0.13319749941E+04 -0.43138943338E+03  0.58404131575E+03  0.15170229025E+04  0.50400001928E-02 0. -1.
       -1    1    3    3    0  502  0.13319749941E+04  0.43138943338E+03 -0.97431239684E+03  0.17057370474E+04  0.50400001928E-02 0.  1.
</event>
<event>
 5   0  0.9707721E-08  0.3198991E+04  0.7818609E-02  0.8189084E-01
       -2   -1    0    0    0  501  0.00000000000E+00  0.00000000000E+00  0.12857335347E+04  0.12857335347E+04  0.25500000920E-02 0.  1.
        2   -1    0    0  501    0  0.00000000000E+00  0.00000000000E+00 -0.19898263860E+04  0.19898263860E+04  0.25500000920E-02 0. -1.
    10030    2    1    2    0    0  0.00000000000E+00  0.00000000000E+00 -0.70409285131E+03  0.32755599208E+04  0.31989914116E+04 0.  0.
        3    1    3    3  502    0 -0.13317123464E+04 -0.31031387487E+03 -0.12017485695E+04  0.18204263536E+04  0.10100000352E+00 0. -1.
       -3    1    3    3    0  502  0.13317123464E+04  0.31031387487E+03  0.49765571814E+03  0.14551335672E+04  0.10100000352E+00 0.  1.
</event>
<event>
 5   0  0.9157524E-08  0.3200826E+04  0.7818609E-02  0.8188599E-01
       -2   -1    0    0    0  501  0.00000000000E+00  0.00000000000E+00  0.11718444505E+04  0.11718444505E+04  0.25500000920E-02 0. -1.
        2   -1    0    0  501    0  0.00000000000E+00  0.00000000000E+00 -0.21857175686E+04  0.21857175686E+04  0.25500000920E-02 0.  1.
    10030    2    1    2    0    0  0.00000000000E+00  0.00000000000E+00 -0.10138731181E+04  0.33575620191E+04  0.32008255205E+04 0.  0.
        5    1    3    3  502    0  0.12408713319E+04 -0.40913630816E+03 -0.14763918290E+04  0.19715245633E+04  0.46999998093E+01 0.  1.
       -5    1    3    3    0  502 -0.12408713319E+04  0.40913630816E+03  0.46251871091E+03  0.13860374558E+04  0.46999998093E+01 0. -1.
</event>
<event>
 5   0  0.9353994E-08  0.3200491E+04  0.7818609E-02  0.8188688E-01
        2   -1    0    0  501    0  0.00000000000E+00  0.00000000000E+00  0.19208201722E+04  0.19208201722E+04  0.25500000920E-02 0.  1.
       -2   -1    0    0    0  501  0.00000000000E+00  0.00000000000E+00 -0.13331729218E+04  0.13331729218E+04  0.25500000920E-02 0. -1.
    10030    2    1    2    0    0  0.00000000000E+00  0.00000000000E+00  0.58764725038E+03  0.32539930940E+04  0.32004908631E+04 0.  0.
        2    1    3    3  502    0  0.95607907338E+03 -0.12832113793E+04  0.30213355372E+03  0.16284972590E+04  0.25500000920E-02 0. -1.
       -2    1    3    3    0  502 -0.95607907338E+03  0.12832113793E+04  0.28551369666E+03  0.16254958349E+04  0.25500000920E-02 0.  1.
</event>
<event>
 5   0  0.9353994E-08  0.3197315E+04  0.7818609E-02  0.8189527E-01
       -2   -1    0    0    0  501  0.00000000000E+00  0.00000000000E+00  0.15492211493E+04  0.15492211493E+04  0.25500000920E-02 0.  1.
        2   -1    0    0  501    0  0.00000000000E+00  0.00000000000E+00 -0.16496711701E+04  0.16496711701E+04  0.25500000920E-02 0. -1.
    10030    2    1    2    0    0  0.00000000000E+00  0.00000000000E+00 -0.10045002075E+03  0.31988923194E+04  0.31973147897E+04 0.  0.
        2    1    3    3  502    0 -0.67363810691E+03  0.64000190055E+03  0.12513068162E+04  0.15585761066E+04  0.25500000920E-02 0.  1.
       -2    1    3    3    0  502  0.67363810691E+03 -0.64000190055E+03 -0.13517568369E+04  0.16403162128E+04  0.25500000920E-02 0. -1.
</event>
<event>
 5   0  0.9707721E-08  0.3192967E+04  0.7818609E-02  0.8190677E-01
        2   -1    0    0  501    0  0.00000000000E+00  0.00000000000E+00  0.19163950266E+04  0.19163950266E+04  0.25500000920E-02 0. -1.
       -2   -1    0    0    0  501  0.00000000000E+00  0.00000000000E+00 -0.13299760056E+04  0.13299760056E+04  0.25500000920E-02 0.  1.
    10030    2    1    2    0    0  0.00000000000E+00  0.00000000000E+00  0.58641902096E+03  0.32463710322E+04  0.31929668978E+04 0.  0.
        3    1    3    3  502    0 -0.19720834084E+03  0.17309236222E+03  0.18943205853E+04  0.19124075365E+04  0.10100000352E+00 0. -1.
       -3    1    3    3    0  502  0.19720834084E+03 -0.17309236222E+03 -0.13079015644E+04  0.13339634957E+04  0.10100000352E+00 0.  1.
</event>
<event>
 5   0  0.3427667E-08  0.3199729E+04  0.7818609E-02  0.8188889E-01
       -1   -1    0    0    0  501  0.00000000000E+00  0.00000000000E+00  0.34930043873E+04  0.34930043873E+04  0.50400001928E-02 0.  1.
        1   -1    0    0  501    0  0.00000000000E+00  0.00000000000E+00 -0.73276921724E+03  0.73276921725E+03  0.50400001928E-02 0. -1.
    10030    2    1    2    0    0  0.00000000000E+00  0.00000000000E+00  0.27602351701E+04  0.42257736046E+04  0.31997287952E+04 0.  0.
        2    1    3    3  502    0  0.12869580646E+03  0.15845257803E+04  0.11428326735E+04  0.19578945525E+04  0.25500000920E-02 0.  1.
       -2    1    3    3    0  502 -0.12869580646E+03 -0.15845257803E+04  0.16174024965E+04  0.22678790521E+04  0.25500000920E-02 0. -1.
</event>
<event>
 5   0  0.9329929E-08  0.3200956E+04  0.7818609E-02  0.8188565E-01
       -2   -1    0    0    0  501  0.00000000000E+00  0.00000000000E+00  0.25165884280E+04  0.25165884280E+04  0.25500000920E-02 0.  1.
        2   -1    0    0  501    0  0.00000000000E+00  0.00000000000E+00 -0.10178580417E+04  0.10178580417E+04  0.25500000920E-02 0. -1.
    10030    2    1    2    0    0  0.00000000000E+00  0.00000000000E+00  0.14987303863E+04  0.35344464697E+04  0.32009559629E+04 0.  0.
        1    1    3    3  502    0 -0.29651904460E+03  0.14344392036E+04  0.14615346786E+04  0.20692083002E+04  0.50400001928E-02 0.  1.
       -1    1    3    3    0  502  0.29651904460E+03 -0.14344392036E+04  0.37195707763E+02  0.14652381695E+04  0.50400001928E-02 0. -1.
</event>
<event>
 5   0  0.3270966E-08  0.3201190E+04  0.7818609E-02  0.8188503E-01
        1   -1    0    0  501    0  0.00000000000E+00  0.00000000000E+00  0.15940006848E+04  0.15940006848E+04  0.50400001928E-02 0. -1.
       -1   -1    0    0    0  501  0.00000000000E+00  0.00000000000E+00 -0.16072165152E+04  0.16072165152E+04  0.50400001928E-02 0.  1.
    10030    2    1    2    0    0  0.00000000000E+00  0.00000000000E+00 -0.13215830457E+02  0.32012172000E+04  0.32011899199E+04 0.  0.
        3    1    3    3  502    0 -0.10675956863E+04  0.62846171539E+03  0.10068993841E+04  0.15964244601E+04  0.10100000352E+00 0. -1.
       -3    1    3    3    0  502  0.10675956863E+04 -0.62846171539E+03 -0.10201152145E+04  0.16047927399E+04  0.10100000352E+00 0.  1.
</event>
<event>
 5   0  0.3270966E-08  0.3188765E+04  0.7818609E-02  0.8191791E-01
        1   -1    0    0  501    0  0.00000000000E+00  0.00000000000E+00  0.17134133872E+04  0.17134133872E+04  0.50400001928E-02 0. -1.
       -1   -1    0    0    0  501  0.00000000000E+00  0.00000000000E+00 -0.14836204701E+04  0.14836204701E+04  0.50400001928E-02 0.  1.
    10030    2    1    2    0    0  0.00000000000E+00  0.00000000000E+00  0.22979291713E+03  0.31970338573E+04  0.31887647608E+04 0.  0.
        3    1    3    3  502    0 -0.47711318503E+03  0.66272058321E+03  0.14878341270E+04  0.16971994469E+04  0.10100000352E+00 0. -1.
       -3    1    3    3    0  502  0.47711318503E+03 -0.66272058321E+03 -0.12580412099E+04  0.14998344104E+04  0.10100000352E+00 0.  1.
</event>
<event>
 5   0  0.3220147E-08  0.3199621E+04  0.7818609E-02  0.8188917E-01
        1   -1    0    0  501    0  0.00000000000E+00  0.00000000000E+00  0.22243338001E+04  0.22243338001E+04  0.50400001928E-02 0.  1.
       -1   -1    0    0    0  501  0.00000000000E+00  0.00000000000E+00 -0.11506339178E+04  0.11506339178E+04  0.50400001928E-02 0. -1.
    10030    2    1    2    0    0  0.00000000000E+00  0.00000000000E+00  0.10736998823E+04  0.33749677179E+04  0.31996211744E+04 0.  0.
        4    1    3    3  502    0  0.26270830900E+03  0.80960556424E+03 -0.89197523115E+03  0.12329226461E+04  0.12699999809E+01 0. -1.
       -4    1    3    3    0  502 -0.26270830900E+03 -0.80960556424E+03  0.19656751134E+04  0.21420450718E+04  0.12699999809E+01 0.  1.
</event>
<event>
 5   0  0.9727083E-08  0.3199755E+04  0.7818609E-02  0.8188882E-01
        2   -1    0    0  501    0  0.00000000000E+00  0.00000000000E+00  0.25673623999E+04  0.25673623999E+04  0.25500000920E-02 0.  1.
       -2   -1    0    0    0  501  0.00000000000E+00  0.00000000000E+00 -0.99697987631E+03  0.99697987631E+03  0.25500000920E-02 0. -1.
    10030    2    1    2    0    0  0.00000000000E+00  0.00000000000E+00  0.15703825236E+04  0.35643422762E+04  0.31997553956E+04 0.  0.
        4    1    3    3  502    0  0.90966021792E+03 -0.75744687102E+03 -0.41373317921E+03  0.12539474594E+04  0.12699999809E+01 0. -1.
       -4    1    3    3    0  502 -0.90966021792E+03  0.75744687102E+03  0.19841157028E+04  0.23103948168E+04  0.12699999809E+01 0.  1.
</event>
<event>
 5   0  0.3270966E-08  0.3197401E+04  0.7818609E-02  0.8189504E-01
        1   -1    0    0  501    0  0.00000000000E+00  0.00000000000E+00  0.19246802892E+04  0.19246802892E+04  0.50400001928E-02 0. -1.
       -1   -1    0    0    0  501  0.00000000000E+00  0.00000000000E+00 -0.13279310158E+04  0.13279310158E+04  0.50400001928E-02 0.  1.
    10030    2    1    2    0    0  0.00000000000E+00  0.00000000000E+00  0.59674927339E+03  0.32526113050E+04  0.31974006014E+04 0.  0.
        3    1    3    3  502    0  0.62264199539E+02 -0.14191860399E+04  0.10444393832E+04  0.17631844719E+04  0.10100000352E+00 0. -1.
       -3    1    3    3    0  502 -0.62264199539E+02  0.14191860399E+04 -0.44769010983E+03  0.14894268331E+04  0.10100000352E+00 0.  1.
</event>
<event>
 5   0  0.9157524E-08  0.3201140E+04  0.7818609E-02  0.8188516E-01
       -2   -1    0    0    0  501  0.00000000000E+00  0.00000000000E+00  0.89376839536E+03  0.89376839536E+03  0.25500000920E-02 0. -1.
        2   -1    0    0  501    0  0.00000000000E+00  0.00000000000E+00 -0.28663174490E+04  0.28663174490E+04  0.25500000920E-02 0.  1.
    10030    2    1    2    0    0  0.00000000000E+00  0.00000000000E+00 -0.19725490536E+04  0.37600858443E+04  0.32011397639E+04 0.  0.
        5    1    3    3  502    0 -0.13427937228E+04  0.76510235768E+03 -0.14752916323E+04  0.21365823387E+04  0.46999998093E+01 0. -1.
       -5    1    3    3    0  502  0.13427937228E+04 -0.76510235768E+03 -0.49725742137E+03  0.16235035057E+04  0.46999998093E+01 0.  1.
</event>
<event>
 5   0  0.3270966E-08  0.3200261E+04  0.7818609E-02  0.8188748E-01
        1   -1    0    0  501    0  0.00000000000E+00  0.00000000000E+00  0.22401704191E+04  0.22401704191E+04  0.50400001928E-02 0.  1.
       -1   -1    0    0    0  501  0.00000000000E+00  0.00000000000E+00 -0.11429563050E+04  0.11429563051E+04  0.50400001928E-02 0. -1.
    10030    2    1    2    0    0  0.00000000000E+00  0.00000000000E+00  0.10972141141E+04  0.33831267242E+04  0.32002605550E+04 0.  0.
        3    1    3    3  502    0 -0.10634215744E+04  0.80302673687E+03  0.14850571084E+04  0.19952724151E+04  0.10100000352E+00 0.  1.
       -3    1    3    3    0  502  0.10634215744E+04 -0.80302673687E+03 -0.38784299429E+03  0.13878543091E+04  0.10100000352E+00 0. -1.
</event>
<event>
 5   0  0.9329929E-08  0.3199007E+04  0.7818609E-02  0.8189079E-01
        2   -1    0    0  501    0  0.00000000000E+00  0.00000000000E+00  0.18696757684E+04  0.18696757684E+04  0.25500000920E-02 0. -1.
       -2   -1    0    0    0  501  0.00000000000E+00  0.00000000000E+00 -0.13683720639E+04  0.13683720639E+04  0.25500000920E-02 0.  1.
    10030    2    1    2    0    0  0.00000000000E+00  0.00000000000E+00  0.50130370451E+03  0.32380478323E+04  0.31990074023E+04 0.  0.
        1    1    3    3  502    0  0.76178504900E+03 -0.13950194710E+04  0.43176651744E+03  0.16470634811E+04  0.50400001928E-02 0.  1.
       -1    1    3    3    0  502 -0.76178504900E+03  0.13950194710E+04  0.69537187064E+02  0.15909843512E+04  0.50400001928E-02 0. -1.
</event>
<event>
 5   0  0.3270966E-08  0.3195932E+04  0.7818609E-02  0.8189892E-01
        1   -1    0    0  501    0  0.00000000000E+00  0.00000000000E+00  0.13900671391E+04  0.13900671391E+04  0.50400001928E-02 0.  1.
       -1   -1    0    0    0  501  0.00000000000E+00  0.00000000000E+00 -0.18369586068E+04  0.18369586068E+04  0.50400001928E-02 0. -1.
    10030    2    1    2    0    0  0.00000000000E+00  0.00000000000E+00 -0.44689146769E+03  0.32270257459E+04  0.31959322866E+04 0.  0.
        3    1    3    3  502    0  0.50473427301E+02 -0.15956103859E+04 -0.15222071140E+03  0.16036493462E+04  0.10100000352E+00 0.  1.
       -3    1    3    3    0  502 -0.50473427301E+02  0.15956103859E+04 -0.29467075629E+03  0.16233763997E+04  0.10100000352E+00 0. -1.
</event>
<event>
 5   0  0.9157524E-08  0.3200191E+04  0.7818609E-02  0.8188767E-01
        2   -1    0    0  501    0  0.00000000000E+00  0.00000000000E+00  0.13338228546E+04  0.13338228546E+04  0.25500000920E-02 0.  1.
       -2   -1    0    0    0  501  0.00000000000E+00  0.00000000000E+00 -0.19195244057E+04  0.19195244057E+04  0.25500000920E-02 0. -1.
    10030    2    1    2    0    0  0.00000000000E+00  0.00000000000E+00 -0.58570155110E+03  0.32533472602E+04  0.32001909457E+04 0.  0.
        5    1    3    3  502    0  0.56712406813E+03 -0.86068249343E+03 -0.15370586611E+04  0.18506689279E+04  0.46999998093E+01 0. -1.
       -5    1    3    3    0  502 -0.56712406813E+03  0.86068249343E+03  0.95135710999E+03  0.14026783323E+04  0.46999998093E+01 0.  1.
</event>
<event>
 5   0  0.9707721E-08  0.3199913E+04  0.7818609E-02  0.8188840E-01
       -2   -1    0    0    0  501  0.00000000000E+00  0.00000000000E+00  0.11103776298E+04  0.11103776298E+04  0.25500000920E-02 0. -1.
        2   -1    0    0  501    0  0.00000000000E+00  0.00000000000E+00 -0.23053964530E+04  0.23053964530E+04  0.25500000920E-02 0.  1.
    10030    2    1    2    0    0  0.00000000000E+00  0.00000000000E+00 -0.11950188232E+04  0.34157740828E+04  0.31999129046E+04 0.  0.
        3    1    3    3  502    0  0.77220843235E+03 -0.65931422148E+03 -0.19173904021E+04  0.21696513706E+04  0.10100000352E+00 0.  1.
       -3    1    3    3    0  502 -0.77220843235E+03  0.65931422148E+03  0.72237157893E+03  0.12461227122E+04  0.10100000352E+00 0. -1.
</event>
<event>
 5   0  0.9707721E-08  0.3201542E+04  0.7818609E-02  0.8188410E-01
       -2   -1    0    0    0  501  0.00000000000E+00  0.00000000000E+00  0.80728503482E+03  0.80728503483E+03  0.25500000920E-02 0. -1.
        2   -1    0    0  501    0  0.00000000000E+00  0.00000000000E+00 -0.31741806810E+04  0.31741806810E+04  0.25500000920E-02 0.  1.
    10030    2    1    2    0    0  0.00000000000E+00  0.00000000000E+00 -0.23668956462E+04  0.39814657158E+04  0.32015424792E+04 0.  0.
        3    1    3    3  502    0 -0.10941044712E+04  0.24701454527E+03 -0.26037706641E+04  0.28350842070E+04  0.10100000352E+00 0.  1.
       -3    1    3    3    0  502  0.10941044712E+04 -0.24701454527E+03  0.23687501791E+03  0.11463815088E+04  0.10100000352E+00 0. -1.
</event>
<event>
 5   0  0.3343140E-08  0.3198383E+04  0.7818609E-02  0.8189244E-01
       -1   -1    0    0    0  501  0.00000000000E+00  0.00000000000E+00  0.20410070181E+04  0.20410070181E+04  0.50400001928E-02 0.  1.
        1   -1    0    0  501    0  0.00000000000E+00  0.00000000000E+00 -0.12530155582E+04  0.12530155582E+04  0.50400001928E-02 0. -1.
    10030    2    1    2    0    0  0.00000000000E+00  0.00000000000E+00  0.78799145983E+03  0.32940225763E+04  0.31983830590E+04 0.  0.
        1    1    3    3  502    0  0.71098044093E+03  0.27549400349E+03 -0.10537494849E+04  0.13006837088E+04  0.50400001928E-02 0. -1.
       -1    1    3    3    0  502 -0.71098044093E+03 -0.27549400349E+03  0.18417409447E+04  0.19933388675E+04  0.50400001928E-02 0.  1.
</event>
<event>
 5   0  0.3220147E-08  0.3201793E+04  0.7818609E-02  0.8188344E-01
       -1   -1    0    0    0  501  0.00000000000E+00  0.00000000000E+00  0.12499302624E+04  0.12499302624E+04  0.50400001928E-02 0. -1.
        1   -1    0    0  501    0  0.00000000000E+00  0.00000000000E+00 -0.20504102881E+04  0.20504102881E+04  0.50400001928E-02 0.  1.
    10030    2    1    2    0    0  0.00000000000E+00  0.00000000000E+00 -0.80048002574E+03  0.33003405505E+04  0.32017931659E+04 0.  0.
        4    1    3    3  502    0 -0.11901788742E+04 -0.90274472659E+03  0.19314709397E+03  0.15062473923E+04  0.12699999809E+01 0. -1.
       -4    1    3    3    0  502  0.11901788742E+04  0.90274472659E+03 -0.99362711971E+03  0.17940931581E+04  0.12699999809E+01 0.  1.
</event>
<event>
 5   0  0.3343140E-08  0.3200439E+04  0.7818609E-02  0.8188701E-01
        1   -1    0    0  501    0  0.00000000000E+00  0.00000000000E+00  0.18479371147E+04  0.18479371147E+04  0.50400001928E-02 0.  1.
       -1   -1    0    0    0  501  0.00000000000E+00  0.00000000000E+00 -0.13857085321E+04  0.13857085322E+04  0.50400001928E-02 0. -1.
    10030    2    1    2    0    0  0.00000000000E+00  0.00000000000E+00  0.46222858253E+03  0.32336456468E+04  0.32004388616E+04 0.  0.
        1    1    3    3  502    0  0.11281668896E+04 -0.28164993950E+02  0.13774114265E+04  0.17806785324E+04  0.50400001928E-02 0.  1.
       -1    1    3    3    0  502 -0.11281668896E+04  0.28164993950E+02 -0.91518284398E+03  0.14529671145E+04  0.50400001928E-02 0. -1.
</event>
<event>
 5   0  0.3080500E-08  0.3199893E+04  0.7818609E-02  0.8188845E-01
       -3   -1    0    0    0  501  0.00000000000E+00  0.00000000000E+00  0.11254128263E+04  0.11254128308E+04  0.10100000352E+00 0.  1.
        3   -1    0    0  501    0  0.00000000000E+00  0.00000000000E+00 -0.22745688694E+04  0.22745688717E+04  0.10100000352E+00 0. -1.
    10030    2    1    2    0    0  0.00000000000E+00  0.00000000000E+00 -0.11491560431E+04  0.33999817025E+04  0.31998931179E+04 0.  0.
        1    1    3    3  502    0  0.14800958131E+04 -0.36717874106E+03 -0.60237717592E+02  0.15261495426E+04  0.50400001928E-02 0. -1.
       -1    1    3    3    0  502 -0.14800958131E+04  0.36717874106E+03 -0.10889183255E+04  0.18738321599E+04  0.50400001928E-02 0.  1.
</event>
<event>
 5   0  0.3283581E-08  0.3207923E+04  0.7818609E-02  0.8186728E-01
        1   -1    0    0  501    0  0.00000000000E+00  0.00000000000E+00  0.22091797025E+04  0.22091797025E+04  0.50400001928E-02 0.  1.
       -1   -1    0    0    0  501  0.00000000000E+00  0.00000000000E+00 -0.11645462879E+04  0.11645462879E+04  0.50400001928E-02 0. -1.
    10030    2    1    2    0    0  0.00000000000E+00  0.00000000000E+00  0.10446334146E+04  0.33737259904E+04  0.32079227060E+04 0.  0.
        5    1    3    3  502    0  0.52534653035E+03  0.23579131265E+03 -0.10520827154E+04  0.11993692718E+04  0.46999998093E+01 0. -1.
       -5    1    3    3    0  502 -0.52534653035E+03 -0.23579131265E+03  0.20967161300E+04  0.21743567186E+04  0.46999998093E+01 0.  1.
</event>
<event>
 5   0  0.3220147E-08  0.3200081E+04  0.7818609E-02  0.8188796E-01
        1   -1    0    0  501    0  0.00000000000E+00  0.00000000000E+00  0.19365498682E+04  0.19365498682E+04  0.50400001928E-02 0.  1.
       -1   -1    0    0    0  501  0.00000000000E+00  0.00000000000E+00 -0.13220056453E+04  0.13220056453E+04  0.50400001928E-02 0. -1.
    10030    2    1    2    0    0  0.00000000000E+00  0.00000000000E+00  0.61454422290E+03  0.32585555135E+04  0.32000811603E+04 0.  0.
        4    1    3    3  502    0 -0.38049147974E+03 -0.11432404783E+04 -0.76474991387E+03  0.14271007676E+04  0.12699999809E+01 0. -1.
       -4    1    3    3    0  502  0.38049147974E+03  0.11432404783E+04  0.13792941368E+04  0.18314547458E+04  0.12699999809E+01 0.  1.
</event>
<event>
 5   0  0.3427667E-08  0.3200107E+04  0.7818609E-02  0.8188789E-01
       -1   -1    0    0    0  501  0.00000000000E+00  0.00000000000E+00  0.98038513554E+03  0.98038513556E+03  0.50400001928E-02 0. -1.
        1   -1    0    0  501    0  0.00000000000E+00  0.00000000000E+00 -0.26113938449E+04  0.26113938449E+04  0.50400001928E-02 0.  1.
    10030    2    1    2    0    0  0.00000000000E+00  0.00000000000E+00 -0.16310087094E+04  0.35917789805E+04  0.32001073161E+04 0.  0.
        2    1    3    3  502    0 -0.64471015425E+03 -0.72690845216E+03 -0.22423680437E+04  0.24438210909E+04  0.25500000920E-02 0.  1.
       -2    1    3    3    0  502  0.64471015425E+03  0.72690845216E+03  0.61135933427E+03  0.11479578897E+04  0.25500000920E-02 0. -1.
</event>
<event>
 5   0  0.9353994E-08  0.3200402E+04  0.7818609E-02  0.8188711E-01
        2   -1    0    0  501    0  0.00000000000E+00  0.00000000000E+00  0.21602120551E+04  0.21602120551E+04  0.25500000920E-02 0.  1.
       -2   -1    0    0    0  501  0.00000000000E+00  0.00000000000E+00 -0.11853662613E+04  0.11853662613E+04  0.25500000920E-02 0. -1.
    10030    2    1    2    0    0  0.00000000000E+00  0.00000000000E+00  0.97484579387E+03  0.33455783164E+04  0.32004015294E+04 0.  0.
        2    1    3    3  502    0  0.12080171135E+04  0.29996405741E+03 -0.56385937274E+03  0.13664630161E+04  0.25500000920E-02 0. -1.
       -2    1    3    3    0  502 -0.12080171135E+04 -0.29996405741E+03  0.15387051666E+04  0.19791153003E+04  0.25500000920E-02 0.  1.
</event>
<event>
 5   0  0.3283581E-08  0.3198648E+04  0.7818609E-02  0.8189174E-01
       -1   -1    0    0    0  501  0.00000000000E+00  0.00000000000E+00  0.82806584370E+03  0.82806584371E+03  0.50400001928E-02 0.  1.
        1   -1    0    0  501    0  0.00000000000E+00  0.00000000000E+00 -0.30889297093E+04  0.30889297093E+04  0.50400001928E-02 0. -1.
    10030    2    1    2    0    0  0.00000000000E+00  0.00000000000E+00 -0.22608638656E+04  0.39169955530E+04  0.31986479555E+04 0.  0.
        5    1    3    3  502    0 -0.47587481737E+03 -0.85743384619E+03  0.41669372240E+03  0.10655071049E+04  0.46999998093E+01 0.  1.
       -5    1    3    3    0  502  0.47587481737E+03  0.85743384619E+03 -0.26775575880E+04  0.28514884480E+04  0.46999998093E+01 0. -1.
</event>
<event>
 5   0  0.3270966E-08  0.3199989E+04  0.7818609E-02  0.8188820E-01
        1   -1    0    0  501    0  0.00000000000E+00  0.00000000000E+00  0.12757535813E+04  0.12757535813E+04  0.50400001928E-02 0. -1.
       -1   -1    0    0    0  501  0.00000000000E+00  0.00000000000E+00 -0.20066428553E+04  0.20066428553E+04  0.50400001928E-02 0.  1.
    10030    2    1    2    0    0  0.00000000000E+00  0.00000000000E+00 -0.73088927401E+03  0.32823964366E+04  0.31999886306E+04 0.  0.
        3    1    3    3  502    0 -0.15388489159E+04  0.43130035711E+03 -0.44427299988E+03  0.16587508833E+04  0.10100000352E+00 0.  1.
       -3    1    3    3    0  502  0.15388489159E+04 -0.43130035711E+03 -0.28661627413E+03  0.16236455533E+04  0.10100000352E+00 0. -1.
</event>
<event>
 5   0  0.9353994E-08  0.3200600E+04  0.7818609E-02  0.8188659E-01
       -2   -1    0    0    0  501  0.00000000000E+00  0.00000000000E+00  0.16945005625E+04  0.16945005625E+04  0.25500000920E-02 0. -1.
        2   -1    0    0  501    0  0.00000000000E+00  0.00000000000E+00 -0.15113365534E+04  0.15113365534E+04  0.25500000920E-02 0.  1.
    10030    2    1    2    0    0  0.00000000000E+00  0.00000000000E+00  0.18316400910E+03  0.32058371159E+04  0.32006003436E+04 0.  0.
        2    1    3    3  502    0  0.85802705105E+03  0.37810959981E+02 -0.12609312151E+04  0.15256433457E+04  0.25500000920E-02 0.  1.
       -2    1    3    3    0  502 -0.85802705105E+03 -0.37810959981E+02  0.14440952242E+04  0.16801937702E+04  0.25500000920E-02 0. -1.
</event>
<event>
 5   0  0.3427667E-08  0.3199797E+04  0.7818609E-02  0.8188871E-01
        1   -1    0    0  501    0  0.00000000000E+00  0.00000000000E+00  0.27631070942E+04  0.27631070942E+04  0.50400001928E-02 0. -1.
       -1   -1    0    0    0  501  0.00000000000E+00  0.00000000000E+00 -0.92637585177E+03  0.92637585179E+03  0.50400001928E-02 0.  1.
    10030    2    1    2    0    0  0.00000000000E+00  0.00000000000E+00  0.18367312424E+04  0.36894829460E+04  0.31997972985E+04 0.  0.
        2    1    3    3  502    0  0.11285271472E+04  0.32923334689E+03  0.21696665674E+04  0.24676752486E+04  0.25500000920E-02 0. -1.
       -2    1    3    3    0  502 -0.11285271472E+04 -0.32923334689E+03 -0.33293532503E+03  0.12218076974E+04  0.25500000920E-02 0.  1.
</event>
<event>
 5   0  0.3283581E-08  0.3200302E+04  0.7818609E-02  0.8188738E-01
       -1   -1    0    0    0  501  0.00000000000E+00  0.00000000000E+00  0.18070868148E+04  0.18070868149E+04  0.50400001928E-02 0. -1.
        1   -1    0    0  501    0  0.00000000000E+00  0.00000000000E+00 -0.14169118077E+04  0.14169118077E+04  0.50400001928E-02 0.  1.
    10030    2    1    2    0    0  0.00000000000E+00  0.00000000000E+00  0.39017500715E+03  0.32239986226E+04  0.32003016392E+04 0.  0.
        5    1    3    3  502    0  0.11764588556E+04 -0.97915616161E+03  0.66508070698E+03  0.16688788646E+04  0.46999998093E+01 0. -1.
       -5    1    3    3    0  502 -0.11764588556E+04  0.97915616161E+03 -0.27490569984E+03  0.15551197580E+04  0.46999998093E+01 0.  1.
</event>
<event>
 5   0  0.9329929E-08  0.3192133E+04  0.7818609E-02  0.8190898E-01
        2   -1    0    0  501    0  0.00000000000E+00  0.00000000000E+00  0.17205825028E+04  0.17205825028E+04  0.25500000920E-02 0.  1.
       -2   -1    0    0    0  501  0.00000000000E+00  0.00000000000E+00 -0.14805617151E+04  0.14805617152E+04  0.25500000920E-02 0. -1.
    10030    2    1    2    0    0  0.00000000000E+00  0.00000000000E+00  0.24002078768E+03  0.32011442180E+04  0.31921331936E+04 0.  0.
        1    1    3    3  502    0  0.79289300053E+02  0.46860172884E+03 -0.14079554658E+04  0.14860057089E+04  0.50400001928E-02 0. -1.
       -1    1    3    3    0  502 -0.79289300053E+02 -0.46860172884E+03  0.16479762534E+04  0.17151385091E+04  0.50400001928E-02 0.  1.
</event>
<event>
 5   0  0.9353994E-08  0.3200720E+04  0.7818609E-02  0.8188627E-01
       -2   -1    0    0    0  501  0.00000000000E+00  0.00000000000E+00  0.23533132051E+04  0.23533132051E+04  0.25500000920E-02 0.  1.
        2   -1    0    0  501    0  0.00000000000E+00  0.00000000000E+00 -0.10883177196E+04  0.10883177196E+04  0.25500000920E-02 0. -1.
    10030    2    1    2    0    0  0.00000000000E+00  0.00000000000E+00  0.12649954855E+04  0.34416309247E+04  0.32007202070E+04 0.  0.
        2    1    3    3  502    0  0.15323033010E+03  0.82260796531E+03  0.20993571623E+04  0.22599698877E+04  0.25500000920E-02 0.  1.
       -2    1    3    3    0  502 -0.15323033010E+03 -0.82260796531E+03 -0.83436167677E+03  0.11816610370E+04  0.25500000920E-02 0. -1.
</event>
<event>
 5   0  0.9727083E-08  0.3200239E+04  0.7818609E-02  0.8188754E-01
       -2   -1    0    0    0  501  0.00000000000E+00  0.00000000000E+00  0.12922563815E+04  0.12922563815E+04  0.25500000920E-02 0.  1.
        2   -1    0    0  501    0  0.00000000000E+00  0.00000000000E+00 -0.19813271403E+04  0.19813271403E+04  0.25500000920E-02 0. -1.
    10030    2    1    2    0    0  0.00000000000E+00  0.00000000000E+00 -0.68907075876E+03  0.32735835218E+04  0.32002391416E+04 0.  0.
        4    1    3    3  502    0  0.63015117529E+03  0.24589520243E+03  0.11388113211E+04  0.13245556962E+04  0.12699999809E+01 0.  1.
       -4    1    3    3    0  502 -0.63015117529E+03 -0.24589520243E+03 -0.18278820799E+04  0.19490278256E+04  0.12699999809E+01 0. -1.
</event>
<event>
 5   0  0.9157524E-08  0.3200075E+04  0.7818609E-02  0.8188797E-01
        2   -1    0    0  501    0  0.00000000000E+00  0.00000000000E+00  0.26908140560E+04  0.26908140560E+04  0.25500000920E-02 0.  1.
       -2   -1    0    0    0  501  0.00000000000E+00  0.00000000000E+00 -0.95142960523E+03  0.95142960524E+03  0.25500000920E-02 0. -1.
    10030    2    1    2    0    0  0.00000000000E+00  0.00000000000E+00  0.17393844507E+04  0.36422436612E+04  0.32000750960E+04 0.  0.
        5    1    3    3  502    0 -0.72894701827E+03 -0.22614990004E+03 -0.73088640135E+03  0.10567518888E+04  0.46999998093E+01 0. -1.
       -5    1    3    3    0  502  0.72894701827E+03  0.22614990004E+03  0.24702708521E+04  0.25854917724E+04  0.46999998093E+01 0.  1.
</event>
<event>
 5   0  0.9727083E-08  0.3200515E+04  0.7818609E-02  0.8188681E-01
        2   -1    0    0  501    0  0.00000000000E+00  0.00000000000E+00  0.19117704518E+04  0.19117704518E+04  0.25500000920E-02 0. -1.
       -2   -1    0    0    0  501  0.00000000000E+00  0.00000000000E+00 -0.13395041455E+04  0.13395041455E+04  0.25500000920E-02 0.  1.
    10030    2    1    2    0    0  0.00000000000E+00  0.00000000000E+00  0.57226630625E+03  0.32512745973E+04  0.32005152369E+04 0.  0.
        4    1    3    3  502    0 -0.11106843620E+04 -0.33521727871E+03  0.14058080590E+04  0.18227145382E+04  0.12699999809E+01 0. -1.
       -4    1    3    3    0  502  0.11106843620E+04  0.33521727871E+03 -0.83354175274E+03  0.14285600591E+04  0.12699999809E+01 0.  1.
</event>
<event>
 5   0  0.9329929E-08  0.3201144E+04  0.7818609E-02  0.8188515E-01
        2   -1    0    0  501    0  0.00000000000E+00  0.00000000000E+00  0.17359497295E+04  0.17359497296E+04  0.25500000920E-02 0.  1.
       -2   -1    0    0    0  501  0.00000000000E+00  0.00000000000E+00 -0.14757516714E+04  0.14757516714E+04  0.25500000920E-02 0. -1.
    10030    2    1    2    0    0  0.00000000000E+00  0.00000000000E+00  0.26019805817E+03  0.32117014009E+04  0.32011439923E+04 0.  0.
        1    1    3    3  502    0  0.76301238433E+03 -0.21640183210E+03  0.15249405844E+04  0.17188546877E+04  0.50400001928E-02 0.  1.
       -1    1    3    3    0  502 -0.76301238433E+03  0.21640183210E+03 -0.12647425262E+04  0.14928467132E+04  0.50400001928E-02 0. -1.
</event>
<event>
 5   0  0.3220147E-08  0.3198409E+04  0.7818609E-02  0.8189238E-01
       -1   -1    0    0    0  501  0.00000000000E+00  0.00000000000E+00  0.17514821320E+04  0.17514821320E+04  0.50400001928E-02 0. -1.
        1   -1    0    0  501    0  0.00000000000E+00  0.00000000000E+00 -0.14601660756E+04  0.14601660756E+04  0.50400001928E-02 0.  1.
    10030    2    1    2    0    0  0.00000000000E+00  0.00000000000E+00  0.29131605633E+03  0.32116482076E+04  0.31984088489E+04 0.  0.
        4    1    3    3  502    0 -0.38178727545E+03 -0.10743316230E+02  0.17050111987E+04  0.17472669352E+04  0.12699999809E+01 0. -1.
       -4    1    3    3    0  502  0.38178727545E+03  0.10743316230E+02 -0.14136951423E+04  0.14643812724E+04  0.12699999809E+01 0.  1.
</event>
<event>
 5   0  0.9353994E-08  0.3200632E+04  0.7818609E-02  0.8188650E-01
        2   -1    0    0  501    0  0.00000000000E+00  0.00000000000E+00  0.13549335994E+04  0.13549335994E+04  0.25500000920E-02 0. -1.
       -2   -1    0    0    0  501  0.00000000000E+00  0.00000000000E+00 -0.18901373978E+04  0.18901373978E+04  0.25500000920E-02 0.  1.
    10030    2    1    2    0    0  0.00000000000E+00  0.00000000000E+00 -0.53520379839E+03  0.32450709971E+04  0.32006316049E+04 0.  0.
        2    1    3    3  502    0 -0.15209251308E+04 -0.49022507803E+03 -0.17993290608E+03  0.16080764072E+04  0.25500000920E-02 0. -1.
       -2    1    3    3    0  502  0.15209251308E+04  0.49022507803E+03 -0.35527089231E+03  0.16369945900E+04  0.25500000920E-02 0.  1.
</event>
<event>
 5   0  0.9707721E-08  0.3182146E+04  0.7818609E-02  0.8193548E-01
        2   -1    0    0  501    0  0.00000000000E+00  0.00000000000E+00  0.19799663647E+04  0.19799663647E+04  0.25500000920E-02 0.  1.
       -2   -1    0    0    0  501  0.00000000000E+00  0.00000000000E+00 -0.12785641309E+04  0.12785641309E+04  0.25500000920E-02 0. -1.
    10030    2    1    2    0    0  0.00000000000E+00  0.00000000000E+00  0.70140223387E+03  0.32585304956E+04  0.31821464292E+04 0.  0.
        3    1    3    3  502    0 -0.47622647435E+03 -0.14416568194E+04  0.83788160658E+03  0.17341313781E+04  0.10100000352E+00 0.  1.
       -3    1    3    3    0  502  0.47622647435E+03  0.14416568194E+04 -0.13647937272E+03  0.15243991174E+04  0.10100000352E+00 0. -1.
</event>
<event>
 5   0  0.9157524E-08  0.3199116E+04  0.7818609E-02  0.8189051E-01
        2   -1    0    0  501    0  0.00000000000E+00  0.00000000000E+00  0.18899342505E+04  0.18899342505E+04  0.25500000920E-02 0.  1.
       -2   -1    0    0    0  501  0.00000000000E+00  0.00000000000E+00 -0.13537961992E+04  0.13537961992E+04  0.25500000920E-02 0. -1.
    10030    2    1    2    0    0  0.00000000000E+00  0.00000000000E+00  0.53613805125E+03  0.32437304497E+04  0.31991160061E+04 0.  0.
        5    1    3    3  502    0  0.24971989871E+03  0.11724709687E+04 -0.80571616977E+03  0.14443852798E+04  0.46999998093E+01 0. -1.
       -5    1    3    3    0  502 -0.24971989871E+03 -0.11724709687E+04  0.13418542210E+04  0.17993451699E+04  0.46999998093E+01 0.  1.
</event>
<event>
 5   0  0.9329929E-08  0.3196925E+04  0.7818609E-02  0.8189630E-01
       -2   -1    0    0    0  501  0.00000000000E+00  0.00000000000E+00  0.13454005874E+04  0.13454005874E+04  0.25500000920E-02 0.  1.
        2   -1    0    0  501    0  0.00000000000E+00  0.00000000000E+00 -0.18991239323E+04  0.18991239323E+04  0.25500000920E-02 0. -1.
    10030    2    1    2    0    0  0.00000000000E+00  0.00000000000E+00 -0.55372334487E+03  0.32445245197E+04  0.31969250564E+04 0.  0.
        1    1    3    3  502    0  0.92994607175E+01  0.15211420197E+04  0.22149222756E+03  0.15372112187E+04  0.50400001928E-02 0.  1.
       -1    1    3    3    0  502 -0.92994607175E+01 -0.15211420197E+04 -0.77521557244E+03  0.17073133010E+04  0.50400001928E-02 0. -1.
</event>
<event>
 5   0  0.3343140E-08  0.3200179E+04  0.7818609E-02  0.8188770E-01
       -1   -1    0    0    0  501  0.00000000000E+00  0.00000000000E+00  0.10036616909E+04  0.10036616909E+04  0.50400001928E-02 0. -1.
        1   -1    0    0  501    0  0.00000000000E+00  0.00000000000E+00 -0.25509462600E+04  0.25509462600E+04  0.50400001928E-02 0.  1.
    10030    2    1    2    0    0  0.00000000000E+00  0.00000000000E+00 -0.15472845691E+04  0.35546079509E+04  0.32001793929E+04 0.  0.
        1    1    3    3  502    0 -0.99568754768E+03 -0.12418171980E+04 -0.59186058330E+03  0.16981762558E+04  0.50400001928E-02 0. -1.
       -1    1    3    3    0  502  0.99568754768E+03  0.12418171980E+04 -0.95542398576E+03  0.18564316951E+04  0.50400001928E-02 0.  1.
</event>
<event>
 5   0  0.9353994E-08  0.3198393E+04  0.7818609E-02  0.8189242E-01
        2   -1    0    0  501    0  0.00000000000E+00  0.00000000000E+00  0.19060909034E+04  0.19060909034E+04  0.25500000920E-02 0. -1.
       -2   -1    0    0    0  501  0.00000000000E+00  0.00000000000E+00 -0.13417142092E+04  0.13417142092E+04  0.25500000920E-02 0.  1.
    10030    2    1    2    0    0  0.00000000000E+00  0.00000000000E+00  0.56437669423E+03  0.32478051126E+04  0.31983928772E+04 0.  0.
        2    1    3    3  502    0  0.13560105121E+04 -0.74230358836E+03  0.69796499138E+03  0.16961527807E+04  0.25500000920E-02 0. -1.
       -2    1    3    3    0  502 -0.13560105121E+04  0.74230358836E+03 -0.13358829715E+03  0.15516523320E+04  0.25500000920E-02 0.  1.
</event>
<event>
 5   0  0.3283581E-08  0.3199951E+04  0.7818609E-02  0.8188830E-01
       -1   -1    0    0    0  501  0.00000000000E+00  0.00000000000E+00  0.15477546473E+04  0.15477546473E+04  0.50400001928E-02 0.  1.
        1   -1    0    0  501    0  0.00000000000E+00  0.00000000000E+00 -0.16539580211E+04  0.16539580211E+04  0.50400001928E-02 0. -1.
    10030    2    1    2    0    0  0.00000000000E+00  0.00000000000E+00 -0.10620337384E+03  0.32017126684E+04  0.31999507582E+04 0.  0.
        5    1    3    3  502    0 -0.79230129235E+03 -0.12279906391E+04 -0.70476420296E+03  0.16224725019E+04  0.46999998093E+01 0.  1.
       -5    1    3    3    0  502  0.79230129235E+03  0.12279906391E+04  0.59856082912E+03  0.15792401666E+04  0.46999998093E+01 0. -1.
</event>
<event>
 5   0  0.9157524E-08  0.3200430E+04  0.7818609E-02  0.8188704E-01
        2   -1    0    0  501    0  0.00000000000E+00  0.00000000000E+00  0.22844481845E+04  0.22844481846E+04  0.25500000920E-02 0. -1.
       -2   -1    0    0    0  501  0.00000000000E+00  0.00000000000E+00 -0.11209217289E+04  0.11209217289E+04  0.25500000920E-02 0.  1.
    10030    2    1    2    0    0  0.00000000000E+00  0.00000000000E+00  0.11635264557E+04  0.34053699134E+04  0.32004297265E+04 0.  0.
        5    1    3    3  502    0  0.32098293988E+03 -0.11243904007E+04  0.17441366885E+04  0.20998377792E+04  0.46999998093E+01 0. -1.
       -5    1    3    3    0  502 -0.32098293988E+03  0.11243904007E+04 -0.58061023282E+03  0.13055321342E+04  0.46999998093E+01 0.  1.
</event>
<event>
 5   0  0.3220147E-08  0.3200369E+04  0.7818609E-02  0.8188720E-01
        1   -1    0    0  501    0  0.00000000000E+00  0.00000000000E+00  0.26241615999E+04  0.26241615999E+04  0.50400001928E-02 0.  1.
       -1   -1    0    0    0  501  0.00000000000E+00  0.00000000000E+00 -0.97577474214E+03  0.97577474215E+03  0.50400001928E-02 0. -1.
    10030    2    1    2    0    0  0.00000000000E+00  0.00000000000E+00  0.16483868578E+04  0.35999363421E+04  0.32003691090E+04 0.  0.
        4    1    3    3  502    0  0.82520090749E+03  0.29084254010E+03 -0.68287228157E+03  0.11098928267E+04  0.12699999809E+01 0. -1.
       -4    1    3    3    0  502 -0.82520090749E+03 -0.29084254010E+03  0.23312591394E+04  0.24900435154E+04  0.12699999809E+01 0.  1.
</event>
<event>
 5   0  0.9727083E-08  0.3200774E+04  0.7818609E-02  0.8188613E-01
        2   -1    0    0  501    0  0.00000000000E+00  0.00000000000E+00  0.17255493984E+04  0.17255493984E+04  0.25500000920E-02 0. -1.
       -2   -1    0    0    0  501  0.00000000000E+00  0.00000000000E+00 -0.14843029424E+04  0.14843029424E+04  0.25500000920E-02 0.  1.
    10030    2    1    2    0    0  0.00000000000E+00  0.00000000000E+00  0.24124645601E+03  0.32098523408E+04  0.32007736872E+04 0.  0.
        4    1    3    3  502    0 -0.29478508827E+03 -0.54454768940E+03 -0.13593016863E+04  0.14936978013E+04  0.12699999809E+01 0.  1.
       -4    1    3    3    0  502  0.29478508827E+03  0.54454768940E+03  0.16005481424E+04  0.17161545394E+04  0.12699999809E+01 0. -1.
</event>
<event>
 5   0  0.3343140E-08  0.3197439E+04  0.7818609E-02  0.8189494E-01
        1   -1    0    0  501    0  0.00000000000E+00  0.00000000000E+00  0.24333032470E+04  0.24333032470E+04  0.50400001928E-02 0.  1.
       -1   -1    0    0    0  501  0.00000000000E+00  0.00000000000E+00 -0.10503845689E+04  0.10503845689E+04  0.50400001928E-02 0. -1.
    10030    2    1    2    0    0  0.00000000000E+00  0.00000000000E+00  0.13829186781E+04  0.34836878159E+04  0.31974390891E+04 0.  0.
        1    1    3    3  502    0 -0.14883957113E+04 -0.73949544198E+02  0.60744367000E+02  0.14914691438E+04  0.50400001928E-02 0. -1.
       -1    1    3    3    0  502  0.14883957113E+04  0.73949544198E+02  0.13221743111E+04  0.19922186722E+04  0.50400001928E-02 0.  1.
</event>
<event>
 5   0  0.9329929E-08  0.3201344E+04  0.7818609E-02  0.8188462E-01
       -2   -1    0    0    0  501  0.00000000000E+00  0.00000000000E+00  0.11793165683E+04  0.11793165683E+04  0.25500000920E-02 0.  1.
        2   -1    0    0  501    0  0.00000000000E+00  0.00000000000E+00 -0.21725724892E+04  0.21725724892E+04  0.25500000920E-02 0. -1.
    10030    2    1    2    0    0  0.00000000000E+00  0.00000000000E+00 -0.99325592092E+03  0.33518890575E+04  0.32013439255E+04 0.  0.
        1    1    3    3  502    0  0.44124586898E+02 -0.15969296244E+04 -0.39182321984E+03  0.16448880327E+04  0.50400001928E-02 0. -1.
       -1    1    3    3    0  502 -0.44124586898E+02  0.15969296244E+04 -0.60143270108E+03  0.17070010248E+04  0.50400001928E-02 0.  1.
</event>
<event>
 5   0  0.3220147E-08  0.3199751E+04  0.7818609E-02  0.8188883E-01
        1   -1    0    0  501    0  0.00000000000E+00  0.00000000000E+00  0.15863147953E+04  0.15863147953E+04  0.50400001928E-02 0. -1.
       -1   -1    0    0    0  501  0.00000000000E+00  0.00000000000E+00 -0.16135525050E+04  0.16135525050E+04  0.50400001928E-02 0.  1.
    10030    2    1    2    0    0  0.00000000000E+00  0.00000000000E+00 -0.27237709732E+02  0.31998673003E+04  0.31997513727E+04 0.  0.
        4    1    3    3  502    0 -0.82026721492E+03 -0.12129357806E+02 -0.13872097259E+04  0.16116258442E+04  0.12699999809E+01 0.  1.
       -4    1    3    3    0  502  0.82026721492E+03  0.12129357806E+02  0.13599720162E+04  0.15882414561E+04  0.12699999809E+01 0. -1.
</event>
<event>
 5   0  0.9707721E-08  0.3201755E+04  0.7818609E-02  0.8188354E-01
        2   -1    0    0  501    0  0.00000000000E+00  0.00000000000E+00  0.21306733458E+04  0.21306733458E+04  0.25500000920E-02 0. -1.
       -2   -1    0    0    0  501  0.00000000000E+00  0.00000000000E+00 -0.12028166189E+04  0.12028166189E+04  0.25500000920E-02 0.  1.
    10030    2    1    2    0    0  0.00000000000E+00  0.00000000000E+00  0.92785672696E+03  0.33334899647E+04  0.32017553371E+04 0.  0.
        3    1    3    3  502    0  0.49175869192E+03 -0.11687718704E+04  0.14813535025E+04  0.19499391030E+04  0.10100000352E+00 0. -1.
       -3    1    3    3    0  502 -0.49175869192E+03  0.11687718704E+04 -0.55349677549E+03  0.13835508617E+04  0.10100000352E+00 0.  1.
</event>
<event>
 5   0  0.3270966E-08  0.3201001E+04  0.7818609E-02  0.8188553E-01
       -1   -1    0    0    0  501  0.00000000000E+00  0.00000000000E+00  0.19800000304E+04  0.19800000304E+04  0.50400001928E-02 0. -1.
        1   -1    0    0  501    0  0.00000000000E+00  0.00000000000E+00 -0.12937383126E+04  0.12937383126E+04  0.50400001928E-02 0.  1.
    10030    2    1    2    0    0  0.00000000000E+00  0.00000000000E+00  0.68626171784E+03  0.32737383430E+04  0.32010010299E+04 0.  0.
        3    1    3    3  502    0 -0.45701104071E+03  0.52096149778E+03 -0.11323373834E+04  0.13275721952E+04  0.10100000352E+00 0.  1.
       -3    1    3    3    0  502  0.45701104071E+03 -0.52096149778E+03  0.18185991012E+04  0.19461661478E+04  0.10100000352E+00 0. -1.
</event>
<event>
 5   0  0.9329929E-08  0.3201004E+04  0.7818609E-02  0.8188552E-01
        2   -1    0    0  501    0  0.00000000000E+00  0.00000000000E+00  0.20939950167E+04  0.20939950167E+04  0.25500000920E-02 0. -1.
       -2   -1    0    0    0  501  0.00000000000E+00  0.00000000000E+00 -0.12233107918E+04  0.12233107918E+04  0.25500000920E-02 0.  1.
    10030    2    1    2    0    0  0.00000000000E+00  0.00000000000E+00  0.87068422488E+03  0.33173058086E+04  0.32010040312E+04 0.  0.
        1    1    3    3  502    0  0.10314767380E+04  0.11051957828E+04 -0.10930453931E+03  0.15157009803E+04  0.50400001928E-02 0.  1.
       -1    1    3    3    0  502 -0.10314767380E+04 -0.11051957828E+04  0.97998876419E+03  0.18016048283E+04  0.50400001928E-02 0. -1.
</event>
<event>
 5   0  0.3220147E-08  0.3199985E+04  0.7818609E-02  0.8188821E-01
        1   -1    0    0  501    0  0.00000000000E+00  0.00000000000E+00  0.20711457798E+04  0.20711457798E+04  0.50400001928E-02 0.  1.
       -1   -1    0    0    0  501  0.00000000000E+00  0.00000000000E+00 -0.12360193545E+04  0.12360193545E+04  0.50400001928E-02 0. -1.
    10030    2    1    2    0    0  0.00000000000E+00  0.00000000000E+00  0.83512642529E+03  0.33071651343E+04  0.31999851686E+04 0.  0.
        4    1    3    3  502    0 -0.15255613802E+04 -0.28443427513E+03  0.14985467863E+02  0.15519235029E+04  0.12699999809E+01 0. -1.
       -4    1    3    3    0  502  0.15255613802E+04  0.28443427513E+03  0.82014095742E+03  0.17552416314E+04  0.12699999809E+01 0.  1.
</event>
<event>
 5   0  0.9707721E-08  0.3200541E+04  0.7818609E-02  0.8188674E-01
        2   -1    0    0  501    0  0.00000000000E+00  0.00000000000E+00  0.86318622262E+03  0.86318622263E+03  0.25500000920E-02 0. -1.
       -2   -1    0    0    0  501  0.00000000000E+00  0.00000000000E+00 -0.29667590055E+04  0.29667590055E+04  0.25500000920E-02 0.  1.
    10030    2    1    2    0    0  0.00000000000E+00  0.00000000000E+00 -0.21035727829E+04  0.38299452281E+04  0.32005408914E+04 0.  0.
        3    1    3    3  502    0 -0.10883360538E+04 -0.24778591309E+03  0.32045584355E+03  0.11612773926E+04  0.10100000352E+00 0. -1.
       -3    1    3    3    0  502  0.10883360538E+04  0.24778591309E+03 -0.24240286264E+04  0.26686678356E+04  0.10100000352E+00 0.  1.
</event>
<event>
 5   0  0.3220147E-08  0.3199537E+04  0.7818609E-02  0.8188940E-01
        1   -1    0    0  501    0  0.00000000000E+00  0.00000000000E+00  0.17592919438E+04  0.17592919438E+04  0.50400001928E-02 0. -1.
       -1   -1    0    0    0  501  0.00000000000E+00  0.00000000000E+00 -0.14547094837E+04  0.14547094837E+04  0.50400001928E-02 0.  1.
    10030    2    1    2    0    0  0.00000000000E+00  0.00000000000E+00  0.30458246008E+03  0.32140014275E+04  0.31995366385E+04 0.  0.
        4    1    3    3  502    0 -0.26248270325E+03  0.42595932118E+02 -0.14323529818E+04  0.14568281506E+04  0.12699999809E+01 0.  1.
       -4    1    3    3    0  502  0.26248270325E+03 -0.42595932118E+02  0.17369354419E+04  0.17571732769E+04  0.12699999809E+01 0. -1.
</event>
<event>
 5   0  0.3080500E-08  0.3191368E+04  0.7818609E-02  0.8191101E-01
        3   -1    0    0  501    0  0.00000000000E+00  0.00000000000E+00  0.30072193856E+04  0.30072193873E+04  0.10100000352E+00 0. -1.
       -3   -1    0    0    0  501  0.00000000000E+00  0.00000000000E+00 -0.84669828363E+03  0.84669828965E+03  0.10100000352E+00 0.  1.
    10030    2    1    2    0    0  0.00000000000E+00  0.00000000000E+00  0.21605211019E+04  0.38539176769E+04  0.31913680497E+04 0.  0.
        1    1    3    3  502    0 -0.95732789474E+03 -0.11516039139E+04  0.17455841956E+04  0.22999418377E+04  0.50400001928E-02 0. -1.
       -1    1    3    3    0  502  0.95732789474E+03  0.11516039139E+04  0.41493690630E+03  0.15539758392E+04  0.50400001928E-02 0.  1.
</event>
<event>
 5   0  0.3220147E-08  0.3196332E+04  0.7818609E-02  0.8189787E-01
       -1   -1    0    0    0  501  0.00000000000E+00  0.00000000000E+00  0.85477213945E+03  0.85477213946E+03  0.50400001928E-02 0.  1.
        1   -1    0    0  501    0  0.00000000000E+00  0.00000000000E+00 -0.29880876577E+04  0.29880876577E+04  0.50400001928E-02 0. -1.
    10030    2    1    2    0    0  0.00000000000E+00  0.00000000000E+00 -0.21333155183E+04  0.38428597972E+04  0.31963316975E+04 0.  0.
        4    1    3    3  502    0 -0.13397289544E+03 -0.15434687253E+04 -0.59502375409E+03  0.16596081838E+04  0.12699999809E+01 0.  1.
       -4    1    3    3    0  502  0.13397289544E+03  0.15434687253E+04 -0.15382917642E+04  0.21832516134E+04  0.12699999809E+01 0. -1.
</event>
<event>
 5   0  0.3283581E-08  0.3199279E+04  0.7818609E-02  0.8189008E-01
       -1   -1    0    0    0  501  0.00000000000E+00  0.00000000000E+00  0.11920508104E+04  0.11920508104E+04  0.50400001928E-02 0.  1.
        1   -1    0    0  501    0  0.00000000000E+00  0.00000000000E+00 -0.21465922485E+04  0.21465922485E+04  0.50400001928E-02 0. -1.
    10030    2    1    2    0    0  0.00000000000E+00  0.00000000000E+00 -0.95454143809E+03  0.33386430589E+04  0.31992793122E+04 0.  0.
        5    1    3    3  502    0 -0.10096101334E+04  0.94517273858E+03  0.36158668179E+03  0.14294863223E+04  0.46999998093E+01 0. -1.
       -5    1    3    3    0  502  0.10096101334E+04 -0.94517273858E+03 -0.13161281199E+04  0.19091567366E+04  0.46999998093E+01 0.  1.
</event>
<event>
 5   0  0.9353994E-08  0.3203648E+04  0.7818609E-02  0.8187855E-01
        2   -1    0    0  501    0  0.00000000000E+00  0.00000000000E+00  0.23646552389E+04  0.23646552389E+04  0.25500000920E-02 0.  1.
       -2   -1    0    0    0  501  0.00000000000E+00  0.00000000000E+00 -0.10850797466E+04  0.10850797466E+04  0.25500000920E-02 0. -1.
    10030    2    1    2    0    0  0.00000000000E+00  0.00000000000E+00  0.12795754923E+04  0.34497349854E+04  0.32036476131E+04 0.  0.
        2    1    3    3  502    0  0.84040796899E+03 -0.92708026693E+03  0.17166434795E+04  0.21242947562E+04  0.25500000920E-02 0.  1.
       -2    1    3    3    0  502 -0.84040796899E+03  0.92708026693E+03 -0.43706798721E+03  0.13254402292E+04  0.25500000920E-02 0. -1.
</event>
<event>
 5   0  0.9727083E-08  0.3201252E+04  0.7818609E-02  0.8188487E-01
       -2   -1    0    0    0  501  0.00000000000E+00  0.00000000000E+00  0.16810533144E+04  0.16810533144E+04  0.25500000920E-02 0. -1.
        2   -1    0    0  501    0  0.00000000000E+00  0.00000000000E+00 -0.15240467710E+04  0.15240467710E+04  0.25500000920E-02 0.  1.
    10030    2    1    2    0    0  0.00000000000E+00  0.00000000000E+00  0.15700654348E+03  0.32051000854E+04  0.32012521773E+04 0.  0.
        4    1    3    3  502    0  0.51727206791E+03  0.13804574845E+04  0.70276617083E+03  0.16331304793E+04  0.12699999809E+01 0. -1.
       -4    1    3    3    0  502 -0.51727206791E+03 -0.13804574845E+04 -0.54575962735E+03  0.15719696061E+04  0.12699999809E+01 0.  1.
</event>
<event>
 5   0  0.9157524E-08  0.3198844E+04  0.7818609E-02  0.8189122E-01
       -2   -1    0    0    0  501  0.00000000000E+00  0.00000000000E+00  0.13784128440E+04  0.13784128440E+04  0.25500000920E-02 0.  1.
        2   -1    0    0  501    0  0.00000000000E+00  0.00000000000E+00 -0.18558674460E+04  0.18558674460E+04  0.25500000920E-02 0. -1.
    10030    2    1    2    0    0  0.00000000000E+00  0.00000000000E+00 -0.47745460202E+03  0.32342802900E+04  0.31988444941E+04 0.  0.
        5    1    3    3  502    0 -0.15001654567E+02  0.46346933694E+03  0.13089484914E+04  0.13886673897E+04  0.46999998093E+01 0.  1.
       -5    1    3    3    0  502  0.15001654567E+02 -0.46346933694E+03 -0.17864030934E+04  0.18456129004E+04  0.46999998093E+01 0. -1.
</event>
<event>
 5   0  0.9157524E-08  0.3198460E+04  0.7818609E-02  0.8189224E-01
       -2   -1    0    0    0  501  0.00000000000E+00  0.00000000000E+00  0.14310578822E+04  0.14310578822E+04  0.25500000920E-02 0.  1.
        2   -1    0    0  501    0  0.00000000000E+00  0.00000000000E+00 -0.17871653428E+04  0.17871653428E+04  0.25500000920E-02 0. -1.
    10030    2    1    2    0    0  0.00000000000E+00  0.00000000000E+00 -0.35610746058E+03  0.32182232251E+04  0.31984602863E+04 0.  0.
        5    1    3    3  502    0 -0.15282000288E+04  0.34817099431E+03  0.14155118493E+03  0.15737462302E+04  0.46999998093E+01 0. -1.
       -5    1    3    3    0  502  0.15282000288E+04 -0.34817099431E+03 -0.49765864551E+03  0.16444769949E+04  0.46999998093E+01 0.  1.
</event>
<event>
 5   0  0.3220147E-08  0.3202199E+04  0.7818609E-02  0.8188237E-01
        1   -1    0    0  501    0  0.00000000000E+00  0.00000000000E+00  0.27447615387E+04  0.27447615387E+04  0.50400001928E-02 0.  1.
       -1   -1    0    0    0  501  0.00000000000E+00  0.00000000000E+00 -0.93396804088E+03  0.93396804090E+03  0.50400001928E-02 0. -1.
    10030    2    1    2    0    0  0.00000000000E+00  0.00000000000E+00  0.18107934978E+04  0.36787295796E+04  0.32021989676E+04 0.  0.
        4    1    3    3  502    0  0.97742756802E+03 -0.49740318269E+03 -0.43470466144E+03  0.11797221420E+04  0.12699999809E+01 0. -1.
       -4    1    3    3    0  502 -0.97742756802E+03  0.49740318269E+03  0.22454981593E+04  0.24990074376E+04  0.12699999809E+01 0.  1.
</event>
<event>
 5   0  0.3343140E-08  0.3200113E+04  0.7818609E-02  0.8188787E-01
       -1   -1    0    0    0  501  0.00000000000E+00  0.00000000000E+00  0.21967909344E+04  0.21967909344E+04  0.50400001928E-02 0.  1.
        1   -1    0    0  501    0  0.00000000000E+00  0.00000000000E+00 -0.11654182912E+04  0.11654182912E+04  0.50400001928E-02 0. -1.
    10030    2    1    2    0    0  0.00000000000E+00  0.00000000000E+00  0.10313726432E+04  0.33622092256E+04  0.32001127086E+04 0.  0.
        1    1    3    3  502    0 -0.84921876920E+03  0.22383780643E+02  0.19402834989E+04  0.21181061370E+04  0.50400001928E-02 0.  1.
       -1    1    3    3    0  502  0.84921876920E+03 -0.22383780643E+02 -0.90891085562E+03  0.12441030886E+04  0.50400001928E-02 0. -1.
</event>
<event>
 5   0  0.9707721E-08  0.3201525E+04  0.7818609E-02  0.8188415E-01
        2   -1    0    0  501    0  0.00000000000E+00  0.00000000000E+00  0.20830470131E+04  0.20830470131E+04  0.25500000920E-02 0. -1.
       -2   -1    0    0    0  501  0.00000000000E+00  0.00000000000E+00 -0.12301405303E+04  0.12301405303E+04  0.25500000920E-02 0.  1.
    10030    2    1    2    0    0  0.00000000000E+00  0.00000000000E+00  0.85290648280E+03  0.33131875433E+04  0.32015249849E+04 0.  0.
        3    1    3    3  502    0 -0.10925130931E+04  0.10417033644E+04  0.97767491442E+03  0.17984935380E+04  0.10100000352E+00 0. -1.
       -3    1    3    3    0  502  0.10925130931E+04 -0.10417033644E+04 -0.12476843162E+03  0.15146940053E+04  0.10100000352E+00 0.  1.
</event>
<event>
 5   0  0.9329929E-08  0.3199954E+04  0.7818609E-02  0.8188829E-01
       -2   -1    0    0    0  501  0.00000000000E+00  0.00000000000E+00  0.99089457630E+03  0.99089457630E+03  0.25500000920E-02 0. -1.
        2   -1    0    0  501    0  0.00000000000E+00  0.00000000000E+00 -0.25834504140E+04  0.25834504140E+04  0.25500000920E-02 0.  1.
    10030    2    1    2    0    0  0.00000000000E+00  0.00000000000E+00 -0.15925558377E+04  0.35743449903E+04  0.31999543768E+04 0.  0.
        1    1    3    3  502    0 -0.46007914969E+03  0.57436333667E+03 -0.23831871898E+04  0.24942227743E+04  0.50400001928E-02 0.  1.
       -1    1    3    3    0  502  0.46007914969E+03 -0.57436333667E+03  0.79063135208E+03  0.10801222160E+04  0.50400001928E-02 0. -1.
</event>
<event>
 5   0  0.9157524E-08  0.3200292E+04  0.7818609E-02  0.8188740E-01
       -2   -1    0    0    0  501  0.00000000000E+00  0.00000000000E+00  0.91596377249E+03  0.91596377250E+03  0.25500000920E-02 0. -1.
        2   -1    0    0  501    0  0.00000000000E+00  0.00000000000E+00 -0.27953798865E+04  0.27953798865E+04  0.25500000920E-02 0.  1.
    10030    2    1    2    0    0  0.00000000000E+00  0.00000000000E+00 -0.18794161140E+04  0.37113436590E+04  0.32002916782E+04 0.  0.
        5    1    3    3  502    0  0.33721596369E+03 -0.49354546070E+03 -0.26610333125E+04  0.27273470824E+04  0.46999998093E+01 0.  1.
       -5    1    3    3    0  502 -0.33721596369E+03  0.49354546070E+03  0.78161719841E+03  0.98399657662E+03  0.46999998093E+01 0. -1.
</event>
<event>
 5   0  0.3270966E-08  0.3200788E+04  0.7818609E-02  0.8188609E-01
       -1   -1    0    0    0  501  0.00000000000E+00  0.00000000000E+00  0.30180347706E+04  0.30180347706E+04  0.50400001928E-02 0. -1.
        1   -1    0    0  501    0  0.00000000000E+00  0.00000000000E+00 -0.84865165926E+03  0.84865165928E+03  0.50400001928E-02 0.  1.
    10030    2    1    2    0    0  0.00000000000E+00  0.00000000000E+00  0.21693831114E+04  0.38666864299E+04  0.32007875380E+04 0.  0.
        3    1    3    3  502    0 -0.11491884886E+04  0.94547773844E+03  0.37338355574E+03  0.15342677818E+04  0.10100000352E+00 0.  1.
       -3    1    3    3    0  502  0.11491884886E+04 -0.94547773844E+03  0.17959995556E+04  0.23324186481E+04  0.10100000352E+00 0. -1.
</event>
<event>
 5   0  0.9353994E-08  0.3201340E+04  0.7818609E-02  0.8188463E-01
       -2   -1    0    0    0  501  0.00000000000E+00  0.00000000000E+00  0.11761823564E+04  0.11761823564E+04  0.25500000920E-02 0.  1.
        2   -1    0    0  501    0  0.00000000000E+00  0.00000000000E+00 -0.21783563507E+04  0.21783563507E+04  0.25500000920E-02 0. -1.
    10030    2    1    2    0    0  0.00000000000E+00  0.00000000000E+00 -0.10021739943E+04  0.33545387070E+04  0.32013399104E+04 0.  0.
        2    1    3    3  502    0 -0.40249184932E+03 -0.97400731520E+03 -0.17635036409E+04  0.20544184166E+04  0.25500000920E-02 0. -1.
       -2    1    3    3    0  502  0.40249184932E+03  0.97400731520E+03  0.76132964661E+03  0.13001202905E+04  0.25500000920E-02 0.  1.
</event>
<event>
 5   0  0.3343140E-08  0.3200994E+04  0.7818609E-02  0.8188555E-01
        1   -1    0    0  501    0  0.00000000000E+00  0.00000000000E+00  0.20310040070E+04  0.20310040070E+04  0.50400001928E-02 0. -1.
       -1   -1    0    0    0  501  0.00000000000E+00  0.00000000000E+00 -0.12612437542E+04  0.12612437542E+04  0.50400001928E-02 0.  1.
    10030    2    1    2    0    0  0.00000000000E+00  0.00000000000E+00  0.76976025276E+03  0.32922477612E+04  0.32009942947E+04 0.  0.
        1    1    3    3  502    0 -0.44861123648E+03  0.53859847989E+03  0.18647348625E+04  0.19921286282E+04  0.50400001928E-02 0. -1.
       -1    1    3    3    0  502  0.44861123648E+03 -0.53859847989E+03 -0.10949746097E+04  0.13001191330E+04  0.50400001928E-02 0.  1.
</event>
<event>
 5   0  0.9707721E-08  0.3199725E+04  0.7818609E-02  0.8188890E-01
        2   -1    0    0  501    0  0.00000000000E+00  0.00000000000E+00  0.12558687105E+04  0.12558687105E+04  0.25500000920E-02 0.  1.
       -2   -1    0    0    0  501  0.00000000000E+00  0.00000000000E+00 -0.20380796571E+04  0.20380796571E+04  0.25500000920E-02 0. -1.
    10030    2    1    2    0    0  0.00000000000E+00  0.00000000000E+00 -0.78221094657E+03  0.32939483677E+04  0.31997252826E+04 0.  0.
        3    1    3    3  502    0  0.95829922971E+03  0.10197885984E+04  0.40713396013E+03  0.14574169859E+04  0.10100000352E+00 0.  1.
       -3    1    3    3    0  502 -0.95829922971E+03 -0.10197885984E+04 -0.11893449067E+04  0.18365313818E+04  0.10100000352E+00 0. -1.
</event>
<event>
 5   0  0.9353994E-08  0.3201142E+04  0.7818609E-02  0.8188516E-01
       -2   -1    0    0    0  501  0.00000000000E+00  0.00000000000E+00  0.13137870463E+04  0.13137870463E+04  0.25500000920E-02 0.  1.
        2   -1    0    0  501    0  0.00000000000E+00  0.00000000000E+00 -0.19499569442E+04  0.19499569442E+04  0.25500000920E-02 0. -1.
    10030    2    1    2    0    0  0.00000000000E+00  0.00000000000E+00 -0.63616989790E+03  0.32637439906E+04  0.32011424050E+04 0.  0.
        2    1    3    3  502    0  0.93713820553E+02 -0.15600276586E+04  0.34155937323E+02  0.15632131025E+04  0.25500000920E-02 0.  1.
       -2    1    3    3    0  502 -0.93713820553E+02  0.15600276586E+04 -0.67032583523E+03  0.17005308881E+04  0.25500000920E-02 0. -1.
</event>
<event>
 5   0  0.3343140E-08  0.3199630E+04  0.7818609E-02  0.8188915E-01
       -1   -1    0    0    0  501  0.00000000000E+00  0.00000000000E+00  0.99937410574E+03  0.99937410575E+03  0.50400001928E-02 0.  1.
        1   -1    0    0  501    0  0.00000000000E+00  0.00000000000E+00 -0.25610102510E+04  0.25610102510E+04  0.50400001928E-02 0. -1.
    10030    2    1    2    0    0  0.00000000000E+00  0.00000000000E+00 -0.15616361452E+04  0.35603843567E+04  0.31996295594E+04 0.  0.
        1    1    3    3  502    0  0.11224738532E+04  0.41953295782E+03  0.39861803886E+03  0.12628744177E+04  0.50400001928E-02 0.  1.
       -1    1    3    3    0  502 -0.11224738532E+04 -0.41953295782E+03 -0.19602541841E+04  0.22975099391E+04  0.50400001928E-02 0. -1.
</event>
<event>
 5   0  0.9157524E-08  0.3199773E+04  0.7818609E-02  0.8188877E-01
       -2   -1    0    0    0  501  0.00000000000E+00  0.00000000000E+00  0.16363620154E+04  0.16363620154E+04  0.25500000920E-02 0.  1.
        2   -1    0    0  501    0  0.00000000000E+00  0.00000000000E+00 -0.15642243075E+04  0.15642243075E+04  0.25500000920E-02 0. -1.
    10030    2    1    2    0    0  0.00000000000E+00  0.00000000000E+00  0.72137707956E+02  0.32005863229E+04  0.31997732672E+04 0.  0.
        5    1    3    3  502    0 -0.76476877330E+03 -0.13809059127E+04  0.29660141561E+03  0.16061652799E+04  0.46999998093E+01 0.  1.
       -5    1    3    3    0  502  0.76476877330E+03  0.13809059127E+04 -0.22446370765E+03  0.15944210430E+04  0.46999998093E+01 0. -1.
</event>
<event>
 5   0  0.9353994E-08  0.3197482E+04  0.7818609E-02  0.8189482E-01
        2   -1    0    0  501    0  0.00000000000E+00  0.00000000000E+00  0.10866177399E+04  0.10866177399E+04  0.25500000920E-02 0. -1.
       -2   -1    0    0    0  501  0.00000000000E+00  0.00000000000E+00 -0.23522287244E+04  0.23522287244E+04  0.25500000920E-02 0.  1.
    10030    2    1    2    0    0  0.00000000000E+00  0.00000000000E+00 -0.12656109845E+04  0.34388464643E+04  0.31974824223E+04 0.  0.
        2    1    3    3  502    0  0.17725001302E+03 -0.15818009399E+04 -0.79399090484E+03  0.17787448770E+04  0.25500000920E-02 0. -1.
       -2    1    3    3    0  502 -0.17725001302E+03  0.15818009399E+04 -0.47162007966E+03  0.16601015873E+04  0.25500000920E-02 0.  1.
</event>
<event>
 5   0  0.9157524E-08  0.3199513E+04  0.7818609E-02  0.8188946E-01
       -2   -1    0    0    0  501  0.00000000000E+00  0.00000000000E+00  0.13072611528E+04  0.13072611528E+04  0.25500000920E-02 0.  1.
        2   -1    0    0  501    0  0.00000000000E+00  0.00000000000E+00 -0.19576968862E+04  0.19576968862E+04  0.25500000920E-02 0. -1.
    10030    2    1    2    0    0  0.00000000000E+00  0.00000000000E+00 -0.65043573333E+03  0.32649580390E+04  0.31995131432E+04 0.  0.
        5    1    3    3  502    0 -0.56154373415E+03 -0.54261060493E+03  0.10995653611E+04  0.13486377228E+04  0.46999998093E+01 0.  1.
       -5    1    3    3    0  502  0.56154373415E+03  0.54261060493E+03 -0.17500010944E+04  0.19163203162E+04  0.46999998093E+01 0. -1.
</event>
<event>
 5   0  0.3343140E-08  0.3199479E+04  0.7818609E-02  0.8188955E-01
        1   -1    0    0  501    0  0.00000000000E+00  0.00000000000E+00  0.18347158339E+04  0.18347158339E+04  0.50400001928E-02 0. -1.
       -1   -1    0    0    0  501  0.00000000000E+00  0.00000000000E+00 -0.13948568646E+04  0.13948568646E+04  0.50400001928E-02 0.  1.
    10030    2    1    2    0    0  0.00000000000E+00  0.00000000000E+00  0.43985896932E+03  0.32295726986E+04  0.31994786923E+04 0.  0.
        1    1    3    3  502    0 -0.14188582230E+03 -0.12686774597E+04  0.11930993353E+04  0.17473294215E+04  0.50400001928E-02 0. -1.
       -1    1    3    3    0  502  0.14188582230E+03  0.12686774597E+04 -0.75324036602E+03  0.14822432770E+04  0.50400001928E-02 0.  1.
</event>
<event>
 5   0  0.9727083E-08  0.3200924E+04  0.7818609E-02  0.8188573E-01
        2   -1    0    0  501    0  0.00000000000E+00  0.00000000000E+00  0.14798284287E+04  0.14798284287E+04  0.25500000920E-02 0. -1.
       -2   -1    0    0    0  501  0.00000000000E+00  0.00000000000E+00 -0.17309297440E+04  0.17309297440E+04  0.25500000920E-02 0.  1.
    10030    2    1    2    0    0  0.00000000000E+00  0.00000000000E+00 -0.25110131532E+03  0.32107581727E+04  0.32009242686E+04 0.  0.
        4    1    3    3  502    0  0.14058729691E+04  0.73623027396E+02  0.63808859949E+03  0.15456577335E+04  0.12699999809E+01 0. -1.
       -4    1    3    3    0  502 -0.14058729691E+04 -0.73623027396E+02 -0.88918991481E+03  0.16651004393E+04  0.12699999809E+01 0.  1.
</event>
<event>
 5   0  0.9707721E-08  0.3199424E+04  0.7818609E-02  0.8188969E-01
       -2   -1    0    0    0  501  0.00000000000E+00  0.00000000000E+00  0.97601854500E+03  0.97601854501E+03  0.25500000920E-02 0. -1.
        2   -1    0    0  501    0  0.00000000000E+00  0.00000000000E+00 -0.26219574571E+04  0.26219574571E+04  0.25500000920E-02 0.  1.
    10030    2    1    2    0    0  0.00000000000E+00  0.00000000000E+00 -0.16459389121E+04  0.35979760021E+04  0.31994243872E+04 0.  0.
        3    1    3    3  502    0 -0.74883177484E+03  0.59689531919E+03 -0.22640195458E+04  0.24582143038E+04  0.10100000352E+00 0.  1.
       -3    1    3    3    0  502  0.74883177484E+03 -0.59689531919E+03  0.61808063372E+03  0.11397616984E+04  0.10100000352E+00 0. -1.
</event>
<event>
 5   0  0.9157524E-08  0.3213913E+04  0.7818609E-02  0.8185152E-01
       -2   -1    0    0    0  501  0.00000000000E+00  0.00000000000E+00  0.12677202641E+04  0.12677202641E+04  0.25500000920E-02 0.  1.
        2   -1    0    0  501    0  0.00000000000E+00  0.00000000000E+00 -0.20369706875E+04  0.20369706875E+04  0.25500000920E-02 0. -1.
    10030    2    1    2    0    0  0.00000000000E+00  0.00000000000E+00 -0.76925042337E+03  0.33046909515E+04  0.32139128911E+04 0.  0.
        5    1    3    3  502    0  0.15966155341E+02 -0.96084221917E+03 -0.17089534122E+04  0.19606163682E+04  0.46999998093E+01 0. -1.
       -5    1    3    3    0  502 -0.15966155341E+02  0.96084221917E+03  0.93970298884E+03  0.13440745833E+04  0.46999998093E+01 0.  1.
</event>
<event>
 5   0  0.9707721E-08  0.3202580E+04  0.7818609E-02  0.8188136E-01
       -2   -1    0    0    0  501  0.00000000000E+00  0.00000000000E+00  0.11796255560E+04  0.11796255560E+04  0.25500000920E-02 0.  1.
        2   -1    0    0  501    0  0.00000000000E+00  0.00000000000E+00 -0.21736813591E+04  0.21736813592E+04  0.25500000920E-02 0. -1.
    10030    2    1    2    0    0  0.00000000000E+00  0.00000000000E+00 -0.99405580317E+03  0.33533069151E+04  0.32025802609E+04 0.  0.
        3    1    3    3  502    0  0.53235227898E+03 -0.14033531338E+04 -0.10812588218E+04  0.18498431331E+04  0.10100000352E+00 0. -1.
       -3    1    3    3    0  502 -0.53235227898E+03  0.14033531338E+04  0.87203018607E+02  0.15034637820E+04  0.10100000352E+00 0.  1.
</event>
<event>
 5   0  0.3270966E-08  0.3200387E+04  0.7818609E-02  0.8188715E-01
        1   -1    0    0  501    0  0.00000000000E+00  0.00000000000E+00  0.26867167481E+04  0.26867167482E+04  0.50400001928E-02 0.  1.
       -1   -1    0    0    0  501  0.00000000000E+00  0.00000000000E+00 -0.95306609106E+03  0.95306609108E+03  0.50400001928E-02 0. -1.
    10030    2    1    2    0    0  0.00000000000E+00  0.00000000000E+00  0.17336506571E+04  0.36397828392E+04  0.32003866198E+04 0.  0.
        3    1    3    3  502    0 -0.14250544639E+04 -0.50399418561E+03  0.14641251742E+04  0.21043889613E+04  0.10100000352E+00 0.  1.
       -3    1    3    3    0  502  0.14250544639E+04  0.50399418561E+03  0.26952548285E+03  0.15353938779E+04  0.10100000352E+00 0. -1.
</event>
<event>
 5   0  0.3270966E-08  0.3200523E+04  0.7818609E-02  0.8188679E-01
       -1   -1    0    0    0  501  0.00000000000E+00  0.00000000000E+00  0.12300865678E+04  0.12300865678E+04  0.50400001928E-02 0.  1.
        1   -1    0    0  501    0  0.00000000000E+00  0.00000000000E+00 -0.20818340814E+04  0.20818340814E+04  0.50400001928E-02 0. -1.
    10030    2    1    2    0    0  0.00000000000E+00  0.00000000000E+00 -0.85174751357E+03  0.33119206492E+04  0.32005225448E+04 0.  0.
        3    1    3    3  502    0 -0.40491838792E+03  0.71238421917E+03 -0.18482659934E+04  0.20217659036E+04  0.10100000352E+00 0. -1.
       -3    1    3    3    0  502  0.40491838792E+03 -0.71238421917E+03  0.99651847982E+03  0.12901547455E+04  0.10100000352E+00 0.  1.
</event>
<event>
 5   0  0.9727083E-08  0.3207606E+04  0.7818609E-02  0.8186811E-01
       -2   -1    0    0    0  501  0.00000000000E+00  0.00000000000E+00  0.83708972762E+03  0.83708972762E+03  0.25500000920E-02 0.  1.
        2   -1    0    0  501    0  0.00000000000E+00  0.00000000000E+00 -0.30727698102E+04  0.30727698102E+04  0.25500000920E-02 0. -1.
    10030    2    1    2    0    0  0.00000000000E+00  0.00000000000E+00 -0.22356800826E+04  0.39098595379E+04  0.32076059880E+04 0.  0.
        4    1    3    3  502    0  0.12654277395E+04 -0.82160878887E+02 -0.23147093621E+04  0.26393065032E+04  0.12699999809E+01 0. -1.
       -4    1    3    3    0  502 -0.12654277395E+04  0.82160878887E+02  0.79029279494E+02  0.12705530347E+04  0.12699999809E+01 0.  1.
</event>
<event>
 5   0  0.3283581E-08  0.3201161E+04  0.7818609E-02  0.8188511E-01
       -1   -1    0    0    0  501  0.00000000000E+00  0.00000000000E+00  0.15302948158E+04  0.15302948158E+04  0.50400001928E-02 0.  1.
        1   -1    0    0  501    0  0.00000000000E+00  0.00000000000E+00 -0.16740941047E+04  0.16740941047E+04  0.50400001928E-02 0. -1.
    10030    2    1    2    0    0  0.00000000000E+00  0.00000000000E+00 -0.14379928892E+03  0.32043889205E+04  0.32011607455E+04 0.  0.
        5    1    3    3  502    0 -0.26927361261E+03 -0.50975237910E+02 -0.16504263763E+04  0.16730319981E+04  0.46999998093E+01 0. -1.
       -5    1    3    3    0  502  0.26927361261E+03  0.50975237910E+02  0.15066270873E+04  0.15313569224E+04  0.46999998093E+01 0.  1.
</event>
<event>
 5   0  0.3270966E-08  0.3183030E+04  0.7818609E-02  0.8193313E-01
       -1   -1    0    0    0  501  0.00000000000E+00  0.00000000000E+00  0.16415661595E+04  0.16415661595E+04  0.50400001928E-02 0.  1.
        1   -1    0    0  501    0  0.00000000000E+00  0.00000000000E+00 -0.15429896003E+04  0.15429896003E+04  0.50400001928E-02 0. -1.
    10030    2    1    2    0    0  0.00000000000E+00  0.00000000000E+00  0.98576559155E+02  0.31845557598E+04  0.31830296966E+04 0.  0.
        3    1    3    3  502    0 -0.14905482392E+04 -0.17825378749E+03 -0.47955859827E+03  0.15759076514E+04  0.10100000352E+00 0. -1.
       -3    1    3    3    0  502  0.14905482392E+04  0.17825378749E+03  0.57813515742E+03  0.16086481084E+04  0.10100000352E+00 0.  1.
</event>
<event>
 5   0  0.3080500E-08  0.3200290E+04  0.7818609E-02  0.8188741E-01
       -3   -1    0    0    0  501  0.00000000000E+00  0.00000000000E+00  0.84847342086E+03  0.84847342688E+03  0.10100000352E+00 0. -1.
        3   -1    0    0  501    0  0.00000000000E+00  0.00000000000E+00 -0.30177307630E+04  0.30177307647E+04  0.10100000352E+00 0.  1.
    10030    2    1    2    0    0  0.00000000000E+00  0.00000000000E+00 -0.21692573421E+04  0.38662041916E+04  0.32002902110E+04 0.  0.
        5    1    3    3  502    0  0.96277719288E+03 -0.42155291915E+03 -0.25422529980E+04  0.27509487786E+04  0.46999998093E+01 0.  1.
       -5    1    3    3    0  502 -0.96277719288E+03  0.42155291915E+03  0.37299565587E+03  0.11152554129E+04  0.46999998093E+01 0. -1.
</event>
<event>
 5   0  0.3270966E-08  0.3201678E+04  0.7818609E-02  0.8188374E-01
        1   -1    0    0  501    0  0.00000000000E+00  0.00000000000E+00  0.16588576829E+04  0.16588576829E+04  0.50400001928E-02 0. -1.
       -1   -1    0    0    0  501  0.00000000000E+00  0.00000000000E+00 -0.15448497911E+04  0.15448497911E+04  0.50400001928E-02 0.  1.
    10030    2    1    2    0    0  0.00000000000E+00  0.00000000000E+00  0.11400789182E+03  0.32037074740E+04  0.32016782755E+04 0.  0.
        3    1    3    3  502    0 -0.10211184384E+04 -0.30297879459E+03  0.12528374903E+04  0.16444089523E+04  0.10100000352E+00 0. -1.
       -3    1    3    3    0  502  0.10211184384E+04  0.30297879459E+03 -0.11388295985E+04  0.15592985217E+04  0.10100000352E+00 0.  1.
</event>
<event>
 5   0  0.9329929E-08  0.3199645E+04  0.7818609E-02  0.8188911E-01
       -2   -1    0    0    0  501  0.00000000000E+00  0.00000000000E+00  0.17281498421E+04  0.17281498421E+04  0.25500000920E-02 0.  1.
        2   -1    0    0  501    0  0.00000000000E+00  0.00000000000E+00 -0.14810239712E+04  0.14810239712E+04  0.25500000920E-02 0. -1.
    10030    2    1    2    0    0  0.00000000000E+00  0.00000000000E+00  0.24712587093E+03  0.32091738133E+04  0.31996445690E+04 0.  0.
        1    1    3    3  502    0  0.14795777334E+04 -0.56102818636E+03 -0.11278361334E+03  0.15863867872E+04  0.50400001928E-02 0. -1.
       -1    1    3    3    0  502 -0.14795777334E+04  0.56102818636E+03  0.35990948428E+03  0.16227870261E+04  0.50400001928E-02 0.  1.
</event>
<event>
 5   0  0.3427667E-08  0.3200236E+04  0.7818609E-02  0.8188755E-01
       -1   -1    0    0    0  501  0.00000000000E+00  0.00000000000E+00  0.12376508049E+04  0.12376508049E+04  0.50400001928E-02 0.  1.
        1   -1    0    0  501    0  0.00000000000E+00  0.00000000000E+00 -0.20687397561E+04  0.20687397561E+04  0.50400001928E-02 0. -1.
    10030    2    1    2    0    0  0.00000000000E+00  0.00000000000E+00 -0.83108895118E+03  0.33063905610E+04  0.32002358815E+04 0.  0.
        2    1    3    3  502    0  0.24105472905E+03 -0.46705162173E+03  0.11459226300E+04  0.12607074497E+04  0.25500000920E-02 0.  1.
       -2    1    3    3    0  502 -0.24105472905E+03  0.46705162173E+03 -0.19770115812E+04  0.20456831113E+04  0.25500000920E-02 0. -1.
</event>
<event>
 5   0  0.3270966E-08  0.3200283E+04  0.7818609E-02  0.8188742E-01
        1   -1    0    0  501    0  0.00000000000E+00  0.00000000000E+00  0.15609206757E+04  0.15609206757E+04  0.50400001928E-02 0.  1.
       -1   -1    0    0    0  501  0.00000000000E+00  0.00000000000E+00 -0.16403479214E+04  0.16403479214E+04  0.50400001928E-02 0. -1.
    10030    2    1    2    0    0  0.00000000000E+00  0.00000000000E+00 -0.79427245711E+02  0.32012685971E+04  0.32002831036E+04 0.  0.
        3    1    3    3  502    0  0.34712693803E+02  0.15617779167E+04 -0.38637155275E+03  0.16092352902E+04  0.10100000352E+00 0. -1.
       -3    1    3    3    0  502 -0.34712693803E+02 -0.15617779167E+04  0.30694430703E+03  0.15920333069E+04  0.10100000352E+00 0.  1.
</event>
<event>
 5   0  0.3427667E-08  0.3200713E+04  0.7818609E-02  0.8188629E-01
       -1   -1    0    0    0  501  0.00000000000E+00  0.00000000000E+00  0.14460201076E+04  0.14460201076E+04  0.50400001928E-02 0.  1.
        1   -1    0    0  501    0  0.00000000000E+00  0.00000000000E+00 -0.17711650807E+04  0.17711650807E+04  0.50400001928E-02 0. -1.
    10030    2    1    2    0    0  0.00000000000E+00  0.00000000000E+00 -0.32514497313E+03  0.32171851883E+04  0.32007126210E+04 0.  0.
        2    1    3    3  502    0  0.52408947000E+03 -0.13964661419E+03  0.13508221986E+04  0.14556412888E+04  0.25500000920E-02 0.  1.
       -2    1    3    3    0  502 -0.52408947000E+03  0.13964661419E+03 -0.16759671717E+04  0.17615438995E+04  0.25500000920E-02 0. -1.
</event>
<event>
 5   0  0.3270966E-08  0.3200411E+04  0.7818609E-02  0.8188709E-01
        1   -1    0    0  501    0  0.00000000000E+00  0.00000000000E+00  0.27346164018E+04  0.27346164018E+04  0.50400001928E-02 0.  1.
       -1   -1    0    0    0  501  0.00000000000E+00  0.00000000000E+00 -0.93638615751E+03  0.93638615752E+03  0.50400001928E-02 0. -1.
    10030    2    1    2    0    0  0.00000000000E+00  0.00000000000E+00  0.17982302443E+04  0.36710025593E+04  0.32004105641E+04 0.  0.
        3    1    3    3  502    0 -0.49123340713E+03 -0.55991213697E+03  0.25236449322E+04  0.26312726228E+04  0.10100000352E+00 0.  1.
       -3    1    3    3    0  502  0.49123340713E+03  0.55991213697E+03 -0.72541468788E+03  0.10397299366E+04  0.10100000352E+00 0. -1.
</event>
<event>
 5   0  0.9157524E-08  0.3201434E+04  0.7818609E-02  0.8188439E-01
       -2   -1    0    0    0  501  0.00000000000E+00  0.00000000000E+00  0.10906152898E+04  0.10906152898E+04  0.25500000920E-02 0. -1.
        2   -1    0    0  501    0  0.00000000000E+00  0.00000000000E+00 -0.23494024799E+04  0.23494024799E+04  0.25500000920E-02 0.  1.
    10030    2    1    2    0    0  0.00000000000E+00  0.00000000000E+00 -0.12587871901E+04  0.34400177698E+04  0.32014335955E+04 0.  0.
        5    1    3    3  502    0  0.35203070102E+03 -0.11974870588E+04 -0.17062637388E+04  0.21140621814E+04  0.46999998093E+01 0.  1.
       -5    1    3    3    0  502 -0.35203070102E+03  0.11974870588E+04  0.44747654874E+03  0.13259555883E+04  0.46999998093E+01 0. -1.
</event>
<event>
 5   0  0.9329929E-08  0.3199642E+04  0.7818609E-02  0.8188912E-01
       -2   -1    0    0    0  501  0.00000000000E+00  0.00000000000E+00  0.12149738408E+04  0.12149738408E+04  0.25500000920E-02 0.  1.
        2   -1    0    0  501    0  0.00000000000E+00  0.00000000000E+00 -0.21065693262E+04  0.21065693262E+04  0.25500000920E-02 0. -1.
    10030    2    1    2    0    0  0.00000000000E+00  0.00000000000E+00 -0.89159548543E+03  0.33215431670E+04  0.31996416207E+04 0.  0.
        1    1    3    3  502    0 -0.64336758229E+03 -0.27442834728E+03  0.10478358471E+04  0.12598383731E+04  0.50400001928E-02 0.  1.
       -1    1    3    3    0  502  0.64336758229E+03  0.27442834728E+03 -0.19394313325E+04  0.20617047940E+04  0.50400001928E-02 0. -1.
</event>
<event>
 5   0  0.3343140E-08  0.3200183E+04  0.7818609E-02  0.8188769E-01
       -1   -1    0    0    0  501  0.00000000000E+00  0.00000000000E+00  0.14849996279E+04  0.14849996280E+04  0.50400001928E-02 0. -1.
        1   -1    0    0  501    0  0.00000000000E+00  0.00000000000E+00 -0.17241028208E+04  0.17241028208E+04  0.50400001928E-02 0.  1.
    10030    2    1    2    0    0  0.00000000000E+00  0.00000000000E+00 -0.23910319284E+03  0.32091024487E+04  0.32001825244E+04 0.  0.
        1    1    3    3  502    0  0.10315545388E+04 -0.56847862543E+03 -0.12056305995E+04  0.16854725915E+04  0.50400001928E-02 0.  1.
       -1    1    3    3    0  502 -0.10315545388E+04  0.56847862543E+03  0.96652740666E+03  0.15236298573E+04  0.50400001928E-02 0. -1.
</event>
<event>
 5   0  0.9353994E-08  0.3203567E+04  0.7818609E-02  0.8187876E-01
       -2   -1    0    0    0  501  0.00000000000E+00  0.00000000000E+00  0.13173774700E+04  0.13173774700E+04  0.25500000920E-02 0.  1.
        2   -1    0    0  501    0  0.00000000000E+00  0.00000000000E+00 -0.19475896182E+04  0.19475896182E+04  0.25500000920E-02 0. -1.
    10030    2    1    2    0    0  0.00000000000E+00  0.00000000000E+00 -0.63021214820E+03  0.32649670883E+04  0.32035671892E+04 0.  0.
        2    1    3    3  502    0 -0.49090801083E+03 -0.14470588297E+04  0.17445527483E+03  0.15379871829E+04  0.25500000920E-02 0. -1.
       -2    1    3    3    0  502  0.49090801083E+03  0.14470588297E+04 -0.80466742302E+03  0.17269799054E+04  0.25500000920E-02 0.  1.
</event>
<event>
 5   0  0.9157524E-08  0.3199733E+04  0.7818609E-02  0.8188888E-01
       -2   -1    0    0    0  501  0.00000000000E+00  0.00000000000E+00  0.12664648372E+04  0.12664648372E+04  0.25500000920E-02 0.  1.
        2   -1    0    0  501    0  0.00000000000E+00  0.00000000000E+00 -0.20210376479E+04  0.20210376479E+04  0.25500000920E-02 0. -1.
    10030    2    1    2    0    0  0.00000000000E+00  0.00000000000E+00 -0.75457281067E+03  0.32875024851E+04  0.31997331862E+04 0.  0.
        5    1    3    3  502    0 -0.14583376875E+04 -0.54777414960E+03 -0.29495837107E+01  0.15578305812E+04  0.46999998093E+01 0. -1.
       -5    1    3    3    0  502  0.14583376875E+04  0.54777414960E+03 -0.75162322696E+03  0.17296719039E+04  0.46999998093E+01 0.  1.
</event>
<event>
 5   0  0.3427667E-08  0.3200069E+04  0.7818609E-02  0.8188799E-01
       -1   -1    0    0    0  501  0.00000000000E+00  0.00000000000E+00  0.93395468258E+03  0.93395468260E+03  0.50400001928E-02 0. -1.
        1   -1    0    0  501    0  0.00000000000E+00  0.00000000000E+00 -0.27411499057E+04  0.27411499057E+04  0.50400001928E-02 0.  1.
    10030    2    1    2    0    0  0.00000000000E+00  0.00000000000E+00 -0.18071952231E+04  0.36751045883E+04  0.32000686181E+04 0.  0.
        2    1    3    3  502    0  0.11600400832E+04 -0.44627476713E+03 -0.20607701402E+04  0.24065800908E+04  0.25500000920E-02 0.  1.
       -2    1    3    3    0  502 -0.11600400832E+04  0.44627476713E+03  0.25357491712E+03  0.12685244976E+04  0.25500000920E-02 0. -1.
</event>
<event>
 5   0  0.9353994E-08  0.3197974E+04  0.7818609E-02  0.8189352E-01
        2   -1    0    0  501    0  0.00000000000E+00  0.00000000000E+00  0.17298696833E+04  0.17298696833E+04  0.25500000920E-02 0.  1.
       -2   -1    0    0    0  501  0.00000000000E+00  0.00000000000E+00 -0.14780068922E+04  0.14780068922E+04  0.25500000920E-02 0. -1.
    10030    2    1    2    0    0  0.00000000000E+00  0.00000000000E+00  0.25186279109E+03  0.32078765755E+04  0.31979739302E+04 0.  0.
        2    1    3    3  502    0  0.21943269542E+03 -0.88663116800E+03  0.14424335137E+04  0.17073019585E+04  0.25500000920E-02 0.  1.
       -2    1    3    3    0  502 -0.21943269542E+03  0.88663116800E+03 -0.11905707226E+04  0.15005746171E+04  0.25500000920E-02 0. -1.
</event>
<event>
 5   0  0.9707721E-08  0.3199358E+04  0.7818609E-02  0.8188987E-01
       -2   -1    0    0    0  501  0.00000000000E+00  0.00000000000E+00  0.22575169897E+04  0.22575169897E+04  0.25500000920E-02 0. -1.
        2   -1    0    0  501    0  0.00000000000E+00  0.00000000000E+00 -0.11335340308E+04  0.11335340308E+04  0.25500000920E-02 0.  1.
    10030    2    1    2    0    0  0.00000000000E+00  0.00000000000E+00  0.11239829589E+04  0.33910510205E+04  0.31993576436E+04 0.  0.
        3    1    3    3  502    0  0.84817963259E+03 -0.70101415210E+03  0.17926554331E+04  0.21034360087E+04  0.10100000352E+00 0. -1.
       -3    1    3    3    0  502 -0.84817963259E+03  0.70101415210E+03 -0.66867247419E+03  0.12876150118E+04  0.10100000352E+00 0.  1.
</event>
<event>
 5   0  0.3080500E-08  0.3198606E+04  0.7818609E-02  0.8189185E-01
       -3   -1    0    0    0  501  0.00000000000E+00  0.00000000000E+00  0.22334655207E+04  0.22334655230E+04  0.10100000352E+00 0. -1.
        3   -1    0    0  501    0  0.00000000000E+00  0.00000000000E+00 -0.11452024949E+04  0.11452024994E+04  0.10100000352E+00 0.  1.
    10030    2    1    2    0    0  0.00000000000E+00  0.00000000000E+00  0.10882630258E+04  0.33786680223E+04  0.31986061326E+04 0.  0.
        1    1    3    3  502    0 -0.42191147527E+03 -0.12848264024E+04 -0.35773693691E+03  0.13988437702E+04  0.50400001928E-02 0.  1.
       -1    1    3    3    0  502  0.42191147527E+03  0.12848264024E+04  0.14459999627E+04  0.19798242522E+04  0.50400001928E-02 0. -1.
</event>
<event>
 5   0  0.3283581E-08  0.3198121E+04  0.7818609E-02  0.8189314E-01
       -1   -1    0    0    0  501  0.00000000000E+00  0.00000000000E+00  0.16749512079E+04  0.16749512079E+04  0.50400001928E-02 0.  1.
        1   -1    0    0  501    0  0.00000000000E+00  0.00000000000E+00 -0.15266083073E+04  0.15266083073E+04  0.50400001928E-02 0. -1.
    10030    2    1    2    0    0  0.00000000000E+00  0.00000000000E+00  0.14834290067E+03  0.32015595152E+04  0.31981209660E+04 0.  0.
        5    1    3    3  502    0 -0.65160748466E+03 -0.14364776446E+04  0.33696465004E+03  0.16129561689E+04  0.46999998093E+01 0.  1.
       -5    1    3    3    0  502  0.65160748466E+03  0.14364776446E+04 -0.18862174937E+03  0.15886033463E+04  0.46999998093E+01 0. -1.
</event>
<event>
 5   0  0.9329929E-08  0.3200641E+04  0.7818609E-02  0.8188648E-01
       -2   -1    0    0    0  501  0.00000000000E+00  0.00000000000E+00  0.12992753232E+04  0.12992753233E+04  0.25500000920E-02 0. -1.
        2   -1    0    0  501    0  0.00000000000E+00  0.00000000000E+00 -0.19711186006E+04  0.19711186006E+04  0.25500000920E-02 0.  1.
    10030    2    1    2    0    0  0.00000000000E+00  0.00000000000E+00 -0.67184327735E+03  0.32703939239E+04  0.32006410339E+04 0.  0.
        1    1    3    3  502    0  0.14695645523E+04 -0.31985946384E+03 -0.89473680970E+03  0.17499954311E+04  0.50400001928E-02 0.  1.
       -1    1    3    3    0  502 -0.14695645523E+04  0.31985946384E+03  0.22289353236E+03  0.15203984928E+04  0.50400001928E-02 0. -1.
</event>
<event>
 5   0  0.3220147E-08  0.3200359E+04  0.7818609E-02  0.8188722E-01
        1   -1    0    0  501    0  0.00000000000E+00  0.00000000000E+00  0.15681394768E+04  0.15681394768E+04  0.50400001928E-02 0. -1.
       -1   -1    0    0    0  501  0.00000000000E+00  0.00000000000E+00 -0.16328742723E+04  0.16328742723E+04  0.50400001928E-02 0.  1.
    10030    2    1    2    0    0  0.00000000000E+00  0.00000000000E+00 -0.64734795531E+02  0.32010137491E+04  0.32003591092E+04 0.  0.
        4    1    3    3  502    0  0.97488948735E+03 -0.55954475809E+03  0.11067567558E+04  0.15774701196E+04  0.12699999809E+01 0. -1.
       -4    1    3    3    0  502 -0.97488948735E+03  0.55954475809E+03 -0.11714915514E+04  0.16235436294E+04  0.12699999809E+01 0.  1.
</event>
<event>
 5   0  0.3427667E-08  0.3190359E+04  0.7818609E-02  0.8191368E-01
        1   -1    0    0  501    0  0.00000000000E+00  0.00000000000E+00  0.20712690220E+04  0.20712690220E+04  0.50400001928E-02 0.  1.
       -1   -1    0    0    0  501  0.00000000000E+00  0.00000000000E+00 -0.12285209610E+04  0.12285209610E+04  0.50400001928E-02 0. -1.
    10030    2    1    2    0    0  0.00000000000E+00  0.00000000000E+00  0.84274806102E+03  0.32997899830E+04  0.31903588572E+04 0.  0.
        2    1    3    3  502    0 -0.74388406375E+03  0.11617210091E+04  0.12498728077E+04  0.18614889843E+04  0.25500000920E-02 0.  1.
       -2    1    3    3    0  502  0.74388406375E+03 -0.11617210091E+04 -0.40712474672E+03  0.14383009986E+04  0.25500000920E-02 0. -1.
</event>
<event>
 5   0  0.9727083E-08  0.3200112E+04  0.7818609E-02  0.8188788E-01
       -2   -1    0    0    0  501  0.00000000000E+00  0.00000000000E+00  0.21430333575E+04  0.21430333575E+04  0.25500000920E-02 0. -1.
        2   -1    0    0  501    0  0.00000000000E+00  0.00000000000E+00 -0.11946519649E+04  0.11946519649E+04  0.25500000920E-02 0.  1.
    10030    2    1    2    0    0  0.00000000000E+00  0.00000000000E+00  0.94838139262E+03  0.33376853224E+04  0.32001118802E+04 0.  0.
        4    1    3    3  502    0 -0.72396041168E+03 -0.11497490408E+04 -0.40720443822E+03  0.14184000148E+04  0.12699999809E+01 0.  1.
       -4    1    3    3    0  502  0.72396041168E+03  0.11497490408E+04  0.13555858308E+04  0.19192853077E+04  0.12699999809E+01 0. -1.
</event>
<event>
 5   0  0.9353994E-08  0.3200799E+04  0.7818609E-02  0.8188606E-01
        2   -1    0    0  501    0  0.00000000000E+00  0.00000000000E+00  0.23354754607E+04  0.23354754607E+04  0.25500000920E-02 0. -1.
       -2   -1    0    0    0  501  0.00000000000E+00  0.00000000000E+00 -0.10966841520E+04  0.10966841520E+04  0.25500000920E-02 0.  1.
    10030    2    1    2    0    0  0.00000000000E+00  0.00000000000E+00  0.12387913087E+04  0.34321596127E+04  0.32007992283E+04 0.  0.
        2    1    3    3  502    0  0.15762530219E+04  0.12525143681E+03  0.88426758652E+03  0.18116817260E+04  0.25500000920E-02 0. -1.
       -2    1    3    3    0  502 -0.15762530219E+04 -0.12525143681E+03  0.35452372222E+03  0.16204778867E+04  0.25500000920E-02 0.  1.
</event>
<event>
 5   0  0.9707721E-08  0.3199553E+04  0.7818609E-02  0.8188935E-01
       -2   -1    0    0    0  501  0.00000000000E+00  0.00000000000E+00  0.14452952446E+04  0.14452952446E+04  0.25500000920E-02 0. -1.
        2   -1    0    0  501    0  0.00000000000E+00  0.00000000000E+00 -0.17707698319E+04  0.17707698319E+04  0.25500000920E-02 0.  1.
    10030    2    1    2    0    0  0.00000000000E+00  0.00000000000E+00 -0.32547458726E+03  0.32160650765E+04  0.31995532296E+04 0.  0.
        3    1    3    3  502    0  0.69852274616E+03  0.14230331610E+04  0.53612428041E+02  0.15861373543E+04  0.10100000352E+00 0. -1.
       -3    1    3    3    0  502 -0.69852274616E+03 -0.14230331610E+04 -0.37908701530E+03  0.16299277222E+04  0.10100000352E+00 0.  1.
</event>
<event>
 5   0  0.3427667E-08  0.3200507E+04  0.7818609E-02  0.8188683E-01
        1   -1    0    0  501    0  0.00000000000E+00  0.00000000000E+00  0.13916839679E+04  0.13916839679E+04  0.50400001928E-02 0. -1.
       -1   -1    0    0    0  501  0.00000000000E+00  0.00000000000E+00 -0.18400814904E+04  0.18400814904E+04  0.50400001928E-02 0.  1.
    10030    2    1    2    0    0  0.00000000000E+00  0.00000000000E+00 -0.44839752245E+03  0.32317654583E+04  0.32005074034E+04 0.  0.
        2    1    3    3  502    0 -0.11474101924E+04 -0.64354118858E+03 -0.11442044685E+04  0.17435306928E+04  0.25500000920E-02 0.  1.
       -2    1    3    3    0  502  0.11474101924E+04  0.64354118858E+03  0.69580694609E+03  0.14882347655E+04  0.25500000920E-02 0. -1.
</event>
<event>
 5   0  0.9727083E-08  0.3200809E+04  0.7818609E-02  0.8188603E-01
        2   -1    0    0  501    0  0.00000000000E+00  0.00000000000E+00  0.12314481782E+04  0.12314481782E+04  0.25500000920E-02 0. -1.
       -2   -1    0    0    0  501  0.00000000000E+00  0.00000000000E+00 -0.20799049899E+04  0.20799049899E+04  0.25500000920E-02 0.  1.
    10030    2    1    2    0    0  0.00000000000E+00  0.00000000000E+00 -0.84845681172E+03  0.33113531680E+04  0.32008094042E+04 0.  0.
        4    1    3    3  502    0  0.38867891254E+03  0.48713153474E+03 -0.19492221886E+04  0.20464205781E+04  0.12699999809E+01 0.  1.
       -4    1    3    3    0  502 -0.38867891254E+03 -0.48713153474E+03  0.11007653769E+04  0.12649325899E+04  0.12699999809E+01 0. -1.
</event>
<event>
 5   0  0.9707721E-08  0.3201256E+04  0.7818609E-02  0.8188485E-01
       -2   -1    0    0    0  501  0.00000000000E+00  0.00000000000E+00  0.10976222759E+04  0.10976222759E+04  0.25500000920E-02 0. -1.
        2   -1    0    0  501    0  0.00000000000E+00  0.00000000000E+00 -0.23341460445E+04  0.23341460445E+04  0.25500000920E-02 0.  1.
    10030    2    1    2    0    0  0.00000000000E+00  0.00000000000E+00 -0.12365237686E+04  0.34317683204E+04  0.32012564369E+04 0.  0.
        3    1    3    3  502    0 -0.22565474353E+03  0.12504318997E+03 -0.23117117809E+04  0.23260626025E+04  0.10100000352E+00 0.  1.
       -3    1    3    3    0  502  0.22565474353E+03 -0.12504318997E+03  0.10751880123E+04  0.11057057179E+04  0.10100000352E+00 0. -1.
</event>
<event>
 5   0  0.3270966E-08  0.3199388E+04  0.7818609E-02  0.8188979E-01
        1   -1    0    0  501    0  0.00000000000E+00  0.00000000000E+00  0.16447479654E+04  0.16447479654E+04  0.50400001928E-02 0. -1.
       -1   -1    0    0    0  501  0.00000000000E+00  0.00000000000E+00 -0.15558739445E+04  0.15558739445E+04  0.50400001928E-02 0.  1.
    10030    2    1    2    0    0  0.00000000000E+00  0.00000000000E+00  0.88874020877E+02  0.32006219099E+04  0.31993877569E+04 0.  0.
        3    1    3    3  502    0  0.14740032974E+04 -0.12215212021E+03 -0.56523522258E+03  0.15833817380E+04  0.10100000352E+00 0.  1.
       -3    1    3    3    0  502 -0.14740032974E+04  0.12215212021E+03  0.65410924346E+03  0.16172401719E+04  0.10100000352E+00 0. -1.
</event>
<event>
 5   0  0.9707721E-08  0.3200247E+04  0.7818609E-02  0.8188752E-01
        2   -1    0    0  501    0  0.00000000000E+00  0.00000000000E+00  0.19098680876E+04  0.19098680876E+04  0.25500000920E-02 0.  1.
       -2   -1    0    0    0  501  0.00000000000E+00  0.00000000000E+00 -0.13406133299E+04  0.13406133299E+04  0.25500000920E-02 0. -1.
    10030    2    1    2    0    0  0.00000000000E+00  0.00000000000E+00  0.56925475776E+03  0.32504814175E+04  0.32002466258E+04 0.  0.
        3    1    3    3  502    0  0.77636373346E+03  0.45637688316E+03 -0.10587733681E+04  0.13899717844E+04  0.10100000352E+00 0. -1.
       -3    1    3    3    0  502 -0.77636373346E+03 -0.45637688316E+03  0.16280281259E+04  0.18605096331E+04  0.10100000352E+00 0.  1.
</event>
<event>
 5   0  0.3427667E-08  0.3198855E+04  0.7818609E-02  0.8189120E-01
       -1   -1    0    0    0  501  0.00000000000E+00  0.00000000000E+00  0.13853401938E+04  0.13853401938E+04  0.50400001928E-02 0.  1.
        1   -1    0    0  501    0  0.00000000000E+00  0.00000000000E+00 -0.18465993737E+04  0.18465993737E+04  0.50400001928E-02 0. -1.
    10030    2    1    2    0    0  0.00000000000E+00  0.00000000000E+00 -0.46125917992E+03  0.32319395675E+04  0.31988550041E+04 0.  0.
        2    1    3    3  502    0 -0.20396375526E+02  0.15982518436E+04 -0.17220970839E+03  0.16076321567E+04  0.25500000920E-02 0.  1.
       -2    1    3    3    0  502  0.20396375526E+02 -0.15982518436E+04 -0.28904947153E+03  0.16243074108E+04  0.25500000920E-02 0. -1.
</event>
<event>
 5   0  0.3343140E-08  0.3198923E+04  0.7818609E-02  0.8189102E-01
        1   -1    0    0  501    0  0.00000000000E+00  0.00000000000E+00  0.15772808895E+04  0.15772808896E+04  0.50400001928E-02 0. -1.
       -1   -1    0    0    0  501  0.00000000000E+00  0.00000000000E+00 -0.16219538496E+04  0.16219538496E+04  0.50400001928E-02 0.  1.
    10030    2    1    2    0    0  0.00000000000E+00  0.00000000000E+00 -0.44672960073E+02  0.31992347392E+04  0.31989228254E+04 0.  0.
        1    1    3    3  502    0 -0.28316154870E+02  0.11208707268E+04  0.11184428880E+04  0.15836879379E+04  0.50400001928E-02 0. -1.
       -1    1    3    3    0  502  0.28316154870E+02 -0.11208707268E+04 -0.11631158481E+04  0.16155468013E+04  0.50400001928E-02 0.  1.
</event>
<event>
 5   0  0.9727083E-08  0.3199512E+04  0.7818609E-02  0.8188946E-01
       -2   -1    0    0    0  501  0.00000000000E+00  0.00000000000E+00  0.93466660716E+03  0.93466660716E+03  0.25500000920E-02 0. -1.
        2   -1    0    0  501    0  0.00000000000E+00  0.00000000000E+00 -0.27381092214E+04  0.27381092214E+04  0.25500000920E-02 0.  1.
    10030    2    1    2    0    0  0.00000000000E+00  0.00000000000E+00 -0.18034426142E+04  0.36727758286E+04  0.31995119978E+04 0.  0.
        4    1    3    3  502    0 -0.13683428308E+04  0.76686120771E+03 -0.12625025359E+04  0.20135422719E+04  0.12699999809E+01 0.  1.
       -4    1    3    3    0  502  0.13683428308E+04 -0.76686120771E+03 -0.54094007830E+03  0.16592335567E+04  0.12699999809E+01 0. -1.
</event>
<event>
 5   0  0.9727083E-08  0.3199974E+04  0.7818609E-02  0.8188824E-01
        2   -1    0    0  501    0  0.00000000000E+00  0.00000000000E+00  0.16818136695E+04  0.16818136695E+04  0.25500000920E-02 0. -1.
       -2   -1    0    0    0  501  0.00000000000E+00  0.00000000000E+00 -0.15221419571E+04  0.15221419571E+04  0.25500000920E-02 0.  1.
    10030    2    1    2    0    0  0.00000000000E+00  0.00000000000E+00  0.15967171243E+03  0.32039556266E+04  0.31999744689E+04 0.  0.
        4    1    3    3  502    0 -0.35633159240E+03  0.12107391935E+04  0.10644696999E+04  0.16510478349E+04  0.12699999809E+01 0. -1.
       -4    1    3    3    0  502  0.35633159240E+03 -0.12107391935E+04 -0.90479798745E+03  0.15529077917E+04  0.12699999809E+01 0.  1.
</event>
<event>
 5   0  0.9727083E-08  0.3201130E+04  0.7818609E-02  0.8188519E-01
        2   -1    0    0  501    0  0.00000000000E+00  0.00000000000E+00  0.13637747518E+04  0.13637747518E+04  0.25500000920E-02 0. -1.
       -2   -1    0    0    0  501  0.00000000000E+00  0.00000000000E+00 -0.18784683021E+04  0.18784683021E+04  0.25500000920E-02 0.  1.
    10030    2    1    2    0    0  0.00000000000E+00  0.00000000000E+00 -0.51469355035E+03  0.32422430539E+04  0.32011295771E+04 0.  0.
        4    1    3    3  502    0  0.13547347740E+04  0.16679854261E+03 -0.11039517936E+04  0.17555168007E+04  0.12699999809E+01 0.  1.
       -4    1    3    3    0  502 -0.13547347740E+04 -0.16679854261E+03  0.58925824329E+03  0.14867262532E+04  0.12699999809E+01 0. -1.
</event>
<event>
 5   0  0.3343140E-08  0.3199122E+04  0.7818609E-02  0.8189049E-01
       -1   -1    0    0    0  501  0.00000000000E+00  0.00000000000E+00  0.11520143064E+04  0.11520143064E+04  0.50400001928E-02 0. -1.
        1   -1    0    0  501    0  0.00000000000E+00  0.00000000000E+00 -0.22209751978E+04  0.22209751979E+04  0.50400001928E-02 0.  1.
    10030    2    1    2    0    0  0.00000000000E+00  0.00000000000E+00 -0.10689608915E+04  0.33729895042E+04  0.31991218808E+04 0.  0.
        1    1    3    3  502    0  0.40813123040E+03 -0.62932271899E+03 -0.20240540627E+04  0.21585673570E+04  0.50400001928E-02 0.  1.
       -1    1    3    3    0  502 -0.40813123040E+03  0.62932271899E+03  0.95509317126E+03  0.12144221472E+04  0.50400001928E-02 0. -1.
</event>
<event>
 5   0  0.9707721E-08  0.3200138E+04  0.7818609E-02  0.8188781E-01
        2   -1    0    0  501    0  0.00000000000E+00  0.00000000000E+00  0.24398001024E+04  0.24398001024E+04  0.25500000920E-02 0. -1.
       -2   -1    0    0    0  501  0.00000000000E+00  0.00000000000E+00 -0.10493568070E+04  0.10493568070E+04  0.25500000920E-02 0.  1.
    10030    2    1    2    0    0  0.00000000000E+00  0.00000000000E+00  0.13904432954E+04  0.34891569094E+04  0.32001380253E+04 0.  0.
        3    1    3    3  502    0 -0.13903190928E+04  0.71866922605E+03  0.10580657979E+04  0.18891733322E+04  0.10100000352E+00 0.  1.
       -3    1    3    3    0  502  0.13903190928E+04 -0.71866922605E+03  0.33237749746E+03  0.15999835772E+04  0.10100000352E+00 0. -1.
</event>
<event>
 5   0  0.9329929E-08  0.3200308E+04  0.7818609E-02  0.8188736E-01
        2   -1    0    0  501    0  0.00000000000E+00  0.00000000000E+00  0.22024250384E+04  0.22024250384E+04  0.25500000920E-02 0. -1.
       -2   -1    0    0    0  501  0.00000000000E+00  0.00000000000E+00 -0.11625787531E+04  0.11625787531E+04  0.25500000920E-02 0.  1.
    10030    2    1    2    0    0  0.00000000000E+00  0.00000000000E+00  0.10398462853E+04  0.33650037915E+04  0.32003078320E+04 0.  0.
        1    1    3    3  502    0  0.28776580799E+03 -0.15633616393E+04  0.32723340406E+03  0.16229573242E+04  0.50400001928E-02 0.  1.
       -1    1    3    3    0  502 -0.28776580799E+03  0.15633616393E+04  0.71261288126E+03  0.17420464673E+04  0.50400001928E-02 0. -1.
</event>
<event>
 5   0  0.3427667E-08  0.3200837E+04  0.7818609E-02  0.8188596E-01
       -1   -1    0    0    0  501  0.00000000000E+00  0.00000000000E+00  0.91633058150E+03  0.91633058152E+03  0.50400001928E-02 0.  1.
        1   -1    0    0  501    0  0.00000000000E+00  0.00000000000E+00 -0.27952133305E+04  0.27952133305E+04  0.50400001928E-02 0. -1.
    10030    2    1    2    0    0  0.00000000000E+00  0.00000000000E+00 -0.18788827490E+04  0.37115439120E+04  0.32008370509E+04 0.  0.
        2    1    3    3  502    0  0.25131096979E+03  0.12397079542E+04 -0.20763405821E+04  0.24313007276E+04  0.25500000920E-02 0.  1.
       -2    1    3    3    0  502 -0.25131096979E+03 -0.12397079542E+04  0.19745783309E+03  0.12802431844E+04  0.25500000920E-02 0. -1.
</event>
<event>
 5   0  0.3343140E-08  0.3215612E+04  0.7818609E-02  0.8184706E-01
        1   -1    0    0  501    0  0.00000000000E+00  0.00000000000E+00  0.28200052385E+04  0.28200052385E+04  0.50400001928E-02 0.  1.
       -1   -1    0    0    0  501  0.00000000000E+00  0.00000000000E+00 -0.91667947472E+03  0.91667947473E+03  0.50400001928E-02 0. -1.
    10030    2    1    2    0    0  0.00000000000E+00  0.00000000000E+00  0.19033257638E+04  0.37366847132E+04  0.32156124896E+04 0.  0.
        1    1    3    3  502    0 -0.11515910975E+04  0.20182970902E+03 -0.33088030623E+03  0.12150633993E+04  0.50400001928E-02 0. -1.
       -1    1    3    3    0  502  0.11515910975E+04 -0.20182970902E+03  0.22342060700E+04  0.25216213139E+04  0.50400001928E-02 0.  1.
</event>
<event>
 5   0  0.3427667E-08  0.3198746E+04  0.7818609E-02  0.8189149E-01
       -1   -1    0    0    0  501  0.00000000000E+00  0.00000000000E+00  0.17347760105E+04  0.17347760105E+04  0.50400001928E-02 0. -1.
        1   -1    0    0  501    0  0.00000000000E+00  0.00000000000E+00 -0.14745380543E+04  0.14745380543E+04  0.50400001928E-02 0.  1.
    10030    2    1    2    0    0  0.00000000000E+00  0.00000000000E+00  0.26023795626E+03  0.32093140648E+04  0.31987455311E+04 0.  0.
        2    1    3    3  502    0  0.87951072796E+03 -0.11968409974E+03  0.14649770400E+04  0.17128984594E+04  0.25500000920E-02 0. -1.
       -2    1    3    3    0  502 -0.87951072796E+03  0.11968409974E+03 -0.12047390837E+04  0.14964156054E+04  0.25500000920E-02 0.  1.
</event>
<event>
 5   0  0.9707721E-08  0.3201687E+04  0.7818609E-02  0.8188372E-01
        2   -1    0    0  501    0  0.00000000000E+00  0.00000000000E+00  0.26737937368E+04  0.26737937368E+04  0.25500000920E-02 0. -1.
       -2   -1    0    0    0  501  0.00000000000E+00  0.00000000000E+00 -0.95845114607E+03  0.95845114608E+03  0.25500000920E-02 0.  1.
    10030    2    1    2    0    0  0.00000000000E+00  0.00000000000E+00  0.17153425907E+04  0.36322448829E+04  0.32016874747E+04 0.  0.
        3    1    3    3  502    0  0.10990358461E+04  0.88518761454E+03  0.17151325786E+04  0.22210620605E+04  0.10100000352E+00 0. -1.
       -3    1    3    3    0  502 -0.10990358461E+04 -0.88518761454E+03  0.21001215133E+00  0.14111828224E+04  0.10100000352E+00 0.  1.
</event>
<event>
 5   0  0.3427667E-08  0.3190334E+04  0.7818609E-02  0.8191375E-01
       -1   -1    0    0    0  501  0.00000000000E+00  0.00000000000E+00  0.13059786863E+04  0.13059786864E+04  0.50400001928E-02 0.  1.
        1   -1    0    0  501    0  0.00000000000E+00  0.00000000000E+00 -0.19483914228E+04  0.19483914228E+04  0.50400001928E-02 0. -1.
    10030    2    1    2    0    0  0.00000000000E+00  0.00000000000E+00 -0.64241273648E+03  0.32543701092E+04  0.31903339455E+04 0.  0.
        2    1    3    3  502    0  0.10882549769E+04  0.10922903456E+04  0.95852853223E+02  0.15448575544E+04  0.25500000920E-02 0.  1.
       -2    1    3    3    0  502 -0.10882549769E+04 -0.10922903456E+04 -0.73826558971E+03  0.17095125548E+04  0.25500000920E-02 0. -1.
</event>
<event>
 5   0  0.9353994E-08  0.3198826E+04  0.7818609E-02  0.8189127E-01
       -2   -1    0    0    0  501  0.00000000000E+00  0.00000000000E+00  0.17465792964E+04  0.17465792964E+04  0.25500000920E-02 0.  1.
        2   -1    0    0  501    0  0.00000000000E+00  0.00000000000E+00 -0.14646472397E+04  0.14646472397E+04  0.25500000920E-02 0. -1.
    10030    2    1    2    0    0  0.00000000000E+00  0.00000000000E+00  0.28193205662E+03  0.32112265361E+04  0.31988263757E+04 0.  0.
        2    1    3    3  502    0 -0.11894358447E+04  0.24127062802E+03 -0.90477908433E+03  0.15138012869E+04  0.25500000920E-02 0. -1.
       -2    1    3    3    0  502  0.11894358447E+04 -0.24127062802E+03  0.11867111409E+04  0.16974252492E+04  0.25500000920E-02 0.  1.
</event>
<event>
 5   0  0.3270966E-08  0.3200130E+04  0.7818609E-02  0.8188783E-01
        1   -1    0    0  501    0  0.00000000000E+00  0.00000000000E+00  0.14568320230E+04  0.14568320230E+04  0.50400001928E-02 0.  1.
       -1   -1    0    0    0  501  0.00000000000E+00  0.00000000000E+00 -0.17573804161E+04  0.17573804161E+04  0.50400001928E-02 0. -1.
    10030    2    1    2    0    0  0.00000000000E+00  0.00000000000E+00 -0.30054839311E+03  0.32142124391E+04  0.32001300390E+04 0.  0.
        3    1    3    3  502    0  0.56881420186E+03 -0.54221575146E+03 -0.15502012628E+04  0.17380079064E+04  0.10100000352E+00 0. -1.
       -3    1    3    3    0  502 -0.56881420186E+03  0.54221575146E+03  0.12496528697E+04  0.14762045327E+04  0.10100000352E+00 0.  1.
</event>
<event>
 5   0  0.3343140E-08  0.3202414E+04  0.7818609E-02  0.8188180E-01
       -1   -1    0    0    0  501  0.00000000000E+00  0.00000000000E+00  0.13271764399E+04  0.13271764400E+04  0.50400001928E-02 0.  1.
        1   -1    0    0  501    0  0.00000000000E+00  0.00000000000E+00 -0.19318188478E+04  0.19318188479E+04  0.50400001928E-02 0. -1.
    10030    2    1    2    0    0  0.00000000000E+00  0.00000000000E+00 -0.60464240790E+03  0.32589952878E+04  0.32024143774E+04 0.  0.
        1    1    3    3  502    0 -0.56195027843E+02  0.37185795144E+03 -0.18862354551E+04  0.19233617468E+04  0.50400001928E-02 0. -1.
       -1    1    3    3    0  502  0.56195027843E+02 -0.37185795144E+03  0.12815930472E+04  0.13356335410E+04  0.50400001928E-02 0.  1.
</event>
<event>
 5   0  0.9727083E-08  0.3197593E+04  0.7818609E-02  0.8189453E-01
        2   -1    0    0  501    0  0.00000000000E+00  0.00000000000E+00  0.18150121020E+04  0.18150121020E+04  0.25500000920E-02 0.  1.
       -2   -1    0    0    0  501  0.00000000000E+00  0.00000000000E+00 -0.14083380924E+04  0.14083380924E+04  0.25500000920E-02 0. -1.
    10030    2    1    2    0    0  0.00000000000E+00  0.00000000000E+00  0.40667400958E+03  0.32233501945E+04  0.31975932709E+04 0.  0.
        4    1    3    3  502    0 -0.45539714182E+03  0.60474563779E+02  0.17470460452E+04  0.18064371638E+04  0.12699999809E+01 0.  1.
       -4    1    3    3    0  502  0.45539714182E+03 -0.60474563779E+02 -0.13403720356E+04  0.14169130307E+04  0.12699999809E+01 0. -1.
</event>
<event>
 5   0  0.9157524E-08  0.3201472E+04  0.7818609E-02  0.8188429E-01
        2   -1    0    0  501    0  0.00000000000E+00  0.00000000000E+00  0.22729798375E+04  0.22729798375E+04  0.25500000920E-02 0. -1.
       -2   -1    0    0    0  501  0.00000000000E+00  0.00000000000E+00 -0.11273110448E+04  0.11273110448E+04  0.25500000920E-02 0.  1.
    10030    2    1    2    0    0  0.00000000000E+00  0.00000000000E+00  0.11456687926E+04  0.34002908823E+04  0.32014717087E+04 0.  0.
        5    1    3    3  502    0  0.11964902938E+04  0.22894067848E+03  0.16757500800E+04  0.20717536722E+04  0.46999998093E+01 0. -1.
       -5    1    3    3    0  502 -0.11964902938E+04 -0.22894067848E+03 -0.53008128741E+03  0.13285372101E+04  0.46999998093E+01 0.  1.
</event>
<event>
 5   0  0.3427667E-08  0.3199709E+04  0.7818609E-02  0.8188894E-01
       -1   -1    0    0    0  501  0.00000000000E+00  0.00000000000E+00  0.14491332610E+04  0.14491332610E+04  0.50400001928E-02 0. -1.
        1   -1    0    0  501    0  0.00000000000E+00  0.00000000000E+00 -0.17662514252E+04  0.17662514252E+04  0.50400001928E-02 0.  1.
    10030    2    1    2    0    0  0.00000000000E+00  0.00000000000E+00 -0.31711816416E+03  0.32153846862E+04  0.31997085414E+04 0.  0.
        2    1    3    3  502    0  0.10298376869E+04 -0.33134253633E+03  0.10258502017E+04  0.14908796646E+04  0.25500000920E-02 0. -1.
       -2    1    3    3    0  502 -0.10298376869E+04  0.33134253633E+03 -0.13429683659E+04  0.17245050216E+04  0.25500000920E-02 0.  1.
</event>
<event>
 5   0  0.3220147E-08  0.3199830E+04  0.7818609E-02  0.8188862E-01
        1   -1    0    0  501    0  0.00000000000E+00  0.00000000000E+00  0.20377761171E+04  0.20377761171E+04  0.50400001928E-02 0. -1.
       -1   -1    0    0    0  501  0.00000000000E+00  0.00000000000E+00 -0.12561380121E+04  0.12561380121E+04  0.50400001928E-02 0.  1.
    10030    2    1    2    0    0  0.00000000000E+00  0.00000000000E+00  0.78163810504E+03  0.32939141292E+04  0.31998300210E+04 0.  0.
        4    1    3    3  502    0  0.56394447543E+03  0.10551942506E+04 -0.70260747019E+03  0.13874895127E+04  0.12699999809E+01 0.  1.
       -4    1    3    3    0  502 -0.56394447543E+03 -0.10551942506E+04  0.14842455752E+04  0.19064246165E+04  0.12699999809E+01 0. -1.
</event>
<event>
 5   0  0.3343140E-08  0.3199829E+04  0.7818609E-02  0.8188862E-01
        1   -1    0    0  501    0  0.00000000000E+00  0.00000000000E+00  0.18459547014E+04  0.18459547014E+04  0.50400001928E-02 0.  1.
       -1   -1    0    0    0  501  0.00000000000E+00  0.00000000000E+00 -0.13866683842E+04  0.13866683842E+04  0.50400001928E-02 0. -1.
    10030    2    1    2    0    0  0.00000000000E+00  0.00000000000E+00  0.45928631723E+03  0.32326230856E+04  0.31998293849E+04 0.  0.
        1    1    3    3  502    0 -0.41298358417E+03 -0.11228749876E+04 -0.84346879985E+03  0.14638453795E+04  0.50400001928E-02 0. -1.
       -1    1    3    3    0  502  0.41298358417E+03  0.11228749876E+04  0.13027551171E+04  0.17687777061E+04  0.50400001928E-02 0.  1.
</event>
<event>
 5   0  0.3283581E-08  0.3185895E+04  0.7818609E-02  0.8192552E-01
        1   -1    0    0  501    0  0.00000000000E+00  0.00000000000E+00  0.30678452492E+04  0.30678452492E+04  0.50400001928E-02 0. -1.
       -1   -1    0    0    0  501  0.00000000000E+00  0.00000000000E+00 -0.82712193384E+03  0.82712193385E+03  0.50400001928E-02 0.  1.
    10030    2    1    2    0    0  0.00000000000E+00  0.00000000000E+00  0.22407233154E+04  0.38949671831E+04  0.31858952244E+04 0.  0.
        5    1    3    3  502    0  0.13023526229E+04  0.26924961613E+03  0.21923521838E+04  0.25641856208E+04  0.46999998093E+01 0. -1.
       -5    1    3    3    0  502 -0.13023526229E+04 -0.26924961613E+03  0.48371131625E+02  0.13307815623E+04  0.46999998093E+01 0.  1.
</event>
<event>
 5   0  0.3270966E-08  0.3200253E+04  0.7818609E-02  0.8188750E-01
       -1   -1    0    0    0  501  0.00000000000E+00  0.00000000000E+00  0.12333699333E+04  0.12333699333E+04  0.50400001928E-02 0.  1.
        1   -1    0    0  501    0  0.00000000000E+00  0.00000000000E+00 -0.20759428745E+04  0.20759428745E+04  0.50400001928E-02 0. -1.
    10030    2    1    2    0    0  0.00000000000E+00  0.00000000000E+00 -0.84257294123E+03  0.33093128078E+04  0.32002534428E+04 0.  0.
        3    1    3    3  502    0  0.14937523765E+04 -0.35505366860E+02  0.17080689326E+03  0.15039055151E+04  0.10100000352E+00 0.  1.
       -3    1    3    3    0  502 -0.14937523765E+04  0.35505366860E+02 -0.10133798345E+04  0.18054072927E+04  0.10100000352E+00 0. -1.
</event>
<event>
 5   0  0.9329929E-08  0.3199699E+04  0.7818609E-02  0.8188897E-01
       -2   -1    0    0    0  501  0.00000000000E+00  0.00000000000E+00  0.13127281517E+04  0.13127281517E+04  0.25500000920E-02 0.  1.
        2   -1    0    0  501    0  0.00000000000E+00  0.00000000000E+00 -0.19497700867E+04  0.19497700867E+04  0.25500000920E-02 0. -1.
    10030    2    1    2    0    0  0.00000000000E+00  0.00000000000E+00 -0.63704193505E+03  0.32624982384E+04  0.31996987872E+04 0.  0.
        1    1    3    3  502    0 -0.62478321300E+03 -0.10368965017E+04 -0.13849986417E+04  0.18394916841E+04  0.50400001928E-02 0. -1.
       -1    1    3    3    0  502  0.62478321300E+03  0.10368965017E+04  0.74795670664E+03  0.14230065543E+04  0.50400001928E-02 0.  1.
</event>
<event>
 5   0  0.3283581E-08  0.3200663E+04  0.7818609E-02  0.8188642E-01
       -1   -1    0    0    0  501  0.00000000000E+00  0.00000000000E+00  0.14037800675E+04  0.14037800675E+04  0.50400001928E-02 0.  1.
        1   -1    0    0  501    0  0.00000000000E+00  0.00000000000E+00 -0.18244030090E+04  0.18244030090E+04  0.50400001928E-02 0. -1.
    10030    2    1    2    0    0  0.00000000000E+00  0.00000000000E+00 -0.42062294148E+03  0.32281830765E+04  0.32006627933E+04 0.  0.
        5    1    3    3  502    0 -0.57850051285E+03 -0.97338823897E+03 -0.13509157525E+04  0.17627089855E+04  0.46999998093E+01 0. -1.
       -5    1    3    3    0  502  0.57850051285E+03  0.97338823897E+03  0.93029281107E+03  0.14654740910E+04  0.46999998093E+01 0.  1.
</event>
<event>
 5   0  0.3343140E-08  0.3201280E+04  0.7818609E-02  0.8188479E-01
        1   -1    0    0  501    0  0.00000000000E+00  0.00000000000E+00  0.20613606868E+04  0.20613606868E+04  0.50400001928E-02 0.  1.
       -1   -1    0    0    0  501  0.00000000000E+00  0.00000000000E+00 -0.12428914964E+04  0.12428914964E+04  0.50400001928E-02 0. -1.
    10030    2    1    2    0    0  0.00000000000E+00  0.00000000000E+00  0.81846919037E+03  0.33042521832E+04  0.32012795371E+04 0.  0.
        1    1    3    3  502    0  0.75798587089E+03  0.12878105120E+04  0.10013140469E+04  0.17987852334E+04  0.50400001928E-02 0.  1.
       -1    1    3    3    0  502 -0.75798587089E+03 -0.12878105120E+04 -0.18284485649E+03  0.15054669498E+04  0.50400001928E-02 0. -1.
</event>
<event>
 5   0  0.3270966E-08  0.3199907E+04  0.7818609E-02  0.8188842E-01
        1   -1    0    0  501    0  0.00000000000E+00  0.00000000000E+00  0.14352752615E+04  0.14352752615E+04  0.50400001928E-02 0.  1.
       -1   -1    0    0    0  501  0.00000000000E+00  0.00000000000E+00 -0.17835264084E+04  0.17835264084E+04  0.50400001928E-02 0. -1.
    10030    2    1    2    0    0  0.00000000000E+00  0.00000000000E+00 -0.34825114695E+03  0.32188016699E+04  0.31999070813E+04 0.  0.
        3    1    3    3  502    0  0.84370996286E+03  0.15912497176E+03 -0.15321655321E+04  0.17563309728E+04  0.10100000352E+00 0. -1.
       -3    1    3    3    0  502 -0.84370996286E+03 -0.15912497176E+03  0.11839143852E+04  0.14624706971E+04  0.10100000352E+00 0.  1.
</event>
<event>
 5   0  0.3220147E-08  0.3198155E+04  0.7818609E-02  0.8189305E-01
        1   -1    0    0  501    0  0.00000000000E+00  0.00000000000E+00  0.84556789507E+03  0.84556789508E+03  0.50400001928E-02 0.  1.
       -1   -1    0    0    0  501  0.00000000000E+00  0.00000000000E+00 -0.30240602191E+04  0.30240602192E+04  0.50400001928E-02 0. -1.
    10030    2    1    2    0    0  0.00000000000E+00  0.00000000000E+00 -0.21784923241E+04  0.38696281142E+04  0.31981546142E+04 0.  0.
        4    1    3    3  502    0  0.13746393875E+04 -0.10318909247E+02 -0.10084666644E+03  0.13783728047E+04  0.12699999809E+01 0.  1.
       -4    1    3    3    0  502 -0.13746393875E+04  0.10318909247E+02 -0.20776456576E+04  0.24912553095E+04  0.12699999809E+01 0. -1.
</event>
<event>
 5   0  0.3270966E-08  0.3198948E+04  0.7818609E-02  0.8189095E-01
        1   -1    0    0  501    0  0.00000000000E+00  0.00000000000E+00  0.20241343025E+04  0.20241343025E+04  0.50400001928E-02 0.  1.
       -1   -1    0    0    0  501  0.00000000000E+00  0.00000000000E+00 -0.12639068455E+04  0.12639068455E+04  0.50400001928E-02 0. -1.
    10030    2    1    2    0    0  0.00000000000E+00  0.00000000000E+00  0.76022745697E+03  0.32880411480E+04  0.31989480778E+04 0.  0.
        3    1    3    3  502    0 -0.50412873225E+03 -0.14252415251E+03  0.19334469410E+04  0.20031664924E+04  0.10100000352E+00 0.  1.
       -3    1    3    3    0  502  0.50412873225E+03  0.14252415251E+03 -0.11732194840E+04  0.12848746556E+04  0.10100000352E+00 0. -1.
</event>
<event>
 5   0  0.9329929E-08  0.3200238E+04  0.7818609E-02  0.8188754E-01
       -2   -1    0    0    0  501  0.00000000000E+00  0.00000000000E+00  0.16258484299E+04  0.16258484299E+04  0.25500000920E-02 0.  1.
        2   -1    0    0  501    0  0.00000000000E+00  0.00000000000E+00 -0.15747967854E+04  0.15747967854E+04  0.25500000920E-02 0. -1.
    10030    2    1    2    0    0  0.00000000000E+00  0.00000000000E+00  0.51051644422E+02  0.32006452153E+04  0.32002380417E+04 0.  0.
        1    1    3    3  502    0  0.11124466625E+04 -0.64881732198E+03 -0.92426831214E+03  0.15851729896E+04  0.50400001928E-02 0. -1.
       -1    1    3    3    0  502 -0.11124466625E+04  0.64881732198E+03  0.97531995656E+03  0.16154722257E+04  0.50400001928E-02 0.  1.
</event>
<event>
 5   0  0.9707721E-08  0.3200048E+04  0.7818609E-02  0.8188804E-01
        2   -1    0    0  501    0  0.00000000000E+00  0.00000000000E+00  0.28001879872E+04  0.28001879872E+04  0.25500000920E-02 0.  1.
       -2   -1    0    0    0  501  0.00000000000E+00  0.00000000000E+00 -0.91425175780E+03  0.91425175780E+03  0.25500000920E-02 0. -1.
    10030    2    1    2    0    0  0.00000000000E+00  0.00000000000E+00  0.18859362294E+04  0.37144397450E+04  0.32000479931E+04 0.  0.
        3    1    3    3  502    0  0.13512544980E+04  0.80753405441E+03  0.12755105442E+04  0.20260619749E+04  0.10100000352E+00 0.  1.
       -3    1    3    3    0  502 -0.13512544980E+04 -0.80753405441E+03  0.61042568518E+03  0.16883777701E+04  0.10100000352E+00 0. -1.
</event>
<event>
 5   0  0.3270966E-08  0.3200251E+04  0.7818609E-02  0.8188751E-01
        1   -1    0    0  501    0  0.00000000000E+00  0.00000000000E+00  0.17190347840E+04  0.17190347840E+04  0.50400001928E-02 0.  1.
       -1   -1    0    0    0  501  0.00000000000E+00  0.00000000000E+00 -0.14894418214E+04  0.14894418214E+04  0.50400001928E-02 0. -1.
    10030    2    1    2    0    0  0.00000000000E+00  0.00000000000E+00  0.22959296260E+03  0.32084766054E+04  0.32002514274E+04 0.  0.
        3    1    3    3  502    0 -0.97367515772E+03 -0.35907027184E+03 -0.11062942713E+04  0.15168591886E+04  0.10100000352E+00 0. -1.
       -3    1    3    3    0  502  0.97367515772E+03  0.35907027184E+03  0.13358872339E+04  0.16916174168E+04  0.10100000352E+00 0.  1.
</event>
<event>
 5   0  0.9157524E-08  0.3199576E+04  0.7818609E-02  0.8188929E-01
        2   -1    0    0  501    0  0.00000000000E+00  0.00000000000E+00  0.16419064962E+04  0.16419064962E+04  0.25500000920E-02 0.  1.
       -2   -1    0    0    0  501  0.00000000000E+00  0.00000000000E+00 -0.15587499805E+04  0.15587499805E+04  0.25500000920E-02 0. -1.
    10030    2    1    2    0    0  0.00000000000E+00  0.00000000000E+00  0.83156515737E+02  0.32006564767E+04  0.31995760463E+04 0.  0.
        5    1    3    3  502    0 -0.72512585033E+03 -0.64506427867E+03 -0.12306154008E+04  0.15672752716E+04  0.46999998093E+01 0. -1.
       -5    1    3    3    0  502  0.72512585033E+03  0.64506427867E+03  0.13137719165E+04  0.16333812051E+04  0.46999998093E+01 0.  1.
</event>
<event>
 5   0  0.3220147E-08  0.3199916E+04  0.7818609E-02  0.8188839E-01
        1   -1    0    0  501    0  0.00000000000E+00  0.00000000000E+00  0.23159808466E+04  0.23159808466E+04  0.50400001928E-02 0.  1.
       -1   -1    0    0    0  501  0.00000000000E+00  0.00000000000E+00 -0.11053048410E+04  0.11053048410E+04  0.50400001928E-02 0. -1.
    10030    2    1    2    0    0  0.00000000000E+00  0.00000000000E+00  0.12106760056E+04  0.34212856876E+04  0.31999155247E+04 0.  0.
        4    1    3    3  502    0 -0.23564233184E+03  0.37733779487E+03 -0.10378466534E+04  0.11291759867E+04  0.12699999809E+01 0. -1.
       -4    1    3    3    0  502  0.23564233184E+03 -0.37733779487E+03  0.22485226590E+04  0.22921097009E+04  0.12699999809E+01 0.  1.
</event>
<event>
 5   0  0.3427667E-08  0.3198563E+04  0.7818609E-02  0.8189197E-01
        1   -1    0    0  501    0  0.00000000000E+00  0.00000000000E+00  0.19993687865E+04  0.19993687865E+04  0.50400001928E-02 0. -1.
       -1   -1    0    0    0  501  0.00000000000E+00  0.00000000000E+00 -0.12792540585E+04  0.12792540585E+04  0.50400001928E-02 0.  1.
    10030    2    1    2    0    0  0.00000000000E+00  0.00000000000E+00  0.72011472795E+03  0.32786228450E+04  0.31985625738E+04 0.  0.
        2    1    3    3  502    0  0.49700078694E+03  0.49428592438E+03 -0.11134112610E+04  0.13156796698E+04  0.25500000920E-02 0.  1.
       -2    1    3    3    0  502 -0.49700078694E+03 -0.49428592438E+03  0.18335259890E+04  0.19629431753E+04  0.25500000920E-02 0. -1.
</event>
<event>
 5   0  0.3343140E-08  0.3200029E+04  0.7818609E-02  0.8188810E-01
        1   -1    0    0  501    0  0.00000000000E+00  0.00000000000E+00  0.19186702190E+04  0.19186702190E+04  0.50400001928E-02 0. -1.
       -1   -1    0    0    0  501  0.00000000000E+00  0.00000000000E+00 -0.13342815722E+04  0.13342815722E+04  0.50400001928E-02 0.  1.
    10030    2    1    2    0    0  0.00000000000E+00  0.00000000000E+00  0.58438864673E+03  0.32529517912E+04  0.32000289476E+04 0.  0.
        1    1    3    3  502    0  0.77264227863E+03  0.12756832871E+04 -0.29678619238E+03  0.15206662960E+04  0.50400001928E-02 0.  1.
       -1    1    3    3    0  502 -0.77264227863E+03 -0.12756832871E+04  0.88117483910E+03  0.17322854952E+04  0.50400001928E-02 0. -1.
</event>
<event>
 5   0  0.3283581E-08  0.3199263E+04  0.7818609E-02  0.8189012E-01
       -1   -1    0    0    0  501  0.00000000000E+00  0.00000000000E+00  0.15455357365E+04  0.15455357365E+04  0.50400001928E-02 0. -1.
        1   -1    0    0  501    0  0.00000000000E+00  0.00000000000E+00 -0.16556204847E+04  0.16556204847E+04  0.50400001928E-02 0.  1.
    10030    2    1    2    0    0  0.00000000000E+00  0.00000000000E+00 -0.11008474824E+03  0.32011562212E+04  0.31992628059E+04 0.  0.
        5    1    3    3  502    0  0.18801552295E+02  0.37196691755E+03  0.15015407585E+04  0.15470486824E+04  0.46999998093E+01 0. -1.
       -5    1    3    3    0  502 -0.18801552295E+02 -0.37196691755E+03 -0.16116255068E+04  0.16541075389E+04  0.46999998093E+01 0.  1.
</event>
<event>
 5   0  0.9157524E-08  0.3196325E+04  0.7818609E-02  0.8189788E-01
       -2   -1    0    0    0  501  0.00000000000E+00  0.00000000000E+00  0.11721288698E+04  0.11721288698E+04  0.25500000920E-02 0.  1.
        2   -1    0    0  501    0  0.00000000000E+00  0.00000000000E+00 -0.21790465489E+04  0.21790465489E+04  0.25500000920E-02 0. -1.
    10030    2    1    2    0    0  0.00000000000E+00  0.00000000000E+00 -0.10069176790E+04  0.33511754187E+04  0.31963249952E+04 0.  0.
        5    1    3    3  502    0  0.78209980018E+03 -0.13773588853E+04 -0.72661710744E+03  0.17426394083E+04  0.46999998093E+01 0.  1.
       -5    1    3    3    0  502 -0.78209980018E+03  0.13773588853E+04 -0.28030057160E+03  0.16085360105E+04  0.46999998093E+01 0. -1.
</event>
<event>
 5   0  0.9727083E-08  0.3200080E+04  0.7818609E-02  0.8188796E-01
       -2   -1    0    0    0  501  0.00000000000E+00  0.00000000000E+00  0.13688598960E+04  0.13688598960E+04  0.25500000920E-02 0. -1.
        2   -1    0    0  501    0  0.00000000000E+00  0.00000000000E+00 -0.18702628674E+04  0.18702628674E+04  0.25500000920E-02 0.  1.
    10030    2    1    2    0    0  0.00000000000E+00  0.00000000000E+00 -0.50140297137E+03  0.32391227633E+04  0.32000798953E+04 0.  0.
        4    1    3    3  502    0 -0.12505184168E+04  0.61244570348E+03  0.54710277620E+03  0.14960645411E+04  0.12699999809E+01 0. -1.
       -4    1    3    3    0  502  0.12505184168E+04 -0.61244570348E+03 -0.10485057476E+04  0.17430582222E+04  0.12699999809E+01 0.  1.
</event>
<event>
 5   0  0.3283581E-08  0.3199504E+04  0.7818609E-02  0.8188948E-01
        1   -1    0    0  501    0  0.00000000000E+00  0.00000000000E+00  0.12702751520E+04  0.12702751520E+04  0.50400001928E-02 0.  1.
       -1   -1    0    0    0  501  0.00000000000E+00  0.00000000000E+00 -0.20146868234E+04  0.20146868234E+04  0.50400001928E-02 0. -1.
    10030    2    1    2    0    0  0.00000000000E+00  0.00000000000E+00 -0.74441167138E+03  0.32849619755E+04  0.31995040934E+04 0.  0.
        5    1    3    3  502    0 -0.60602504112E+03  0.55522198345E+03  0.10369122970E+04  0.13231579660E+04  0.46999998093E+01 0.  1.
       -5    1    3    3    0  502  0.60602504112E+03 -0.55522198345E+03 -0.17813239683E+04  0.19618040095E+04  0.46999998093E+01 0. -1.
</event>
<event>
 5   0  0.3080500E-08  0.3200146E+04  0.7818609E-02  0.8188779E-01
       -3   -1    0    0    0  501  0.00000000000E+00  0.00000000000E+00  0.14631287911E+04  0.14631287946E+04  0.10100000352E+00 0.  1.
        3   -1    0    0  501    0  0.00000000000E+00  0.00000000000E+00 -0.17498348702E+04  0.17498348731E+04  0.10100000352E+00 0. -1.
    10030    2    1    2    0    0  0.00000000000E+00  0.00000000000E+00 -0.28670607901E+03  0.32129636677E+04  0.32001461145E+04 0.  0.
        3    1    3    3  502    0 -0.62428426258E+03 -0.65498197253E+03  0.11815922320E+04  0.14882514699E+04  0.10100000352E+00 0.  1.
       -3    1    3    3    0  502  0.62428426258E+03  0.65498197253E+03 -0.14682983110E+04  0.17247121978E+04  0.10100000352E+00 0. -1.
</event>
<event>
 5   0  0.9329929E-08  0.3198726E+04  0.7818609E-02  0.8189154E-01
       -2   -1    0    0    0  501  0.00000000000E+00  0.00000000000E+00  0.17590420012E+04  0.17590420012E+04  0.25500000920E-02 0.  1.
        2   -1    0    0  501    0  0.00000000000E+00  0.00000000000E+00 -0.14541786829E+04  0.14541786829E+04  0.25500000920E-02 0. -1.
    10030    2    1    2    0    0  0.00000000000E+00  0.00000000000E+00  0.30486331828E+03  0.32132206841E+04  0.31987256090E+04 0.  0.
        1    1    3    3  502    0  0.11762249813E+04 -0.10240372368E+04  0.50872740632E+03  0.16404148997E+04  0.50400001928E-02 0.  1.
       -1    1    3    3    0  502 -0.11762249813E+04  0.10240372368E+04 -0.20386408803E+03  0.15728057844E+04  0.50400001928E-02 0. -1.
</event>
<event>
 5   0  0.9727083E-08  0.3207553E+04  0.7818609E-02  0.8186825E-01
       -2   -1    0    0    0  501  0.00000000000E+00  0.00000000000E+00  0.24629359652E+04  0.24629359652E+04  0.25500000920E-02 0.  1.
        2   -1    0    0  501    0  0.00000000000E+00  0.00000000000E+00 -0.10443226346E+04  0.10443226346E+04  0.25500000920E-02 0. -1.
    10030    2    1    2    0    0  0.00000000000E+00  0.00000000000E+00  0.14186133306E+04  0.35072585998E+04  0.32075534453E+04 0.  0.
        4    1    3    3  502    0 -0.36176916274E+03 -0.80633011059E+03  0.21726563041E+04  0.23455238654E+04  0.12699999809E+01 0.  1.
       -4    1    3    3    0  502  0.36176916274E+03  0.80633011059E+03 -0.75404297352E+03  0.11617347344E+04  0.12699999809E+01 0. -1.
</event>
<event>
 5   0  0.9727083E-08  0.3197397E+04  0.7818609E-02  0.8189505E-01
        2   -1    0    0  501    0  0.00000000000E+00  0.00000000000E+00  0.12793061469E+04  0.12793061469E+04  0.25500000920E-02 0. -1.
       -2   -1    0    0    0  501  0.00000000000E+00  0.00000000000E+00 -0.19978311126E+04  0.19978311126E+04  0.25500000920E-02 0.  1.
    10030    2    1    2    0    0  0.00000000000E+00  0.00000000000E+00 -0.71852496563E+03  0.32771372595E+04  0.31973974560E+04 0.  0.
        4    1    3    3  502    0  0.57841365648E+03  0.54383102859E+03 -0.17815001901E+04  0.19503997247E+04  0.12699999809E+01 0.  1.
       -4    1    3    3    0  502 -0.57841365648E+03 -0.54383102859E+03  0.10629752245E+04  0.13267375349E+04  0.12699999809E+01 0. -1.
</event>
<event>
 5   0  0.3343140E-08  0.3198627E+04  0.7818609E-02  0.8189180E-01
       -1   -1    0    0    0  501  0.00000000000E+00  0.00000000000E+00  0.90598536181E+03  0.90598536183E+03  0.50400001928E-02 0.  1.
        1   -1    0    0  501    0  0.00000000000E+00  0.00000000000E+00 -0.28232291684E+04  0.28232291684E+04  0.50400001928E-02 0. -1.
    10030    2    1    2    0    0  0.00000000000E+00  0.00000000000E+00 -0.19172438066E+04  0.37292145303E+04  0.31986273929E+04 0.  0.
        1    1    3    3  502    0  0.56654538934E+03  0.11799960905E+04 -0.20299884338E+04  0.24154124893E+04  0.50400001928E-02 0.  1.
       -1    1    3    3    0  502 -0.56654538934E+03 -0.11799960905E+04  0.11274462721E+03  0.13138020410E+04  0.50400001928E-02 0. -1.
</event>
<event>
 5   0  0.3270966E-08  0.3197617E+04  0.7818609E-02  0.8189447E-01
       -1   -1    0    0    0  501  0.00000000000E+00  0.00000000000E+00  0.13525729049E+04  0.13525729049E+04  0.50400001928E-02 0.  1.
        1   -1    0    0  501    0  0.00000000000E+00  0.00000000000E+00 -0.18898714221E+04  0.18898714221E+04  0.50400001928E-02 0. -1.
    10030    2    1    2    0    0  0.00000000000E+00  0.00000000000E+00 -0.53729851722E+03  0.32424443270E+04  0.31976171624E+04 0.  0.
        3    1    3    3  502    0 -0.24855287640E+03  0.18625259682E+03 -0.18589853866E+04  0.18847533632E+04  0.10100000352E+00 0. -1.
       -3    1    3    3    0  502  0.24855287640E+03 -0.18625259682E+03  0.13216868694E+04  0.13576909638E+04  0.10100000352E+00 0.  1.
</event>
<event>
 5   0  0.3270966E-08  0.3199326E+04  0.7818609E-02  0.8188995E-01
       -1   -1    0    0    0  501  0.00000000000E+00  0.00000000000E+00  0.31322404737E+04  0.31322404737E+04  0.50400001928E-02 0.  1.
        1   -1    0    0  501    0  0.00000000000E+00  0.00000000000E+00 -0.81696185057E+03  0.81696185058E+03  0.50400001928E-02 0. -1.
    10030    2    1    2    0    0  0.00000000000E+00  0.00000000000E+00  0.23152786231E+04  0.39492023242E+04  0.31993255376E+04 0.  0.
        3    1    3    3  502    0 -0.10791723921E+04  0.67139157621E+03  0.23566730407E+04  0.26775525264E+04  0.10100000352E+00 0.  1.
       -3    1    3    3    0  502  0.10791723921E+04 -0.67139157621E+03 -0.41394417622E+02  0.12716497979E+04  0.10100000352E+00 0. -1.
</event>
<event>
 5   0  0.9727083E-08  0.3205760E+04  0.7818609E-02  0.8187298E-01
       -2   -1    0    0    0  501  0.00000000000E+00  0.00000000000E+00  0.23098917590E+04  0.23098917590E+04  0.25500000920E-02 0.  1.
        2   -1    0    0  501    0  0.00000000000E+00  0.00000000000E+00 -0.11122703593E+04  0.11122703593E+04  0.25500000920E-02 0. -1.
    10030    2    1    2    0    0  0.00000000000E+00  0.00000000000E+00  0.11976213998E+04  0.34221621183E+04  0.32057599016E+04 0.  0.
        4    1    3    3  502    0 -0.42960399504E+02  0.27987015884E+03  0.22829823969E+04  0.23004745465E+04  0.12699999809E+01 0.  1.
       -4    1    3    3    0  502  0.42960399504E+02 -0.27987015884E+03 -0.10853609971E+04  0.11216875718E+04  0.12699999809E+01 0. -1.
</event>
<event>
 5   0  0.3220147E-08  0.3199855E+04  0.7818609E-02  0.8188855E-01
       -1   -1    0    0    0  501  0.00000000000E+00  0.00000000000E+00  0.89629520783E+03  0.89629520785E+03  0.50400001928E-02 0. -1.
        1   -1    0    0  501    0  0.00000000000E+00  0.00000000000E+00 -0.28559429107E+04  0.28559429107E+04  0.50400001928E-02 0.  1.
    10030    2    1    2    0    0  0.00000000000E+00  0.00000000000E+00 -0.19596477028E+04  0.37522381185E+04  0.31998549622E+04 0.  0.
        4    1    3    3  502    0 -0.53506181291E+03  0.11731689410E+04  0.13086544199E+03  0.12960493372E+04  0.12699999809E+01 0. -1.
       -4    1    3    3    0  502  0.53506181291E+03 -0.11731689410E+04 -0.20905131448E+04  0.24561887813E+04  0.12699999809E+01 0.  1.
</event>
<event>
 5   0  0.9329929E-08  0.3199179E+04  0.7818609E-02  0.8189034E-01
        2   -1    0    0  501    0  0.00000000000E+00  0.00000000000E+00  0.22620691414E+04  0.22620691414E+04  0.25500000920E-02 0.  1.
       -2   -1    0    0    0  501  0.00000000000E+00  0.00000000000E+00 -0.11311269359E+04  0.11311269359E+04  0.25500000920E-02 0. -1.
    10030    2    1    2    0    0  0.00000000000E+00  0.00000000000E+00  0.11309422056E+04  0.33931960773E+04  0.31991794802E+04 0.  0.
        1    1    3    3  502    0 -0.34973544523E+03 -0.10068269516E+04 -0.69962271755E+03  0.12749460142E+04  0.50400001928E-02 0. -1.
       -1    1    3    3    0  502  0.34973544523E+03  0.10068269516E+04  0.18305649231E+04  0.21182500631E+04  0.50400001928E-02 0.  1.
</event>
<event>
 5   0  0.3283581E-08  0.3200195E+04  0.7818609E-02  0.8188766E-01
       -1   -1    0    0    0  501  0.00000000000E+00  0.00000000000E+00  0.25093537820E+04  0.25093537820E+04  0.50400001928E-02 0. -1.
        1   -1    0    0  501    0  0.00000000000E+00  0.00000000000E+00 -0.10203075816E+04  0.10203075817E+04  0.50400001928E-02 0.  1.
    10030    2    1    2    0    0  0.00000000000E+00  0.00000000000E+00  0.14890462004E+04  0.35296613637E+04  0.32001954246E+04 0.  0.
        5    1    3    3  502    0  0.14510907072E+04  0.57142649234E+03  0.11392783577E+04  0.19313647359E+04  0.46999998093E+01 0. -1.
       -5    1    3    3    0  502 -0.14510907072E+04 -0.57142649234E+03  0.34976784266E+03  0.15982966278E+04  0.46999998093E+01 0.  1.
</event>
<event>
 5   0  0.9707721E-08  0.3199929E+04  0.7818609E-02  0.8188836E-01
       -2   -1    0    0    0  501  0.00000000000E+00  0.00000000000E+00  0.15619913047E+04  0.15619913047E+04  0.25500000920E-02 0.  1.
        2   -1    0    0  501    0  0.00000000000E+00  0.00000000000E+00 -0.16388613277E+04  0.16388613277E+04  0.25500000920E-02 0. -1.
    10030    2    1    2    0    0  0.00000000000E+00  0.00000000000E+00 -0.76870023037E+02  0.32008526324E+04  0.31999294639E+04 0.  0.
        3    1    3    3  502    0  0.83355693774E+03  0.11598404644E+04  0.68277234381E+03  0.15831061730E+04  0.10100000352E+00 0.  1.
       -3    1    3    3    0  502 -0.83355693774E+03 -0.11598404644E+04 -0.75964236684E+03  0.16177464594E+04  0.10100000352E+00 0. -1.
</event>
<event>
 5   0  0.9329929E-08  0.3200122E+04  0.7818609E-02  0.8188785E-01
       -2   -1    0    0    0  501  0.00000000000E+00  0.00000000000E+00  0.15808142270E+04  0.15808142270E+04  0.25500000920E-02 0. -1.
        2   -1    0    0  501    0  0.00000000000E+00  0.00000000000E+00 -0.16195421893E+04  0.16195421893E+04  0.25500000920E-02 0.  1.
    10030    2    1    2    0    0  0.00000000000E+00  0.00000000000E+00 -0.38727962336E+02  0.32003564163E+04  0.32001220814E+04 0.  0.
        1    1    3    3  502    0 -0.48781200880E+03  0.63151555520E+03  0.13676127974E+04  0.15833942074E+04  0.50400001928E-02 0. -1.
       -1    1    3    3    0  502  0.48781200880E+03 -0.63151555520E+03 -0.14063407597E+04  0.16169622089E+04  0.50400001928E-02 0.  1.
</event>
<event>
 5   0  0.3283581E-08  0.3200640E+04  0.7818609E-02  0.8188648E-01
        1   -1    0    0  501    0  0.00000000000E+00  0.00000000000E+00  0.17143664376E+04  0.17143664377E+04  0.50400001928E-02 0. -1.
       -1   -1    0    0    0  501  0.00000000000E+00  0.00000000000E+00 -0.14938606873E+04  0.14938606873E+04  0.50400001928E-02 0.  1.
    10030    2    1    2    0    0  0.00000000000E+00  0.00000000000E+00  0.22050575031E+03  0.32082271250E+04  0.32006403265E+04 0.  0.
        5    1    3    3  502    0  0.89254914978E+03 -0.13256440730E+04  0.19427484682E+03  0.16098885052E+04  0.46999998093E+01 0. -1.
       -5    1    3    3    0  502 -0.89254914978E+03  0.13256440730E+04  0.26230903493E+02  0.15983386198E+04  0.46999998093E+01 0.  1.
</event>
<event>
 5   0  0.3427667E-08  0.3200428E+04  0.7818609E-02  0.8188704E-01
       -1   -1    0    0    0  501  0.00000000000E+00  0.00000000000E+00  0.16551896921E+04  0.16551896921E+04  0.50400001928E-02 0.  1.
        1   -1    0    0  501    0  0.00000000000E+00  0.00000000000E+00 -0.15470642172E+04  0.15470642172E+04  0.50400001928E-02 0. -1.
    10030    2    1    2    0    0  0.00000000000E+00  0.00000000000E+00  0.10812547488E+03  0.32022539094E+04  0.32004279373E+04 0.  0.
        2    1    3    3  502    0 -0.44365490501E+03  0.64323875913E+03  0.14513189141E+04  0.16483059080E+04  0.25500000920E-02 0.  1.
       -2    1    3    3    0  502  0.44365490501E+03 -0.64323875913E+03 -0.13431934392E+04  0.15539480014E+04  0.25500000920E-02 0. -1.
</event>
<event>
 5   0  0.9353994E-08  0.3199620E+04  0.7818609E-02  0.8188917E-01
        2   -1    0    0  501    0  0.00000000000E+00  0.00000000000E+00  0.26931122019E+04  0.26931122019E+04  0.25500000920E-02 0.  1.
       -2   -1    0    0    0  501  0.00000000000E+00  0.00000000000E+00 -0.95034757523E+03  0.95034757524E+03  0.25500000920E-02 0. -1.
    10030    2    1    2    0    0  0.00000000000E+00  0.00000000000E+00  0.17427646267E+04  0.36434597772E+04  0.31996203843E+04 0.  0.
        2    1    3    3  502    0 -0.88121328883E+03 -0.75355150467E+03  0.21265637529E+04  0.24221168687E+04  0.25500000920E-02 0.  1.
       -2    1    3    3    0  502  0.88121328883E+03  0.75355150467E+03 -0.38379912624E+03  0.12213429084E+04  0.25500000920E-02 0. -1.
</event>
<event>
 5   0  0.9353994E-08  0.3200834E+04  0.7818609E-02  0.8188597E-01
       -2   -1    0    0    0  501  0.00000000000E+00  0.00000000000E+00  0.17645043378E+04  0.17645043378E+04  0.25500000920E-02 0.  1.
        2   -1    0    0  501    0  0.00000000000E+00  0.00000000000E+00 -0.14515890083E+04  0.14515890083E+04  0.25500000920E-02 0. -1.
    10030    2    1    2    0    0  0.00000000000E+00  0.00000000000E+00  0.31291532952E+03  0.32160933462E+04  0.32008343300E+04 0.  0.
        2    1    3    3  502    0  0.53337795722E+03 -0.87652392023E+03 -0.10776275287E+04  0.14879742332E+04  0.25500000920E-02 0. -1.
       -2    1    3    3    0  502 -0.53337795722E+03  0.87652392023E+03  0.13905428582E+04  0.17281191130E+04  0.25500000920E-02 0.  1.
</event>
<event>
 5   0  0.3270966E-08  0.3199432E+04  0.7818609E-02  0.8188967E-01
        1   -1    0    0  501    0  0.00000000000E+00  0.00000000000E+00  0.16367767104E+04  0.16367767104E+04  0.50400001928E-02 0.  1.
       -1   -1    0    0    0  501  0.00000000000E+00  0.00000000000E+00 -0.15634939567E+04  0.15634939567E+04  0.50400001928E-02 0. -1.
    10030    2    1    2    0    0  0.00000000000E+00  0.00000000000E+00  0.73282753681E+02  0.32002706671E+04  0.31994315090E+04 0.  0.
        3    1    3    3  502    0  0.83643678254E+03  0.12962509024E+04 -0.38678701759E+03  0.15904392791E+04  0.10100000352E+00 0. -1.
       -3    1    3    3    0  502 -0.83643678254E+03 -0.12962509024E+04  0.46006977127E+03  0.16098313880E+04  0.10100000352E+00 0.  1.
</event>
<event>
 5   0  0.3427667E-08  0.3198982E+04  0.7818609E-02  0.8189086E-01
       -1   -1    0    0    0  501  0.00000000000E+00  0.00000000000E+00  0.23528235540E+04  0.23528235540E+04  0.50400001928E-02 0. -1.
        1   -1    0    0  501    0  0.00000000000E+00  0.00000000000E+00 -0.10873622553E+04  0.10873622553E+04  0.50400001928E-02 0.  1.
    10030    2    1    2    0    0  0.00000000000E+00  0.00000000000E+00  0.12654612987E+04  0.34401858094E+04  0.31989820419E+04 0.  0.
        2    1    3    3  502    0  0.62999243279E+03 -0.41074840807E+03 -0.88536221249E+03  0.11616673222E+04  0.25500000920E-02 0.  1.
       -2    1    3    3    0  502 -0.62999243279E+03  0.41074840807E+03  0.21508235112E+04  0.22785184872E+04  0.25500000920E-02 0. -1.
</event>
<event>
 5   0  0.9329929E-08  0.3200422E+04  0.7818609E-02  0.8188706E-01
       -2   -1    0    0    0  501  0.00000000000E+00  0.00000000000E+00  0.18208746260E+04  0.18208746260E+04  0.25500000920E-02 0. -1.
        2   -1    0    0  501    0  0.00000000000E+00  0.00000000000E+00 -0.14062882014E+04  0.14062882014E+04  0.25500000920E-02 0.  1.
    10030    2    1    2    0    0  0.00000000000E+00  0.00000000000E+00  0.41458642462E+03  0.32271628274E+04  0.32004215364E+04 0.  0.
        1    1    3    3  502    0 -0.13916421421E+04  0.50687361144E+03  0.81823169575E+03  0.16920673207E+04  0.50400001928E-02 0. -1.
       -1    1    3    3    0  502  0.13916421421E+04 -0.50687361144E+03 -0.40364527112E+03  0.15350955067E+04  0.50400001928E-02 0.  1.
</event>
<event>
 5   0  0.3220147E-08  0.3186388E+04  0.7818609E-02  0.8192421E-01
       -1   -1    0    0    0  501  0.00000000000E+00  0.00000000000E+00  0.22310266951E+04  0.22310266951E+04  0.50400001928E-02 0.  1.
        1   -1    0    0  501    0  0.00000000000E+00  0.00000000000E+00 -0.11377128632E+04  0.11377128632E+04  0.50400001928E-02 0. -1.
    10030    2    1    2    0    0  0.00000000000E+00  0.00000000000E+00  0.10933138319E+04  0.33687395583E+04  0.31863884065E+04 0.  0.
        4    1    3    3  502    0 -0.23720257289E+03 -0.15324899722E+04  0.16040590182E+03  0.15590132270E+04  0.12699999809E+01 0. -1.
       -4    1    3    3    0  502  0.23720257289E+03  0.15324899722E+04  0.93290793005E+03  0.18097263314E+04  0.12699999809E+01 0.  1.
</event>
<event>
 5   0  0.9329929E-08  0.3199938E+04  0.7818609E-02  0.8188834E-01
       -2   -1    0    0    0  501  0.00000000000E+00  0.00000000000E+00  0.10735886238E+04  0.10735886238E+04  0.25500000920E-02 0. -1.
        2   -1    0    0  501    0  0.00000000000E+00  0.00000000000E+00 -0.23844333070E+04  0.23844333070E+04  0.25500000920E-02 0.  1.
    10030    2    1    2    0    0  0.00000000000E+00  0.00000000000E+00 -0.13108446832E+04  0.34580219308E+04  0.31999377948E+04 0.  0.
        1    1    3    3  502    0 -0.15297311550E+03 -0.61104052849E+02  0.10644006102E+04  0.10770715568E+04  0.50400001928E-02 0. -1.
       -1    1    3    3    0  502  0.15297311550E+03  0.61104052849E+02 -0.23752452935E+04  0.23809503740E+04  0.50400001928E-02 0.  1.
</event>
<event>
 5   0  0.3343140E-08  0.3201139E+04  0.7818609E-02  0.8188517E-01
        1   -1    0    0  501    0  0.00000000000E+00  0.00000000000E+00  0.15516897581E+04  0.15516897581E+04  0.50400001928E-02 0.  1.
       -1   -1    0    0    0  501  0.00000000000E+00  0.00000000000E+00 -0.16509885959E+04  0.16509885959E+04  0.50400001928E-02 0. -1.
    10030    2    1    2    0    0  0.00000000000E+00  0.00000000000E+00 -0.99298837796E+02  0.32026783540E+04  0.32011386068E+04 0.  0.
        1    1    3    3  502    0  0.60221623045E+03  0.77923176297E+03 -0.13119835250E+04  0.16404777653E+04  0.50400001928E-02 0. -1.
       -1    1    3    3    0  502 -0.60221623045E+03 -0.77923176297E+03  0.12126846872E+04  0.15622005887E+04  0.50400001928E-02 0.  1.
</event>
<event>
 5   0  0.9727083E-08  0.3197683E+04  0.7818609E-02  0.8189429E-01
       -2   -1    0    0    0  501  0.00000000000E+00  0.00000000000E+00  0.17127637786E+04  0.17127637786E+04  0.25500000920E-02 0. -1.
        2   -1    0    0  501    0  0.00000000000E+00  0.00000000000E+00 -0.14924961619E+04  0.14924961619E+04  0.25500000920E-02 0.  1.
    10030    2    1    2    0    0  0.00000000000E+00  0.00000000000E+00  0.22026761672E+03  0.32052599405E+04  0.31976825145E+04 0.  0.
        4    1    3    3  502    0 -0.45580386632E+03 -0.14449945005E+03 -0.14191467662E+04  0.14975367817E+04  0.12699999809E+01 0.  1.
       -4    1    3    3    0  502  0.45580386632E+03  0.14449945005E+03  0.16394143829E+04  0.17077231589E+04  0.12699999809E+01 0. -1.
</event>
<event>
 5   0  0.3080500E-08  0.3198891E+04  0.7818609E-02  0.8189110E-01
       -3   -1    0    0    0  501  0.00000000000E+00  0.00000000000E+00  0.20071665518E+04  0.20071665544E+04  0.10100000352E+00 0. -1.
        3   -1    0    0  501    0  0.00000000000E+00  0.00000000000E+00 -0.12745462058E+04  0.12745462098E+04  0.10100000352E+00 0.  1.
    10030    2    1    2    0    0  0.00000000000E+00  0.00000000000E+00  0.73262034600E+03  0.32817127642E+04  0.31988913854E+04 0.  0.
        3    1    3    3  502    0  0.17941463970E+03 -0.15886265305E+04  0.31708187788E+03  0.16298664957E+04  0.10100000352E+00 0. -1.
       -3    1    3    3    0  502 -0.17941463970E+03  0.15886265305E+04  0.41553846812E+03  0.16518462686E+04  0.10100000352E+00 0.  1.
</event>
<event>
 5   0  0.9707721E-08  0.3201310E+04  0.7818609E-02  0.8188471E-01
       -2   -1    0    0    0  501  0.00000000000E+00  0.00000000000E+00  0.13342239679E+04  0.13342239679E+04  0.25500000920E-02 0. -1.
        2   -1    0    0  501    0  0.00000000000E+00  0.00000000000E+00 -0.19202900805E+04  0.19202900805E+04  0.25500000920E-02 0.  1.
    10030    2    1    2    0    0  0.00000000000E+00  0.00000000000E+00 -0.58606611265E+03  0.32545140484E+04  0.32013103884E+04 0.  0.
        3    1    3    3  502    0  0.76746434621E+03 -0.13334775745E+04  0.15581684588E+03  0.15464290685E+04  0.10100000352E+00 0. -1.
       -3    1    3    3    0  502 -0.76746434621E+03  0.13334775745E+04 -0.74188295853E+03  0.17080849799E+04  0.10100000352E+00 0.  1.
</event>
<event>
 5   0  0.9353994E-08  0.3201507E+04  0.7818609E-02  0.8188419E-01
       -2   -1    0    0    0  501  0.00000000000E+00  0.00000000000E+00  0.17022290800E+04  0.17022290800E+04  0.25500000920E-02 0. -1.
        2   -1    0    0  501    0  0.00000000000E+00  0.00000000000E+00 -0.15053269237E+04  0.15053269237E+04  0.25500000920E-02 0.  1.
    10030    2    1    2    0    0  0.00000000000E+00  0.00000000000E+00  0.19690215624E+03  0.32075560037E+04  0.32015066856E+04 0.  0.
        2    1    3    3  502    0  0.12551317342E+04 -0.78276983293E+02  0.10907407445E+04  0.16646916616E+04  0.25500000920E-02 0. -1.
       -2    1    3    3    0  502 -0.12551317342E+04  0.78276983293E+02 -0.89383858829E+03  0.15428643421E+04  0.25500000920E-02 0.  1.
</event>
<event>
 5   0  0.9329929E-08  0.3199827E+04  0.7818609E-02  0.8188863E-01
        2   -1    0    0  501    0  0.00000000000E+00  0.00000000000E+00  0.97906873338E+03  0.97906873339E+03  0.25500000920E-02 0.  1.
       -2   -1    0    0    0  501  0.00000000000E+00  0.00000000000E+00 -0.26144464228E+04  0.26144464228E+04  0.25500000920E-02 0. -1.
    10030    2    1    2    0    0  0.00000000000E+00  0.00000000000E+00 -0.16353776895E+04  0.35935151562E+04  0.31998267126E+04 0.  0.
        1    1    3    3  502    0 -0.11419181820E+04 -0.10790186187E+04 -0.11573290907E+04  0.19513249186E+04  0.50400001928E-02 0. -1.
       -1    1    3    3    0  502  0.11419181820E+04  0.10790186187E+04 -0.47804859880E+03  0.16421902376E+04  0.50400001928E-02 0.  1.
</event>
<event>
 5   0  0.3220147E-08  0.3196546E+04  0.7818609E-02  0.8189730E-01
       -1   -1    0    0    0  501  0.00000000000E+00  0.00000000000E+00  0.14119637226E+04  0.14119637226E+04  0.50400001928E-02 0.  1.
        1   -1    0    0  501    0  0.00000000000E+00  0.00000000000E+00 -0.18091661913E+04  0.18091661913E+04  0.50400001928E-02 0. -1.
    10030    2    1    2    0    0  0.00000000000E+00  0.00000000000E+00 -0.39720246875E+03  0.32211299139E+04  0.31965462801E+04 0.  0.
        4    1    3    3  502    0 -0.14830069042E+04 -0.21084967197E+03  0.36309784288E+03  0.15413009825E+04  0.12699999809E+01 0.  1.
       -4    1    3    3    0  502  0.14830069042E+04  0.21084967197E+03 -0.76030031164E+03  0.16798289314E+04  0.12699999809E+01 0. -1.
</event>
<event>
 5   0  0.9353994E-08  0.3199683E+04  0.7818609E-02  0.8188901E-01
        2   -1    0    0  501    0  0.00000000000E+00  0.00000000000E+00  0.18835374439E+04  0.18835374439E+04  0.25500000920E-02 0.  1.
       -2   -1    0    0    0  501  0.00000000000E+00  0.00000000000E+00 -0.13588756662E+04  0.13588756662E+04  0.25500000920E-02 0. -1.
    10030    2    1    2    0    0  0.00000000000E+00  0.00000000000E+00  0.52466177774E+03  0.32424131101E+04  0.31996832336E+04 0.  0.
        2    1    3    3  502    0 -0.44859198029E+02  0.15973902660E+04  0.18498871444E+03  0.16086916529E+04  0.25500000920E-02 0. -1.
       -2    1    3    3    0  502  0.44859198029E+02 -0.15973902660E+04  0.33967306330E+03  0.16337214572E+04  0.25500000920E-02 0.  1.
</event>
<event>
 5   0  0.3283581E-08  0.3197880E+04  0.7818609E-02  0.8189377E-01
       -1   -1    0    0    0  501  0.00000000000E+00  0.00000000000E+00  0.19088541376E+04  0.19088541376E+04  0.50400001928E-02 0. -1.
        1   -1    0    0  501    0  0.00000000000E+00  0.00000000000E+00 -0.13393424921E+04  0.13393424921E+04  0.50400001928E-02 0.  1.
    10030    2    1    2    0    0  0.00000000000E+00  0.00000000000E+00  0.56951164552E+03  0.32481966297E+04  0.31978802089E+04 0.  0.
        5    1    3    3  502    0  0.10069660709E+04 -0.59450787484E+03  0.13924032940E+04  0.18183039637E+04  0.46999998093E+01 0. -1.
       -5    1    3    3    0  502 -0.10069660709E+04  0.59450787484E+03 -0.82289164848E+03  0.14298926660E+04  0.46999998093E+01 0.  1.
</event>
<event>
 5   0  0.3220147E-08  0.3200419E+04  0.7818609E-02  0.8188707E-01
        1   -1    0    0  501    0  0.00000000000E+00  0.00000000000E+00  0.25622846305E+04  0.25622846305E+04  0.50400001928E-02 0.  1.
       -1   -1    0    0    0  501  0.00000000000E+00  0.00000000000E+00 -0.99936985769E+03  0.99936985770E+03  0.50400001928E-02 0. -1.
    10030    2    1    2    0    0  0.00000000000E+00  0.00000000000E+00  0.15629147728E+04  0.35616544882E+04  0.32004187392E+04 0.  0.
        4    1    3    3  502    0 -0.10271565045E+04  0.20743122217E+03  0.21273373081E+04  0.23714223226E+04  0.12699999809E+01 0.  1.
       -4    1    3    3    0  502  0.10271565045E+04 -0.20743122217E+03 -0.56442253530E+03  0.11902321656E+04  0.12699999809E+01 0. -1.
</event>
<event>
 5   0  0.3427667E-08  0.3201485E+04  0.7818609E-02  0.8188425E-01
        1   -1    0    0  501    0  0.00000000000E+00  0.00000000000E+00  0.24913141749E+04  0.24913141749E+04  0.50400001928E-02 0. -1.
       -1   -1    0    0    0  501  0.00000000000E+00  0.00000000000E+00 -0.10285238563E+04  0.10285238563E+04  0.50400001928E-02 0.  1.
    10030    2    1    2    0    0  0.00000000000E+00  0.00000000000E+00  0.14627903187E+04  0.35198380312E+04  0.32014846946E+04 0.  0.
        2    1    3    3  502    0  0.15471971924E+04  0.37683884615E+03  0.55225268973E+03  0.16854701723E+04  0.25500000920E-02 0. -1.
       -2    1    3    3    0  502 -0.15471971924E+04 -0.37683884615E+03  0.91053762895E+03  0.18343678590E+04  0.25500000920E-02 0.  1.
</event>
<event>
 5   0  0.3283581E-08  0.3201035E+04  0.7818609E-02  0.8188544E-01
       -1   -1    0    0    0  501  0.00000000000E+00  0.00000000000E+00  0.19965498443E+04  0.19965498443E+04  0.50400001928E-02 0. -1.
        1   -1    0    0  501    0  0.00000000000E+00  0.00000000000E+00 -0.12830418499E+04  0.12830418499E+04  0.50400001928E-02 0.  1.
    10030    2    1    2    0    0  0.00000000000E+00  0.00000000000E+00  0.71350799443E+03  0.32795916942E+04  0.32010354610E+04 0.  0.
        5    1    3    3  502    0  0.43643990525E+03  0.15384289761E+04  0.28886001189E+03  0.16250248311E+04  0.46999998093E+01 0. -1.
       -5    1    3    3    0  502 -0.43643990525E+03 -0.15384289761E+04  0.42464798253E+03  0.16545668631E+04  0.46999998093E+01 0.  1.
</event>
<event>
 5   0  0.9329929E-08  0.3199095E+04  0.7818609E-02  0.8189056E-01
       -2   -1    0    0    0  501  0.00000000000E+00  0.00000000000E+00  0.17215039772E+04  0.17215039772E+04  0.25500000920E-02 0.  1.
        2   -1    0    0  501    0  0.00000000000E+00  0.00000000000E+00 -0.14862308182E+04  0.14862308182E+04  0.25500000920E-02 0. -1.
    10030    2    1    2    0    0  0.00000000000E+00  0.00000000000E+00  0.23527315899E+03  0.32077347955E+04  0.31990950375E+04 0.  0.
        1    1    3    3  502    0 -0.42721138408E+03  0.12315091444E+04  0.10471936177E+04  0.16720462949E+04  0.50400001928E-02 0.  1.
       -1    1    3    3    0  502  0.42721138408E+03 -0.12315091444E+04 -0.81192045871E+03  0.15356885005E+04  0.50400001928E-02 0. -1.
</event>
<event>
 5   0  0.9727083E-08  0.3199224E+04  0.7818609E-02  0.8189022E-01
       -2   -1    0    0    0  501  0.00000000000E+00  0.00000000000E+00  0.14082094581E+04  0.14082094581E+04  0.25500000920E-02 0.  1.
        2   -1    0    0  501    0  0.00000000000E+00  0.00000000000E+00 -0.18170302395E+04  0.18170302395E+04  0.25500000920E-02 0. -1.
    10030    2    1    2    0    0  0.00000000000E+00  0.00000000000E+00 -0.40882078136E+03  0.32252396976E+04  0.31992243866E+04 0.  0.
        4    1    3    3  502    0  0.27920023976E+03 -0.38915880624E+03  0.13342246576E+04  0.14175875282E+04  0.12699999809E+01 0.  1.
       -4    1    3    3    0  502 -0.27920023976E+03  0.38915880624E+03 -0.17430454389E+04  0.18076521694E+04  0.12699999809E+01 0. -1.
</event>
<event>
 5   0  0.9707721E-08  0.3198619E+04  0.7818609E-02  0.8189182E-01
        2   -1    0    0  501    0  0.00000000000E+00  0.00000000000E+00  0.20811655490E+04  0.20811655490E+04  0.25500000920E-02 0. -1.
       -2   -1    0    0    0  501  0.00000000000E+00  0.00000000000E+00 -0.12290180882E+04  0.12290180882E+04  0.25500000920E-02 0.  1.
    10030    2    1    2    0    0  0.00000000000E+00  0.00000000000E+00  0.85214746073E+03  0.33101836372E+04  0.31986185170E+04 0.  0.
        3    1    3    3  502    0  0.73097282645E+03 -0.10468665932E+04  0.14227537841E+04  0.19116692385E+04  0.10100000352E+00 0.  1.
       -3    1    3    3    0  502 -0.73097282645E+03  0.10468665932E+04 -0.57060632338E+03  0.13985143987E+04  0.10100000352E+00 0. -1.
</event>
<event>
 5   0  0.3427667E-08  0.3198878E+04  0.7818609E-02  0.8189114E-01
        1   -1    0    0  501    0  0.00000000000E+00  0.00000000000E+00  0.19163500784E+04  0.19163500784E+04  0.50400001928E-02 0.  1.
       -1   -1    0    0    0  501  0.00000000000E+00  0.00000000000E+00 -0.13349359653E+04  0.13349359653E+04  0.50400001928E-02 0. -1.
    10030    2    1    2    0    0  0.00000000000E+00  0.00000000000E+00  0.58141411305E+03  0.32512860437E+04  0.31988777043E+04 0.  0.
        2    1    3    3  502    0 -0.38336588274E+03  0.14005727175E+04 -0.39082425462E+03  0.15037675801E+04  0.25500000920E-02 0. -1.
       -2    1    3    3    0  502  0.38336588274E+03 -0.14005727175E+04  0.97223836767E+03  0.17475184636E+04  0.25500000920E-02 0.  1.
</event>
<event>
 5   0  0.3427667E-08  0.3203268E+04  0.7818609E-02  0.8187955E-01
        1   -1    0    0  501    0  0.00000000000E+00  0.00000000000E+00  0.17132453047E+04  0.17132453047E+04  0.50400001928E-02 0.  1.
       -1   -1    0    0    0  501  0.00000000000E+00  0.00000000000E+00 -0.14972939425E+04  0.14972939425E+04  0.50400001928E-02 0. -1.
    10030    2    1    2    0    0  0.00000000000E+00  0.00000000000E+00  0.21595136216E+03  0.32105392472E+04  0.32032682165E+04 0.  0.
        2    1    3    3  502    0  0.28827362906E+03  0.11667433186E+04 -0.95312482201E+03  0.15338965360E+04  0.25500000920E-02 0. -1.
       -2    1    3    3    0  502 -0.28827362906E+03 -0.11667433186E+04  0.11690761842E+04  0.16766427112E+04  0.25500000920E-02 0.  1.
</event>
<event>
 5   0  0.3080500E-08  0.3200426E+04  0.7818609E-02  0.8188705E-01
       -3   -1    0    0    0  501  0.00000000000E+00  0.00000000000E+00  0.13929412163E+04  0.13929412200E+04  0.10100000352E+00 0. -1.
        3   -1    0    0  501    0  0.00000000000E+00  0.00000000000E+00 -0.18383274282E+04  0.18383274310E+04  0.10100000352E+00 0.  1.
    10030    2    1    2    0    0  0.00000000000E+00  0.00000000000E+00 -0.44538621188E+03  0.32312686510E+04  0.32004262556E+04 0.  0.
        3    1    3    3  502    0  0.99697272747E+03 -0.12010692253E+04  0.13306625887E+03  0.15665977603E+04  0.10100000352E+00 0. -1.
       -3    1    3    3    0  502 -0.99697272747E+03  0.12010692253E+04 -0.57845247075E+03  0.16646708907E+04  0.10100000352E+00 0.  1.
</event>
<event>
 5   0  0.3220147E-08  0.3198352E+04  0.7818609E-02  0.8189253E-01
        1   -1    0    0  501    0  0.00000000000E+00  0.00000000000E+00  0.20136674681E+04  0.20136674681E+04  0.50400001928E-02 0. -1.
       -1   -1    0    0    0  501  0.00000000000E+00  0.00000000000E+00 -0.12700030746E+04  0.12700030747E+04  0.50400001928E-02 0.  1.
    10030    2    1    2    0    0  0.00000000000E+00  0.00000000000E+00  0.74366439350E+03  0.32836705428E+04  0.31983519981E+04 0.  0.
        4    1    3    3  502    0 -0.95753620900E+02 -0.97032056929E+03 -0.92952603394E+03  0.13471121051E+04  0.12699999809E+01 0.  1.
       -4    1    3    3    0  502  0.95753620900E+02  0.97032056929E+03  0.16731904274E+04  0.19365584377E+04  0.12699999809E+01 0. -1.
</event>
<event>
 5   0  0.3270966E-08  0.3200738E+04  0.7818609E-02  0.8188622E-01
       -1   -1    0    0    0  501  0.00000000000E+00  0.00000000000E+00  0.14626685547E+04  0.14626685547E+04  0.50400001928E-02 0. -1.
        1   -1    0    0  501    0  0.00000000000E+00  0.00000000000E+00 -0.17510326341E+04  0.17510326341E+04  0.50400001928E-02 0.  1.
    10030    2    1    2    0    0  0.00000000000E+00  0.00000000000E+00 -0.28836407938E+03  0.32137011888E+04  0.32007376475E+04 0.  0.
        3    1    3    3  502    0  0.14541770679E+04 -0.34292897013E+03 -0.72004585722E+03  0.16585226167E+04  0.10100000352E+00 0.  1.
       -3    1    3    3    0  502 -0.14541770679E+04  0.34292897013E+03  0.43168177784E+03  0.15551785720E+04  0.10100000352E+00 0. -1.
</event>
<event>
 5   0  0.9727083E-08  0.3200018E+04  0.7818609E-02  0.8188813E-01
        2   -1    0    0  501    0  0.00000000000E+00  0.00000000000E+00  0.16911882644E+04  0.16911882644E+04  0.25500000920E-02 0.  1.
       -2   -1    0    0    0  501  0.00000000000E+00  0.00000000000E+00 -0.15137452055E+04  0.15137452055E+04  0.25500000920E-02 0. -1.
    10030    2    1    2    0    0  0.00000000000E+00  0.00000000000E+00  0.17744305896E+03  0.32049334699E+04  0.32000175792E+04 0.  0.
        4    1    3    3  502    0 -0.10092348021E+04 -0.84027461963E+03 -0.82669033950E+03  0.15517844092E+04  0.12699999809E+01 0. -1.
       -4    1    3    3    0  502  0.10092348021E+04  0.84027461963E+03  0.10041333985E+04  0.16531490607E+04  0.12699999809E+01 0.  1.
</event>
<event>
 5   0  0.9157524E-08  0.3199433E+04  0.7818609E-02  0.8188967E-01
        2   -1    0    0  501    0  0.00000000000E+00  0.00000000000E+00  0.23044389059E+04  0.23044389059E+04  0.25500000920E-02 0.  1.
       -2   -1    0    0    0  501  0.00000000000E+00  0.00000000000E+00 -0.11105055747E+04  0.11105055747E+04  0.25500000920E-02 0. -1.
    10030    2    1    2    0    0  0.00000000000E+00  0.00000000000E+00  0.11939333312E+04  0.34149444806E+04  0.31994326069E+04 0.  0.
        5    1    3    3  502    0  0.64684208583E+02  0.23479013746E+02  0.23028510560E+04  0.23038837616E+04  0.46999998093E+01 0.  1.
       -5    1    3    3    0  502 -0.64684208583E+02 -0.23479013746E+02 -0.11089177248E+04  0.11110607190E+04  0.46999998093E+01 0. -1.
</event>
<event>
 5   0  0.3283581E-08  0.3197952E+04  0.7818609E-02  0.8189358E-01
       -1   -1    0    0    0  501  0.00000000000E+00  0.00000000000E+00  0.14764099415E+04  0.14764099415E+04  0.50400001928E-02 0. -1.
        1   -1    0    0  501    0  0.00000000000E+00  0.00000000000E+00 -0.17317168454E+04  0.17317168454E+04  0.50400001928E-02 0.  1.
    10030    2    1    2    0    0  0.00000000000E+00  0.00000000000E+00 -0.25530690396E+03  0.32081267869E+04  0.31979518235E+04 0.  0.
        5    1    3    3  502    0  0.83662555920E+03  0.12252986806E+04  0.47039994833E+03  0.15564695257E+04  0.46999998093E+01 0. -1.
       -5    1    3    3    0  502 -0.83662555920E+03 -0.12252986806E+04 -0.72570685229E+03  0.16516572612E+04  0.46999998093E+01 0.  1.
</event>
<event>
 5   0  0.9329929E-08  0.3200062E+04  0.7818609E-02  0.8188801E-01
       -2   -1    0    0    0  501  0.00000000000E+00  0.00000000000E+00  0.16238723407E+04  0.16238723407E+04  0.25500000920E-02 0.  1.
        2   -1    0    0  501    0  0.00000000000E+00  0.00000000000E+00 -0.15765396983E+04  0.15765396983E+04  0.25500000920E-02 0. -1.
    10030    2    1    2    0    0  0.00000000000E+00  0.00000000000E+00  0.47332642477E+02  0.32004120390E+04  0.32000620057E+04 0.  0.
        1    1    3    3  502    0  0.11972102715E+03 -0.37062244245E+03  0.15757397725E+04  0.16231604819E+04  0.50400001928E-02 0.  1.
       -1    1    3    3    0  502 -0.11972102715E+03  0.37062244245E+03 -0.15284071301E+04  0.15772515571E+04  0.50400001928E-02 0. -1.
</event>
<event>
 5   0  0.9353994E-08  0.3200916E+04  0.7818609E-02  0.8188575E-01
        2   -1    0    0  501    0  0.00000000000E+00  0.00000000000E+00  0.14220077460E+04  0.14220077460E+04  0.25500000920E-02 0.  1.
       -2   -1    0    0    0  501  0.00000000000E+00  0.00000000000E+00 -0.18013026374E+04  0.18013026374E+04  0.25500000920E-02 0. -1.
    10030    2    1    2    0    0  0.00000000000E+00  0.00000000000E+00 -0.37929489137E+03  0.32233103834E+04  0.32009163084E+04 0.  0.
        2    1    3    3  502    0 -0.61253286731E+03 -0.12833933931E+04  0.54977247448E+03  0.15246458240E+04  0.25500000920E-02 0.  1.
       -2    1    3    3    0  502  0.61253286731E+03  0.12833933931E+04 -0.92906736584E+03  0.16986645594E+04  0.25500000920E-02 0. -1.
</event>
<event>
 5   0  0.9353994E-08  0.3198812E+04  0.7818609E-02  0.8189131E-01
       -2   -1    0    0    0  501  0.00000000000E+00  0.00000000000E+00  0.10959880361E+04  0.10959880361E+04  0.25500000920E-02 0.  1.
        2   -1    0    0  501    0  0.00000000000E+00  0.00000000000E+00 -0.23340573312E+04  0.23340573312E+04  0.25500000920E-02 0. -1.
    10030    2    1    2    0    0  0.00000000000E+00  0.00000000000E+00 -0.12380692951E+04  0.34300453672E+04  0.31988115983E+04 0.  0.
        2    1    3    3  502    0  0.15186835657E+04  0.26045417419E+03 -0.10788231330E+04  0.18809825894E+04  0.25500000920E-02 0. -1.
       -2    1    3    3    0  502 -0.15186835657E+04 -0.26045417419E+03 -0.15924616214E+03  0.15490627778E+04  0.25500000920E-02 0.  1.
</event>
<event>
 5   0  0.3220147E-08  0.3201839E+04  0.7818609E-02  0.8188332E-01
       -1   -1    0    0    0  501  0.00000000000E+00  0.00000000000E+00  0.10065735958E+04  0.10065735958E+04  0.50400001928E-02 0. -1.
        1   -1    0    0  501    0  0.00000000000E+00  0.00000000000E+00 -0.25462051554E+04  0.25462051554E+04  0.50400001928E-02 0.  1.
    10030    2    1    2    0    0  0.00000000000E+00  0.00000000000E+00 -0.15396315596E+04  0.35527787512E+04  0.32018387710E+04 0.  0.
        4    1    3    3  502    0 -0.34608881572E+03  0.54388104377E+03 -0.23958169383E+04  0.24810329447E+04  0.12699999809E+01 0.  1.
       -4    1    3    3    0  502  0.34608881572E+03 -0.54388104377E+03  0.85618537865E+03  0.10717458065E+04  0.12699999809E+01 0. -1.
</event>
<event>
 5   0  0.3343140E-08  0.3198877E+04  0.7818609E-02  0.8189114E-01
       -1   -1    0    0    0  501  0.00000000000E+00  0.00000000000E+00  0.16516633646E+04  0.16516633646E+04  0.50400001928E-02 0. -1.
        1   -1    0    0  501    0  0.00000000000E+00  0.00000000000E+00 -0.15488650484E+04  0.15488650484E+04  0.50400001928E-02 0.  1.
    10030    2    1    2    0    0  0.00000000000E+00  0.00000000000E+00  0.10279831618E+03  0.32005284131E+04  0.31988770888E+04 0.  0.
        1    1    3    3  502    0 -0.12258209478E+04 -0.30672698162E+03  0.10324588667E+04  0.16317750301E+04  0.50400001928E-02 0. -1.
       -1    1    3    3    0  502  0.12258209478E+04  0.30672698162E+03 -0.92966055052E+03  0.15687533830E+04  0.50400001928E-02 0.  1.
</event>
<event>
 5   0  0.9157524E-08  0.3200493E+04  0.7818609E-02  0.8188687E-01
        2   -1    0    0  501    0  0.00000000000E+00  0.00000000000E+00  0.19094328910E+04  0.19094328910E+04  0.25500000920E-02 0.  1.
       -2   -1    0    0    0  501  0.00000000000E+00  0.00000000000E+00 -0.13411256794E+04  0.13411256794E+04  0.25500000920E-02 0. -1.
    10030    2    1    2    0    0  0.00000000000E+00  0.00000000000E+00  0.56830721160E+03  0.32505585705E+04  0.32004933891E+04 0.  0.
        5    1    3    3  502    0 -0.73274113285E+03 -0.12437896258E+04 -0.41718826191E+03  0.15026610851E+04  0.46999998093E+01 0. -1.
       -5    1    3    3    0  502  0.73274113285E+03  0.12437896258E+04  0.98549547351E+03  0.17478974853E+04  0.46999998093E+01 0.  1.
</event>
<event>
 5   0  0.3283581E-08  0.3200891E+04  0.7818609E-02  0.8188582E-01
        1   -1    0    0  501    0  0.00000000000E+00  0.00000000000E+00  0.18299670633E+04  0.18299670633E+04  0.50400001928E-02 0.  1.
       -1   -1    0    0    0  501  0.00000000000E+00  0.00000000000E+00 -0.13997111381E+04  0.13997111381E+04  0.50400001928E-02 0. -1.
    10030    2    1    2    0    0  0.00000000000E+00  0.00000000000E+00  0.43025592516E+03  0.32296782015E+04  0.32008906766E+04 0.  0.
        5    1    3    3  502    0 -0.16869557978E+02  0.59828263765E+03  0.17127873586E+04  0.18143564485E+04  0.46999998093E+01 0.  1.
       -5    1    3    3    0  502  0.16869557978E+02 -0.59828263765E+03 -0.12825314335E+04  0.14153217529E+04  0.46999998093E+01 0. -1.
</event>
<event>
 5   0  0.9353994E-08  0.3199805E+04  0.7818609E-02  0.8188869E-01
        2   -1    0    0  501    0  0.00000000000E+00  0.00000000000E+00  0.17812166533E+04  0.17812166533E+04  0.25500000920E-02 0. -1.
       -2   -1    0    0    0  501  0.00000000000E+00  0.00000000000E+00 -0.14370443295E+04  0.14370443295E+04  0.25500000920E-02 0.  1.
    10030    2    1    2    0    0  0.00000000000E+00  0.00000000000E+00  0.34417232385E+03  0.32182609828E+04  0.31998045510E+04 0.  0.
        2    1    3    3  502    0 -0.14624409165E+04 -0.56588672770E+03 -0.14711814983E+03  0.15749936422E+04  0.25500000920E-02 0. -1.
       -2    1    3    3    0  502  0.14624409165E+04  0.56588672770E+03  0.49129047368E+03  0.16432673405E+04  0.25500000920E-02 0.  1.
</event>
<event>
 5   0  0.9727083E-08  0.3196795E+04  0.7818609E-02  0.8189664E-01
        2   -1    0    0  501    0  0.00000000000E+00  0.00000000000E+00  0.22359450579E+04  0.22359450579E+04  0.25500000920E-02 0.  1.
       -2   -1    0    0    0  501  0.00000000000E+00  0.00000000000E+00 -0.11426377049E+04  0.11426377050E+04  0.25500000920E-02 0. -1.
    10030    2    1    2    0    0  0.00000000000E+00  0.00000000000E+00  0.10933073530E+04  0.33785827629E+04  0.31967953512E+04 0.  0.
        4    1    3    3  502    0 -0.12612479382E+02 -0.14511478688E+04 -0.16143383896E+03  0.14601546867E+04  0.12699999809E+01 0. -1.
       -4    1    3    3    0  502  0.12612479382E+02  0.14511478688E+04  0.12547411919E+04  0.19184280762E+04  0.12699999809E+01 0.  1.
</event>
<event>
 5   0  0.3220147E-08  0.3200253E+04  0.7818609E-02  0.8188750E-01
        1   -1    0    0  501    0  0.00000000000E+00  0.00000000000E+00  0.19069597471E+04  0.19069597471E+04  0.50400001928E-02 0.  1.
       -1   -1    0    0    0  501  0.00000000000E+00  0.00000000000E+00 -0.13426631787E+04  0.13426631788E+04  0.50400001928E-02 0. -1.
    10030    2    1    2    0    0  0.00000000000E+00  0.00000000000E+00  0.56429656836E+03  0.32496229259E+04  0.32002528874E+04 0.  0.
        4    1    3    3  502    0 -0.11733934697E+03  0.66576245985E+03 -0.11905340418E+04  0.13690803822E+04  0.12699999809E+01 0. -1.
       -4    1    3    3    0  502  0.11733934697E+03 -0.66576245985E+03  0.17548306102E+04  0.18805425437E+04  0.12699999809E+01 0.  1.
</event>
<event>
 5   0  0.9157524E-08  0.3199709E+04  0.7818609E-02  0.8188894E-01
       -2   -1    0    0    0  501  0.00000000000E+00  0.00000000000E+00  0.13827084339E+04  0.13827084339E+04  0.25500000920E-02 0. -1.
        2   -1    0    0  501    0  0.00000000000E+00  0.00000000000E+00 -0.18511018383E+04  0.18511018383E+04  0.25500000920E-02 0.  1.
    10030    2    1    2    0    0  0.00000000000E+00  0.00000000000E+00 -0.46839340436E+03  0.32338102722E+04  0.31997088142E+04 0.  0.
        5    1    3    3  502    0 -0.86577353347E+03  0.13260344003E+04 -0.46616991021E+01  0.15836586954E+04  0.46999998093E+01 0. -1.
       -5    1    3    3    0  502  0.86577353347E+03 -0.13260344003E+04 -0.46373170525E+03  0.16501515768E+04  0.46999998093E+01 0.  1.
</event>
<event>
 5   0  0.9707721E-08  0.3193685E+04  0.7818609E-02  0.8190487E-01
        2   -1    0    0  501    0  0.00000000000E+00  0.00000000000E+00  0.22200707326E+04  0.22200707326E+04  0.25500000920E-02 0. -1.
       -2   -1    0    0    0  501  0.00000000000E+00  0.00000000000E+00 -0.11485697076E+04  0.11485697076E+04  0.25500000920E-02 0.  1.
    10030    2    1    2    0    0  0.00000000000E+00  0.00000000000E+00  0.10715010250E+04  0.33686404402E+04  0.31936850140E+04 0.  0.
        3    1    3    3  502    0  0.10940140598E+03  0.87927549147E+03  0.19369881446E+04  0.21300274975E+04  0.10100000352E+00 0. -1.
       -3    1    3    3    0  502 -0.10940140598E+03 -0.87927549147E+03 -0.86548711958E+03  0.12386129427E+04  0.10100000352E+00 0.  1.
</event>
<event>
 5   0  0.9727083E-08  0.3199802E+04  0.7818609E-02  0.8188869E-01
        2   -1    0    0  501    0  0.00000000000E+00  0.00000000000E+00  0.25464138103E+04  0.25464138103E+04  0.25500000920E-02 0. -1.
       -2   -1    0    0    0  501  0.00000000000E+00  0.00000000000E+00 -0.10052112509E+04  0.10052112509E+04  0.25500000920E-02 0.  1.
    10030    2    1    2    0    0  0.00000000000E+00  0.00000000000E+00  0.15412025594E+04  0.35516250611E+04  0.31998023760E+04 0.  0.
        4    1    3    3  502    0 -0.15613038106E+04 -0.17542784701E+03  0.43533407606E+03  0.16303257003E+04  0.12699999809E+01 0. -1.
       -4    1    3    3    0  502  0.15613038106E+04  0.17542784701E+03  0.11058684834E+04  0.19212993608E+04  0.12699999809E+01 0.  1.
</event>
<event>
 5   0  0.3427667E-08  0.3199844E+04  0.7818609E-02  0.8188858E-01
       -1   -1    0    0    0  501  0.00000000000E+00  0.00000000000E+00  0.24007390058E+04  0.24007390058E+04  0.50400001928E-02 0.  1.
        1   -1    0    0  501    0  0.00000000000E+00  0.00000000000E+00 -0.10662346644E+04  0.10662346644E+04  0.50400001928E-02 0. -1.
    10030    2    1    2    0    0  0.00000000000E+00  0.00000000000E+00  0.13345043415E+04  0.34669736702E+04  0.31998444638E+04 0.  0.
        2    1    3    3  502    0  0.41388547773E+03 -0.37589255284E+03  0.22914471546E+04  0.23586704862E+04  0.25500000920E-02 0.  1.
       -2    1    3    3    0  502 -0.41388547773E+03  0.37589255284E+03 -0.95694281319E+03  0.11083031840E+04  0.25500000920E-02 0. -1.
</event>
<event>
 5   0  0.9157524E-08  0.3196665E+04  0.7818609E-02  0.8189698E-01
       -2   -1    0    0    0  501  0.00000000000E+00  0.00000000000E+00  0.14334674804E+04  0.14334674804E+04  0.25500000920E-02 0. -1.
        2   -1    0    0  501    0  0.00000000000E+00  0.00000000000E+00 -0.17821594199E+04  0.17821594199E+04  0.25500000920E-02 0.  1.
    10030    2    1    2    0    0  0.00000000000E+00  0.00000000000E+00 -0.34869193952E+03  0.32156269004E+04  0.31966654960E+04 0.  0.
        5    1    3    3  502    0  0.74519101237E+03 -0.12738314212E+04  0.44304479656E+03  0.15408656386E+04  0.46999998093E+01 0. -1.
       -5    1    3    3    0  502 -0.74519101237E+03  0.12738314212E+04 -0.79173673608E+03  0.16747612617E+04  0.46999998093E+01 0.  1.
</event>
<event>
 5   0  0.3283581E-08  0.3198555E+04  0.7818609E-02  0.8189199E-01
       -1   -1    0    0    0  501  0.00000000000E+00  0.00000000000E+00  0.11548476269E+04  0.11548476269E+04  0.50400001928E-02 0. -1.
        1   -1    0    0  501    0  0.00000000000E+00  0.00000000000E+00 -0.22147414623E+04  0.22147414623E+04  0.50400001928E-02 0.  1.
    10030    2    1    2    0    0  0.00000000000E+00  0.00000000000E+00 -0.10598938354E+04  0.33695890892E+04  0.31985552501E+04 0.  0.
        5    1    3    3  502    0  0.14295262780E+04  0.40435663270E+03  0.93844900143E+02  0.14885827559E+04  0.46999998093E+01 0. -1.
       -5    1    3    3    0  502 -0.14295262780E+04 -0.40435663270E+03 -0.11537387355E+04  0.18810063333E+04  0.46999998093E+01 0.  1.
</event>
<event>
 5   0  0.9727083E-08  0.3200373E+04  0.7818609E-02  0.8188719E-01
       -2   -1    0    0    0  501  0.00000000000E+00  0.00000000000E+00  0.11983849847E+04  0.11983849847E+04  0.25500000920E-02 0.  1.
        2   -1    0    0  501    0  0.00000000000E+00  0.00000000000E+00 -0.21367065064E+04  0.21367065064E+04  0.25500000920E-02 0. -1.
    10030    2    1    2    0    0  0.00000000000E+00  0.00000000000E+00 -0.93832152170E+03  0.33350914910E+04  0.32003730994E+04 0.  0.
        4    1    3    3  502    0  0.18302121736E+03 -0.17326079760E+03 -0.21158942179E+04  0.21308510094E+04  0.12699999809E+01 0. -1.
       -4    1    3    3    0  502 -0.18302121736E+03  0.17326079760E+03  0.11775726962E+04  0.12042404817E+04  0.12699999809E+01 0.  1.
</event>
<event>
 5   0  0.3343140E-08  0.3199538E+04  0.7818609E-02  0.8188939E-01
        1   -1    0    0  501    0  0.00000000000E+00  0.00000000000E+00  0.18627908270E+04  0.18627908270E+04  0.50400001928E-02 0. -1.
       -1   -1    0    0    0  501  0.00000000000E+00  0.00000000000E+00 -0.13738851780E+04  0.13738851780E+04  0.50400001928E-02 0.  1.
    10030    2    1    2    0    0  0.00000000000E+00  0.00000000000E+00  0.48890564897E+03  0.32366760050E+04  0.31995379085E+04 0.  0.
        1    1    3    3  502    0  0.13631041868E+04  0.58087136652E+03  0.85460899898E+03  0.17105031744E+04  0.50400001928E-02 0. -1.
       -1    1    3    3    0  502 -0.13631041868E+04 -0.58087136652E+03 -0.36570335001E+03  0.15261728306E+04  0.50400001928E-02 0.  1.
</event>
<event>
 5   0  0.9157524E-08  0.3199713E+04  0.7818609E-02  0.8188893E-01
        2   -1    0    0  501    0  0.00000000000E+00  0.00000000000E+00  0.17115011118E+04  0.17115011118E+04  0.25500000920E-02 0.  1.
       -2   -1    0    0    0  501  0.00000000000E+00  0.00000000000E+00 -0.14954950796E+04  0.14954950796E+04  0.25500000920E-02 0. -1.
    10030    2    1    2    0    0  0.00000000000E+00  0.00000000000E+00  0.21600603221E+03  0.32069961915E+04  0.31997134194E+04 0.  0.
        5    1    3    3  502    0 -0.12028437138E+03  0.21167582566E+02  0.17068149428E+04  0.17111854767E+04  0.46999998093E+01 0.  1.
       -5    1    3    3    0  502  0.12028437138E+03 -0.21167582566E+02 -0.14908089106E+04  0.14958107148E+04  0.46999998093E+01 0. -1.
</event>
<event>
 5   0  0.3283581E-08  0.3200179E+04  0.7818609E-02  0.8188770E-01
        1   -1    0    0  501    0  0.00000000000E+00  0.00000000000E+00  0.20021822660E+04  0.20021822660E+04  0.50400001928E-02 0.  1.
       -1   -1    0    0    0  501  0.00000000000E+00  0.00000000000E+00 -0.12787480182E+04  0.12787480182E+04  0.50400001928E-02 0. -1.
    10030    2    1    2    0    0  0.00000000000E+00  0.00000000000E+00  0.72343424782E+03  0.32809302843E+04  0.32001791230E+04 0.  0.
        5    1    3    3  502    0 -0.72005601993E+03 -0.65658248886E+03 -0.93943414491E+03  0.13535656021E+04  0.46999998093E+01 0. -1.
       -5    1    3    3    0  502  0.72005601993E+03  0.65658248886E+03  0.16628683927E+04  0.19273646822E+04  0.46999998093E+01 0.  1.
</event>
<event>
 5   0  0.3283581E-08  0.3199664E+04  0.7818609E-02  0.8188906E-01
        1   -1    0    0  501    0  0.00000000000E+00  0.00000000000E+00  0.15979731939E+04  0.15979731939E+04  0.50400001928E-02 0.  1.
       -1   -1    0    0    0  501  0.00000000000E+00  0.00000000000E+00 -0.16016927280E+04  0.16016927280E+04  0.50400001928E-02 0. -1.
    10030    2    1    2    0    0  0.00000000000E+00  0.00000000000E+00 -0.37195340750E+01  0.31996659219E+04  0.31996637600E+04 0.  0.
        5    1    3    3  502    0 -0.87071375877E+03 -0.12211356267E+04 -0.55874907810E+03  0.16004803313E+04  0.46999998093E+01 0.  1.
       -5    1    3    3    0  502  0.87071375877E+03  0.12211356267E+04  0.55502954402E+03  0.15991855906E+04  0.46999998093E+01 0. -1.
</event>
<event>
 5   0  0.9157524E-08  0.3198369E+04  0.7818609E-02  0.8189248E-01
        2   -1    0    0  501    0  0.00000000000E+00  0.00000000000E+00  0.11006485950E+04  0.11006485950E+04  0.25500000920E-02 0.  1.
       -2   -1    0    0    0  501  0.00000000000E+00  0.00000000000E+00 -0.23235308955E+04  0.23235308955E+04  0.25500000920E-02 0. -1.
    10030    2    1    2    0    0  0.00000000000E+00  0.00000000000E+00 -0.12228823004E+04  0.34241794905E+04  0.31983689691E+04 0.  0.
        5    1    3    3  502    0  0.40948766397E+03  0.65780900979E+03  0.88624466904E+03  0.11772189871E+04  0.46999998093E+01 0.  1.
       -5    1    3    3    0  502 -0.40948766397E+03 -0.65780900979E+03 -0.21091269695E+04  0.22469605034E+04  0.46999998093E+01 0. -1.
</event>
<event>
 5   0  0.3220147E-08  0.3199756E+04  0.7818609E-02  0.8188881E-01
       -1   -1    0    0    0  501  0.00000000000E+00  0.00000000000E+00  0.12164775600E+04  0.12164775600E+04  0.50400001928E-02 0.  1.
        1   -1    0    0  501    0  0.00000000000E+00  0.00000000000E+00 -0.21041163661E+04  0.21041163661E+04  0.50400001928E-02 0. -1.
    10030    2    1    2    0    0  0.00000000000E+00  0.00000000000E+00 -0.88763880611E+03  0.33205939261E+04  0.31997564551E+04 0.  0.
        4    1    3    3  502    0 -0.15802002996E+04  0.24938332676E+03 -0.46414739465E+03  0.16657309049E+04  0.12699999809E+01 0. -1.
       -4    1    3    3    0  502  0.15802002996E+04 -0.24938332676E+03 -0.42349141146E+03  0.16548630213E+04  0.12699999809E+01 0.  1.
</event>
<event>
 5   0  0.3220147E-08  0.3201110E+04  0.7818609E-02  0.8188524E-01
       -1   -1    0    0    0  501  0.00000000000E+00  0.00000000000E+00  0.24267545310E+04  0.24267545310E+04  0.50400001928E-02 0. -1.
        1   -1    0    0  501    0  0.00000000000E+00  0.00000000000E+00 -0.10556388055E+04  0.10556388055E+04  0.50400001928E-02 0.  1.
    10030    2    1    2    0    0  0.00000000000E+00  0.00000000000E+00  0.13711157255E+04  0.34823933365E+04  0.32011099665E+04 0.  0.
        4    1    3    3  502    0 -0.28508856368E+03 -0.11505730394E+04  0.18555528449E+04  0.22018564398E+04  0.12699999809E+01 0. -1.
       -4    1    3    3    0  502  0.28508856368E+03  0.11505730394E+04 -0.48443711946E+03  0.12805368967E+04  0.12699999809E+01 0.  1.
</event>
<event>
 5   0  0.3283581E-08  0.3199825E+04  0.7818609E-02  0.8188863E-01
       -1   -1    0    0    0  501  0.00000000000E+00  0.00000000000E+00  0.18108197951E+04  0.18108197951E+04  0.50400001928E-02 0.  1.
        1   -1    0    0  501    0  0.00000000000E+00  0.00000000000E+00 -0.14135698498E+04  0.14135698498E+04  0.50400001928E-02 0. -1.
    10030    2    1    2    0    0  0.00000000000E+00  0.00000000000E+00  0.39724994536E+03  0.32243896449E+04  0.31998251613E+04 0.  0.
        5    1    3    3  502    0  0.11832727892E+04 -0.10028735905E+04 -0.19656969417E+03  0.15635062094E+04  0.46999998093E+01 0.  1.
       -5    1    3    3    0  502 -0.11832727892E+04  0.10028735905E+04  0.59381963952E+03  0.16608834355E+04  0.46999998093E+01 0. -1.
</event>
<event>
 5   0  0.3220147E-08  0.3204541E+04  0.7818609E-02  0.8187619E-01
       -1   -1    0    0    0  501  0.00000000000E+00  0.00000000000E+00  0.11795051986E+04  0.11795051986E+04  0.50400001928E-02 0. -1.
        1   -1    0    0  501    0  0.00000000000E+00  0.00000000000E+00 -0.21765661177E+04  0.21765661177E+04  0.50400001928E-02 0.  1.
    10030    2    1    2    0    0  0.00000000000E+00  0.00000000000E+00 -0.99706091908E+03  0.33560713164E+04  0.32045411847E+04 0.  0.
        4    1    3    3  502    0  0.14230081546E+03 -0.11920379901E+04 -0.16098709055E+04  0.20082056761E+04  0.12699999809E+01 0.  1.
       -4    1    3    3    0  502 -0.14230081546E+03  0.11920379901E+04  0.61280998645E+03  0.13478656403E+04  0.12699999809E+01 0. -1.
</event>
<event>
 5   0  0.3220147E-08  0.3197673E+04  0.7818609E-02  0.8189432E-01
        1   -1    0    0  501    0  0.00000000000E+00  0.00000000000E+00  0.14989080722E+04  0.14989080722E+04  0.50400001928E-02 0. -1.
       -1   -1    0    0    0  501  0.00000000000E+00  0.00000000000E+00 -0.17054267577E+04  0.17054267577E+04  0.50400001928E-02 0.  1.
    10030    2    1    2    0    0  0.00000000000E+00  0.00000000000E+00 -0.20651868547E+03  0.32043348299E+04  0.31976728623E+04 0.  0.
        4    1    3    3  502    0 -0.28870088069E+03 -0.88482743763E+02 -0.16765937323E+04  0.17035684754E+04  0.12699999809E+01 0.  1.
       -4    1    3    3    0  502  0.28870088069E+03  0.88482743763E+02  0.14700750468E+04  0.15007663544E+04  0.12699999809E+01 0. -1.
</event>
<event>
 5   0  0.3220147E-08  0.3200623E+04  0.7818609E-02  0.8188653E-01
        1   -1    0    0  501    0  0.00000000000E+00  0.00000000000E+00  0.20448339014E+04  0.20448339014E+04  0.50400001928E-02 0.  1.
       -1   -1    0    0    0  501  0.00000000000E+00  0.00000000000E+00 -0.12524225701E+04  0.12524225701E+04  0.50400001928E-02 0. -1.
    10030    2    1    2    0    0  0.00000000000E+00  0.00000000000E+00  0.79241133127E+03  0.32972564715E+04  0.32006225208E+04 0.  0.
        4    1    3    3  502    0  0.31779058442E+03  0.10514169391E+04  0.15951857201E+04  0.19367724518E+04  0.12699999809E+01 0.  1.
       -4    1    3    3    0  502 -0.31779058442E+03 -0.10514169391E+04 -0.80277438887E+03  0.13604840197E+04  0.12699999809E+01 0. -1.
</event>
<event>
 5   0  0.3343140E-08  0.3198203E+04  0.7818609E-02  0.8189292E-01
       -1   -1    0    0    0  501  0.00000000000E+00  0.00000000000E+00  0.11693243876E+04  0.11693243876E+04  0.50400001928E-02 0. -1.
        1   -1    0    0  501    0  0.00000000000E+00  0.00000000000E+00 -0.21868398304E+04  0.21868398304E+04  0.50400001928E-02 0.  1.
    10030    2    1    2    0    0  0.00000000000E+00  0.00000000000E+00 -0.10175154428E+04  0.33561642180E+04  0.31982027112E+04 0.  0.
        1    1    3    3  502    0  0.24559342102E+03 -0.11849990182E+04  0.58813738689E+03  0.13455275499E+04  0.50400001928E-02 0. -1.
       -1    1    3    3    0  502 -0.24559342102E+03  0.11849990182E+04 -0.16056528297E+04  0.20106366681E+04  0.50400001928E-02 0.  1.
</event>
<event>
 5   0  0.9353994E-08  0.3200549E+04  0.7818609E-02  0.8188672E-01
       -2   -1    0    0    0  501  0.00000000000E+00  0.00000000000E+00  0.10057665461E+04  0.10057665461E+04  0.25500000920E-02 0.  1.
        2   -1    0    0  501    0  0.00000000000E+00  0.00000000000E+00 -0.25461964595E+04  0.25461964595E+04  0.25500000920E-02 0. -1.
    10030    2    1    2    0    0  0.00000000000E+00  0.00000000000E+00 -0.15404299134E+04  0.35519630056E+04  0.32005494645E+04 0.  0.
        2    1    3    3  502    0  0.66030531189E+03  0.29974353856E+03 -0.23533912942E+04  0.24625799230E+04  0.25500000920E-02 0. -1.
       -2    1    3    3    0  502 -0.66030531189E+03 -0.29974353856E+03  0.81296138081E+03  0.10893830825E+04  0.25500000920E-02 0.  1.
</event>
<event>
 5   0  0.3343140E-08  0.3200328E+04  0.7818609E-02  0.8188730E-01
        1   -1    0    0  501    0  0.00000000000E+00  0.00000000000E+00  0.20920367736E+04  0.20920367737E+04  0.50400001928E-02 0. -1.
       -1   -1    0    0    0  501  0.00000000000E+00  0.00000000000E+00 -0.12239389349E+04  0.12239389349E+04  0.50400001928E-02 0.  1.
    10030    2    1    2    0    0  0.00000000000E+00  0.00000000000E+00  0.86809783879E+03  0.33159757085E+04  0.32003282709E+04 0.  0.
        1    1    3    3  502    0  0.65377883433E+03  0.12320810663E+04  0.12466562935E+04  0.18707224359E+04  0.50400001928E-02 0. -1.
       -1    1    3    3    0  502 -0.65377883433E+03 -0.12320810663E+04 -0.37855845468E+03  0.14452532726E+04  0.50400001928E-02 0.  1.
</event>
<event>
 5   0  0.3343140E-08  0.3199404E+04  0.7818609E-02  0.8188975E-01
        1   -1    0    0  501    0  0.00000000000E+00  0.00000000000E+00  0.22423744269E+04  0.22423744269E+04  0.50400001928E-02 0. -1.
       -1   -1    0    0    0  501  0.00000000000E+00  0.00000000000E+00 -0.11412216305E+04  0.11412216305E+04  0.50400001928E-02 0.  1.
    10030    2    1    2    0    0  0.00000000000E+00  0.00000000000E+00  0.11011527964E+04  0.33835960574E+04  0.31994038192E+04 0.  0.
        1    1    3    3  502    0 -0.58800053629E+03 -0.25226346430E+03 -0.10000058768E+04  0.11871786890E+04  0.50400001928E-02 0.  1.
       -1    1    3    3    0  502  0.58800053629E+03  0.25226346430E+03  0.21011586732E+04  0.21964173684E+04  0.50400001928E-02 0. -1.
</event>
<event>
 5   0  0.9157524E-08  0.3195814E+04  0.7818609E-02  0.8189924E-01
        2   -1    0    0  501    0  0.00000000000E+00  0.00000000000E+00  0.21163052533E+04  0.21163052533E+04  0.25500000920E-02 0. -1.
       -2   -1    0    0    0  501  0.00000000000E+00  0.00000000000E+00 -0.12064926002E+04  0.12064926002E+04  0.25500000920E-02 0.  1.
    10030    2    1    2    0    0  0.00000000000E+00  0.00000000000E+00  0.90981265312E+03  0.33227978534E+04  0.31958139043E+04 0.  0.
        5    1    3    3  502    0 -0.52603239241E+03 -0.13978126605E+04  0.10455397731E+04  0.18231198037E+04  0.46999998093E+01 0. -1.
       -5    1    3    3    0  502  0.52603239241E+03  0.13978126605E+04 -0.13572711998E+03  0.14996780497E+04  0.46999998093E+01 0.  1.
</event>
<event>
 5   0  0.9157524E-08  0.3198616E+04  0.7818609E-02  0.8189183E-01
       -2   -1    0    0    0  501  0.00000000000E+00  0.00000000000E+00  0.13103594844E+04  0.13103594844E+04  0.25500000920E-02 0.  1.
        2   -1    0    0  501    0  0.00000000000E+00  0.00000000000E+00 -0.19519728737E+04  0.19519728737E+04  0.25500000920E-02 0. -1.
    10030    2    1    2    0    0  0.00000000000E+00  0.00000000000E+00 -0.64161338933E+03  0.32623323581E+04  0.31986160559E+04 0.  0.
        5    1    3    3  502    0  0.12334954542E+04 -0.41683527932E+03 -0.12680160817E+04  0.18174568933E+04  0.46999998093E+01 0. -1.
       -5    1    3    3    0  502 -0.12334954542E+04  0.41683527932E+03  0.62640269238E+03  0.14448754647E+04  0.46999998093E+01 0.  1.
</event>
<event>
 5   0  0.3270966E-08  0.3199282E+04  0.7818609E-02  0.8189007E-01
        1   -1    0    0  501    0  0.00000000000E+00  0.00000000000E+00  0.24814811187E+04  0.24814811187E+04  0.50400001928E-02 0. -1.
       -1   -1    0    0    0  501  0.00000000000E+00  0.00000000000E+00 -0.10311791855E+04  0.10311791855E+04  0.50400001928E-02 0.  1.
    10030    2    1    2    0    0  0.00000000000E+00  0.00000000000E+00  0.14503019332E+04  0.35126603042E+04  0.31992822188E+04 0.  0.
        3    1    3    3  502    0 -0.12826798511E+04  0.43348313600E+03  0.16604599637E+04  0.21424991321E+04  0.10100000352E+00 0. -1.
       -3    1    3    3    0  502  0.12826798511E+04 -0.43348313600E+03 -0.21015803055E+03  0.13701611722E+04  0.10100000352E+00 0.  1.
</event>
<event>
 5   0  0.3220147E-08  0.3199549E+04  0.7818609E-02  0.8188936E-01
        1   -1    0    0  501    0  0.00000000000E+00  0.00000000000E+00  0.12666765534E+04  0.12666765534E+04  0.50400001928E-02 0. -1.
       -1   -1    0    0    0  501  0.00000000000E+00  0.00000000000E+00 -0.20204666194E+04  0.20204666194E+04  0.50400001928E-02 0.  1.
    10030    2    1    2    0    0  0.00000000000E+00  0.00000000000E+00 -0.75379006596E+03  0.32871431728E+04  0.31995485267E+04 0.  0.
        4    1    3    3  502    0 -0.48117185879E+03  0.57867053737E+03  0.10734508863E+04  0.13109860284E+04  0.12699999809E+01 0. -1.
       -4    1    3    3    0  502  0.48117185879E+03 -0.57867053737E+03 -0.18272409523E+04  0.19761571443E+04  0.12699999809E+01 0.  1.
</event>
<event>
 5   0  0.3220147E-08  0.3198349E+04  0.7818609E-02  0.8189253E-01
        1   -1    0    0  501    0  0.00000000000E+00  0.00000000000E+00  0.22442173894E+04  0.22442173894E+04  0.50400001928E-02 0.  1.
       -1   -1    0    0    0  501  0.00000000000E+00  0.00000000000E+00 -0.11395324570E+04  0.11395324570E+04  0.50400001928E-02 0. -1.
    10030    2    1    2    0    0  0.00000000000E+00  0.00000000000E+00  0.11046849324E+04  0.33837498464E+04  0.31983486713E+04 0.  0.
        4    1    3    3  502    0  0.76224047793E+02 -0.10914748681E+04 -0.68155345514E+03  0.12890477952E+04  0.12699999809E+01 0. -1.
       -4    1    3    3    0  502 -0.76224047793E+02  0.10914748681E+04  0.17862383875E+04  0.20947020512E+04  0.12699999809E+01 0.  1.
</event>
<event>
 5   0  0.9727083E-08  0.3200717E+04  0.7818609E-02  0.8188628E-01
        2   -1    0    0  501    0  0.00000000000E+00  0.00000000000E+00  0.25137612369E+04  0.25137612370E+04  0.25500000920E-02 0. -1.
       -2   -1    0    0    0  501  0.00000000000E+00  0.00000000000E+00 -0.10188506043E+04  0.10188506043E+04  0.25500000920E-02 0.  1.
    10030    2    1    2    0    0  0.00000000000E+00  0.00000000000E+00  0.14949106326E+04  0.35326118413E+04  0.32007168918E+04 0.  0.
        4    1    3    3  502    0 -0.13449922772E+04  0.87037151201E+02  0.16998132748E+04  0.21693193572E+04  0.12699999809E+01 0. -1.
       -4    1    3    3    0  502  0.13449922772E+04 -0.87037151201E+02 -0.20490264213E+03  0.13632924841E+04  0.12699999809E+01 0.  1.
</event>
<event>
 5   0  0.3270966E-08  0.3199355E+04  0.7818609E-02  0.8188988E-01
        1   -1    0    0  501    0  0.00000000000E+00  0.00000000000E+00  0.22112635850E+04  0.22112635850E+04  0.50400001928E-02 0. -1.
       -1   -1    0    0    0  501  0.00000000000E+00  0.00000000000E+00 -0.11572424722E+04  0.11572424722E+04  0.50400001928E-02 0.  1.
    10030    2    1    2    0    0  0.00000000000E+00  0.00000000000E+00  0.10540211128E+04  0.33685060572E+04  0.31993550211E+04 0.  0.
        3    1    3    3  502    0  0.68970857049E+03 -0.65160637519E+03 -0.82897828697E+03  0.12599578528E+04  0.10100000352E+00 0.  1.
       -3    1    3    3    0  502 -0.68970857049E+03  0.65160637519E+03  0.18829993998E+04  0.21085482044E+04  0.10100000352E+00 0. -1.
</event>
<event>
 5   0  0.9353994E-08  0.3201467E+04  0.7818609E-02  0.8188430E-01
       -2   -1    0    0    0  501  0.00000000000E+00  0.00000000000E+00  0.15665613881E+04  0.15665613881E+04  0.25500000920E-02 0. -1.
        2   -1    0    0  501    0  0.00000000000E+00  0.00000000000E+00 -0.16356513261E+04  0.16356513261E+04  0.25500000920E-02 0.  1.
    10030    2    1    2    0    0  0.00000000000E+00  0.00000000000E+00 -0.69089937982E+02  0.32022127143E+04  0.32014672961E+04 0.  0.
        2    1    3    3  502    0 -0.14640642235E+04 -0.29550178351E+03 -0.61047661940E+03  0.16135324779E+04  0.25500000920E-02 0.  1.
       -2    1    3    3    0  502  0.14640642235E+04  0.29550178351E+03  0.54138668141E+03  0.15886802363E+04  0.25500000920E-02 0. -1.
</event>
<event>
 5   0  0.9157524E-08  0.3202813E+04  0.7818609E-02  0.8188075E-01
       -2   -1    0    0    0  501  0.00000000000E+00  0.00000000000E+00  0.12330903971E+04  0.12330903971E+04  0.25500000920E-02 0. -1.
        2   -1    0    0  501    0  0.00000000000E+00  0.00000000000E+00 -0.20797368231E+04  0.20797368231E+04  0.25500000920E-02 0.  1.
    10030    2    1    2    0    0  0.00000000000E+00  0.00000000000E+00 -0.84664642606E+03  0.33128272202E+04  0.32028134538E+04 0.  0.
        5    1    3    3  502    0 -0.14261736640E+04 -0.23381213848E+03 -0.11368306732E+04  0.18387619491E+04  0.46999998093E+01 0.  1.
       -5    1    3    3    0  502  0.14261736640E+04  0.23381213848E+03  0.29018424713E+03  0.14740652711E+04  0.46999998093E+01 0. -1.
</event>
<event>
 5   0  0.9707721E-08  0.3200170E+04  0.7818609E-02  0.8188772E-01
       -2   -1    0    0    0  501  0.00000000000E+00  0.00000000000E+00  0.15901499812E+04  0.15901499812E+04  0.25500000920E-02 0.  1.
        2   -1    0    0  501    0  0.00000000000E+00  0.00000000000E+00 -0.16100821279E+04  0.16100821279E+04  0.25500000920E-02 0. -1.
    10030    2    1    2    0    0  0.00000000000E+00  0.00000000000E+00 -0.19932146709E+02  0.32002321092E+04  0.32001700364E+04 0.  0.
        3    1    3    3  502    0 -0.59276667308E+03  0.57259099373E+03  0.13615703837E+04  0.15915736536E+04  0.10100000352E+00 0.  1.
       -3    1    3    3    0  502  0.59276667308E+03 -0.57259099373E+03 -0.13815025304E+04  0.16086584556E+04  0.10100000352E+00 0. -1.
</event>
<event>
 5   0  0.3427667E-08  0.3199528E+04  0.7818609E-02  0.8188942E-01
        1   -1    0    0  501    0  0.00000000000E+00  0.00000000000E+00  0.15514531244E+04  0.15514531244E+04  0.50400001928E-02 0.  1.
       -1   -1    0    0    0  501  0.00000000000E+00  0.00000000000E+00 -0.16495794550E+04  0.16495794550E+04  0.50400001928E-02 0. -1.
    10030    2    1    2    0    0  0.00000000000E+00  0.00000000000E+00 -0.98126330607E+02  0.32010325793E+04  0.31995282148E+04 0.  0.
        2    1    3    3  502    0  0.11682551238E+04  0.44285497390E+03  0.95055857814E+03  0.15698732983E+04  0.25500000920E-02 0.  1.
       -2    1    3    3    0  502 -0.11682551238E+04 -0.44285497390E+03 -0.10486849087E+04  0.16311592810E+04  0.25500000920E-02 0. -1.
</event>
<event>
 5   0  0.9707721E-08  0.3200228E+04  0.7818609E-02  0.8188757E-01
        2   -1    0    0  501    0  0.00000000000E+00  0.00000000000E+00  0.20006818238E+04  0.20006818238E+04  0.25500000920E-02 0. -1.
       -2   -1    0    0    0  501  0.00000000000E+00  0.00000000000E+00 -0.12797457566E+04  0.12797457566E+04  0.25500000920E-02 0.  1.
    10030    2    1    2    0    0  0.00000000000E+00  0.00000000000E+00  0.72093606711E+03  0.32804275804E+04  0.32002275384E+04 0.  0.
        3    1    3    3  502    0  0.33264553731E+03 -0.15632529488E+04  0.28139053509E+03  0.16228350128E+04  0.10100000352E+00 0.  1.
       -3    1    3    3    0  502 -0.33264553731E+03  0.15632529488E+04  0.43954553203E+03  0.16575925676E+04  0.10100000352E+00 0. -1.
</event>
<event>
 5   0  0.3283581E-08  0.3200788E+04  0.7818609E-02  0.8188609E-01
       -1   -1    0    0    0  501  0.00000000000E+00  0.00000000000E+00  0.10536452800E+04  0.10536452800E+04  0.50400001928E-02 0. -1.
        1   -1    0    0  501    0  0.00000000000E+00  0.00000000000E+00 -0.24308573592E+04  0.24308573593E+04  0.50400001928E-02 0.  1.
    10030    2    1    2    0    0  0.00000000000E+00  0.00000000000E+00 -0.13772120793E+04  0.34845026392E+04  0.32007882672E+04 0.  0.
        5    1    3    3  502    0  0.14302252207E+04 -0.13806051489E+03  0.78582758108E+02  0.14390282233E+04  0.46999998093E+01 0. -1.
       -5    1    3    3    0  502 -0.14302252207E+04  0.13806051489E+03 -0.14557948374E+04  0.20454744159E+04  0.46999998093E+01 0.  1.
</event>
<event>
 5   0  0.3270966E-08  0.3205192E+04  0.7818609E-02  0.8187447E-01
       -1   -1    0    0    0  501  0.00000000000E+00  0.00000000000E+00  0.15746314684E+04  0.15746314684E+04  0.50400001928E-02 0.  1.
        1   -1    0    0  501    0  0.00000000000E+00  0.00000000000E+00 -0.16310576505E+04  0.16310576505E+04  0.50400001928E-02 0. -1.
    10030    2    1    2    0    0  0.00000000000E+00  0.00000000000E+00 -0.56426182045E+02  0.32056891189E+04  0.32051924768E+04 0.  0.
        3    1    3    3  502    0 -0.49649413365E+03 -0.82640723793E+03  0.12521646910E+04  0.15803074926E+04  0.10100000352E+00 0.  1.
       -3    1    3    3    0  502  0.49649413365E+03  0.82640723793E+03 -0.13085908731E+04  0.16253816263E+04  0.10100000352E+00 0. -1.
</event>
<event>
 5   0  0.3343140E-08  0.3199909E+04  0.7818609E-02  0.8188841E-01
        1   -1    0    0  501    0  0.00000000000E+00  0.00000000000E+00  0.25989264525E+04  0.25989264525E+04  0.50400001928E-02 0.  1.
       -1   -1    0    0    0  501  0.00000000000E+00  0.00000000000E+00 -0.98496602496E+03  0.98496602497E+03  0.50400001928E-02 0. -1.
    10030    2    1    2    0    0  0.00000000000E+00  0.00000000000E+00  0.16139604275E+04  0.35838924775E+04  0.31999089094E+04 0.  0.
        1    1    3    3  502    0  0.77912502519E+02 -0.97812721878E+03 -0.60841184437E+03  0.11545424144E+04  0.50400001928E-02 0. -1.
       -1    1    3    3    0  502 -0.77912502519E+02  0.97812721878E+03  0.22223722719E+04  0.24293500631E+04  0.50400001928E-02 0.  1.
</event>
<event>
 5   0  0.9727083E-08  0.3198250E+04  0.7818609E-02  0.8189280E-01
       -2   -1    0    0    0  501  0.00000000000E+00  0.00000000000E+00  0.13298189841E+04  0.13298189841E+04  0.25500000920E-02 0. -1.
        2   -1    0    0  501    0  0.00000000000E+00  0.00000000000E+00 -0.19229688297E+04  0.19229688297E+04  0.25500000920E-02 0.  1.
    10030    2    1    2    0    0  0.00000000000E+00  0.00000000000E+00 -0.59314984565E+03  0.32527878138E+04  0.31982498061E+04 0.  0.
        4    1    3    3  502    0 -0.70929708218E+03  0.24529570192E+03 -0.17327187168E+04  0.18882764884E+04  0.12699999809E+01 0.  1.
       -4    1    3    3    0  502  0.70929708218E+03 -0.24529570192E+03  0.11395688711E+04  0.13645113254E+04  0.12699999809E+01 0. -1.
</event>
<event>
 5   0  0.3220147E-08  0.3198947E+04  0.7818609E-02  0.8189095E-01
        1   -1    0    0  501    0  0.00000000000E+00  0.00000000000E+00  0.25882293811E+04  0.25882293811E+04  0.50400001928E-02 0. -1.
       -1   -1    0    0    0  501  0.00000000000E+00  0.00000000000E+00 -0.98844231984E+03  0.98844231985E+03  0.50400001928E-02 0.  1.
    10030    2    1    2    0    0  0.00000000000E+00  0.00000000000E+00  0.15997870613E+04  0.35766717010E+04  0.31989469854E+04 0.  0.
        4    1    3    3  502    0 -0.14146276566E+04  0.44506788685E+03  0.14698610387E+04  0.20880014168E+04  0.12699999809E+01 0. -1.
       -4    1    3    3    0  502  0.14146276566E+04 -0.44506788685E+03  0.12992602256E+03  0.14886702841E+04  0.12699999809E+01 0.  1.
</event>
<event>
 5   0  0.9157524E-08  0.3199060E+04  0.7818609E-02  0.8189066E-01
        2   -1    0    0  501    0  0.00000000000E+00  0.00000000000E+00  0.16165150255E+04  0.16165150255E+04  0.25500000920E-02 0.  1.
       -2   -1    0    0    0  501  0.00000000000E+00  0.00000000000E+00 -0.15827230238E+04  0.15827230238E+04  0.25500000920E-02 0. -1.
    10030    2    1    2    0    0  0.00000000000E+00  0.00000000000E+00  0.33792001700E+02  0.31992380493E+04  0.31990595800E+04 0.  0.
        5    1    3    3  502    0  0.29340944148E+03 -0.58993799518E+03  0.14744949013E+04  0.16150149357E+04  0.46999998093E+01 0.  1.
       -5    1    3    3    0  502 -0.29340944148E+03  0.58993799518E+03 -0.14407028996E+04  0.15842231136E+04  0.46999998093E+01 0. -1.
</event>
<event>
 5   0  0.3270966E-08  0.3202112E+04  0.7818609E-02  0.8188260E-01
        1   -1    0    0  501    0  0.00000000000E+00  0.00000000000E+00  0.18862978450E+04  0.18862978450E+04  0.50400001928E-02 0. -1.
       -1   -1    0    0    0  501  0.00000000000E+00  0.00000000000E+00 -0.13589475137E+04  0.13589475137E+04  0.50400001928E-02 0.  1.
    10030    2    1    2    0    0  0.00000000000E+00  0.00000000000E+00  0.52735033130E+03  0.32452453586E+04  0.32021116573E+04 0.  0.
        3    1    3    3  502    0  0.16989376542E+03 -0.33369960667E+03 -0.13139439165E+04  0.13662605699E+04  0.10100000352E+00 0.  1.
       -3    1    3    3    0  502 -0.16989376542E+03  0.33369960667E+03  0.18412942478E+04  0.18789847887E+04  0.10100000352E+00 0. -1.
</event>
<event>
 5   0  0.9353994E-08  0.3200599E+04  0.7818609E-02  0.8188659E-01
        2   -1    0    0  501    0  0.00000000000E+00  0.00000000000E+00  0.17772143575E+04  0.17772143575E+04  0.25500000920E-02 0.  1.
       -2   -1    0    0    0  501  0.00000000000E+00  0.00000000000E+00 -0.14409957845E+04  0.14409957845E+04  0.25500000920E-02 0. -1.
    10030    2    1    2    0    0  0.00000000000E+00  0.00000000000E+00  0.33621857304E+03  0.32182101420E+04  0.32005989423E+04 0.  0.
        2    1    3    3  502    0  0.23172721366E+03 -0.94642979751E+03 -0.11083370048E+04  0.14757499041E+04  0.25500000920E-02 0. -1.
       -2    1    3    3    0  502 -0.23172721366E+03  0.94642979751E+03  0.14445555779E+04  0.17424602379E+04  0.25500000920E-02 0.  1.
</event>
<event>
 5   0  0.9727083E-08  0.3200167E+04  0.7818609E-02  0.8188773E-01
       -2   -1    0    0    0  501  0.00000000000E+00  0.00000000000E+00  0.17560713301E+04  0.17560713301E+04  0.25500000920E-02 0. -1.
        2   -1    0    0  501    0  0.00000000000E+00  0.00000000000E+00 -0.14579520908E+04  0.14579520908E+04  0.25500000920E-02 0.  1.
    10030    2    1    2    0    0  0.00000000000E+00  0.00000000000E+00  0.29811923932E+03  0.32140234210E+04  0.32001674128E+04 0.  0.
        4    1    3    3  502    0 -0.15796707940E+04 -0.23860241308E+02 -0.10568625928E+03  0.15833825586E+04  0.12699999809E+01 0.  1.
       -4    1    3    3    0  502  0.15796707940E+04  0.23860241308E+02  0.40380549859E+03  0.16306408624E+04  0.12699999809E+01 0. -1.
</event>
<event>
 5   0  0.9353994E-08  0.3200318E+04  0.7818609E-02  0.8188733E-01
        2   -1    0    0  501    0  0.00000000000E+00  0.00000000000E+00  0.15945354050E+04  0.15945354050E+04  0.25500000920E-02 0.  1.
       -2   -1    0    0    0  501  0.00000000000E+00  0.00000000000E+00 -0.16058026190E+04  0.16058026190E+04  0.25500000920E-02 0. -1.
    10030    2    1    2    0    0  0.00000000000E+00  0.00000000000E+00 -0.11267214023E+02  0.32003380239E+04  0.32003181900E+04 0.  0.
        2    1    3    3  502    0  0.11205269349E+04  0.34909647914E+03  0.10820588264E+04  0.15963396466E+04  0.25500000920E-02 0.  1.
       -2    1    3    3    0  502 -0.11205269349E+04 -0.34909647914E+03 -0.10933260405E+04  0.16039983773E+04  0.25500000920E-02 0. -1.
</event>
<event>
 5   0  0.3220147E-08  0.3201694E+04  0.7818609E-02  0.8188370E-01
       -1   -1    0    0    0  501  0.00000000000E+00  0.00000000000E+00  0.17965176834E+04  0.17965176834E+04  0.50400001928E-02 0.  1.
        1   -1    0    0  501    0  0.00000000000E+00  0.00000000000E+00 -0.14264877229E+04  0.14264877229E+04  0.50400001928E-02 0. -1.
    10030    2    1    2    0    0  0.00000000000E+00  0.00000000000E+00  0.37002996050E+03  0.32230054063E+04  0.32016935640E+04 0.  0.
        4    1    3    3  502    0 -0.41594500602E+02 -0.38758486373E+02 -0.14254706082E+04  0.14266044968E+04  0.12699999809E+01 0. -1.
       -4    1    3    3    0  502  0.41594500602E+02  0.38758486373E+02  0.17955005687E+04  0.17964009095E+04  0.12699999809E+01 0.  1.
</event>
<event>
 5   0  0.9157524E-08  0.3197795E+04  0.7818609E-02  0.8189400E-01
       -2   -1    0    0    0  501  0.00000000000E+00  0.00000000000E+00  0.13613664747E+04  0.13613664747E+04  0.25500000920E-02 0. -1.
        2   -1    0    0  501    0  0.00000000000E+00  0.00000000000E+00 -0.18778730158E+04  0.18778730158E+04  0.25500000920E-02 0.  1.
    10030    2    1    2    0    0  0.00000000000E+00  0.00000000000E+00 -0.51650654111E+03  0.32392394906E+04  0.31977950951E+04 0.  0.
        5    1    3    3  502    0 -0.10346061155E+04  0.49881907032E+03  0.86846689590E+03  0.14399608045E+04  0.46999998093E+01 0. -1.
       -5    1    3    3    0  502  0.10346061155E+04 -0.49881907032E+03 -0.13849734370E+04  0.17992786861E+04  0.46999998093E+01 0.  1.
</event>
<event>
 5   0  0.3427667E-08  0.3199044E+04  0.7818609E-02  0.8189070E-01
        1   -1    0    0  501    0  0.00000000000E+00  0.00000000000E+00  0.31413582733E+04  0.31413582733E+04  0.50400001928E-02 0. -1.
       -1   -1    0    0    0  501  0.00000000000E+00  0.00000000000E+00 -0.81444720409E+03  0.81444720411E+03  0.50400001928E-02 0.  1.
    10030    2    1    2    0    0  0.00000000000E+00  0.00000000000E+00  0.23269110692E+04  0.39558054774E+04  0.31990438964E+04 0.  0.
        2    1    3    3  502    0 -0.54102463203E+03 -0.89971410977E+03  0.26556889905E+04  0.28556745519E+04  0.25500000920E-02 0. -1.
       -2    1    3    3    0  502  0.54102463203E+03  0.89971410977E+03 -0.32877792132E+03  0.11001309255E+04  0.25500000920E-02 0.  1.
</event>
<event>
 5   0  0.3343140E-08  0.3200241E+04  0.7818609E-02  0.8188754E-01
        1   -1    0    0  501    0  0.00000000000E+00  0.00000000000E+00  0.28810598773E+04  0.28810598773E+04  0.50400001928E-02 0.  1.
       -1   -1    0    0    0  501  0.00000000000E+00  0.00000000000E+00 -0.88869545710E+03  0.88869545712E+03  0.50400001928E-02 0. -1.
    10030    2    1    2    0    0  0.00000000000E+00  0.00000000000E+00  0.19923644202E+04  0.37697553345E+04  0.32002405064E+04 0.  0.
        1    1    3    3  502    0  0.28224772709E+03  0.63222980757E+03  0.26954712900E+04  0.27829739101E+04  0.50400001928E-02 0.  1.
       -1    1    3    3    0  502 -0.28224772709E+03 -0.63222980757E+03 -0.70310686980E+03  0.98678142434E+03  0.50400001928E-02 0. -1.
</event>
<event>
 5   0  0.3283581E-08  0.3201321E+04  0.7818609E-02  0.8188468E-01
       -1   -1    0    0    0  501  0.00000000000E+00  0.00000000000E+00  0.16802567313E+04  0.16802567313E+04  0.50400001928E-02 0.  1.
        1   -1    0    0  501    0  0.00000000000E+00  0.00000000000E+00 -0.15248346431E+04  0.15248346431E+04  0.50400001928E-02 0. -1.
    10030    2    1    2    0    0  0.00000000000E+00  0.00000000000E+00  0.15542208825E+03  0.32050913744E+04  0.32013207732E+04 0.  0.
        5    1    3    3  502    0 -0.31364072535E+03 -0.15633460331E+04 -0.62704849140E+02  0.15957366048E+04  0.46999998093E+01 0. -1.
       -5    1    3    3    0  502  0.31364072535E+03  0.15633460331E+04  0.21812693739E+03  0.16093547696E+04  0.46999998093E+01 0.  1.
</event>
<event>
 5   0  0.3220147E-08  0.3200799E+04  0.7818609E-02  0.8188606E-01
        1   -1    0    0  501    0  0.00000000000E+00  0.00000000000E+00  0.26114076857E+04  0.26114076858E+04  0.50400001928E-02 0. -1.
       -1   -1    0    0    0  501  0.00000000000E+00  0.00000000000E+00 -0.98080358320E+03  0.98080358321E+03  0.50400001928E-02 0.  1.
    10030    2    1    2    0    0  0.00000000000E+00  0.00000000000E+00  0.16306041025E+04  0.35922112690E+04  0.32007986600E+04 0.  0.
        4    1    3    3  502    0  0.11410540856E+04 -0.38941372951E+02 -0.44333825355E+03  0.12247739697E+04  0.12699999809E+01 0.  1.
       -4    1    3    3    0  502 -0.11410540856E+04  0.38941372951E+02  0.20739423561E+04  0.23674372993E+04  0.12699999809E+01 0. -1.
</event>
<event>
 5   0  0.9329929E-08  0.3200541E+04  0.7818609E-02  0.8188674E-01
       -2   -1    0    0    0  501  0.00000000000E+00  0.00000000000E+00  0.13266667055E+04  0.13266667055E+04  0.25500000920E-02 0. -1.
        2   -1    0    0  501    0  0.00000000000E+00  0.00000000000E+00 -0.19303008351E+04  0.19303008351E+04  0.25500000920E-02 0.  1.
    10030    2    1    2    0    0  0.00000000000E+00  0.00000000000E+00 -0.60363412962E+03  0.32569675405E+04  0.32005411101E+04 0.  0.
        1    1    3    3  502    0 -0.12969114496E+04  0.81356616208E+03 -0.77585874222E+03  0.17163408741E+04  0.50400001928E-02 0.  1.
       -1    1    3    3    0  502  0.12969114496E+04 -0.81356616208E+03  0.17222461261E+03  0.15406266664E+04  0.50400001928E-02 0. -1.
</event>
<event>
 5   0  0.3343140E-08  0.3200459E+04  0.7818609E-02  0.8188696E-01
       -1   -1    0    0    0  501  0.00000000000E+00  0.00000000000E+00  0.13881654911E+04  0.13881654911E+04  0.50400001928E-02 0.  1.
        1   -1    0    0  501    0  0.00000000000E+00  0.00000000000E+00 -0.18446900543E+04  0.18446900543E+04  0.50400001928E-02 0. -1.
    10030    2    1    2    0    0  0.00000000000E+00  0.00000000000E+00 -0.45652456315E+03  0.32328555454E+04  0.32004593890E+04 0.  0.
        1    1    3    3  502    0 -0.14103272798E+04 -0.36905460651E+03  0.43835015474E+03  0.15222927435E+04  0.50400001928E-02 0.  1.
       -1    1    3    3    0  502  0.14103272798E+04  0.36905460651E+03 -0.89487471789E+03  0.17105628019E+04  0.50400001928E-02 0. -1.
</event>
<event>
 5   0  0.9707721E-08  0.3200263E+04  0.7818609E-02  0.8188748E-01
       -2   -1    0    0    0  501  0.00000000000E+00  0.00000000000E+00  0.82707930881E+03  0.82707930881E+03  0.25500000920E-02 0. -1.
        2   -1    0    0  501    0  0.00000000000E+00  0.00000000000E+00 -0.30957379195E+04  0.30957379195E+04  0.25500000920E-02 0.  1.
    10030    2    1    2    0    0  0.00000000000E+00  0.00000000000E+00 -0.22686586107E+04  0.39228172283E+04  0.32002629759E+04 0.  0.
        3    1    3    3  502    0  0.61138429853E+03  0.12898787958E+04 -0.24799424011E+03  0.14488199411E+04  0.10100000352E+00 0. -1.
       -3    1    3    3    0  502 -0.61138429853E+03 -0.12898787958E+04 -0.20206643706E+04  0.24739972872E+04  0.10100000352E+00 0.  1.
</event>
<event>
 5   0  0.9329929E-08  0.3197585E+04  0.7818609E-02  0.8189455E-01
       -2   -1    0    0    0  501  0.00000000000E+00  0.00000000000E+00  0.26517998756E+04  0.26517998756E+04  0.25500000920E-02 0. -1.
        2   -1    0    0  501    0  0.00000000000E+00  0.00000000000E+00 -0.96392563424E+03  0.96392563424E+03  0.25500000920E-02 0.  1.
    10030    2    1    2    0    0  0.00000000000E+00  0.00000000000E+00  0.16878742413E+04  0.36157255098E+04  0.31975852620E+04 0.  0.
        1    1    3    3  502    0 -0.15013081583E+04 -0.30882117211E+03  0.32966637855E+03  0.15677935527E+04  0.50400001928E-02 0.  1.
       -1    1    3    3    0  502  0.15013081583E+04  0.30882117211E+03  0.13582078628E+04  0.20479319571E+04  0.50400001928E-02 0. -1.
</event>
<event>
 5   0  0.9329929E-08  0.3197578E+04  0.7818609E-02  0.8189457E-01
       -2   -1    0    0    0  501  0.00000000000E+00  0.00000000000E+00  0.12016733455E+04  0.12016733455E+04  0.25500000920E-02 0. -1.
        2   -1    0    0  501    0  0.00000000000E+00  0.00000000000E+00 -0.21271392272E+04  0.21271392272E+04  0.25500000920E-02 0.  1.
    10030    2    1    2    0    0  0.00000000000E+00  0.00000000000E+00 -0.92546588162E+03  0.33288125727E+04  0.31975781532E+04 0.  0.
        1    1    3    3  502    0 -0.51846501761E+03  0.11391699162E+04  0.57288781955E+03  0.13764862971E+04  0.50400001928E-02 0. -1.
       -1    1    3    3    0  502  0.51846501761E+03 -0.11391699162E+04 -0.14983537012E+04  0.19523262756E+04  0.50400001928E-02 0.  1.
</event>
<event>
 5   0  0.9157524E-08  0.3211814E+04  0.7818609E-02  0.8185704E-01
        2   -1    0    0  501    0  0.00000000000E+00  0.00000000000E+00  0.10711864843E+04  0.10711864843E+04  0.25500000920E-02 0. -1.
       -2   -1    0    0    0  501  0.00000000000E+00  0.00000000000E+00 -0.24075528319E+04  0.24075528319E+04  0.25500000920E-02 0.  1.
    10030    2    1    2    0    0  0.00000000000E+00  0.00000000000E+00 -0.13363663476E+04  0.34787393162E+04  0.32118144739E+04 0.  0.
        5    1    3    3  502    0 -0.14379782115E+04 -0.80941621805E+02 -0.14375576539E+04  0.20349267753E+04  0.46999998093E+01 0.  1.
       -5    1    3    3    0  502  0.14379782115E+04  0.80941621805E+02  0.10119130621E+03  0.14438125409E+04  0.46999998093E+01 0. -1.
</event>
<event>
 5   0  0.3283581E-08  0.3199973E+04  0.7818609E-02  0.8188824E-01
        1   -1    0    0  501    0  0.00000000000E+00  0.00000000000E+00  0.14633532220E+04  0.14633532220E+04  0.50400001928E-02 0. -1.
       -1   -1    0    0    0  501  0.00000000000E+00  0.00000000000E+00 -0.17493770793E+04  0.17493770793E+04  0.50400001928E-02 0.  1.
    10030    2    1    2    0    0  0.00000000000E+00  0.00000000000E+00 -0.28602385732E+03  0.32127303012E+04  0.31999728658E+04 0.  0.
        5    1    3    3  502    0 -0.71260620202E+02  0.20589036718E+03  0.14483832344E+04  0.14646859742E+04  0.46999998093E+01 0. -1.
       -5    1    3    3    0  502  0.71260620202E+02 -0.20589036718E+03 -0.17344070918E+04  0.17480443270E+04  0.46999998093E+01 0.  1.
</event>
<event>
 5   0  0.9707721E-08  0.3197653E+04  0.7818609E-02  0.8189437E-01
        2   -1    0    0  501    0  0.00000000000E+00  0.00000000000E+00  0.18705333660E+04  0.18705333660E+04  0.25500000920E-02 0. -1.
       -2   -1    0    0    0  501  0.00000000000E+00  0.00000000000E+00 -0.13665865049E+04  0.13665865050E+04  0.25500000920E-02 0.  1.
    10030    2    1    2    0    0  0.00000000000E+00  0.00000000000E+00  0.50394686105E+03  0.32371198710E+04  0.31976526735E+04 0.  0.
        3    1    3    3  502    0 -0.91487897453E+03  0.12541953784E+04 -0.13515470037E+03  0.15582927801E+04  0.10100000352E+00 0. -1.
       -3    1    3    3    0  502  0.91487897453E+03 -0.12541953784E+04  0.63910156142E+03  0.16788270909E+04  0.10100000352E+00 0.  1.
</event>
<event>
 5   0  0.3427667E-08  0.3199834E+04  0.7818609E-02  0.8188861E-01
        1   -1    0    0  501    0  0.00000000000E+00  0.00000000000E+00  0.23813260322E+04  0.23813260322E+04  0.50400001928E-02 0. -1.
       -1   -1    0    0    0  501  0.00000000000E+00  0.00000000000E+00 -0.10749194498E+04  0.10749194498E+04  0.50400001928E-02 0.  1.
    10030    2    1    2    0    0  0.00000000000E+00  0.00000000000E+00  0.13064065824E+04  0.34562454820E+04  0.31998335383E+04 0.  0.
        2    1    3    3  502    0 -0.14523478335E+04 -0.60247134205E+03  0.33379113402E+03  0.16073899554E+04  0.25500000920E-02 0.  1.
       -2    1    3    3    0  502  0.14523478335E+04  0.60247134205E+03  0.97261544838E+03  0.18488555265E+04  0.25500000920E-02 0. -1.
</event>
<event>
 5   0  0.3343140E-08  0.3200908E+04  0.7818609E-02  0.8188577E-01
       -1   -1    0    0    0  501  0.00000000000E+00  0.00000000000E+00  0.21535951636E+04  0.21535951636E+04  0.50400001928E-02 0.  1.
        1   -1    0    0  501    0  0.00000000000E+00  0.00000000000E+00 -0.11893848827E+04  0.11893848827E+04  0.50400001928E-02 0. -1.
    10030    2    1    2    0    0  0.00000000000E+00  0.00000000000E+00  0.96421028089E+03  0.33429800463E+04  0.32009083280E+04 0.  0.
        1    1    3    3  502    0 -0.28131072177E+03 -0.87213006116E+03 -0.88827219160E+03  0.12762343249E+04  0.50400001928E-02 0. -1.
       -1    1    3    3    0  502  0.28131072177E+03  0.87213006116E+03  0.18524824725E+04  0.20667457213E+04  0.50400001928E-02 0.  1.
</event>
<event>
 5   0  0.3270966E-08  0.3198673E+04  0.7818609E-02  0.8189168E-01
        1   -1    0    0  501    0  0.00000000000E+00  0.00000000000E+00  0.18709600308E+04  0.18709600309E+04  0.50400001928E-02 0.  1.
       -1   -1    0    0    0  501  0.00000000000E+00  0.00000000000E+00 -0.13671465573E+04  0.13671465573E+04  0.50400001928E-02 0. -1.
    10030    2    1    2    0    0  0.00000000000E+00  0.00000000000E+00  0.50381347352E+03  0.32381065882E+04  0.31986725779E+04 0.  0.
        3    1    3    3  502    0 -0.98697350854E+03  0.90038233020E+03 -0.63817765761E+03  0.14805660336E+04  0.10100000352E+00 0. -1.
       -3    1    3    3    0  502  0.98697350854E+03 -0.90038233020E+03  0.11419911311E+04  0.17575405545E+04  0.10100000352E+00 0.  1.
</event>
<event>
 5   0  0.3270966E-08  0.3207446E+04  0.7818609E-02  0.8186853E-01
       -1   -1    0    0    0  501  0.00000000000E+00  0.00000000000E+00  0.12398119533E+04  0.12398119533E+04  0.50400001928E-02 0. -1.
        1   -1    0    0  501    0  0.00000000000E+00  0.00000000000E+00 -0.20744502078E+04  0.20744502078E+04  0.50400001928E-02 0.  1.
    10030    2    1    2    0    0  0.00000000000E+00  0.00000000000E+00 -0.83463825451E+03  0.33142621611E+04  0.32074464386E+04 0.  0.
        3    1    3    3  502    0 -0.41512873948E+02  0.70762140685E+03  0.10691562669E+04  0.12827885669E+04  0.10100000352E+00 0. -1.
       -3    1    3    3    0  502  0.41512873948E+02 -0.70762140685E+03 -0.19037945214E+04  0.20314735942E+04  0.10100000352E+00 0.  1.
</event>
<event>
 5   0  0.9353994E-08  0.3201004E+04  0.7818609E-02  0.8188552E-01
       -2   -1    0    0    0  501  0.00000000000E+00  0.00000000000E+00  0.11171231546E+04  0.11171231546E+04  0.25500000920E-02 0.  1.
        2   -1    0    0  501    0  0.00000000000E+00  0.00000000000E+00 -0.22930391805E+04  0.22930391805E+04  0.25500000920E-02 0. -1.
    10030    2    1    2    0    0  0.00000000000E+00  0.00000000000E+00 -0.11759160259E+04  0.34101623350E+04  0.32010043192E+04 0.  0.
        2    1    3    3  502    0  0.15428036123E+04  0.32109341116E+03 -0.28992279402E+03  0.16023105790E+04  0.25500000920E-02 0. -1.
       -2    1    3    3    0  502 -0.15428036123E+04 -0.32109341116E+03 -0.88599323189E+03  0.18078517561E+04  0.25500000920E-02 0.  1.
</event>
<event>
 5   0  0.3283581E-08  0.3199979E+04  0.7818609E-02  0.8188823E-01
        1   -1    0    0  501    0  0.00000000000E+00  0.00000000000E+00  0.15604795494E+04  0.15604795494E+04  0.50400001928E-02 0. -1.
       -1   -1    0    0    0  501  0.00000000000E+00  0.00000000000E+00 -0.16404997252E+04  0.16404997252E+04  0.50400001928E-02 0.  1.
    10030    2    1    2    0    0  0.00000000000E+00  0.00000000000E+00 -0.80020175811E+02  0.32009792746E+04  0.31999789200E+04 0.  0.
        5    1    3    3  502    0  0.69800028328E+02 -0.10791073102E+03  0.15553011285E+04  0.15606090030E+04  0.46999998093E+01 0. -1.
       -5    1    3    3    0  502 -0.69800028328E+02  0.10791073102E+03 -0.16353213043E+04  0.16403702717E+04  0.46999998093E+01 0.  1.
</event>
<event>
 5   0  0.9157524E-08  0.3200921E+04  0.7818609E-02  0.8188574E-01
        2   -1    0    0  501    0  0.00000000000E+00  0.00000000000E+00  0.32199414398E+04  0.32199414398E+04  0.25500000920E-02 0.  1.
       -2   -1    0    0    0  501  0.00000000000E+00  0.00000000000E+00 -0.79550333288E+03  0.79550333288E+03  0.25500000920E-02 0. -1.
    10030    2    1    2    0    0  0.00000000000E+00  0.00000000000E+00  0.24244381070E+04  0.40154447727E+04  0.32009212093E+04 0.  0.
        5    1    3    3  502    0 -0.29134508078E+02  0.15805821727E+04  0.15254920662E+04  0.21968698091E+04  0.46999998093E+01 0.  1.
       -5    1    3    3    0  502  0.29134508078E+02 -0.15805821727E+04  0.89894604072E+03  0.18185749636E+04  0.46999998093E+01 0. -1.
</event>
<event>
 5   0  0.3427667E-08  0.3199363E+04  0.7818609E-02  0.8188985E-01
        1   -1    0    0  501    0  0.00000000000E+00  0.00000000000E+00  0.19061335095E+04  0.19061335095E+04  0.50400001928E-02 0. -1.
       -1   -1    0    0    0  501  0.00000000000E+00  0.00000000000E+00 -0.13424982950E+04  0.13424982951E+04  0.50400001928E-02 0.  1.
    10030    2    1    2    0    0  0.00000000000E+00  0.00000000000E+00  0.56363521443E+03  0.32486318045E+04  0.31993630532E+04 0.  0.
        2    1    3    3  502    0 -0.52896004671E+03 -0.14901349489E+04  0.35847488187E+02  0.15816402686E+04  0.25500000920E-02 0.  1.
       -2    1    3    3    0  502  0.52896004671E+03  0.14901349489E+04  0.52778772625E+03  0.16669915359E+04  0.25500000920E-02 0. -1.
</event>
<event>
 5   0  0.3080500E-08  0.3198074E+04  0.7818609E-02  0.8189326E-01
        4   -1    0    0  501    0  0.00000000000E+00  0.00000000000E+00  0.12580321799E+04  0.12580328209E+04  0.12699999809E+01 0. -1.
       -4   -1    0    0    0  501  0.00000000000E+00  0.00000000000E+00 -0.20324742290E+04  0.20324746258E+04  0.12699999809E+01 0.  1.
    10030    2    1    2    0    0  0.00000000000E+00  0.00000000000E+00 -0.77444204915E+03  0.32905074467E+04  0.31980742282E+04 0.  0.
        5    1    3    3  502    0 -0.77917846336E+03  0.88184957795E+03  0.72671525367E+03  0.13830816700E+04  0.46999998093E+01 0. -1.
       -5    1    3    3    0  502  0.77917846336E+03 -0.88184957795E+03 -0.15011573028E+04  0.19074257767E+04  0.46999998093E+01 0.  1.
</event>
<event>
 5   0  0.3343140E-08  0.3200052E+04  0.7818609E-02  0.8188803E-01
       -1   -1    0    0    0  501  0.00000000000E+00  0.00000000000E+00  0.13326259131E+04  0.13326259131E+04  0.50400001928E-02 0.  1.
        1   -1    0    0  501    0  0.00000000000E+00  0.00000000000E+00 -0.19210814035E+04  0.19210814035E+04  0.50400001928E-02 0. -1.
    10030    2    1    2    0    0  0.00000000000E+00  0.00000000000E+00 -0.58845549041E+03  0.32537073166E+04  0.32000517868E+04 0.  0.
        1    1    3    3  502    0  0.13126797474E+03  0.42900863952E+03  0.12673633660E+04  0.13444290965E+04  0.50400001928E-02 0.  1.
       -1    1    3    3    0  502 -0.13126797474E+03 -0.42900863952E+03 -0.18558188564E+04  0.19092782201E+04  0.50400001928E-02 0. -1.
</event>
<event>
 5   0  0.3427667E-08  0.3200254E+04  0.7818609E-02  0.8188750E-01
       -1   -1    0    0    0  501  0.00000000000E+00  0.00000000000E+00  0.22732817729E+04  0.22732817729E+04  0.50400001928E-02 0.  1.
        1   -1    0    0  501    0  0.00000000000E+00  0.00000000000E+00 -0.11263039915E+04  0.11263039915E+04  0.50400001928E-02 0. -1.
    10030    2    1    2    0    0  0.00000000000E+00  0.00000000000E+00  0.11469777814E+04  0.33995857644E+04  0.32002539490E+04 0.  0.
        2    1    3    3  502    0 -0.11151779570E+04 -0.30782363471E+03 -0.60081994379E+03  0.13035957467E+04  0.25500000920E-02 0. -1.
       -2    1    3    3    0  502  0.11151779570E+04  0.30782363471E+03  0.17477977252E+04  0.20959900177E+04  0.25500000920E-02 0.  1.
</event>
<event>
 5   0  0.9329929E-08  0.3199695E+04  0.7818609E-02  0.8188898E-01
       -2   -1    0    0    0  501  0.00000000000E+00  0.00000000000E+00  0.14378198629E+04  0.14378198630E+04  0.25500000920E-02 0.  1.
        2   -1    0    0  501    0  0.00000000000E+00  0.00000000000E+00 -0.17801336747E+04  0.17801336747E+04  0.25500000920E-02 0. -1.
    10030    2    1    2    0    0  0.00000000000E+00  0.00000000000E+00 -0.34231381178E+03  0.32179535377E+04  0.31996947081E+04 0.  0.
        1    1    3    3  502    0 -0.24165611784E+03  0.26391044022E+03 -0.17393706343E+04  0.17757974556E+04  0.50400001928E-02 0. -1.
       -1    1    3    3    0  502  0.24165611784E+03 -0.26391044022E+03  0.13970568225E+04  0.14421560821E+04  0.50400001928E-02 0.  1.
</event>
<event>
 5   0  0.9329929E-08  0.3200119E+04  0.7818609E-02  0.8188786E-01
       -2   -1    0    0    0  501  0.00000000000E+00  0.00000000000E+00  0.15060441644E+04  0.15060441644E+04  0.25500000920E-02 0. -1.
        2   -1    0    0  501    0  0.00000000000E+00  0.00000000000E+00 -0.16999442672E+04  0.16999442672E+04  0.25500000920E-02 0.  1.
    10030    2    1    2    0    0  0.00000000000E+00  0.00000000000E+00 -0.19390010280E+03  0.32059884317E+04  0.32001194625E+04 0.  0.
        1    1    3    3  502    0  0.48102899220E+03 -0.11416483987E+04  0.91754781523E+03  0.15416367765E+04  0.50400001928E-02 0. -1.
       -1    1    3    3    0  502 -0.48102899220E+03  0.11416483987E+04 -0.11114479180E+04  0.16643516552E+04  0.50400001928E-02 0.  1.
</event>
<event>
 5   0  0.3220147E-08  0.3200150E+04  0.7818609E-02  0.8188778E-01
       -1   -1    0    0    0  501  0.00000000000E+00  0.00000000000E+00  0.17456955514E+04  0.17456955514E+04  0.50400001928E-02 0.  1.
        1   -1    0    0  501    0  0.00000000000E+00  0.00000000000E+00 -0.14666017917E+04  0.14666017917E+04  0.50400001928E-02 0. -1.
    10030    2    1    2    0    0  0.00000000000E+00  0.00000000000E+00  0.27909375974E+03  0.32122973431E+04  0.32001501361E+04 0.  0.
        4    1    3    3  502    0 -0.62546302036E+03  0.31106023676E+03  0.15845513778E+04  0.17316948757E+04  0.12699999809E+01 0.  1.
       -4    1    3    3    0  502  0.62546302036E+03 -0.31106023676E+03 -0.13054576181E+04  0.14806024673E+04  0.12699999809E+01 0. -1.
</event>
<event>
 5   0  0.9157524E-08  0.3200073E+04  0.7818609E-02  0.8188798E-01
       -2   -1    0    0    0  501  0.00000000000E+00  0.00000000000E+00  0.20155765446E+04  0.20155765446E+04  0.25500000920E-02 0. -1.
        2   -1    0    0  501    0  0.00000000000E+00  0.00000000000E+00 -0.12701661126E+04  0.12701661126E+04  0.25500000920E-02 0.  1.
    10030    2    1    2    0    0  0.00000000000E+00  0.00000000000E+00  0.74541043197E+03  0.32857426572E+04  0.32000731393E+04 0.  0.
        5    1    3    3  502    0  0.98118728285E+02  0.35325689609E+03  0.19718586903E+04  0.20056586210E+04  0.46999998093E+01 0. -1.
       -5    1    3    3    0  502 -0.98118728285E+02 -0.35325689609E+03 -0.12264482583E+04  0.12800840362E+04  0.46999998093E+01 0.  1.
</event>
<event>
 5   0  0.3283581E-08  0.3198732E+04  0.7818609E-02  0.8189152E-01
       -1   -1    0    0    0  501  0.00000000000E+00  0.00000000000E+00  0.14141042979E+04  0.14141042979E+04  0.50400001928E-02 0. -1.
        1   -1    0    0  501    0  0.00000000000E+00  0.00000000000E+00 -0.18088993857E+04  0.18088993857E+04  0.50400001928E-02 0.  1.
    10030    2    1    2    0    0  0.00000000000E+00  0.00000000000E+00 -0.39479508789E+03  0.32230036836E+04  0.31987324963E+04 0.  0.
        5    1    3    3  502    0  0.10301589381E+04 -0.98159063898E+03 -0.93314546485E+03  0.17016257429E+04  0.46999998093E+01 0.  1.
       -5    1    3    3    0  502 -0.10301589381E+04  0.98159063898E+03  0.53835037696E+03  0.15213779407E+04  0.46999998093E+01 0. -1.
</event>
<event>
 5   0  0.3427667E-08  0.3199595E+04  0.7818609E-02  0.8188924E-01
        1   -1    0    0  501    0  0.00000000000E+00  0.00000000000E+00  0.13784076811E+04  0.13784076811E+04  0.50400001928E-02 0. -1.
       -1   -1    0    0    0  501  0.00000000000E+00  0.00000000000E+00 -0.18567449644E+04  0.18567449644E+04  0.50400001928E-02 0.  1.
    10030    2    1    2    0    0  0.00000000000E+00  0.00000000000E+00 -0.47833728328E+03  0.32351526456E+04  0.31995946749E+04 0.  0.
        2    1    3    3  502    0  0.52885503519E+03  0.38811375377E+03 -0.17145043841E+04  0.18357138168E+04  0.25500000920E-02 0.  1.
       -2    1    3    3    0  502 -0.52885503519E+03 -0.38811375377E+03  0.12361671009E+04  0.13994388287E+04  0.25500000920E-02 0. -1.
</event>
<event>
 5   0  0.9157524E-08  0.3202642E+04  0.7818609E-02  0.8188120E-01
        2   -1    0    0  501    0  0.00000000000E+00  0.00000000000E+00  0.19263990749E+04  0.19263990749E+04  0.25500000920E-02 0.  1.
       -2   -1    0    0    0  501  0.00000000000E+00  0.00000000000E+00 -0.13310999026E+04  0.13310999026E+04  0.25500000920E-02 0. -1.
    10030    2    1    2    0    0  0.00000000000E+00  0.00000000000E+00  0.59529917229E+03  0.32574989775E+04  0.32026424221E+04 0.  0.
        5    1    3    3  502    0  0.91934610568E+03  0.60691859513E+03  0.14797350297E+04  0.18447724226E+04  0.46999998093E+01 0.  1.
       -5    1    3    3    0  502 -0.91934610568E+03 -0.60691859513E+03 -0.88443585740E+03  0.14127265549E+04  0.46999998093E+01 0. -1.
</event>
<event>
 5   0  0.9329929E-08  0.3200853E+04  0.7818609E-02  0.8188592E-01
        2   -1    0    0  501    0  0.00000000000E+00  0.00000000000E+00  0.12271446798E+04  0.12271446798E+04  0.25500000920E-02 0.  1.
       -2   -1    0    0    0  501  0.00000000000E+00  0.00000000000E+00 -0.20872559920E+04  0.20872559920E+04  0.25500000920E-02 0. -1.
    10030    2    1    2    0    0  0.00000000000E+00  0.00000000000E+00 -0.86011131226E+03  0.33144006718E+04  0.32008530650E+04 0.  0.
        1    1    3    3  502    0  0.30961425175E+03 -0.10452530823E+04 -0.16433513206E+04  0.19720594702E+04  0.50400001928E-02 0. -1.
       -1    1    3    3    0  502 -0.30961425175E+03  0.10452530823E+04  0.78324000830E+03  0.13423412017E+04  0.50400001928E-02 0.  1.
</event>
<event>
 5   0  0.3220147E-08  0.3200799E+04  0.7818609E-02  0.8188606E-01
        1   -1    0    0  501    0  0.00000000000E+00  0.00000000000E+00  0.20892403758E+04  0.20892403758E+04  0.50400001928E-02 0.  1.
       -1   -1    0    0    0  501  0.00000000000E+00  0.00000000000E+00 -0.12259373960E+04  0.12259373960E+04  0.50400001928E-02 0. -1.
    10030    2    1    2    0    0  0.00000000000E+00  0.00000000000E+00  0.86330297978E+03  0.33151777717E+04  0.32007985915E+04 0.  0.
        4    1    3    3  502    0  0.63038100138E+03  0.30958547931E+03  0.19211130455E+04  0.20454584626E+04  0.12699999809E+01 0.  1.
       -4    1    3    3    0  502 -0.63038100138E+03 -0.30958547931E+03 -0.10578100657E+04  0.12697193091E+04  0.12699999809E+01 0. -1.
</event>
<event>
 5   0  0.3080500E-08  0.3199835E+04  0.7818609E-02  0.8188861E-01
        3   -1    0    0  501    0  0.00000000000E+00  0.00000000000E+00  0.20250955236E+04  0.20250955261E+04  0.10100000352E+00 0.  1.
       -3   -1    0    0    0  501  0.00000000000E+00  0.00000000000E+00 -0.12640077164E+04  0.12640077204E+04  0.10100000352E+00 0. -1.
    10030    2    1    2    0    0  0.00000000000E+00  0.00000000000E+00  0.76108780723E+03  0.32891032465E+04  0.31998352326E+04 0.  0.
        2    1    3    3  502    0  0.15820878319E+04 -0.12902540492E+03  0.58634667235E+03  0.16921737154E+04  0.25500000920E-02 0. -1.
       -2    1    3    3    0  502 -0.15820878319E+04  0.12902540492E+03  0.17474113489E+03  0.15969295311E+04  0.25500000920E-02 0.  1.
</event>
<event>
 5   0  0.3270966E-08  0.3200521E+04  0.7818609E-02  0.8188680E-01
        1   -1    0    0  501    0  0.00000000000E+00  0.00000000000E+00  0.17239477084E+04  0.17239477084E+04  0.50400001928E-02 0. -1.
       -1   -1    0    0    0  501  0.00000000000E+00  0.00000000000E+00 -0.14854475767E+04  0.14854475767E+04  0.50400001928E-02 0.  1.
    10030    2    1    2    0    0  0.00000000000E+00  0.00000000000E+00  0.23850013169E+03  0.32093952852E+04  0.32005211738E+04 0.  0.
        3    1    3    3  502    0  0.57579162866E+02 -0.92124194092E+02  0.17202456148E+04  0.17236725944E+04  0.10100000352E+00 0. -1.
       -3    1    3    3    0  502 -0.57579162866E+02  0.92124194092E+02 -0.14817454831E+04  0.14857226908E+04  0.10100000352E+00 0.  1.
</event>
<event>
 5   0  0.3270966E-08  0.3199910E+04  0.7818609E-02  0.8188841E-01
        1   -1    0    0  501    0  0.00000000000E+00  0.00000000000E+00  0.18523678823E+04  0.18523678823E+04  0.50400001928E-02 0.  1.
       -1   -1    0    0    0  501  0.00000000000E+00  0.00000000000E+00 -0.13819372070E+04  0.13819372070E+04  0.50400001928E-02 0. -1.
    10030    2    1    2    0    0  0.00000000000E+00  0.00000000000E+00  0.47043067523E+03  0.32343050893E+04  0.31999100597E+04 0.  0.
        3    1    3    3  502    0 -0.67909120206E+03 -0.70351364328E+03  0.15152238899E+04  0.18033301843E+04  0.10100000352E+00 0.  1.
       -3    1    3    3    0  502  0.67909120206E+03  0.70351364328E+03 -0.10447932147E+04  0.14309749050E+04  0.10100000352E+00 0. -1.
</event>
<event>
 5   0  0.3283581E-08  0.3200570E+04  0.7818609E-02  0.8188667E-01
       -1   -1    0    0    0  501  0.00000000000E+00  0.00000000000E+00  0.21974503354E+04  0.21974503354E+04  0.50400001928E-02 0. -1.
        1   -1    0    0  501    0  0.00000000000E+00  0.00000000000E+00 -0.11654013375E+04  0.11654013375E+04  0.50400001928E-02 0.  1.
    10030    2    1    2    0    0  0.00000000000E+00  0.00000000000E+00  0.10320489979E+04  0.33628516730E+04  0.32005696743E+04 0.  0.
        5    1    3    3  502    0 -0.75210283485E+03  0.11037672196E+04  0.14421524984E+04  0.19656517158E+04  0.46999998093E+01 0. -1.
       -5    1    3    3    0  502  0.75210283485E+03 -0.11037672196E+04 -0.41010350044E+03  0.13971999572E+04  0.46999998093E+01 0.  1.
</event>
<event>
 5   0  0.3220147E-08  0.3199474E+04  0.7818609E-02  0.8188956E-01
        1   -1    0    0  501    0  0.00000000000E+00  0.00000000000E+00  0.20817956063E+04  0.20817956063E+04  0.50400001928E-02 0. -1.
       -1   -1    0    0    0  501  0.00000000000E+00  0.00000000000E+00 -0.12293037314E+04  0.12293037314E+04  0.50400001928E-02 0.  1.
    10030    2    1    2    0    0  0.00000000000E+00  0.00000000000E+00  0.85249187493E+03  0.33110993377E+04  0.31994743986E+04 0.  0.
        4    1    3    3  502    0  0.12735682090E+04 -0.18088771441E+03  0.14104576487E+04  0.19089496431E+04  0.12699999809E+01 0. -1.
       -4    1    3    3    0  502 -0.12735682090E+04  0.18088771441E+03 -0.55796577379E+03  0.14021496945E+04  0.12699999809E+01 0.  1.
</event>
<event>
 5   0  0.3283581E-08  0.3199417E+04  0.7818609E-02  0.8188971E-01
       -1   -1    0    0    0  501  0.00000000000E+00  0.00000000000E+00  0.83356630263E+03  0.83356630265E+03  0.50400001928E-02 0. -1.
        1   -1    0    0  501    0  0.00000000000E+00  0.00000000000E+00 -0.30700220280E+04  0.30700220280E+04  0.50400001928E-02 0.  1.
    10030    2    1    2    0    0  0.00000000000E+00  0.00000000000E+00 -0.22364557254E+04  0.39035883306E+04  0.31994167662E+04 0.  0.
        5    1    3    3  502    0  0.30297981825E+03  0.10031617679E+04 -0.25929343720E+04  0.27966875138E+04  0.46999998093E+01 0.  1.
       -5    1    3    3    0  502 -0.30297981825E+03 -0.10031617679E+04  0.35647864660E+03  0.11069008168E+04  0.46999998093E+01 0. -1.
</event>
<event>
 5   0  0.9727083E-08  0.3200149E+04  0.7818609E-02  0.8188778E-01
        2   -1    0    0  501    0  0.00000000000E+00  0.00000000000E+00  0.19689051703E+04  0.19689051703E+04  0.25500000920E-02 0.  1.
       -2   -1    0    0    0  501  0.00000000000E+00  0.00000000000E+00 -0.13003363449E+04  0.13003363449E+04  0.25500000920E-02 0. -1.
    10030    2    1    2    0    0  0.00000000000E+00  0.00000000000E+00  0.66856882544E+03  0.32692415152E+04  0.32001493419E+04 0.  0.
        4    1    3    3  502    0 -0.59190812575E+03  0.18175471699E+03 -0.11729845114E+04  0.13263801429E+04  0.12699999809E+01 0.  1.
       -4    1    3    3    0  502  0.59190812575E+03 -0.18175471699E+03  0.18415533369E+04  0.19428613723E+04  0.12699999809E+01 0. -1.
</event>
<event>
 5   0  0.3283581E-08  0.3199075E+04  0.7818609E-02  0.8189061E-01
        1   -1    0    0  501    0  0.00000000000E+00  0.00000000000E+00  0.22608423696E+04  0.22608423696E+04  0.50400001928E-02 0.  1.
       -1   -1    0    0    0  501  0.00000000000E+00  0.00000000000E+00 -0.11316668318E+04  0.11316668318E+04  0.50400001928E-02 0. -1.
    10030    2    1    2    0    0  0.00000000000E+00  0.00000000000E+00  0.11291755377E+04  0.33925092014E+04  0.31990750674E+04 0.  0.
        5    1    3    3  502    0  0.40665941351E+03 -0.51807718289E+03  0.21103678261E+04  0.22107578559E+04  0.46999998093E+01 0.  1.
       -5    1    3    3    0  502 -0.40665941351E+03  0.51807718289E+03 -0.98119228833E+03  0.11817513455E+04  0.46999998093E+01 0. -1.
</event>
<event>
 5   0  0.9707721E-08  0.3199191E+04  0.7818609E-02  0.8189031E-01
        2   -1    0    0  501    0  0.00000000000E+00  0.00000000000E+00  0.16924710207E+04  0.16924710207E+04  0.25500000920E-02 0.  1.
       -2   -1    0    0    0  501  0.00000000000E+00  0.00000000000E+00 -0.15118163793E+04  0.15118163793E+04  0.25500000920E-02 0. -1.
    10030    2    1    2    0    0  0.00000000000E+00  0.00000000000E+00  0.18065464144E+03  0.32042874000E+04  0.31991907793E+04 0.  0.
        3    1    3    3  502    0  0.33199288065E+03  0.44111113900E+03 -0.14133661971E+04  0.15173669058E+04  0.10100000352E+00 0. -1.
       -3    1    3    3    0  502 -0.33199288065E+03 -0.44111113900E+03  0.15940208385E+04  0.16869204941E+04  0.10100000352E+00 0.  1.
</event>
<event>
 5   0  0.9707721E-08  0.3197953E+04  0.7818609E-02  0.8189358E-01
        2   -1    0    0  501    0  0.00000000000E+00  0.00000000000E+00  0.15330518658E+04  0.15330518658E+04  0.25500000920E-02 0. -1.
       -2   -1    0    0    0  501  0.00000000000E+00  0.00000000000E+00 -0.16677357626E+04  0.16677357626E+04  0.25500000920E-02 0.  1.
    10030    2    1    2    0    0  0.00000000000E+00  0.00000000000E+00 -0.13468389682E+03  0.32007876284E+04  0.31979527342E+04 0.  0.
        3    1    3    3  502    0  0.88034364971E+03 -0.10408275229E+04  0.76910130017E+03  0.15651976534E+04  0.10100000352E+00 0. -1.
       -3    1    3    3    0  502 -0.88034364971E+03  0.10408275229E+04 -0.90378519698E+03  0.16355899751E+04  0.10100000352E+00 0.  1.
</event>
<event>
 5   0  0.3427667E-08  0.3199564E+04  0.7818609E-02  0.8188932E-01
        1   -1    0    0  501    0  0.00000000000E+00  0.00000000000E+00  0.23137081585E+04  0.23137081585E+04  0.50400001928E-02 0. -1.
       -1   -1    0    0    0  501  0.00000000000E+00  0.00000000000E+00 -0.11061477335E+04  0.11061477335E+04  0.50400001928E-02 0.  1.
    10030    2    1    2    0    0  0.00000000000E+00  0.00000000000E+00  0.12075604251E+04  0.34198558920E+04  0.31995643675E+04 0.  0.
        2    1    3    3  502    0 -0.61062953740E+03 -0.37755409483E+03  0.21318579519E+04  0.22494963555E+04  0.25500000920E-02 0. -1.
       -2    1    3    3    0  502  0.61062953740E+03  0.37755409483E+03 -0.92429752685E+03  0.11703595365E+04  0.25500000920E-02 0.  1.
</event>
<event>
 5   0  0.9157524E-08  0.3199464E+04  0.7818609E-02  0.8188959E-01
        2   -1    0    0  501    0  0.00000000000E+00  0.00000000000E+00  0.18117546267E+04  0.18117546267E+04  0.25500000920E-02 0. -1.
       -2   -1    0    0    0  501  0.00000000000E+00  0.00000000000E+00 -0.14125217688E+04  0.14125217688E+04  0.25500000920E-02 0.  1.
    10030    2    1    2    0    0  0.00000000000E+00  0.00000000000E+00  0.39923285795E+03  0.32242763955E+04  0.31994642363E+04 0.  0.
        5    1    3    3  502    0  0.14142219712E+04  0.43860024832E+03  0.80989248004E+03  0.16877031376E+04  0.46999998093E+01 0. -1.
       -5    1    3    3    0  502 -0.14142219712E+04 -0.43860024832E+03 -0.41065962210E+03  0.15365732579E+04  0.46999998093E+01 0.  1.
</event>
<event>
 5   0  0.3283581E-08  0.3200663E+04  0.7818609E-02  0.8188642E-01
       -1   -1    0    0    0  501  0.00000000000E+00  0.00000000000E+00  0.10449565464E+04  0.10449565464E+04  0.50400001928E-02 0.  1.
        1   -1    0    0  501    0  0.00000000000E+00  0.00000000000E+00 -0.24508786520E+04  0.24508786520E+04  0.50400001928E-02 0. -1.
    10030    2    1    2    0    0  0.00000000000E+00  0.00000000000E+00 -0.14059221056E+04  0.34958351984E+04  0.32006634886E+04 0.  0.
        5    1    3    3  502    0  0.23586062903E+03  0.12604607361E+03 -0.24262928364E+04  0.24409909600E+04  0.46999998093E+01 0. -1.
       -5    1    3    3    0  502 -0.23586062903E+03 -0.12604607361E+03  0.10203707308E+04  0.10548442384E+04  0.46999998093E+01 0.  1.
</event>
<event>
 5   0  0.3427667E-08  0.3199449E+04  0.7818609E-02  0.8188963E-01
       -1   -1    0    0    0  501  0.00000000000E+00  0.00000000000E+00  0.84555673263E+03  0.84555673265E+03  0.50400001928E-02 0. -1.
        1   -1    0    0  501    0  0.00000000000E+00  0.00000000000E+00 -0.30265482264E+04  0.30265482264E+04  0.50400001928E-02 0.  1.
    10030    2    1    2    0    0  0.00000000000E+00  0.00000000000E+00 -0.21809914938E+04  0.38721049591E+04  0.31994488460E+04 0.  0.
        2    1    3    3  502    0 -0.76413353891E+03 -0.12035917293E+04 -0.19687216427E+04  0.24307196512E+04  0.25500000920E-02 0.  1.
       -2    1    3    3    0  502  0.76413353891E+03  0.12035917293E+04 -0.21226985105E+03  0.14413853079E+04  0.25500000920E-02 0. -1.
</event>
<event>
 5   0  0.9157524E-08  0.3197518E+04  0.7818609E-02  0.8189473E-01
        2   -1    0    0  501    0  0.00000000000E+00  0.00000000000E+00  0.15894817096E+04  0.15894817096E+04  0.25500000920E-02 0.  1.
       -2   -1    0    0    0  501  0.00000000000E+00  0.00000000000E+00 -0.16080905312E+04  0.16080905312E+04  0.25500000920E-02 0. -1.
    10030    2    1    2    0    0  0.00000000000E+00  0.00000000000E+00 -0.18608821579E+02  0.31975722408E+04  0.31975180918E+04 0.  0.
        5    1    3    3  502    0  0.44873368151E+03 -0.14952227790E+04  0.33560043131E+03  0.15967788874E+04  0.46999998093E+01 0.  1.
       -5    1    3    3    0  502 -0.44873368151E+03  0.14952227790E+04 -0.35420925289E+03  0.16007933535E+04  0.46999998093E+01 0. -1.
</event>
<event>
 5   0  0.9329929E-08  0.3199680E+04  0.7818609E-02  0.8188902E-01
       -2   -1    0    0    0  501  0.00000000000E+00  0.00000000000E+00  0.97938753410E+03  0.97938753410E+03  0.25500000920E-02 0.  1.
        2   -1    0    0  501    0  0.00000000000E+00  0.00000000000E+00 -0.26133549666E+04  0.26133549666E+04  0.25500000920E-02 0. -1.
    10030    2    1    2    0    0  0.00000000000E+00  0.00000000000E+00 -0.16339674325E+04  0.35927425007E+04  0.31996795318E+04 0.  0.
        1    1    3    3  502    0 -0.59494916363E+02  0.14266134610E+04 -0.16272400446E+04  0.21648731545E+04  0.50400001928E-02 0. -1.
       -1    1    3    3    0  502  0.59494916363E+02 -0.14266134610E+04 -0.67273879721E+01  0.14278693463E+04  0.50400001928E-02 0.  1.
</event>
<event>
 5   0  0.3427667E-08  0.3199825E+04  0.7818609E-02  0.8188864E-01
        1   -1    0    0  501    0  0.00000000000E+00  0.00000000000E+00  0.10390983951E+04  0.10390983951E+04  0.50400001928E-02 0.  1.
       -1   -1    0    0    0  501  0.00000000000E+00  0.00000000000E+00 -0.24634041586E+04  0.24634041587E+04  0.50400001928E-02 0. -1.
    10030    2    1    2    0    0  0.00000000000E+00  0.00000000000E+00 -0.14243057635E+04  0.35025025538E+04  0.31998245626E+04 0.  0.
        2    1    3    3  502    0  0.11132729593E+04  0.72153118992E+03  0.26671807756E+03  0.13531897401E+04  0.25500000920E-02 0.  1.
       -2    1    3    3    0  502 -0.11132729593E+04 -0.72153118992E+03 -0.16910238411E+04  0.21493128137E+04  0.25500000920E-02 0. -1.
</event>
<event>
 5   0  0.9329929E-08  0.3201998E+04  0.7818609E-02  0.8188290E-01
       -2   -1    0    0    0  501  0.00000000000E+00  0.00000000000E+00  0.78888293624E+03  0.78888293624E+03  0.25500000920E-02 0. -1.
        2   -1    0    0  501    0  0.00000000000E+00  0.00000000000E+00 -0.32491491957E+04  0.32491491957E+04  0.25500000920E-02 0.  1.
    10030    2    1    2    0    0  0.00000000000E+00  0.00000000000E+00 -0.24602662594E+04  0.40380321319E+04  0.32019983496E+04 0.  0.
        1    1    3    3  502    0  0.15504323732E+04 -0.11060061357E+03 -0.17138512694E+04  0.23137327446E+04  0.50400001928E-02 0. -1.
       -1    1    3    3    0  502 -0.15504323732E+04  0.11060061357E+03 -0.74641499001E+03  0.17242993873E+04  0.50400001928E-02 0.  1.
</event>
<event>
 5   0  0.3220147E-08  0.3199751E+04  0.7818609E-02  0.8188883E-01
       -1   -1    0    0    0  501  0.00000000000E+00  0.00000000000E+00  0.14944512321E+04  0.14944512321E+04  0.50400001928E-02 0. -1.
        1   -1    0    0  501    0  0.00000000000E+00  0.00000000000E+00 -0.17127370247E+04  0.17127370247E+04  0.50400001928E-02 0.  1.
    10030    2    1    2    0    0  0.00000000000E+00  0.00000000000E+00 -0.21828579264E+03  0.32071882568E+04  0.31997512134E+04 0.  0.
        4    1    3    3  502    0 -0.26051328277E+03  0.13856683100E+04 -0.86697991653E+03  0.16551735935E+04  0.12699999809E+01 0.  1.
       -4    1    3    3    0  502  0.26051328277E+03 -0.13856683100E+04  0.64869412388E+03  0.15520146633E+04  0.12699999809E+01 0. -1.
</event>
<event>
 5   0  0.9707721E-08  0.3201161E+04  0.7818609E-02  0.8188511E-01
        2   -1    0    0  501    0  0.00000000000E+00  0.00000000000E+00  0.84664776476E+03  0.84664776476E+03  0.25500000920E-02 0. -1.
       -2   -1    0    0    0  501  0.00000000000E+00  0.00000000000E+00 -0.30258838643E+04  0.30258838643E+04  0.25500000920E-02 0.  1.
    10030    2    1    2    0    0  0.00000000000E+00  0.00000000000E+00 -0.21792360996E+04  0.38725316291E+04  0.32011609208E+04 0.  0.
        3    1    3    3  502    0  0.10564308849E+04 -0.50508405747E+03  0.23042760039E+03  0.11934207175E+04  0.10100000352E+00 0. -1.
       -3    1    3    3    0  502 -0.10564308849E+04  0.50508405747E+03 -0.24096637000E+04  0.26791109116E+04  0.10100000352E+00 0.  1.
</event>
<event>
 5   0  0.3220147E-08  0.3200461E+04  0.7818609E-02  0.8188695E-01
       -1   -1    0    0    0  501  0.00000000000E+00  0.00000000000E+00  0.13961122227E+04  0.13961122227E+04  0.50400001928E-02 0.  1.
        1   -1    0    0  501    0  0.00000000000E+00  0.00000000000E+00 -0.18341921149E+04  0.18341921149E+04  0.50400001928E-02 0. -1.
    10030    2    1    2    0    0  0.00000000000E+00  0.00000000000E+00 -0.43807989218E+03  0.32303043377E+04  0.32004612358E+04 0.  0.
        4    1    3    3  502    0  0.26320840303E+03 -0.85723354521E+03  0.11186896859E+04  0.14337350664E+04  0.12699999809E+01 0.  1.
       -4    1    3    3    0  502 -0.26320840303E+03  0.85723354521E+03 -0.15567695780E+04  0.17965692713E+04  0.12699999809E+01 0. -1.
</event>
<event>
 5   0  0.9707721E-08  0.3192879E+04  0.7818609E-02  0.8190700E-01
        2   -1    0    0  501    0  0.00000000000E+00  0.00000000000E+00  0.17729296940E+04  0.17729296940E+04  0.25500000920E-02 0. -1.
       -2   -1    0    0    0  501  0.00000000000E+00  0.00000000000E+00 -0.14375184230E+04  0.14375184230E+04  0.25500000920E-02 0.  1.
    10030    2    1    2    0    0  0.00000000000E+00  0.00000000000E+00  0.33541127106E+03  0.32104481170E+04  0.31928790129E+04 0.  0.
        3    1    3    3  502    0  0.29464501293E+03 -0.15637717265E+04  0.29655674740E+03  0.16186857665E+04  0.10100000352E+00 0.  1.
       -3    1    3    3    0  502 -0.29464501293E+03  0.15637717265E+04  0.38854523653E+02  0.15917623505E+04  0.10100000352E+00 0. -1.
</event>
<event>
 5   0  0.9727083E-08  0.3194511E+04  0.7818609E-02  0.8190268E-01
        2   -1    0    0  501    0  0.00000000000E+00  0.00000000000E+00  0.27297023792E+04  0.27297023792E+04  0.25500000920E-02 0.  1.
       -2   -1    0    0    0  501  0.00000000000E+00  0.00000000000E+00 -0.93461675851E+03  0.93461675852E+03  0.25500000920E-02 0. -1.
    10030    2    1    2    0    0  0.00000000000E+00  0.00000000000E+00  0.17950856206E+04  0.36643191377E+04  0.31945112861E+04 0.  0.
        4    1    3    3  502    0 -0.88568737589E+03 -0.11322986054E+04  0.16961205181E+04  0.22233687693E+04  0.12699999809E+01 0.  1.
       -4    1    3    3    0  502  0.88568737589E+03  0.11322986054E+04  0.98965102575E+02  0.14409503684E+04  0.12699999809E+01 0. -1.
</event>
<event>
 5   0  0.9353994E-08  0.3201697E+04  0.7818609E-02  0.8188369E-01
       -2   -1    0    0    0  501  0.00000000000E+00  0.00000000000E+00  0.12083464474E+04  0.12083464474E+04  0.25500000920E-02 0. -1.
        2   -1    0    0  501    0  0.00000000000E+00  0.00000000000E+00 -0.21208447925E+04  0.21208447925E+04  0.25500000920E-02 0.  1.
    10030    2    1    2    0    0  0.00000000000E+00  0.00000000000E+00 -0.91249834512E+03  0.33291912399E+04  0.32016965943E+04 0.  0.
        2    1    3    3  502    0 -0.35574778425E+02 -0.81164744300E+03 -0.18905532491E+04  0.20577241614E+04  0.25500000920E-02 0.  1.
       -2    1    3    3    0  502  0.35574778425E+02  0.81164744300E+03  0.97805490398E+03  0.12714670785E+04  0.25500000920E-02 0. -1.
</event>
<event>
 5   0  0.9353994E-08  0.3199714E+04  0.7818609E-02  0.8188893E-01
       -2   -1    0    0    0  501  0.00000000000E+00  0.00000000000E+00  0.12425277505E+04  0.12425277505E+04  0.25500000920E-02 0.  1.
        2   -1    0    0  501    0  0.00000000000E+00  0.00000000000E+00 -0.20599481700E+04  0.20599481700E+04  0.25500000920E-02 0. -1.
    10030    2    1    2    0    0  0.00000000000E+00  0.00000000000E+00 -0.81742041946E+03  0.33024759205E+04  0.31997142158E+04 0.  0.
        2    1    3    3  502    0 -0.79597603726E+03 -0.12479061207E+04 -0.10354138640E+04  0.18063580508E+04  0.25500000920E-02 0. -1.
       -2    1    3    3    0  502  0.79597603726E+03  0.12479061207E+04  0.21799344453E+03  0.14961178696E+04  0.25500000920E-02 0.  1.
</event>
<event>
 5   0  0.3220147E-08  0.3202955E+04  0.7818609E-02  0.8188037E-01
        1   -1    0    0  501    0  0.00000000000E+00  0.00000000000E+00  0.24001339977E+04  0.24001339977E+04  0.50400001928E-02 0.  1.
       -1   -1    0    0    0  501  0.00000000000E+00  0.00000000000E+00 -0.10685782102E+04  0.10685782102E+04  0.50400001928E-02 0. -1.
    10030    2    1    2    0    0  0.00000000000E+00  0.00000000000E+00  0.13315557875E+04  0.34687122079E+04  0.32029554424E+04 0.  0.
        4    1    3    3  502    0 -0.21866325421E+03  0.15392436046E+04  0.24965038309E+03  0.15746146893E+04  0.12699999809E+01 0. -1.
       -4    1    3    3    0  502  0.21866325421E+03 -0.15392436046E+04  0.10819054044E+04  0.18940975186E+04  0.12699999809E+01 0.  1.
</event>
<event>
 5   0  0.9353994E-08  0.3198881E+04  0.7818609E-02  0.8189113E-01
        2   -1    0    0  501    0  0.00000000000E+00  0.00000000000E+00  0.32066206870E+04  0.32066206870E+04  0.25500000920E-02 0. -1.
       -2   -1    0    0    0  501  0.00000000000E+00  0.00000000000E+00 -0.79779003977E+03  0.79779003977E+03  0.25500000920E-02 0.  1.
    10030    2    1    2    0    0  0.00000000000E+00  0.00000000000E+00  0.24088306473E+04  0.40044107268E+04  0.31988810828E+04 0.  0.
        2    1    3    3  502    0 -0.12420000463E+03 -0.13497988347E+04  0.14160394120E+03  0.13628771813E+04  0.25500000920E-02 0.  1.
       -2    1    3    3    0  502  0.12420000463E+03  0.13497988347E+04  0.22672267061E+04  0.26415335455E+04  0.25500000920E-02 0. -1.
</event>
<event>
 5   0  0.9157524E-08  0.3196414E+04  0.7818609E-02  0.8189765E-01
       -2   -1    0    0    0  501  0.00000000000E+00  0.00000000000E+00  0.11793522213E+04  0.11793522213E+04  0.25500000920E-02 0. -1.
        2   -1    0    0  501    0  0.00000000000E+00  0.00000000000E+00 -0.21658202258E+04  0.21658202258E+04  0.25500000920E-02 0.  1.
    10030    2    1    2    0    0  0.00000000000E+00  0.00000000000E+00 -0.98646800451E+03  0.33451724472E+04  0.31964135492E+04 0.  0.
        5    1    3    3  502    0 -0.85228755645E+02 -0.15455657322E+04 -0.76972504956E+02  0.15498336136E+04  0.46999998093E+01 0. -1.
       -5    1    3    3    0  502  0.85228755645E+02  0.15455657322E+04 -0.90949549955E+03  0.17953388335E+04  0.46999998093E+01 0.  1.
</event>
<event>
 5   0  0.9157524E-08  0.3199885E+04  0.7818609E-02  0.8188847E-01
        2   -1    0    0  501    0  0.00000000000E+00  0.00000000000E+00  0.14696529924E+04  0.14696529924E+04  0.25500000920E-02 0.  1.
       -2   -1    0    0    0  501  0.00000000000E+00  0.00000000000E+00 -0.17417831181E+04  0.17417831181E+04  0.25500000920E-02 0. -1.
    10030    2    1    2    0    0  0.00000000000E+00  0.00000000000E+00 -0.27213012575E+03  0.32114361105E+04  0.31998854802E+04 0.  0.
        5    1    3    3  502    0  0.84488853487E+03 -0.30447107362E+03 -0.14649502014E+04  0.17183248976E+04  0.46999998093E+01 0. -1.
       -5    1    3    3    0  502 -0.84488853487E+03  0.30447107362E+03  0.11928200757E+04  0.14931112129E+04  0.46999998093E+01 0.  1.
</event>
<event>
 5   0  0.9707721E-08  0.3200338E+04  0.7818609E-02  0.8188728E-01
       -2   -1    0    0    0  501  0.00000000000E+00  0.00000000000E+00  0.12374026472E+04  0.12374026472E+04  0.25500000920E-02 0. -1.
        2   -1    0    0  501    0  0.00000000000E+00  0.00000000000E+00 -0.20692862281E+04  0.20692862281E+04  0.25500000920E-02 0.  1.
    10030    2    1    2    0    0  0.00000000000E+00  0.00000000000E+00 -0.83188358092E+03  0.33066888753E+04  0.32003376425E+04 0.  0.
        3    1    3    3  502    0  0.68753411508E+03 -0.11881764211E+04 -0.12655028795E+04  0.18670736234E+04  0.10100000352E+00 0.  1.
       -3    1    3    3    0  502 -0.68753411508E+03  0.11881764211E+04  0.43361929857E+03  0.14396152519E+04  0.10100000352E+00 0. -1.
</event>
<event>
 5   0  0.3283581E-08  0.3200447E+04  0.7818609E-02  0.8188699E-01
       -1   -1    0    0    0  501  0.00000000000E+00  0.00000000000E+00  0.16382642558E+04  0.16382642558E+04  0.50400001928E-02 0.  1.
        1   -1    0    0  501    0  0.00000000000E+00  0.00000000000E+00 -0.15630664138E+04  0.15630664138E+04  0.50400001928E-02 0. -1.
    10030    2    1    2    0    0  0.00000000000E+00  0.00000000000E+00  0.75197841968E+02  0.32013306696E+04  0.32004473657E+04 0.  0.
        5    1    3    3  502    0 -0.49767534621E+03  0.10544740837E+03  0.15552169993E+04  0.16363135124E+04  0.46999998093E+01 0.  1.
       -5    1    3    3    0  502  0.49767534621E+03 -0.10544740837E+03 -0.14800191573E+04  0.15650171571E+04  0.46999998093E+01 0. -1.
</event>
<event>
 5   0  0.3343140E-08  0.3201573E+04  0.7818609E-02  0.8188402E-01
       -1   -1    0    0    0  501  0.00000000000E+00  0.00000000000E+00  0.10065710602E+04  0.10065710603E+04  0.50400001928E-02 0. -1.
        1   -1    0    0  501    0  0.00000000000E+00  0.00000000000E+00 -0.25457892860E+04  0.25457892860E+04  0.50400001928E-02 0.  1.
    10030    2    1    2    0    0  0.00000000000E+00  0.00000000000E+00 -0.15392182258E+04  0.35523603463E+04  0.32015732513E+04 0.  0.
        1    1    3    3  502    0  0.14133567757E+04  0.51608262708E+03 -0.13759234906E+04  0.20388928626E+04  0.50400001928E-02 0.  1.
       -1    1    3    3    0  502 -0.14133567757E+04 -0.51608262708E+03 -0.16329473518E+03  0.15134674836E+04  0.50400001928E-02 0. -1.
</event>
<event>
 5   0  0.9707721E-08  0.3200090E+04  0.7818609E-02  0.8188793E-01
        2   -1    0    0  501    0  0.00000000000E+00  0.00000000000E+00  0.16896721027E+04  0.16896721027E+04  0.25500000920E-02 0. -1.
       -2   -1    0    0    0  501  0.00000000000E+00  0.00000000000E+00 -0.15151721777E+04  0.15151721777E+04  0.25500000920E-02 0.  1.
    10030    2    1    2    0    0  0.00000000000E+00  0.00000000000E+00  0.17449992496E+03  0.32048442804E+04  0.32000900984E+04 0.  0.
        3    1    3    3  502    0  0.71612379150E+03 -0.54569009372E+03  0.14119142221E+04  0.16745485194E+04  0.10100000352E+00 0. -1.
       -3    1    3    3    0  502 -0.71612379150E+03  0.54569009372E+03 -0.12374142971E+04  0.15302957610E+04  0.10100000352E+00 0.  1.
</event>
<event>
 5   0  0.3427667E-08  0.3199819E+04  0.7818609E-02  0.8188865E-01
       -1   -1    0    0    0  501  0.00000000000E+00  0.00000000000E+00  0.14338143204E+04  0.14338143204E+04  0.50400001928E-02 0.  1.
        1   -1    0    0  501    0  0.00000000000E+00  0.00000000000E+00 -0.17852455262E+04  0.17852455262E+04  0.50400001928E-02 0. -1.
    10030    2    1    2    0    0  0.00000000000E+00  0.00000000000E+00 -0.35143120581E+03  0.32190598466E+04  0.31998191204E+04 0.  0.
        2    1    3    3  502    0  0.10686879248E+03 -0.48538717357E+03 -0.17056127498E+04  0.17765518566E+04  0.25500000920E-02 0. -1.
       -2    1    3    3    0  502 -0.10686879248E+03  0.48538717357E+03  0.13541815440E+04  0.14425079900E+04  0.25500000920E-02 0.  1.
</event>
<event>
 5   0  0.9727083E-08  0.3196551E+04  0.7818609E-02  0.8189729E-01
        2   -1    0    0  501    0  0.00000000000E+00  0.00000000000E+00  0.24402676528E+04  0.24402676528E+04  0.25500000920E-02 0. -1.
       -2   -1    0    0    0  501  0.00000000000E+00  0.00000000000E+00 -0.10468048504E+04  0.10468048504E+04  0.25500000920E-02 0.  1.
    10030    2    1    2    0    0  0.00000000000E+00  0.00000000000E+00  0.13934628024E+04  0.34870725032E+04  0.31965506504E+04 0.  0.
        4    1    3    3  502    0  0.10969653021E+04 -0.11568102196E+04  0.57264032431E+03  0.16939484384E+04  0.12699999809E+01 0.  1.
       -4    1    3    3    0  502 -0.10969653021E+04  0.11568102196E+04  0.82082247806E+03  0.17931240647E+04  0.12699999809E+01 0. -1.
</event>
<event>
 5   0  0.3220147E-08  0.3200644E+04  0.7818609E-02  0.8188647E-01
       -1   -1    0    0    0  501  0.00000000000E+00  0.00000000000E+00  0.15142399448E+04  0.15142399448E+04  0.50400001928E-02 0. -1.
        1   -1    0    0  501    0  0.00000000000E+00  0.00000000000E+00 -0.16912973082E+04  0.16912973082E+04  0.50400001928E-02 0.  1.
    10030    2    1    2    0    0  0.00000000000E+00  0.00000000000E+00 -0.17705736345E+03  0.32055372530E+04  0.32006436494E+04 0.  0.
        4    1    3    3  502    0  0.10855547817E+04 -0.10815372383E+04 -0.55061936242E+03  0.16282921351E+04  0.12699999809E+01 0.  1.
       -4    1    3    3    0  502 -0.10855547817E+04  0.10815372383E+04  0.37356199898E+03  0.15772451179E+04  0.12699999809E+01 0. -1.
</event>
<event>
 5   0  0.9727083E-08  0.3198799E+04  0.7818609E-02  0.8189134E-01
        2   -1    0    0  501    0  0.00000000000E+00  0.00000000000E+00  0.28801459529E+04  0.28801459529E+04  0.25500000920E-02 0.  1.
       -2   -1    0    0    0  501  0.00000000000E+00  0.00000000000E+00 -0.88817678660E+03  0.88817678660E+03  0.25500000920E-02 0. -1.
    10030    2    1    2    0    0  0.00000000000E+00  0.00000000000E+00  0.19919691663E+04  0.37683227395E+04  0.31987990105E+04 0.  0.
        4    1    3    3  502    0  0.33226203621E+02  0.15956244690E+04  0.87267922370E+03  0.18189810519E+04  0.12699999809E+01 0.  1.
       -4    1    3    3    0  502 -0.33226203621E+02 -0.15956244690E+04  0.11192899426E+04  0.19493416876E+04  0.12699999809E+01 0. -1.
</event>
<event>
 5   0  0.9329929E-08  0.3201694E+04  0.7818609E-02  0.8188370E-01
        2   -1    0    0  501    0  0.00000000000E+00  0.00000000000E+00  0.19260690179E+04  0.19260690179E+04  0.25500000920E-02 0.  1.
       -2   -1    0    0    0  501  0.00000000000E+00  0.00000000000E+00 -0.13305399087E+04  0.13305399087E+04  0.25500000920E-02 0. -1.
    10030    2    1    2    0    0  0.00000000000E+00  0.00000000000E+00  0.59552910921E+03  0.32566089266E+04  0.32016943610E+04 0.  0.
        1    1    3    3  502    0 -0.88193723982E+03 -0.11265269230E+04 -0.43277098403E+03  0.14947129918E+04  0.50400001928E-02 0. -1.
       -1    1    3    3    0  502  0.88193723982E+03  0.11265269230E+04  0.10283000932E+04  0.17618959348E+04  0.50400001928E-02 0.  1.
</event>
<event>
 5   0  0.9353994E-08  0.3199130E+04  0.7818609E-02  0.8189047E-01
        2   -1    0    0  501    0  0.00000000000E+00  0.00000000000E+00  0.16190827470E+04  0.16190827470E+04  0.25500000920E-02 0.  1.
       -2   -1    0    0    0  501  0.00000000000E+00  0.00000000000E+00 -0.15802820680E+04  0.15802820680E+04  0.25500000920E-02 0. -1.
    10030    2    1    2    0    0  0.00000000000E+00  0.00000000000E+00  0.38800679006E+02  0.31993648151E+04  0.31991295265E+04 0.  0.
        2    1    3    3  502    0 -0.11087004324E+04  0.13084215321E+03  0.11650286170E+04  0.16135761513E+04  0.25500000920E-02 0.  1.
       -2    1    3    3    0  502  0.11087004324E+04 -0.13084215321E+03 -0.11262279379E+04  0.15857886637E+04  0.25500000920E-02 0. -1.
</event>
<event>
 5   0  0.3270966E-08  0.3199772E+04  0.7818609E-02  0.8188877E-01
        1   -1    0    0  501    0  0.00000000000E+00  0.00000000000E+00  0.18947030634E+04  0.18947030634E+04  0.50400001928E-02 0.  1.
       -1   -1    0    0    0  501  0.00000000000E+00  0.00000000000E+00 -0.13509430790E+04  0.13509430791E+04  0.50400001928E-02 0. -1.
    10030    2    1    2    0    0  0.00000000000E+00  0.00000000000E+00  0.54375998440E+03  0.32456461425E+04  0.31997724859E+04 0.  0.
        3    1    3    3  502    0 -0.70099795070E+03  0.77650921128E+03  0.14997180503E+04  0.18285291692E+04  0.10100000352E+00 0.  1.
       -3    1    3    3    0  502  0.70099795070E+03 -0.77650921128E+03 -0.95595806588E+03  0.14171169733E+04  0.10100000352E+00 0. -1.
</event>
<event>
 5   0  0.3343140E-08  0.3201335E+04  0.7818609E-02  0.8188465E-01
       -1   -1    0    0    0  501  0.00000000000E+00  0.00000000000E+00  0.98025425752E+03  0.98025425753E+03  0.50400001928E-02 0.  1.
        1   -1    0    0  501    0  0.00000000000E+00  0.00000000000E+00 -0.26137460048E+04  0.26137460048E+04  0.50400001928E-02 0. -1.
    10030    2    1    2    0    0  0.00000000000E+00  0.00000000000E+00 -0.16334917473E+04  0.35940002623E+04  0.32013345026E+04 0.  0.
        1    1    3    3  502    0 -0.10876712794E+04 -0.81935612252E+03  0.12772982292E+03  0.13677310318E+04  0.50400001928E-02 0. -1.
       -1    1    3    3    0  502  0.10876712794E+04  0.81935612252E+03 -0.17612215702E+04  0.22262692306E+04  0.50400001928E-02 0.  1.
</event>
<event>
 5   0  0.3427667E-08  0.3201997E+04  0.7818609E-02  0.8188290E-01
        1   -1    0    0  501    0  0.00000000000E+00  0.00000000000E+00  0.20034009609E+04  0.20034009609E+04  0.50400001928E-02 0. -1.
       -1   -1    0    0    0  501  0.00000000000E+00  0.00000000000E+00 -0.12794222898E+04  0.12794222898E+04  0.50400001928E-02 0.  1.
    10030    2    1    2    0    0  0.00000000000E+00  0.00000000000E+00  0.72397867109E+03  0.32828232507E+04  0.32019967800E+04 0.  0.
        2    1    3    3  502    0 -0.40876924149E+03 -0.10429129275E+04 -0.81075375166E+03  0.13827802837E+04  0.25500000920E-02 0.  1.
       -2    1    3    3    0  502  0.40876924149E+03  0.10429129275E+04  0.15347324228E+04  0.19000429670E+04  0.25500000920E-02 0. -1.
</event>
<event>
 5   0  0.9353994E-08  0.3200141E+04  0.7818609E-02  0.8188780E-01
       -2   -1    0    0    0  501  0.00000000000E+00  0.00000000000E+00  0.15454018940E+04  0.15454018940E+04  0.25500000920E-02 0.  1.
        2   -1    0    0  501    0  0.00000000000E+00  0.00000000000E+00 -0.16566729015E+04  0.16566729015E+04  0.25500000920E-02 0. -1.
    10030    2    1    2    0    0  0.00000000000E+00  0.00000000000E+00 -0.11127100750E+03  0.32020747955E+04  0.32001408967E+04 0.  0.
        2    1    3    3  502    0 -0.15990871659E+04 -0.41112701198E+02 -0.17462464739E+02  0.15997108977E+04  0.25500000920E-02 0.  1.
       -2    1    3    3    0  502  0.15990871659E+04  0.41112701198E+02 -0.93808542763E+02  0.16023638979E+04  0.25500000920E-02 0. -1.
</event>
<event>
 5   0  0.9157524E-08  0.3199855E+04  0.7818609E-02  0.8188855E-01
       -2   -1    0    0    0  501  0.00000000000E+00  0.00000000000E+00  0.15519980270E+04  0.15519980270E+04  0.25500000920E-02 0. -1.
        2   -1    0    0  501    0  0.00000000000E+00  0.00000000000E+00 -0.16493374124E+04  0.16493374124E+04  0.25500000920E-02 0.  1.
    10030    2    1    2    0    0  0.00000000000E+00  0.00000000000E+00 -0.97339385371E+02  0.32013354394E+04  0.31998552529E+04 0.  0.
        5    1    3    3  502    0 -0.10362230565E+04  0.36177679063E+03 -0.12132982293E+04  0.16360792622E+04  0.46999998093E+01 0.  1.
       -5    1    3    3    0  502  0.10362230565E+04 -0.36177679063E+03  0.11159588439E+04  0.15652561772E+04  0.46999998093E+01 0. -1.
</event>
<event>
 5   0  0.3343140E-08  0.3199555E+04  0.7818609E-02  0.8188935E-01
        1   -1    0    0  501    0  0.00000000000E+00  0.00000000000E+00  0.22127238830E+04  0.22127238830E+04  0.50400001928E-02 0. -1.
       -1   -1    0    0    0  501  0.00000000000E+00  0.00000000000E+00 -0.11566234219E+04  0.11566234219E+04  0.50400001928E-02 0.  1.
    10030    2    1    2    0    0  0.00000000000E+00  0.00000000000E+00  0.10561004611E+04  0.33693473049E+04  0.31995551373E+04 0.  0.
        1    1    3    3  502    0  0.21498406314E+03  0.38292899754E+03 -0.10919068821E+04  0.11769084092E+04  0.50400001928E-02 0.  1.
       -1    1    3    3    0  502 -0.21498406314E+03 -0.38292899754E+03  0.21480073432E+04  0.21924388956E+04  0.50400001928E-02 0. -1.
</event>
<event>
 5   0  0.9329929E-08  0.3200277E+04  0.7818609E-02  0.8188744E-01
       -2   -1    0    0    0  501  0.00000000000E+00  0.00000000000E+00  0.93457244018E+03  0.93457244018E+03  0.25500000920E-02 0. -1.
        2   -1    0    0  501    0  0.00000000000E+00  0.00000000000E+00 -0.27396954963E+04  0.27396954963E+04  0.25500000920E-02 0.  1.
    10030    2    1    2    0    0  0.00000000000E+00  0.00000000000E+00 -0.18051230561E+04  0.36742679365E+04  0.32002774288E+04 0.  0.
        1    1    3    3  502    0 -0.75051815893E+03  0.13073974342E+04 -0.28655162374E+03  0.15344958100E+04  0.50400001928E-02 0. -1.
       -1    1    3    3    0  502  0.75051815893E+03 -0.13073974342E+04 -0.15185714324E+04  0.21397721265E+04  0.50400001928E-02 0.  1.
</event>
<event>
 5   0  0.3343140E-08  0.3200514E+04  0.7818609E-02  0.8188682E-01
        1   -1    0    0  501    0  0.00000000000E+00  0.00000000000E+00  0.24479126441E+04  0.24479126441E+04  0.50400001928E-02 0.  1.
       -1   -1    0    0    0  501  0.00000000000E+00  0.00000000000E+00 -0.10461246258E+04  0.10461246258E+04  0.50400001928E-02 0. -1.
    10030    2    1    2    0    0  0.00000000000E+00  0.00000000000E+00  0.14017880183E+04  0.34940372700E+04  0.32005135206E+04 0.  0.
        1    1    3    3  502    0  0.68995668478E+03  0.76073738735E+02 -0.87321393936E+03  0.11154954166E+04  0.50400001928E-02 0. -1.
       -1    1    3    3    0  502 -0.68995668478E+03 -0.76073738735E+02  0.22750019577E+04  0.23785418533E+04  0.50400001928E-02 0.  1.
</event>
<event>
 5   0  0.9157524E-08  0.3199761E+04  0.7818609E-02  0.8188880E-01
        2   -1    0    0  501    0  0.00000000000E+00  0.00000000000E+00  0.17483144718E+04  0.17483144718E+04  0.25500000920E-02 0.  1.
       -2   -1    0    0    0  501  0.00000000000E+00  0.00000000000E+00 -0.14640491873E+04  0.14640491873E+04  0.25500000920E-02 0. -1.
    10030    2    1    2    0    0  0.00000000000E+00  0.00000000000E+00  0.28426528446E+03  0.32123636591E+04  0.31997614796E+04 0.  0.
        5    1    3    3  502    0 -0.50253523568E+03  0.13558109153E+04  0.82954199900E+03  0.16670113735E+04  0.46999998093E+01 0.  1.
       -5    1    3    3    0  502  0.50253523568E+03 -0.13558109153E+04 -0.54527671453E+03  0.15453522856E+04  0.46999998093E+01 0. -1.
</event>
<event>
 5   0  0.9329929E-08  0.3201446E+04  0.7818609E-02  0.8188435E-01
        2   -1    0    0  501    0  0.00000000000E+00  0.00000000000E+00  0.20893407086E+04  0.20893407086E+04  0.25500000920E-02 0. -1.
       -2   -1    0    0    0  501  0.00000000000E+00  0.00000000000E+00 -0.12263745275E+04  0.12263745275E+04  0.25500000920E-02 0.  1.
    10030    2    1    2    0    0  0.00000000000E+00  0.00000000000E+00  0.86296618115E+03  0.33157152361E+04  0.32014460634E+04 0.  0.
        1    1    3    3  502    0 -0.55638225779E+03 -0.14942368109E+04  0.28497971262E+03  0.16197278477E+04  0.50400001928E-02 0. -1.
       -1    1    3    3    0  502  0.55638225779E+03  0.14942368109E+04  0.57798646853E+03  0.16959873884E+04  0.50400001928E-02 0.  1.
</event>
<event>
 5   0  0.9157524E-08  0.3199921E+04  0.7818609E-02  0.8188838E-01
        2   -1    0    0  501    0  0.00000000000E+00  0.00000000000E+00  0.17129623570E+04  0.17129623570E+04  0.25500000920E-02 0.  1.
       -2   -1    0    0    0  501  0.00000000000E+00  0.00000000000E+00 -0.14944133484E+04  0.14944133484E+04  0.25500000920E-02 0. -1.
    10030    2    1    2    0    0  0.00000000000E+00  0.00000000000E+00  0.21854900859E+03  0.32073757054E+04  0.31999211313E+04 0.  0.
        5    1    3    3  502    0  0.43777164358E+03  0.10694465088E+04  0.12184199868E+04  0.16792644823E+04  0.46999998093E+01 0.  1.
       -5    1    3    3    0  502 -0.43777164358E+03 -0.10694465088E+04 -0.99987097823E+03  0.15281112231E+04  0.46999998093E+01 0. -1.
</event>
<event>
 5   0  0.9157524E-08  0.3200572E+04  0.7818609E-02  0.8188666E-01
       -2   -1    0    0    0  501  0.00000000000E+00  0.00000000000E+00  0.14737427646E+04  0.14737427646E+04  0.25500000920E-02 0.  1.
        2   -1    0    0  501    0  0.00000000000E+00  0.00000000000E+00 -0.17376950657E+04  0.17376950657E+04  0.25500000920E-02 0. -1.
    10030    2    1    2    0    0  0.00000000000E+00  0.00000000000E+00 -0.26395230105E+03  0.32114378303E+04  0.32005721552E+04 0.  0.
        5    1    3    3  502    0  0.20593828880E+03 -0.78313314877E+03 -0.15169466126E+04  0.17195514599E+04  0.46999998093E+01 0. -1.
       -5    1    3    3    0  502 -0.20593828880E+03  0.78313314877E+03  0.12529943116E+04  0.14918863705E+04  0.46999998093E+01 0.  1.
</event>
<event>
 5   0  0.3427667E-08  0.3199982E+04  0.7818609E-02  0.8188822E-01
        1   -1    0    0  501    0  0.00000000000E+00  0.00000000000E+00  0.15204096203E+04  0.15204096203E+04  0.50400001928E-02 0. -1.
       -1   -1    0    0    0  501  0.00000000000E+00  0.00000000000E+00 -0.16837375692E+04  0.16837375692E+04  0.50400001928E-02 0.  1.
    10030    2    1    2    0    0  0.00000000000E+00  0.00000000000E+00 -0.16332794898E+03  0.32041471895E+04  0.31999817489E+04 0.  0.
        2    1    3    3  502    0 -0.12296793566E+04  0.64957353535E+03  0.71051294655E+03  0.15616932302E+04  0.25500000920E-02 0. -1.
       -2    1    3    3    0  502  0.12296793566E+04 -0.64957353535E+03 -0.87384089553E+03  0.16424539594E+04  0.25500000920E-02 0.  1.
</event>
<event>
 5   0  0.9329929E-08  0.3200345E+04  0.7818609E-02  0.8188726E-01
       -2   -1    0    0    0  501  0.00000000000E+00  0.00000000000E+00  0.12350582322E+04  0.12350582322E+04  0.25500000920E-02 0. -1.
        2   -1    0    0  501    0  0.00000000000E+00  0.00000000000E+00 -0.20732236021E+04  0.20732236021E+04  0.25500000920E-02 0.  1.
    10030    2    1    2    0    0  0.00000000000E+00  0.00000000000E+00 -0.83816536995E+03  0.33082818343E+04  0.32003449045E+04 0.  0.
        1    1    3    3  502    0 -0.44035469668E+03 -0.11228845342E+04 -0.15061041124E+04  0.19295417936E+04  0.50400001928E-02 0.  1.
       -1    1    3    3    0  502  0.44035469668E+03  0.11228845342E+04  0.66793874247E+03  0.13787400406E+04  0.50400001928E-02 0. -1.
</event>
<event>
 5   0  0.3427667E-08  0.3185912E+04  0.7818609E-02  0.8192548E-01
        1   -1    0    0  501    0  0.00000000000E+00  0.00000000000E+00  0.28584408728E+04  0.28584408728E+04  0.50400001928E-02 0.  1.
       -1   -1    0    0    0  501  0.00000000000E+00  0.00000000000E+00 -0.88772486517E+03  0.88772486519E+03  0.50400001928E-02 0. -1.
    10030    2    1    2    0    0  0.00000000000E+00  0.00000000000E+00  0.19707160077E+04  0.37461657380E+04  0.31859121384E+04 0.  0.
        2    1    3    3  502    0 -0.14175639134E+04  0.26957570969E+03  0.17788199708E+04  0.22904931784E+04  0.25500000920E-02 0.  1.
       -2    1    3    3    0  502  0.14175639134E+04 -0.26957570969E+03  0.19189603686E+03  0.14556725596E+04  0.25500000920E-02 0. -1.
</event>
<event>
 5   0  0.9727083E-08  0.3198166E+04  0.7818609E-02  0.8189302E-01
       -2   -1    0    0    0  501  0.00000000000E+00  0.00000000000E+00  0.12360949952E+04  0.12360949952E+04  0.25500000920E-02 0. -1.
        2   -1    0    0  501    0  0.00000000000E+00  0.00000000000E+00 -0.20686649960E+04  0.20686649960E+04  0.25500000920E-02 0.  1.
    10030    2    1    2    0    0  0.00000000000E+00  0.00000000000E+00 -0.83257000076E+03  0.33047599912E+04  0.31981660046E+04 0.  0.
        4    1    3    3  502    0 -0.69689977555E+02  0.21278647130E+03  0.12198157003E+04  0.12401962469E+04  0.12699999809E+01 0. -1.
       -4    1    3    3    0  502  0.69689977555E+02 -0.21278647130E+03 -0.20523857010E+04  0.20645637443E+04  0.12699999809E+01 0.  1.
</event>
<event>
 5   0  0.3270966E-08  0.3199490E+04  0.7818609E-02  0.8188952E-01
        1   -1    0    0  501    0  0.00000000000E+00  0.00000000000E+00  0.16632260869E+04  0.16632260869E+04  0.50400001928E-02 0. -1.
       -1   -1    0    0    0  501  0.00000000000E+00  0.00000000000E+00 -0.15386871072E+04  0.15386871072E+04  0.50400001928E-02 0.  1.
    10030    2    1    2    0    0  0.00000000000E+00  0.00000000000E+00  0.12453897972E+03  0.32019131942E+04  0.31994902946E+04 0.  0.
        3    1    3    3  502    0 -0.10827316523E+04 -0.11140509538E+04 -0.31981430135E+03  0.15860953805E+04  0.10100000352E+00 0.  1.
       -3    1    3    3    0  502  0.10827316523E+04  0.11140509538E+04  0.44435328107E+03  0.16158178137E+04  0.10100000352E+00 0. -1.
</event>
<event>
 5   0  0.9707721E-08  0.3200282E+04  0.7818609E-02  0.8188743E-01
       -2   -1    0    0    0  501  0.00000000000E+00  0.00000000000E+00  0.97157472877E+03  0.97157472878E+03  0.25500000920E-02 0.  1.
        2   -1    0    0  501    0  0.00000000000E+00  0.00000000000E+00 -0.26353626981E+04  0.26353626981E+04  0.25500000920E-02 0. -1.
    10030    2    1    2    0    0  0.00000000000E+00  0.00000000000E+00 -0.16637879693E+04  0.36069374269E+04  0.32002823617E+04 0.  0.
        3    1    3    3  502    0 -0.82148136096E+03  0.83350264662E+03  0.39805407803E+03  0.12361251343E+04  0.10100000352E+00 0.  1.
       -3    1    3    3    0  502  0.82148136096E+03 -0.83350264662E+03 -0.20618420474E+04  0.23708122926E+04  0.10100000352E+00 0. -1.
</event>
<event>
 5   0  0.3220147E-08  0.3199909E+04  0.7818609E-02  0.8188841E-01
        1   -1    0    0  501    0  0.00000000000E+00  0.00000000000E+00  0.13292972969E+04  0.13292972969E+04  0.50400001928E-02 0.  1.
       -1   -1    0    0    0  501  0.00000000000E+00  0.00000000000E+00 -0.19257195457E+04  0.19257195457E+04  0.50400001928E-02 0. -1.
    10030    2    1    2    0    0  0.00000000000E+00  0.00000000000E+00 -0.59642224873E+03  0.32550168426E+04  0.31999086154E+04 0.  0.
        4    1    3    3  502    0 -0.11282605736E+04  0.46235528269E+03  0.75553829706E+03  0.14344281302E+04  0.12699999809E+01 0.  1.
       -4    1    3    3    0  502  0.11282605736E+04 -0.46235528269E+03 -0.13519605458E+04  0.18205887124E+04  0.12699999809E+01 0. -1.
</event>
<event>
 5   0  0.9329929E-08  0.3200757E+04  0.7818609E-02  0.8188617E-01
       -2   -1    0    0    0  501  0.00000000000E+00  0.00000000000E+00  0.19197020737E+04  0.19197020737E+04  0.25500000920E-02 0.  1.
        2   -1    0    0  501    0  0.00000000000E+00  0.00000000000E+00 -0.13341714112E+04  0.13341714112E+04  0.25500000920E-02 0. -1.
    10030    2    1    2    0    0  0.00000000000E+00  0.00000000000E+00  0.58553066247E+03  0.32538734849E+04  0.32007571759E+04 0.  0.
        1    1    3    3  502    0 -0.49138036615E+03 -0.89688647143E+02  0.18384285914E+04  0.19050770072E+04  0.50400001928E-02 0.  1.
       -1    1    3    3    0  502  0.49138036615E+03  0.89688647143E+02 -0.12528979290E+04  0.13487964776E+04  0.50400001928E-02 0. -1.
</event>
<event>
 5   0  0.3283581E-08  0.3203253E+04  0.7818609E-02  0.8187959E-01
        1   -1    0    0  501    0  0.00000000000E+00  0.00000000000E+00  0.16417146073E+04  0.16417146073E+04  0.50400001928E-02 0.  1.
       -1   -1    0    0    0  501  0.00000000000E+00  0.00000000000E+00 -0.15625168618E+04  0.15625168618E+04  0.50400001928E-02 0. -1.
    10030    2    1    2    0    0  0.00000000000E+00  0.00000000000E+00  0.79197745438E+02  0.32042314691E+04  0.32032525696E+04 0.  0.
        5    1    3    3  502    0 -0.83454414769E+03  0.10862927566E+04  0.86972522660E+03  0.16226336454E+04  0.46999998093E+01 0.  1.
       -5    1    3    3    0  502  0.83454414769E+03 -0.10862927566E+04 -0.79052748116E+03  0.15815978237E+04  0.46999998093E+01 0. -1.
</event>
<event>
 5   0  0.3220147E-08  0.3198070E+04  0.7818609E-02  0.8189327E-01
        1   -1    0    0  501    0  0.00000000000E+00  0.00000000000E+00  0.22137542547E+04  0.22137542547E+04  0.50400001928E-02 0. -1.
       -1   -1    0    0    0  501  0.00000000000E+00  0.00000000000E+00 -0.11550117867E+04  0.11550117867E+04  0.50400001928E-02 0.  1.
    10030    2    1    2    0    0  0.00000000000E+00  0.00000000000E+00  0.10587424679E+04  0.33687660414E+04  0.31980695784E+04 0.  0.
        4    1    3    3  502    0  0.86010122678E+03  0.90637483458E+03 -0.52169481147E+03  0.13540519009E+04  0.12699999809E+01 0.  1.
       -4    1    3    3    0  502 -0.86010122678E+03 -0.90637483458E+03  0.15804372794E+04  0.20147141405E+04  0.12699999809E+01 0. -1.
</event>
<event>
 5   0  0.9707721E-08  0.3212821E+04  0.7818609E-02  0.8185440E-01
        2   -1    0    0  501    0  0.00000000000E+00  0.00000000000E+00  0.15622353367E+04  0.15622353367E+04  0.25500000920E-02 0.  1.
       -2   -1    0    0    0  501  0.00000000000E+00  0.00000000000E+00 -0.16518342980E+04  0.16518342980E+04  0.25500000920E-02 0. -1.
    10030    2    1    2    0    0  0.00000000000E+00  0.00000000000E+00 -0.89598961380E+02  0.32140696347E+04  0.32128205121E+04 0.  0.
        3    1    3    3  502    0 -0.10633175527E+04 -0.96150263524E+03  0.68034257833E+03  0.15868199550E+04  0.10100000352E+00 0.  1.
       -3    1    3    3    0  502  0.10633175527E+04  0.96150263524E+03 -0.76994153971E+03  0.16272496797E+04  0.10100000352E+00 0. -1.
</event>
<event>
 5   0  0.3283581E-08  0.3197909E+04  0.7818609E-02  0.8189370E-01
       -1   -1    0    0    0  501  0.00000000000E+00  0.00000000000E+00  0.21463828310E+04  0.21463828310E+04  0.50400001928E-02 0. -1.
        1   -1    0    0  501    0  0.00000000000E+00  0.00000000000E+00 -0.11911460996E+04  0.11911460997E+04  0.50400001928E-02 0.  1.
    10030    2    1    2    0    0  0.00000000000E+00  0.00000000000E+00  0.95523673132E+03  0.33375289306E+04  0.31979090278E+04 0.  0.
        5    1    3    3  502    0  0.15983305986E+04 -0.93995373527E+01  0.52292322326E+03  0.16817312036E+04  0.46999998093E+01 0.  1.
       -5    1    3    3    0  502 -0.15983305986E+04  0.93995373527E+01  0.43231350806E+03  0.16557977271E+04  0.46999998093E+01 0. -1.
</event>
<event>
 5   0  0.3270966E-08  0.3200479E+04  0.7818609E-02  0.8188691E-01
        1   -1    0    0  501    0  0.00000000000E+00  0.00000000000E+00  0.21832539049E+04  0.21832539049E+04  0.50400001928E-02 0. -1.
       -1   -1    0    0    0  501  0.00000000000E+00  0.00000000000E+00 -0.11729125435E+04  0.11729125435E+04  0.50400001928E-02 0.  1.
    10030    2    1    2    0    0  0.00000000000E+00  0.00000000000E+00  0.10103413614E+04  0.33561664484E+04  0.32004786459E+04 0.  0.
        3    1    3    3  502    0 -0.13103697791E+03 -0.15539359926E+04  0.12871127129E+03  0.15647537699E+04  0.10100000352E+00 0.  1.
       -3    1    3    3    0  502  0.13103697791E+03  0.15539359926E+04  0.88163009007E+03  0.17914126785E+04  0.10100000352E+00 0. -1.
</event>
<event>
 5   0  0.3427667E-08  0.3199231E+04  0.7818609E-02  0.8189020E-01
       -1   -1    0    0    0  501  0.00000000000E+00  0.00000000000E+00  0.95497009622E+03  0.95497009623E+03  0.50400001928E-02 0.  1.
        1   -1    0    0  501    0  0.00000000000E+00  0.00000000000E+00 -0.26794232889E+04  0.26794232889E+04  0.50400001928E-02 0. -1.
    10030    2    1    2    0    0  0.00000000000E+00  0.00000000000E+00 -0.17244531927E+04  0.36343933852E+04  0.31992306050E+04 0.  0.
        2    1    3    3  502    0  0.11577768206E+04 -0.21120906382E+03 -0.20929693461E+04  0.24011616186E+04  0.25500000920E-02 0. -1.
       -2    1    3    3    0  502 -0.11577768206E+04  0.21120906382E+03  0.36851615335E+03  0.12332317666E+04  0.25500000920E-02 0.  1.
</event>
<event>
 5   0  0.9353994E-08  0.3199568E+04  0.7818609E-02  0.8188931E-01
        2   -1    0    0  501    0  0.00000000000E+00  0.00000000000E+00  0.15815474237E+04  0.15815474237E+04  0.25500000920E-02 0.  1.
       -2   -1    0    0    0  501  0.00000000000E+00  0.00000000000E+00 -0.16182310796E+04  0.16182310796E+04  0.25500000920E-02 0. -1.
    10030    2    1    2    0    0  0.00000000000E+00  0.00000000000E+00 -0.36683655940E+02  0.31997785033E+04  0.31995682176E+04 0.  0.
        2    1    3    3  502    0  0.17390241183E+03  0.89392654783E+03  0.12970249945E+04  0.15848093128E+04  0.25500000920E-02 0.  1.
       -2    1    3    3    0  502 -0.17390241183E+03 -0.89392654783E+03 -0.13337086504E+04  0.16149691904E+04  0.25500000920E-02 0. -1.
</event>
<event>
 5   0  0.3220147E-08  0.3199723E+04  0.7818609E-02  0.8188890E-01
       -1   -1    0    0    0  501  0.00000000000E+00  0.00000000000E+00  0.10975412505E+04  0.10975412505E+04  0.50400001928E-02 0. -1.
        1   -1    0    0  501    0  0.00000000000E+00  0.00000000000E+00 -0.23320823074E+04  0.23320823074E+04  0.50400001928E-02 0.  1.
    10030    2    1    2    0    0  0.00000000000E+00  0.00000000000E+00 -0.12345410569E+04  0.34296235580E+04  0.31997228205E+04 0.  0.
        4    1    3    3  502    0  0.52150668353E+03 -0.15013408316E+04 -0.42091001246E+03  0.16441290598E+04  0.12699999809E+01 0. -1.
       -4    1    3    3    0  502 -0.52150668353E+03  0.15013408316E+04 -0.81363104446E+03  0.17854944982E+04  0.12699999809E+01 0.  1.
</event>
<event>
 5   0  0.3427667E-08  0.3199924E+04  0.7818609E-02  0.8188837E-01
       -1   -1    0    0    0  501  0.00000000000E+00  0.00000000000E+00  0.24507190857E+04  0.24507190857E+04  0.50400001928E-02 0.  1.
        1   -1    0    0  501    0  0.00000000000E+00  0.00000000000E+00 -0.10445415634E+04  0.10445415635E+04  0.50400001928E-02 0. -1.
    10030    2    1    2    0    0  0.00000000000E+00  0.00000000000E+00  0.14061775222E+04  0.34952606491E+04  0.31999237149E+04 0.  0.
        2    1    3    3  502    0 -0.21951786516E+03 -0.15415505688E+04  0.30129090832E+03  0.15859831212E+04  0.25500000920E-02 0. -1.
       -2    1    3    3    0  502  0.21951786516E+03  0.15415505688E+04  0.11048866139E+04  0.19092775280E+04  0.25500000920E-02 0.  1.
</event>
<event>
 5   0  0.3270966E-08  0.3197394E+04  0.7818609E-02  0.8189506E-01
        1   -1    0    0  501    0  0.00000000000E+00  0.00000000000E+00  0.23655120159E+04  0.23655120159E+04  0.50400001928E-02 0.  1.
       -1   -1    0    0    0  501  0.00000000000E+00  0.00000000000E+00 -0.10804563840E+04  0.10804563840E+04  0.50400001928E-02 0. -1.
    10030    2    1    2    0    0  0.00000000000E+00  0.00000000000E+00  0.12850556319E+04  0.34459683999E+04  0.31973942884E+04 0.  0.
        3    1    3    3  502    0  0.82457685062E+03 -0.13143795107E+04  0.10575806094E+04  0.18777638925E+04  0.10100000352E+00 0.  1.
       -3    1    3    3    0  502 -0.82457685062E+03  0.13143795107E+04  0.22747502258E+03  0.15682045073E+04  0.10100000352E+00 0. -1.
</event>
<event>
 5   0  0.9329929E-08  0.3200105E+04  0.7818609E-02  0.8188789E-01
       -2   -1    0    0    0  501  0.00000000000E+00  0.00000000000E+00  0.12317729295E+04  0.12317729295E+04  0.25500000920E-02 0.  1.
        2   -1    0    0  501    0  0.00000000000E+00  0.00000000000E+00 -0.20784418554E+04  0.20784418554E+04  0.25500000920E-02 0. -1.
    10030    2    1    2    0    0  0.00000000000E+00  0.00000000000E+00 -0.84666892587E+03  0.33102147850E+04  0.32001052565E+04 0.  0.
        1    1    3    3  502    0 -0.99197222739E+03  0.12532262269E+04 -0.50062861343E+03  0.16748772744E+04  0.50400001928E-02 0. -1.
       -1    1    3    3    0  502  0.99197222739E+03 -0.12532262269E+04 -0.34604031245E+03  0.16353375106E+04  0.50400001928E-02 0.  1.
</event>
<event>
 5   0  0.9727083E-08  0.3201100E+04  0.7818609E-02  0.8188527E-01
       -2   -1    0    0    0  501  0.00000000000E+00  0.00000000000E+00  0.12310047385E+04  0.12310047385E+04  0.25500000920E-02 0.  1.
        2   -1    0    0  501    0  0.00000000000E+00  0.00000000000E+00 -0.20810321840E+04  0.20810321840E+04  0.25500000920E-02 0. -1.
    10030    2    1    2    0    0  0.00000000000E+00  0.00000000000E+00 -0.85002744558E+03  0.33120369225E+04  0.32011001106E+04 0.  0.
        4    1    3    3  502    0  0.11663073836E+04  0.10768408514E+04 -0.63680181975E+03  0.17103734396E+04  0.12699999809E+01 0.  1.
       -4    1    3    3    0  502 -0.11663073836E+04 -0.10768408514E+04 -0.21322562583E+03  0.16016634830E+04  0.12699999809E+01 0. -1.
</event>
<event>
 5   0  0.3343140E-08  0.3201489E+04  0.7818609E-02  0.8188424E-01
        1   -1    0    0  501    0  0.00000000000E+00  0.00000000000E+00  0.11092998924E+04  0.11092998924E+04  0.50400001928E-02 0. -1.
       -1   -1    0    0    0  501  0.00000000000E+00  0.00000000000E+00 -0.23099095273E+04  0.23099095273E+04  0.50400001928E-02 0.  1.
    10030    2    1    2    0    0  0.00000000000E+00  0.00000000000E+00 -0.12006096349E+04  0.34192094197E+04  0.32014886476E+04 0.  0.
        1    1    3    3  502    0  0.12539783422E+04  0.90082453300E+03 -0.14916120345E+03  0.15511916666E+04  0.50400001928E-02 0.  1.
       -1    1    3    3    0  502 -0.12539783422E+04 -0.90082453300E+03 -0.10514484315E+04  0.18680177531E+04  0.50400001928E-02 0. -1.
</event>
<event>
 5   0  0.9329929E-08  0.3198115E+04  0.7818609E-02  0.8189315E-01
       -2   -1    0    0    0  501  0.00000000000E+00  0.00000000000E+00  0.13583796102E+04  0.13583796102E+04  0.25500000920E-02 0. -1.
        2   -1    0    0  501    0  0.00000000000E+00  0.00000000000E+00 -0.18823787379E+04  0.18823787379E+04  0.25500000920E-02 0.  1.
    10030    2    1    2    0    0  0.00000000000E+00  0.00000000000E+00 -0.52399912774E+03  0.32407583481E+04  0.31981150050E+04 0.  0.
        1    1    3    3  502    0 -0.13380983434E+04  0.36690629898E+03  0.54349412036E+03  0.14901386740E+04  0.50400001928E-02 0. -1.
       -1    1    3    3    0  502  0.13380983434E+04 -0.36690629898E+03 -0.10674932481E+04  0.17506196741E+04  0.50400001928E-02 0.  1.
</event>
<event>
 5   0  0.9727083E-08  0.3201152E+04  0.7818609E-02  0.8188513E-01
        2   -1    0    0  501    0  0.00000000000E+00  0.00000000000E+00  0.15771506117E+04  0.15771506117E+04  0.25500000920E-02 0. -1.
       -2   -1    0    0    0  501  0.00000000000E+00  0.00000000000E+00 -0.16243493637E+04  0.16243493637E+04  0.25500000920E-02 0.  1.
    10030    2    1    2    0    0  0.00000000000E+00  0.00000000000E+00 -0.47198752031E+02  0.32014999753E+04  0.32011520379E+04 0.  0.
        4    1    3    3  502    0 -0.19213364207E+03 -0.97988491331E+03  0.12274371415E+04  0.15823063323E+04  0.12699999809E+01 0. -1.
       -4    1    3    3    0  502  0.19213364207E+03  0.97988491331E+03 -0.12746358936E+04  0.16191936431E+04  0.12699999809E+01 0.  1.
</event>
<event>
 5   0  0.9157524E-08  0.3200253E+04  0.7818609E-02  0.8188750E-01
       -2   -1    0    0    0  501  0.00000000000E+00  0.00000000000E+00  0.14305097289E+04  0.14305097289E+04  0.25500000920E-02 0. -1.
        2   -1    0    0  501    0  0.00000000000E+00  0.00000000000E+00 -0.17898549475E+04  0.17898549475E+04  0.25500000920E-02 0.  1.
    10030    2    1    2    0    0  0.00000000000E+00  0.00000000000E+00 -0.35934521853E+03  0.32203646764E+04  0.32002530623E+04 0.  0.
        5    1    3    3  502    0 -0.89388969629E+03 -0.45745650874E+03 -0.14333259003E+04  0.17500715623E+04  0.46999998093E+01 0.  1.
       -5    1    3    3    0  502  0.89388969629E+03  0.45745650874E+03  0.10739806818E+04  0.14702931141E+04  0.46999998093E+01 0. -1.
</event>
<event>
 5   0  0.9329929E-08  0.3198634E+04  0.7818609E-02  0.8189178E-01
       -2   -1    0    0    0  501  0.00000000000E+00  0.00000000000E+00  0.11590373839E+04  0.11590373839E+04  0.25500000920E-02 0. -1.
        2   -1    0    0  501    0  0.00000000000E+00  0.00000000000E+00 -0.22068442866E+04  0.22068442866E+04  0.25500000920E-02 0.  1.
    10030    2    1    2    0    0  0.00000000000E+00  0.00000000000E+00 -0.10478069027E+04  0.33658816704E+04  0.31986341013E+04 0.  0.
        1    1    3    3  502    0  0.14107704078E+03 -0.32288540350E+03 -0.21654907881E+04  0.21939708450E+04  0.50400001928E-02 0.  1.
       -1    1    3    3    0  502 -0.14107704078E+03  0.32288540350E+03  0.11176838854E+04  0.11719108255E+04  0.50400001928E-02 0. -1.
</event>
<event>
 5   0  0.9157524E-08  0.3201130E+04  0.7818609E-02  0.8188519E-01
        2   -1    0    0  501    0  0.00000000000E+00  0.00000000000E+00  0.26270156020E+04  0.26270156020E+04  0.25500000920E-02 0. -1.
       -2   -1    0    0    0  501  0.00000000000E+00  0.00000000000E+00 -0.97517794402E+03  0.97517794402E+03  0.25500000920E-02 0.  1.
    10030    2    1    2    0    0  0.00000000000E+00  0.00000000000E+00  0.16518376580E+04  0.36021935460E+04  0.32011295967E+04 0.  0.
        5    1    3    3  502    0 -0.21796272273E+03  0.11456890279E+02 -0.95834505048E+03  0.98289690945E+03  0.46999998093E+01 0.  1.
       -5    1    3    3    0  502  0.21796272273E+03 -0.11456890279E+02  0.26101827085E+04  0.26192966366E+04  0.46999998093E+01 0. -1.
</event>
<event>
 5   0  0.9329929E-08  0.3199739E+04  0.7818609E-02  0.8188886E-01
       -2   -1    0    0    0  501  0.00000000000E+00  0.00000000000E+00  0.11160633591E+04  0.11160633591E+04  0.25500000920E-02 0. -1.
        2   -1    0    0  501    0  0.00000000000E+00  0.00000000000E+00 -0.22934024530E+04  0.22934024530E+04  0.25500000920E-02 0.  1.
    10030    2    1    2    0    0  0.00000000000E+00  0.00000000000E+00 -0.11773390939E+04  0.34094658121E+04  0.31997390177E+04 0.  0.
        1    1    3    3  502    0 -0.19082009953E+01  0.87004472565E+03 -0.20192806266E+04  0.21987441222E+04  0.50400001928E-02 0.  1.
       -1    1    3    3    0  502  0.19082009953E+01 -0.87004472565E+03  0.84194153271E+03  0.12107216899E+04  0.50400001928E-02 0. -1.
</event>
<event>
 5   0  0.3220147E-08  0.3200083E+04  0.7818609E-02  0.8188795E-01
        1   -1    0    0  501    0  0.00000000000E+00  0.00000000000E+00  0.14880914229E+04  0.14880914229E+04  0.50400001928E-02 0.  1.
       -1   -1    0    0    0  501  0.00000000000E+00  0.00000000000E+00 -0.17204134433E+04  0.17204134434E+04  0.50400001928E-02 0. -1.
    10030    2    1    2    0    0  0.00000000000E+00  0.00000000000E+00 -0.23232202046E+03  0.32085048663E+04  0.32000828045E+04 0.  0.
        4    1    3    3  502    0  0.84768693623E+03 -0.12671517709E+04 -0.60311826664E+03  0.16395121252E+04  0.12699999809E+01 0. -1.
       -4    1    3    3    0  502 -0.84768693623E+03  0.12671517709E+04  0.37079624619E+03  0.15689927410E+04  0.12699999809E+01 0.  1.
</event>
<event>
 5   0  0.3270966E-08  0.3199534E+04  0.7818609E-02  0.8188940E-01
       -1   -1    0    0    0  501  0.00000000000E+00  0.00000000000E+00  0.12600070283E+04  0.12600070283E+04  0.50400001928E-02 0.  1.
        1   -1    0    0  501    0  0.00000000000E+00  0.00000000000E+00 -0.20311434475E+04  0.20311434475E+04  0.50400001928E-02 0. -1.
    10030    2    1    2    0    0  0.00000000000E+00  0.00000000000E+00 -0.77113641923E+03  0.32911504758E+04  0.31995343532E+04 0.  0.
        3    1    3    3  502    0 -0.17927087630E+01 -0.15617585067E+04 -0.74213823252E+03  0.17291217462E+04  0.10100000352E+00 0. -1.
       -3    1    3    3    0  502  0.17927087630E+01  0.15617585067E+04 -0.28998186711E+02  0.15620287296E+04  0.10100000352E+00 0.  1.
</event>
<event>
 5   0  0.9329929E-08  0.3199633E+04  0.7818609E-02  0.8188914E-01
       -2   -1    0    0    0  501  0.00000000000E+00  0.00000000000E+00  0.13905859407E+04  0.13905859407E+04  0.25500000920E-02 0. -1.
        2   -1    0    0  501    0  0.00000000000E+00  0.00000000000E+00 -0.18405278622E+04  0.18405278622E+04  0.25500000920E-02 0.  1.
    10030    2    1    2    0    0  0.00000000000E+00  0.00000000000E+00 -0.44994192147E+03  0.32311138029E+04  0.31996325843E+04 0.  0.
        1    1    3    3  502    0  0.78078899971E+03 -0.12255589895E+04  0.45078103367E+03  0.15214564861E+04  0.50400001928E-02 0. -1.
       -1    1    3    3    0  502 -0.78078899971E+03  0.12255589895E+04 -0.90072295515E+03  0.17096573168E+04  0.50400001928E-02 0.  1.
</event>
<event>
 5   0  0.3427667E-08  0.3176630E+04  0.7818609E-02  0.8195017E-01
       -1   -1    0    0    0  501  0.00000000000E+00  0.00000000000E+00  0.15303624338E+04  0.15303624338E+04  0.50400001928E-02 0. -1.
        1   -1    0    0  501    0  0.00000000000E+00  0.00000000000E+00 -0.16484617307E+04  0.16484617307E+04  0.50400001928E-02 0.  1.
    10030    2    1    2    0    0  0.00000000000E+00  0.00000000000E+00 -0.11809929697E+03  0.31788241645E+04  0.31766296015E+04 0.  0.
        2    1    3    3  502    0 -0.23910835560E+03 -0.28074596347E+03  0.14869295566E+04  0.15319760468E+04  0.25500000920E-02 0. -1.
       -2    1    3    3    0  502  0.23910835560E+03  0.28074596347E+03 -0.16050288536E+04  0.16468481177E+04  0.25500000920E-02 0.  1.
</event>
<event>
 5   0  0.9353994E-08  0.3199380E+04  0.7818609E-02  0.8188981E-01
       -2   -1    0    0    0  501  0.00000000000E+00  0.00000000000E+00  0.16429343712E+04  0.16429343712E+04  0.25500000920E-02 0.  1.
        2   -1    0    0  501    0  0.00000000000E+00  0.00000000000E+00 -0.15575842971E+04  0.15575842971E+04  0.25500000920E-02 0. -1.
    10030    2    1    2    0    0  0.00000000000E+00  0.00000000000E+00  0.85350074106E+02  0.32005186683E+04  0.31993804262E+04 0.  0.
        2    1    3    3  502    0  0.63590340933E+02  0.60083251704E+03 -0.14390559448E+04  0.15607451609E+04  0.25500000920E-02 0. -1.
       -2    1    3    3    0  502 -0.63590340933E+02 -0.60083251704E+03  0.15244060189E+04  0.16397735074E+04  0.25500000920E-02 0.  1.
</event>
<event>
 5   0  0.3220147E-08  0.3210038E+04  0.7818609E-02  0.8186171E-01
       -1   -1    0    0    0  501  0.00000000000E+00  0.00000000000E+00  0.19375143068E+04  0.19375143069E+04  0.50400001928E-02 0.  1.
        1   -1    0    0  501    0  0.00000000000E+00  0.00000000000E+00 -0.13295827381E+04  0.13295827382E+04  0.50400001928E-02 0. -1.
    10030    2    1    2    0    0  0.00000000000E+00  0.00000000000E+00  0.60793156870E+03  0.32670970450E+04  0.32100377427E+04 0.  0.
        4    1    3    3  502    0 -0.85631436561E+03  0.12242469961E+04  0.90093151390E+03  0.17446301058E+04  0.12699999809E+01 0.  1.
       -4    1    3    3    0  502  0.85631436561E+03 -0.12242469961E+04 -0.29299994521E+03  0.15224669392E+04  0.12699999809E+01 0. -1.
</event>
<event>
 5   0  0.9157524E-08  0.3201245E+04  0.7818609E-02  0.8188488E-01
        2   -1    0    0  501    0  0.00000000000E+00  0.00000000000E+00  0.20387456870E+04  0.20387456870E+04  0.25500000920E-02 0.  1.
       -2   -1    0    0    0  501  0.00000000000E+00  0.00000000000E+00 -0.12566515286E+04  0.12566515286E+04  0.25500000920E-02 0. -1.
    10030    2    1    2    0    0  0.00000000000E+00  0.00000000000E+00  0.78209415845E+03  0.32953972156E+04  0.32012453102E+04 0.  0.
        5    1    3    3  502    0  0.14979552328E+03  0.11657432186E+03 -0.12450178953E+04  0.12594125301E+04  0.46999998093E+01 0. -1.
       -5    1    3    3    0  502 -0.14979552328E+03 -0.11657432186E+03  0.20271120538E+04  0.20359846856E+04  0.46999998093E+01 0.  1.
</event>
<event>
 5   0  0.3343140E-08  0.3200251E+04  0.7818609E-02  0.8188751E-01
        1   -1    0    0  501    0  0.00000000000E+00  0.00000000000E+00  0.16908355777E+04  0.16908355777E+04  0.50400001928E-02 0.  1.
       -1   -1    0    0    0  501  0.00000000000E+00  0.00000000000E+00 -0.15142823007E+04  0.15142823007E+04  0.50400001928E-02 0. -1.
    10030    2    1    2    0    0  0.00000000000E+00  0.00000000000E+00  0.17655327696E+03  0.32051178784E+04  0.32002514831E+04 0.  0.
        1    1    3    3  502    0 -0.14373400652E+04 -0.19822166482E+03  0.76396104795E+03  0.16397788797E+04  0.50400001928E-02 0.  1.
       -1    1    3    3    0  502  0.14373400652E+04  0.19822166482E+03 -0.58740777099E+03  0.15653389987E+04  0.50400001928E-02 0. -1.
</event>
<event>
 5   0  0.9329929E-08  0.3199111E+04  0.7818609E-02  0.8189052E-01
       -2   -1    0    0    0  501  0.00000000000E+00  0.00000000000E+00  0.16313671359E+04  0.16313671359E+04  0.25500000920E-02 0. -1.
        2   -1    0    0  501    0  0.00000000000E+00  0.00000000000E+00 -0.15683645218E+04  0.15683645218E+04  0.25500000920E-02 0.  1.
    10030    2    1    2    0    0  0.00000000000E+00  0.00000000000E+00  0.63002614039E+02  0.31997316577E+04  0.31991113378E+04 0.  0.
        1    1    3    3  502    0  0.12605081015E+04  0.76108834816E+03 -0.59347358951E+03  0.15875600931E+04  0.50400001928E-02 0.  1.
       -1    1    3    3    0  502 -0.12605081015E+04 -0.76108834816E+03  0.65647620355E+03  0.16121715646E+04  0.50400001928E-02 0. -1.
</event>
<event>
 5   0  0.3427667E-08  0.3200575E+04  0.7818609E-02  0.8188665E-01
       -1   -1    0    0    0  501  0.00000000000E+00  0.00000000000E+00  0.17524240995E+04  0.17524240995E+04  0.50400001928E-02 0.  1.
        1   -1    0    0  501    0  0.00000000000E+00  0.00000000000E+00 -0.14613583608E+04  0.14613583608E+04  0.50400001928E-02 0. -1.
    10030    2    1    2    0    0  0.00000000000E+00  0.00000000000E+00  0.29106573871E+03  0.32137824604E+04  0.32005747044E+04 0.  0.
        2    1    3    3  502    0  0.43420532214E+03  0.98521993611E+03  0.13343641699E+04  0.17145612623E+04  0.25500000920E-02 0.  1.
       -2    1    3    3    0  502 -0.43420532214E+03 -0.98521993611E+03 -0.10432984312E+04  0.14992211981E+04  0.25500000920E-02 0. -1.
</event>
<event>
 5   0  0.3427667E-08  0.3202116E+04  0.7818609E-02  0.8188259E-01
        1   -1    0    0  501    0  0.00000000000E+00  0.00000000000E+00  0.20870685698E+04  0.20870685698E+04  0.50400001928E-02 0. -1.
       -1   -1    0    0    0  501  0.00000000000E+00  0.00000000000E+00 -0.12282232374E+04  0.12282232374E+04  0.50400001928E-02 0.  1.
    10030    2    1    2    0    0  0.00000000000E+00  0.00000000000E+00  0.85884533241E+03  0.33152918072E+04  0.32021156229E+04 0.  0.
        2    1    3    3  502    0 -0.14104152675E+04  0.75663214162E+03  0.38771627081E+03  0.16468416230E+04  0.25500000920E-02 0. -1.
       -2    1    3    3    0  502  0.14104152675E+04 -0.75663214162E+03  0.47112906161E+03  0.16684501842E+04  0.25500000920E-02 0.  1.
</event>
<event>
 5   0  0.3283581E-08  0.3208959E+04  0.7818609E-02  0.8186455E-01
        1   -1    0    0  501    0  0.00000000000E+00  0.00000000000E+00  0.13730026410E+04  0.13730026410E+04  0.50400001928E-02 0.  1.
       -1   -1    0    0    0  501  0.00000000000E+00  0.00000000000E+00 -0.18749819663E+04  0.18749819664E+04  0.50400001928E-02 0. -1.
    10030    2    1    2    0    0  0.00000000000E+00  0.00000000000E+00 -0.50197932531E+03  0.32479846074E+04  0.32089594524E+04 0.  0.
        5    1    3    3  502    0 -0.12928083220E+03  0.11347335474E+03 -0.18656148699E+04  0.18735342721E+04  0.46999998093E+01 0. -1.
       -5    1    3    3    0  502  0.12928083220E+03 -0.11347335474E+03  0.13636355446E+04  0.13744503353E+04  0.46999998093E+01 0.  1.
</event>
<event>
 5   0  0.3283581E-08  0.3200137E+04  0.7818609E-02  0.8188781E-01
        1   -1    0    0  501    0  0.00000000000E+00  0.00000000000E+00  0.24483010537E+04  0.24483010537E+04  0.50400001928E-02 0. -1.
       -1   -1    0    0    0  501  0.00000000000E+00  0.00000000000E+00 -0.10457122636E+04  0.10457122636E+04  0.50400001928E-02 0.  1.
    10030    2    1    2    0    0  0.00000000000E+00  0.00000000000E+00  0.14025887901E+04  0.34940133173E+04  0.32001365201E+04 0.  0.
        5    1    3    3  502    0 -0.46008684277E+03 -0.11986065478E+04  0.17438994922E+04  0.21655357508E+04  0.46999998093E+01 0. -1.
       -5    1    3    3    0  502  0.46008684277E+03  0.11986065478E+04 -0.34131070205E+03  0.13284775665E+04  0.46999998093E+01 0.  1.
</event>
<event>
 5   0  0.3220147E-08  0.3200471E+04  0.7818609E-02  0.8188693E-01
        1   -1    0    0  501    0  0.00000000000E+00  0.00000000000E+00  0.23275608084E+04  0.23275608084E+04  0.50400001928E-02 0. -1.
       -1   -1    0    0    0  501  0.00000000000E+00  0.00000000000E+00 -0.11001876837E+04  0.11001876837E+04  0.50400001928E-02 0.  1.
    10030    2    1    2    0    0  0.00000000000E+00  0.00000000000E+00  0.12273731247E+04  0.34277484922E+04  0.32004710494E+04 0.  0.
        4    1    3    3  502    0 -0.12756918936E+04 -0.44838742751E+03 -0.30283530834E+03  0.13856954678E+04  0.12699999809E+01 0.  1.
       -4    1    3    3    0  502  0.12756918936E+04  0.44838742751E+03  0.15302084331E+04  0.20420530243E+04  0.12699999809E+01 0. -1.
</event>
<event>
 5   0  0.9727083E-08  0.3200041E+04  0.7818609E-02  0.8188806E-01
       -2   -1    0    0    0  501  0.00000000000E+00  0.00000000000E+00  0.14797704815E+04  0.14797704815E+04  0.25500000920E-02 0.  1.
        2   -1    0    0  501    0  0.00000000000E+00  0.00000000000E+00 -0.17300424684E+04  0.17300424684E+04  0.25500000920E-02 0. -1.
    10030    2    1    2    0    0  0.00000000000E+00  0.00000000000E+00 -0.25027198696E+03  0.32098129499E+04  0.32000411100E+04 0.  0.
        4    1    3    3  502    0 -0.80545614702E+03 -0.66078951366E+03  0.10929287675E+04  0.15099328760E+04  0.12699999809E+01 0.  1.
       -4    1    3    3    0  502  0.80545614702E+03  0.66078951366E+03 -0.13432007545E+04  0.16998800740E+04  0.12699999809E+01 0. -1.
</event>
<event>
 5   0  0.9329929E-08  0.3200502E+04  0.7818609E-02  0.8188685E-01
       -2   -1    0    0    0  501  0.00000000000E+00  0.00000000000E+00  0.10272503718E+04  0.10272503718E+04  0.25500000920E-02 0.  1.
        2   -1    0    0  501    0  0.00000000000E+00  0.00000000000E+00 -0.24928722201E+04  0.24928722201E+04  0.25500000920E-02 0. -1.
    10030    2    1    2    0    0  0.00000000000E+00  0.00000000000E+00 -0.14656218482E+04  0.35201225919E+04  0.32005024074E+04 0.  0.
        1    1    3    3  502    0  0.74974877023E+03 -0.69010533005E+02  0.82026720437E+03  0.11134289195E+04  0.50400001928E-02 0.  1.
       -1    1    3    3    0  502 -0.74974877023E+03  0.69010533005E+02 -0.22858890526E+04  0.24066936724E+04  0.50400001928E-02 0. -1.
</event>
<event>
 5   0  0.9157524E-08  0.3200708E+04  0.7818609E-02  0.8188630E-01
       -2   -1    0    0    0  501  0.00000000000E+00  0.00000000000E+00  0.19754270227E+04  0.19754270227E+04  0.25500000920E-02 0.  1.
        2   -1    0    0  501    0  0.00000000000E+00  0.00000000000E+00 -0.12964959398E+04  0.12964959398E+04  0.25500000920E-02 0. -1.
    10030    2    1    2    0    0  0.00000000000E+00  0.00000000000E+00  0.67893108286E+03  0.32719229625E+04  0.32007081181E+04 0.  0.
        5    1    3    3  502    0  0.19906715738E+03 -0.20243235856E+03 -0.12705386323E+04  0.13018821372E+04  0.46999998093E+01 0. -1.
       -5    1    3    3    0  502 -0.19906715738E+03  0.20243235856E+03  0.19494697152E+04  0.19700408253E+04  0.46999998093E+01 0.  1.
</event>
<event>
 5   0  0.9353994E-08  0.3200019E+04  0.7818609E-02  0.8188812E-01
        2   -1    0    0  501    0  0.00000000000E+00  0.00000000000E+00  0.12848731929E+04  0.12848731929E+04  0.25500000920E-02 0. -1.
       -2   -1    0    0    0  501  0.00000000000E+00  0.00000000000E+00 -0.19924376022E+04  0.19924376022E+04  0.25500000920E-02 0.  1.
    10030    2    1    2    0    0  0.00000000000E+00  0.00000000000E+00 -0.70756440932E+03  0.32773107952E+04  0.32000185398E+04 0.  0.
        2    1    3    3  502    0  0.25560461946E+02 -0.14624242593E+04  0.31049149908E+03  0.14952401220E+04  0.25500000920E-02 0. -1.
       -2    1    3    3    0  502 -0.25560461946E+02  0.14624242593E+04 -0.10180559084E+04  0.17820706732E+04  0.25500000920E-02 0.  1.
</event>
<event>
 5   0  0.3427667E-08  0.3200861E+04  0.7818609E-02  0.8188590E-01
       -1   -1    0    0    0  501  0.00000000000E+00  0.00000000000E+00  0.29090552118E+04  0.29090552118E+04  0.50400001928E-02 0. -1.
        1   -1    0    0  501    0  0.00000000000E+00  0.00000000000E+00 -0.88048460574E+03  0.88048460575E+03  0.50400001928E-02 0.  1.
    10030    2    1    2    0    0  0.00000000000E+00  0.00000000000E+00  0.20285706060E+04  0.37895398175E+04  0.32008613411E+04 0.  0.
        2    1    3    3  502    0  0.15318142347E+04 -0.40788542215E+03  0.12751573149E+04  0.20344167579E+04  0.25500000920E-02 0. -1.
       -2    1    3    3    0  502 -0.15318142347E+04  0.40788542215E+03  0.75341329116E+03  0.17551230596E+04  0.25500000920E-02 0.  1.
</event>
<event>
 5   0  0.3343140E-08  0.3190033E+04  0.7818609E-02  0.8191454E-01
        1   -1    0    0  501    0  0.00000000000E+00  0.00000000000E+00  0.13129056220E+04  0.13129056220E+04  0.50400001928E-02 0.  1.
       -1   -1    0    0    0  501  0.00000000000E+00  0.00000000000E+00 -0.19377460641E+04  0.19377460642E+04  0.50400001928E-02 0. -1.
    10030    2    1    2    0    0  0.00000000000E+00  0.00000000000E+00 -0.62484044213E+03  0.32506516862E+04  0.31900330416E+04 0.  0.
        1    1    3    3  502    0 -0.95241922741E+03  0.68945348710E+02 -0.16142819180E+04  0.18755697686E+04  0.50400001928E-02 0. -1.
       -1    1    3    3    0  502  0.95241922741E+03 -0.68945348710E+02  0.98944147591E+03  0.13750819176E+04  0.50400001928E-02 0.  1.
</event>
<event>
 5   0  0.9157524E-08  0.3198995E+04  0.7818609E-02  0.8189083E-01
        2   -1    0    0  501    0  0.00000000000E+00  0.00000000000E+00  0.13439110788E+04  0.13439110788E+04  0.25500000920E-02 0.  1.
       -2   -1    0    0    0  501  0.00000000000E+00  0.00000000000E+00 -0.19036913598E+04  0.19036913598E+04  0.25500000920E-02 0. -1.
    10030    2    1    2    0    0  0.00000000000E+00  0.00000000000E+00 -0.55978028095E+03  0.32476024386E+04  0.31989947853E+04 0.  0.
        5    1    3    3  502    0 -0.44026426262E+03  0.10174339586E+04  0.89061008611E+03  0.14220453215E+04  0.46999998093E+01 0.  1.
       -5    1    3    3    0  502  0.44026426262E+03 -0.10174339586E+04 -0.14503903671E+04  0.18255571171E+04  0.46999998093E+01 0. -1.
</event>
<event>
 5   0  0.9329929E-08  0.3198099E+04  0.7818609E-02  0.8189319E-01
       -2   -1    0    0    0  501  0.00000000000E+00  0.00000000000E+00  0.21204535759E+04  0.21204535759E+04  0.25500000920E-02 0. -1.
        2   -1    0    0  501    0  0.00000000000E+00  0.00000000000E+00 -0.12058547841E+04  0.12058547841E+04  0.25500000920E-02 0.  1.
    10030    2    1    2    0    0  0.00000000000E+00  0.00000000000E+00  0.91459879179E+03  0.33263083600E+04  0.31980988659E+04 0.  0.
        1    1    3    3  502    0 -0.11684898496E+04 -0.44060690799E+02 -0.67713682198E+03  0.13512306053E+04  0.50400001928E-02 0.  1.
       -1    1    3    3    0  502  0.11684898496E+04  0.44060690799E+02  0.15917356138E+04  0.19750777547E+04  0.50400001928E-02 0. -1.
</event>
<event>
 5   0  0.3283581E-08  0.3199590E+04  0.7818609E-02  0.8188925E-01
       -1   -1    0    0    0  501  0.00000000000E+00  0.00000000000E+00  0.11257649599E+04  0.11257649599E+04  0.50400001928E-02 0.  1.
        1   -1    0    0  501    0  0.00000000000E+00  0.00000000000E+00 -0.22734267203E+04  0.22734267203E+04  0.50400001928E-02 0. -1.
    10030    2    1    2    0    0  0.00000000000E+00  0.00000000000E+00 -0.11476617605E+04  0.33991916802E+04  0.31995900616E+04 0.  0.
        5    1    3    3  502    0  0.86062150597E+03  0.43583042874E+03 -0.19296522216E+04  0.21573588773E+04  0.46999998093E+01 0. -1.
       -5    1    3    3    0  502 -0.86062150597E+03 -0.43583042874E+03  0.78199046113E+03  0.12418328029E+04  0.46999998093E+01 0.  1.
</event>
<event>
 5   0  0.3270966E-08  0.3200035E+04  0.7818609E-02  0.8188808E-01
        1   -1    0    0  501    0  0.00000000000E+00  0.00000000000E+00  0.15617936482E+04  0.15617936482E+04  0.50400001928E-02 0. -1.
       -1   -1    0    0    0  501  0.00000000000E+00  0.00000000000E+00 -0.16391771938E+04  0.16391771938E+04  0.50400001928E-02 0.  1.
    10030    2    1    2    0    0  0.00000000000E+00  0.00000000000E+00 -0.77383545630E+02  0.32009708420E+04  0.32000353308E+04 0.  0.
        3    1    3    3  502    0  0.33678068720E+03 -0.15553640293E+04 -0.20450520076E+03  0.16044939646E+04  0.10100000352E+00 0. -1.
       -3    1    3    3    0  502 -0.33678068720E+03  0.15553640293E+04  0.12712165513E+03  0.15964768775E+04  0.10100000352E+00 0.  1.
</event>
<event>
 5   0  0.9157524E-08  0.3199860E+04  0.7818609E-02  0.8188854E-01
       -2   -1    0    0    0  501  0.00000000000E+00  0.00000000000E+00  0.12032449301E+04  0.12032449301E+04  0.25500000920E-02 0.  1.
        2   -1    0    0  501    0  0.00000000000E+00  0.00000000000E+00 -0.21273937214E+04  0.21273937214E+04  0.25500000920E-02 0. -1.
    10030    2    1    2    0    0  0.00000000000E+00  0.00000000000E+00 -0.92414879130E+03  0.33306386515E+04  0.31998598154E+04 0.  0.
        5    1    3    3  502    0 -0.93720390995E+03  0.12896934832E+04 -0.60208273327E+03  0.17041672914E+04  0.46999998093E+01 0. -1.
       -5    1    3    3    0  502  0.93720390995E+03 -0.12896934832E+04 -0.32206605804E+03  0.16264713601E+04  0.46999998093E+01 0.  1.
</event>
<event>
 5   0  0.3270966E-08  0.3199557E+04  0.7818609E-02  0.8188934E-01
        1   -1    0    0  501    0  0.00000000000E+00  0.00000000000E+00  0.18758276497E+04  0.18758276497E+04  0.50400001928E-02 0. -1.
       -1   -1    0    0    0  501  0.00000000000E+00  0.00000000000E+00 -0.13643527961E+04  0.13643527961E+04  0.50400001928E-02 0.  1.
    10030    2    1    2    0    0  0.00000000000E+00  0.00000000000E+00  0.51147485364E+03  0.32401804458E+04  0.31995566561E+04 0.  0.
        3    1    3    3  502    0 -0.87820113506E+03 -0.31756383926E+03 -0.10596798234E+04  0.14124465880E+04  0.10100000352E+00 0.  1.
       -3    1    3    3    0  502  0.87820113506E+03  0.31756383926E+03  0.15711546770E+04  0.18277338578E+04  0.10100000352E+00 0. -1.
</event>
<event>
 5   0  0.9157524E-08  0.3201456E+04  0.7818609E-02  0.8188433E-01
        2   -1    0    0  501    0  0.00000000000E+00  0.00000000000E+00  0.19656886986E+04  0.19656886986E+04  0.25500000920E-02 0. -1.
       -2   -1    0    0    0  501  0.00000000000E+00  0.00000000000E+00 -0.13035280669E+04  0.13035280669E+04  0.25500000920E-02 0.  1.
    10030    2    1    2    0    0  0.00000000000E+00  0.00000000000E+00  0.66216063166E+03  0.32692167655E+04  0.32014561620E+04 0.  0.
        5    1    3    3  502    0 -0.89326584417E+03 -0.39513815735E+03  0.16260898752E+04  0.18969049539E+04  0.46999998093E+01 0. -1.
       -5    1    3    3    0  502  0.89326584417E+03  0.39513815735E+03 -0.96392924353E+03  0.13723118116E+04  0.46999998093E+01 0.  1.
</event>
<event>
 5   0  0.3427667E-08  0.3199555E+04  0.7818609E-02  0.8188935E-01
        1   -1    0    0  501    0  0.00000000000E+00  0.00000000000E+00  0.18564716048E+04  0.18564716048E+04  0.50400001928E-02 0.  1.
       -1   -1    0    0    0  501  0.00000000000E+00  0.00000000000E+00 -0.13785760864E+04  0.13785760864E+04  0.50400001928E-02 0. -1.
    10030    2    1    2    0    0  0.00000000000E+00  0.00000000000E+00  0.47789551834E+03  0.32350476912E+04  0.31995545687E+04 0.  0.
        2    1    3    3  502    0 -0.15489663008E+03 -0.76156792161E+03 -0.11748875763E+04  0.14086658519E+04  0.25500000920E-02 0. -1.
       -2    1    3    3    0  502  0.15489663008E+03  0.76156792161E+03  0.16527830946E+04  0.18263818394E+04  0.25500000920E-02 0.  1.
</event>
<event>
 5   0  0.9329929E-08  0.3199864E+04  0.7818609E-02  0.8188853E-01
       -2   -1    0    0    0  501  0.00000000000E+00  0.00000000000E+00  0.12350277060E+04  0.12350277060E+04  0.25500000920E-02 0. -1.
        2   -1    0    0  501    0  0.00000000000E+00  0.00000000000E+00 -0.20726512777E+04  0.20726512777E+04  0.25500000920E-02 0.  1.
    10030    2    1    2    0    0  0.00000000000E+00  0.00000000000E+00 -0.83762357170E+03  0.33076789837E+04  0.31998635926E+04 0.  0.
        1    1    3    3  502    0 -0.83699455944E+03  0.50237174860E+03 -0.17291361374E+04  0.19856608593E+04  0.50400001928E-02 0.  1.
       -1    1    3    3    0  502  0.83699455944E+03 -0.50237174860E+03  0.89151256573E+03  0.13220181244E+04  0.50400001928E-02 0. -1.
</event>
<event>
 5   0  0.3427667E-08  0.3200620E+04  0.7818609E-02  0.8188653E-01
       -1   -1    0    0    0  501  0.00000000000E+00  0.00000000000E+00  0.19307938815E+04  0.19307938815E+04  0.50400001928E-02 0. -1.
        1   -1    0    0  501    0  0.00000000000E+00  0.00000000000E+00 -0.13263933835E+04  0.13263933835E+04  0.50400001928E-02 0.  1.
    10030    2    1    2    0    0  0.00000000000E+00  0.00000000000E+00  0.60440049799E+03  0.32571872650E+04  0.32006200832E+04 0.  0.
        2    1    3    3  502    0  0.74343167559E+03  0.12359857561E+04 -0.40333531741E+03  0.14976751396E+04  0.25500000920E-02 0.  1.
       -2    1    3    3    0  502 -0.74343167559E+03 -0.12359857561E+04  0.10077358154E+04  0.17595121253E+04  0.25500000920E-02 0. -1.
</event>
<event>
 5   0  0.9727083E-08  0.3199745E+04  0.7818609E-02  0.8188884E-01
       -2   -1    0    0    0  501  0.00000000000E+00  0.00000000000E+00  0.10038039586E+04  0.10038039586E+04  0.25500000920E-02 0. -1.
        2   -1    0    0  501    0  0.00000000000E+00  0.00000000000E+00 -0.25498928329E+04  0.25498928329E+04  0.25500000920E-02 0.  1.
    10030    2    1    2    0    0  0.00000000000E+00  0.00000000000E+00 -0.15460888743E+04  0.35536967914E+04  0.31997453146E+04 0.  0.
        4    1    3    3  502    0  0.77380335327E+03  0.39673749676E+03  0.71842114210E+03  0.11279640159E+04  0.12699999809E+01 0. -1.
       -4    1    3    3    0  502 -0.77380335327E+03 -0.39673749676E+03 -0.22645100164E+04  0.24257327755E+04  0.12699999809E+01 0.  1.
</event>
<event>
 5   0  0.3220147E-08  0.3199739E+04  0.7818609E-02  0.8188886E-01
        1   -1    0    0  501    0  0.00000000000E+00  0.00000000000E+00  0.96586268026E+03  0.96586268027E+03  0.50400001928E-02 0. -1.
       -1   -1    0    0    0  501  0.00000000000E+00  0.00000000000E+00 -0.26500483275E+04  0.26500483275E+04  0.50400001928E-02 0.  1.
    10030    2    1    2    0    0  0.00000000000E+00  0.00000000000E+00 -0.16841856472E+04  0.36159110077E+04  0.31997392271E+04 0.  0.
        4    1    3    3  502    0  0.91525670525E+03  0.10003907198E+04 -0.18017195227E+04  0.22549215685E+04  0.12699999809E+01 0.  1.
       -4    1    3    3    0  502 -0.91525670525E+03 -0.10003907198E+04  0.11753387550E+03  0.13609894392E+04  0.12699999809E+01 0. -1.
</event>
<event>
 5   0  0.3427667E-08  0.3199091E+04  0.7818609E-02  0.8189057E-01
       -1   -1    0    0    0  501  0.00000000000E+00  0.00000000000E+00  0.14936251864E+04  0.14936251864E+04  0.50400001928E-02 0.  1.
        1   -1    0    0  501    0  0.00000000000E+00  0.00000000000E+00 -0.17129767697E+04  0.17129767697E+04  0.50400001928E-02 0. -1.
    10030    2    1    2    0    0  0.00000000000E+00  0.00000000000E+00 -0.21935158337E+03  0.32066019561E+04  0.31990906501E+04 0.  0.
        2    1    3    3  502    0 -0.74331465110E+03  0.14163336815E+04 -0.10442145131E+03  0.16029415484E+04  0.25500000920E-02 0. -1.
       -2    1    3    3    0  502  0.74331465110E+03 -0.14163336815E+04 -0.11493013206E+03  0.16036604077E+04  0.25500000920E-02 0.  1.
</event>
<event>
 5   0  0.3283581E-08  0.3199519E+04  0.7818609E-02  0.8188944E-01
       -1   -1    0    0    0  501  0.00000000000E+00  0.00000000000E+00  0.32386065173E+04  0.32386065173E+04  0.50400001928E-02 0. -1.
        1   -1    0    0  501    0  0.00000000000E+00  0.00000000000E+00 -0.79022564525E+03  0.79022564527E+03  0.50400001928E-02 0.  1.
    10030    2    1    2    0    0  0.00000000000E+00  0.00000000000E+00  0.24483808721E+04  0.40288321626E+04  0.31995186669E+04 0.  0.
        5    1    3    3  502    0  0.14562875240E+03 -0.61447131428E+03  0.30750102272E+04  0.31391866330E+04  0.46999998093E+01 0. -1.
       -5    1    3    3    0  502 -0.14562875240E+03  0.61447131428E+03 -0.62662935512E+03  0.88964552957E+03  0.46999998093E+01 0.  1.
</event>
<event>
 5   0  0.3427667E-08  0.3199657E+04  0.7818609E-02  0.8188908E-01
        1   -1    0    0  501    0  0.00000000000E+00  0.00000000000E+00  0.14349738105E+04  0.14349738105E+04  0.50400001928E-02 0.  1.
       -1   -1    0    0    0  501  0.00000000000E+00  0.00000000000E+00 -0.17836227422E+04  0.17836227422E+04  0.50400001928E-02 0. -1.
    10030    2    1    2    0    0  0.00000000000E+00  0.00000000000E+00 -0.34864893171E+03  0.32185965528E+04  0.31996574335E+04 0.  0.
        2    1    3    3  502    0 -0.13820225394E+04  0.72401005440E+03  0.18171273332E+03  0.15707311596E+04  0.25500000920E-02 0. -1.
       -2    1    3    3    0  502  0.13820225394E+04 -0.72401005440E+03 -0.53036166503E+03  0.16478653932E+04  0.25500000920E-02 0.  1.
</event>
<event>
 5   0  0.3270966E-08  0.3199276E+04  0.7818609E-02  0.8189008E-01
        1   -1    0    0  501    0  0.00000000000E+00  0.00000000000E+00  0.19433853625E+04  0.19433853625E+04  0.50400001928E-02 0. -1.
       -1   -1    0    0    0  501  0.00000000000E+00  0.00000000000E+00 -0.13166929262E+04  0.13166929262E+04  0.50400001928E-02 0.  1.
    10030    2    1    2    0    0  0.00000000000E+00  0.00000000000E+00  0.62669243633E+03  0.32600782887E+04  0.31992760179E+04 0.  0.
        3    1    3    3  502    0 -0.33132596737E+03  0.15591444938E+04  0.45056537460E+03  0.16564171022E+04  0.10100000352E+00 0. -1.
       -3    1    3    3    0  502  0.33132596737E+03 -0.15591444938E+04  0.17612706173E+03  0.16036611866E+04  0.10100000352E+00 0.  1.
</event>
<event>
 5   0  0.3283581E-08  0.3199908E+04  0.7818609E-02  0.8188841E-01
        1   -1    0    0  501    0  0.00000000000E+00  0.00000000000E+00  0.23333737619E+04  0.23333737619E+04  0.50400001928E-02 0.  1.
       -1   -1    0    0    0  501  0.00000000000E+00  0.00000000000E+00 -0.10970609214E+04  0.10970609215E+04  0.50400001928E-02 0. -1.
    10030    2    1    2    0    0  0.00000000000E+00  0.00000000000E+00  0.12363128405E+04  0.34304346834E+04  0.31999082295E+04 0.  0.
        5    1    3    3  502    0  0.10317079347E+04  0.14420797790E+03  0.19199759708E+04  0.21843871044E+04  0.46999998093E+01 0.  1.
       -5    1    3    3    0  502 -0.10317079347E+04 -0.14420797790E+03 -0.68366313031E+03  0.12460475790E+04  0.46999998093E+01 0. -1.
</event>
<event>
 5   0  0.3283581E-08  0.3199691E+04  0.7818609E-02  0.8188899E-01
       -1   -1    0    0    0  501  0.00000000000E+00  0.00000000000E+00  0.11412232293E+04  0.11412232293E+04  0.50400001928E-02 0.  1.
        1   -1    0    0  501    0  0.00000000000E+00  0.00000000000E+00 -0.22427734605E+04  0.22427734605E+04  0.50400001928E-02 0. -1.
    10030    2    1    2    0    0  0.00000000000E+00  0.00000000000E+00 -0.11015502312E+04  0.33839966898E+04  0.31996907170E+04 0.  0.
        5    1    3    3  502    0  0.32854184100E+03  0.14940460057E+04 -0.55427108611E+02  0.15307538870E+04  0.46999998093E+01 0.  1.
       -5    1    3    3    0  502 -0.32854184100E+03 -0.14940460057E+04 -0.10461231226E+04  0.18532428027E+04  0.46999998093E+01 0. -1.
</event>
<event>
 5   0  0.3283581E-08  0.3200297E+04  0.7818609E-02  0.8188739E-01
       -1   -1    0    0    0  501  0.00000000000E+00  0.00000000000E+00  0.95256938828E+03  0.95256938830E+03  0.50400001928E-02 0.  1.
        1   -1    0    0  501    0  0.00000000000E+00  0.00000000000E+00 -0.26879679161E+04  0.26879679161E+04  0.50400001928E-02 0. -1.
    10030    2    1    2    0    0  0.00000000000E+00  0.00000000000E+00 -0.17353985278E+04  0.36405373044E+04  0.32002974572E+04 0.  0.
        5    1    3    3  502    0 -0.44965890509E+03  0.92698307890E+03  0.52504253791E+03  0.11563660822E+04  0.46999998093E+01 0.  1.
       -5    1    3    3    0  502  0.44965890509E+03 -0.92698307890E+03 -0.22604410657E+04  0.24841712221E+04  0.46999998093E+01 0. -1.
</event>
<event>
 5   0  0.9727083E-08  0.3195919E+04  0.7818609E-02  0.8189896E-01
        2   -1    0    0  501    0  0.00000000000E+00  0.00000000000E+00  0.25316989004E+04  0.25316989004E+04  0.25500000920E-02 0. -1.
       -2   -1    0    0    0  501  0.00000000000E+00  0.00000000000E+00 -0.10086010616E+04  0.10086010617E+04  0.25500000920E-02 0.  1.
    10030    2    1    2    0    0  0.00000000000E+00  0.00000000000E+00  0.15230978388E+04  0.35402999621E+04  0.31959187717E+04 0.  0.
        4    1    3    3  502    0 -0.92346873444E+00 -0.80223204082E+03  0.22924570476E+04  0.24287729470E+04  0.12699999809E+01 0. -1.
       -4    1    3    3    0  502  0.92346873444E+00  0.80223204082E+03 -0.76935920883E+03  0.11115270151E+04  0.12699999809E+01 0.  1.
</event>
<event>
 5   0  0.3220147E-08  0.3192075E+04  0.7818609E-02  0.8190913E-01
       -1   -1    0    0    0  501  0.00000000000E+00  0.00000000000E+00  0.10395618896E+04  0.10395618896E+04  0.50400001928E-02 0. -1.
        1   -1    0    0  501    0  0.00000000000E+00  0.00000000000E+00 -0.24503937882E+04  0.24503937882E+04  0.50400001928E-02 0.  1.
    10030    2    1    2    0    0  0.00000000000E+00  0.00000000000E+00 -0.14108318986E+04  0.34899556778E+04  0.31920751850E+04 0.  0.
        4    1    3    3  502    0 -0.66017563902E+03  0.13384162606E+04 -0.86801913409E+02  0.14949000455E+04  0.12699999809E+01 0. -1.
       -4    1    3    3    0  502  0.66017563902E+03 -0.13384162606E+04 -0.13240299852E+04  0.19950556322E+04  0.12699999809E+01 0.  1.
</event>
<event>
 5   0  0.9707721E-08  0.3199093E+04  0.7818609E-02  0.8189057E-01
       -2   -1    0    0    0  501  0.00000000000E+00  0.00000000000E+00  0.11051734137E+04  0.11051734137E+04  0.25500000920E-02 0.  1.
        2   -1    0    0  501    0  0.00000000000E+00  0.00000000000E+00 -0.23150653217E+04  0.23150653217E+04  0.25500000920E-02 0. -1.
    10030    2    1    2    0    0  0.00000000000E+00  0.00000000000E+00 -0.12098919080E+04  0.34202387354E+04  0.31990927742E+04 0.  0.
        3    1    3    3  502    0  0.15889714235E+04 -0.93089182577E+02 -0.43572342300E+03  0.16502577654E+04  0.10100000352E+00 0.  1.
       -3    1    3    3    0  502 -0.15889714235E+04  0.93089182577E+02 -0.77416848503E+03  0.17699809700E+04  0.10100000352E+00 0. -1.
</event>
<event>
 5   0  0.9329929E-08  0.3199824E+04  0.7818609E-02  0.8188864E-01
        2   -1    0    0  501    0  0.00000000000E+00  0.00000000000E+00  0.14076660402E+04  0.14076660402E+04  0.25500000920E-02 0. -1.
       -2   -1    0    0    0  501  0.00000000000E+00  0.00000000000E+00 -0.18184136489E+04  0.18184136489E+04  0.25500000920E-02 0.  1.
    10030    2    1    2    0    0  0.00000000000E+00  0.00000000000E+00 -0.41074760868E+03  0.32260796891E+04  0.31998244580E+04 0.  0.
        1    1    3    3  502    0 -0.44481724232E+03 -0.11925288634E+04  0.77197788788E+03  0.14886024750E+04  0.50400001928E-02 0. -1.
       -1    1    3    3    0  502  0.44481724232E+03  0.11925288634E+04 -0.11827254966E+04  0.17374772141E+04  0.50400001928E-02 0.  1.
</event>
<event>
 5   0  0.3220147E-08  0.3206116E+04  0.7818609E-02  0.8187204E-01
        1   -1    0    0  501    0  0.00000000000E+00  0.00000000000E+00  0.15858980546E+04  0.15858980546E+04  0.50400001928E-02 0. -1.
       -1   -1    0    0    0  501  0.00000000000E+00  0.00000000000E+00 -0.16204040226E+04  0.16204040226E+04  0.50400001928E-02 0.  1.
    10030    2    1    2    0    0  0.00000000000E+00  0.00000000000E+00 -0.34505967973E+02  0.32063020772E+04  0.32061163966E+04 0.  0.
        4    1    3    3  502    0 -0.94022741604E+03 -0.70053687499E+03 -0.11104834667E+04  0.16149162981E+04  0.12699999809E+01 0.  1.
       -4    1    3    3    0  502  0.94022741604E+03  0.70053687499E+03  0.10759774988E+04  0.15913857791E+04  0.12699999809E+01 0. -1.
</event>
<event>
 5   0  0.9329929E-08  0.3199886E+04  0.7818609E-02  0.8188847E-01
        2   -1    0    0  501    0  0.00000000000E+00  0.00000000000E+00  0.12646452058E+04  0.12646452058E+04  0.25500000920E-02 0.  1.
       -2   -1    0    0    0  501  0.00000000000E+00  0.00000000000E+00 -0.20241394891E+04  0.20241394891E+04  0.25500000920E-02 0. -1.
    10030    2    1    2    0    0  0.00000000000E+00  0.00000000000E+00 -0.75949428335E+03  0.32887846949E+04  0.31998864360E+04 0.  0.
        1    1    3    3  502    0 -0.90112272428E+03 -0.59286412067E+03  0.83473611683E+03  0.13639261030E+04  0.50400001928E-02 0.  1.
       -1    1    3    3    0  502  0.90112272428E+03  0.59286412067E+03 -0.15942304002E+04  0.19248585919E+04  0.50400001928E-02 0. -1.
</event>
<event>
 5   0  0.9707721E-08  0.3200097E+04  0.7818609E-02  0.8188792E-01
        2   -1    0    0  501    0  0.00000000000E+00  0.00000000000E+00  0.14849225620E+04  0.14849225620E+04  0.25500000920E-02 0.  1.
       -2   -1    0    0    0  501  0.00000000000E+00  0.00000000000E+00 -0.17241003780E+04  0.17241003780E+04  0.25500000920E-02 0. -1.
    10030    2    1    2    0    0  0.00000000000E+00  0.00000000000E+00 -0.23917781608E+03  0.32090229400E+04  0.32000972175E+04 0.  0.
        3    1    3    3  502    0  0.13725666900E+04 -0.37738576453E+03  0.61306250404E+03  0.15499048287E+04  0.10100000352E+00 0. -1.
       -3    1    3    3    0  502 -0.13725666900E+04  0.37738576453E+03 -0.85224032012E+03  0.16591181113E+04  0.10100000352E+00 0.  1.
</event>
<event>
 5   0  0.3427667E-08  0.3197658E+04  0.7818609E-02  0.8189436E-01
       -1   -1    0    0    0  501  0.00000000000E+00  0.00000000000E+00  0.13597122924E+04  0.13597122924E+04  0.50400001928E-02 0. -1.
        1   -1    0    0  501    0  0.00000000000E+00  0.00000000000E+00 -0.18799962680E+04  0.18799962680E+04  0.50400001928E-02 0.  1.
    10030    2    1    2    0    0  0.00000000000E+00  0.00000000000E+00 -0.52028397564E+03  0.32397085604E+04  0.31976579150E+04 0.  0.
        2    1    3    3  502    0 -0.70955320324E+03  0.45308246719E+03  0.11169618937E+04  0.13986970159E+04  0.25500000920E-02 0. -1.
       -2    1    3    3    0  502  0.70955320324E+03 -0.45308246719E+03 -0.16372458694E+04  0.18410115445E+04  0.25500000920E-02 0.  1.
</event>
<event>
 5   0  0.9707721E-08  0.3201759E+04  0.7818609E-02  0.8188353E-01
        2   -1    0    0  501    0  0.00000000000E+00  0.00000000000E+00  0.21998472124E+04  0.21998472124E+04  0.25500000920E-02 0. -1.
       -2   -1    0    0    0  501  0.00000000000E+00  0.00000000000E+00 -0.11649971820E+04  0.11649971820E+04  0.25500000920E-02 0.  1.
    10030    2    1    2    0    0  0.00000000000E+00  0.00000000000E+00  0.10348500304E+04  0.33648443943E+04  0.32017593933E+04 0.  0.
        3    1    3    3  502    0 -0.92166601866E+03 -0.60323548199E+03  0.17382556405E+04  0.20578858031E+04  0.10100000352E+00 0. -1.
       -3    1    3    3    0  502  0.92166601866E+03  0.60323548199E+03 -0.70340561008E+03  0.13069585912E+04  0.10100000352E+00 0.  1.
</event>
<event>
 5   0  0.3343140E-08  0.3199857E+04  0.7818609E-02  0.8188855E-01
        1   -1    0    0  501    0  0.00000000000E+00  0.00000000000E+00  0.24606296306E+04  0.24606296306E+04  0.50400001928E-02 0.  1.
       -1   -1    0    0    0  501  0.00000000000E+00  0.00000000000E+00 -0.10402913851E+04  0.10402913851E+04  0.50400001928E-02 0. -1.
    10030    2    1    2    0    0  0.00000000000E+00  0.00000000000E+00  0.14203382456E+04  0.35009210157E+04  0.31998573759E+04 0.  0.
        1    1    3    3  502    0 -0.10135357044E+04 -0.10906562418E+04  0.13509211364E+04  0.20104162700E+04  0.50400001928E-02 0.  1.
       -1    1    3    3    0  502  0.10135357044E+04  0.10906562418E+04  0.69417109225E+02  0.14905047457E+04  0.50400001928E-02 0. -1.
</event>
<event>
 5   0  0.3427667E-08  0.3194065E+04  0.7818609E-02  0.8190386E-01
       -1   -1    0    0    0  501  0.00000000000E+00  0.00000000000E+00  0.27867439749E+04  0.27867439749E+04  0.50400001928E-02 0. -1.
        1   -1    0    0  501    0  0.00000000000E+00  0.00000000000E+00 -0.91523012069E+03  0.91523012070E+03  0.50400001928E-02 0.  1.
    10030    2    1    2    0    0  0.00000000000E+00  0.00000000000E+00  0.18715138542E+04  0.37019740956E+04  0.31940645106E+04 0.  0.
        2    1    3    3  502    0 -0.14206993777E+04 -0.32507693630E+02  0.17803839746E+04  0.22779838825E+04  0.25500000920E-02 0. -1.
       -2    1    3    3    0  502  0.14206993777E+04  0.32507693630E+02  0.91129879569E+02  0.14239902131E+04  0.25500000920E-02 0.  1.
</event>
<event>
 5   0  0.3343140E-08  0.3201347E+04  0.7818609E-02  0.8188462E-01
        1   -1    0    0  501    0  0.00000000000E+00  0.00000000000E+00  0.16668367517E+04  0.16668367517E+04  0.50400001928E-02 0.  1.
       -1   -1    0    0    0  501  0.00000000000E+00  0.00000000000E+00 -0.15371361367E+04  0.15371361367E+04  0.50400001928E-02 0. -1.
    10030    2    1    2    0    0  0.00000000000E+00  0.00000000000E+00  0.12970061498E+03  0.32039728884E+04  0.32013465948E+04 0.  0.
        1    1    3    3  502    0 -0.33773921670E+03 -0.15645308021E+04  0.46653099163E+02  0.16012497996E+04  0.50400001928E-02 0. -1.
       -1    1    3    3    0  502  0.33773921670E+03  0.15645308021E+04  0.83047515819E+02  0.16027230887E+04  0.50400001928E-02 0.  1.
</event>
<event>
 5   0  0.9329929E-08  0.3199673E+04  0.7818609E-02  0.8188904E-01
       -2   -1    0    0    0  501  0.00000000000E+00  0.00000000000E+00  0.13158899425E+04  0.13158899425E+04  0.25500000920E-02 0.  1.
        2   -1    0    0  501    0  0.00000000000E+00  0.00000000000E+00 -0.19450537578E+04  0.19450537578E+04  0.25500000920E-02 0. -1.
    10030    2    1    2    0    0  0.00000000000E+00  0.00000000000E+00 -0.62916381535E+03  0.32609437003E+04  0.31996729067E+04 0.  0.
        1    1    3    3  502    0 -0.13084758266E+04 -0.81228016551E+03 -0.75596715160E+03  0.17156323588E+04  0.50400001928E-02 0. -1.
       -1    1    3    3    0  502  0.13084758266E+04  0.81228016551E+03  0.12680333625E+03  0.15453113415E+04  0.50400001928E-02 0.  1.
</event>
<event>
 5   0  0.3343140E-08  0.3200164E+04  0.7818609E-02  0.8188774E-01
        1   -1    0    0  501    0  0.00000000000E+00  0.00000000000E+00  0.17346409949E+04  0.17346409949E+04  0.50400001928E-02 0. -1.
       -1   -1    0    0    0  501  0.00000000000E+00  0.00000000000E+00 -0.14759611016E+04  0.14759611016E+04  0.50400001928E-02 0.  1.
    10030    2    1    2    0    0  0.00000000000E+00  0.00000000000E+00  0.25867989333E+03  0.32106020965E+04  0.32001641419E+04 0.  0.
        1    1    3    3  502    0 -0.13861834855E+04  0.26691349756E+02 -0.67204295560E+03  0.15407332079E+04  0.50400001928E-02 0.  1.
       -1    1    3    3    0  502  0.13861834855E+04 -0.26691349756E+02  0.93072284893E+03  0.16698688887E+04  0.50400001928E-02 0. -1.
</event>
<event>
 5   0  0.3220147E-08  0.3199321E+04  0.7818609E-02  0.8188997E-01
       -1   -1    0    0    0  501  0.00000000000E+00  0.00000000000E+00  0.13148419022E+04  0.13148419023E+04  0.50400001928E-02 0. -1.
        1   -1    0    0  501    0  0.00000000000E+00  0.00000000000E+00 -0.19461759472E+04  0.19461759472E+04  0.50400001928E-02 0.  1.
    10030    2    1    2    0    0  0.00000000000E+00  0.00000000000E+00 -0.63133404493E+03  0.32610178494E+04  0.31993209808E+04 0.  0.
        4    1    3    3  502    0 -0.11373289962E+04  0.46408070559E+03 -0.13601345904E+04  0.18327181627E+04  0.12699999809E+01 0.  1.
       -4    1    3    3    0  502  0.11373289962E+04 -0.46408070559E+03  0.72880054551E+03  0.14282996867E+04  0.12699999809E+01 0. -1.
</event>
<event>
 5   0  0.9353994E-08  0.3204200E+04  0.7818609E-02  0.8187709E-01
       -2   -1    0    0    0  501  0.00000000000E+00  0.00000000000E+00  0.11194800965E+04  0.11194800965E+04  0.25500000920E-02 0.  1.
        2   -1    0    0  501    0  0.00000000000E+00  0.00000000000E+00 -0.22927827544E+04  0.22927827544E+04  0.25500000920E-02 0. -1.
    10030    2    1    2    0    0  0.00000000000E+00  0.00000000000E+00 -0.11733026579E+04  0.34122628509E+04  0.32042001555E+04 0.  0.
        2    1    3    3  502    0  0.68818732960E+03  0.30313391344E+03 -0.20931599975E+04  0.22241426990E+04  0.25500000920E-02 0. -1.
       -2    1    3    3    0  502 -0.68818732960E+03 -0.30313391344E+03  0.91985733962E+03  0.11881201519E+04  0.25500000920E-02 0.  1.
</event>
<event>
 5   0  0.9353994E-08  0.3198892E+04  0.7818609E-02  0.8189110E-01
       -2   -1    0    0    0  501  0.00000000000E+00  0.00000000000E+00  0.16399399512E+04  0.16399399512E+04  0.25500000920E-02 0. -1.
        2   -1    0    0  501    0  0.00000000000E+00  0.00000000000E+00 -0.15599515955E+04  0.15599515955E+04  0.25500000920E-02 0.  1.
    10030    2    1    2    0    0  0.00000000000E+00  0.00000000000E+00  0.79988355677E+02  0.31998915467E+04  0.31988916477E+04 0.  0.
        2    1    3    3  502    0 -0.14488649843E+04  0.48301389232E+03 -0.43524882203E+03  0.15880660251E+04  0.25500000920E-02 0.  1.
       -2    1    3    3    0  502  0.14488649843E+04 -0.48301389232E+03  0.51523717771E+03  0.16118255217E+04  0.25500000920E-02 0. -1.
</event>
<event>
 5   0  0.9157524E-08  0.3203884E+04  0.7818609E-02  0.8187792E-01
        2   -1    0    0  501    0  0.00000000000E+00  0.00000000000E+00  0.12734840134E+04  0.12734840134E+04  0.25500000920E-02 0.  1.
       -2   -1    0    0    0  501  0.00000000000E+00  0.00000000000E+00 -0.20151167498E+04  0.20151167498E+04  0.25500000920E-02 0. -1.
    10030    2    1    2    0    0  0.00000000000E+00  0.00000000000E+00 -0.74163273646E+03  0.32886007632E+04  0.32038844961E+04 0.  0.
        5    1    3    3  502    0 -0.69564865338E+03 -0.58285020241E+03  0.98414716837E+03  0.13387341582E+04  0.46999998093E+01 0.  1.
       -5    1    3    3    0  502  0.69564865338E+03  0.58285020241E+03 -0.17257799048E+04  0.19498666050E+04  0.46999998093E+01 0. -1.
</event>
<event>
 5   0  0.9329929E-08  0.3200525E+04  0.7818609E-02  0.8188679E-01
       -2   -1    0    0    0  501  0.00000000000E+00  0.00000000000E+00  0.12038211738E+04  0.12038211738E+04  0.25500000920E-02 0. -1.
        2   -1    0    0  501    0  0.00000000000E+00  0.00000000000E+00 -0.21272590786E+04  0.21272590786E+04  0.25500000920E-02 0.  1.
    10030    2    1    2    0    0  0.00000000000E+00  0.00000000000E+00 -0.92343790485E+03  0.33310802524E+04  0.32005246576E+04 0.  0.
        1    1    3    3  502    0 -0.15972002972E+04  0.81815901481E+02 -0.51963871787E+03  0.16815965712E+04  0.50400001928E-02 0. -1.
       -1    1    3    3    0  502  0.15972002972E+04 -0.81815901481E+02 -0.40379918698E+03  0.16494836812E+04  0.50400001928E-02 0.  1.
</event>
<event>
 5   0  0.3270966E-08  0.3200405E+04  0.7818609E-02  0.8188710E-01
       -1   -1    0    0    0  501  0.00000000000E+00  0.00000000000E+00  0.14019454471E+04  0.14019454471E+04  0.50400001928E-02 0.  1.
        1   -1    0    0  501    0  0.00000000000E+00  0.00000000000E+00 -0.18264965851E+04  0.18264965851E+04  0.50400001928E-02 0. -1.
    10030    2    1    2    0    0  0.00000000000E+00  0.00000000000E+00 -0.42455113801E+03  0.32284420322E+04  0.32004053316E+04 0.  0.
        3    1    3    3  502    0 -0.15579089398E+04 -0.14202886857E+02 -0.58066868526E+03  0.16626659673E+04  0.10100000352E+00 0. -1.
       -3    1    3    3    0  502  0.15579089398E+04  0.14202886857E+02  0.15611754725E+03  0.15657760649E+04  0.10100000352E+00 0.  1.
</event>
<event>
 5   0  0.9727083E-08  0.3201736E+04  0.7818609E-02  0.8188359E-01
       -2   -1    0    0    0  501  0.00000000000E+00  0.00000000000E+00  0.11203068462E+04  0.11203068463E+04  0.25500000920E-02 0. -1.
        2   -1    0    0  501    0  0.00000000000E+00  0.00000000000E+00 -0.22875688490E+04  0.22875688490E+04  0.25500000920E-02 0.  1.
    10030    2    1    2    0    0  0.00000000000E+00  0.00000000000E+00 -0.11672620028E+04  0.34078756953E+04  0.32017364306E+04 0.  0.
        4    1    3    3  502    0 -0.37583521795E+03  0.11504309020E+04  0.53170590493E+03  0.13219138223E+04  0.12699999809E+01 0. -1.
       -4    1    3    3    0  502  0.37583521795E+03 -0.11504309020E+04 -0.16989679077E+04  0.20859618730E+04  0.12699999809E+01 0.  1.
</event>
<event>
 5   0  0.9157524E-08  0.3192368E+04  0.7818609E-02  0.8190836E-01
        2   -1    0    0  501    0  0.00000000000E+00  0.00000000000E+00  0.15575130645E+04  0.15575130645E+04  0.25500000920E-02 0. -1.
       -2   -1    0    0    0  501  0.00000000000E+00  0.00000000000E+00 -0.16358148617E+04  0.16358148617E+04  0.25500000920E-02 0.  1.
    10030    2    1    2    0    0  0.00000000000E+00  0.00000000000E+00 -0.78301797259E+02  0.31933279262E+04  0.31923677847E+04 0.  0.
        5    1    3    3  502    0 -0.16730209505E+02 -0.12504300513E+04  0.95307773345E+03  0.15723340831E+04  0.46999998093E+01 0. -1.
       -5    1    3    3    0  502  0.16730209505E+02  0.12504300513E+04 -0.10313795307E+04  0.16209938431E+04  0.46999998093E+01 0.  1.
</event>
<event>
 5   0  0.9707721E-08  0.3201206E+04  0.7818609E-02  0.8188499E-01
        2   -1    0    0  501    0  0.00000000000E+00  0.00000000000E+00  0.14041172537E+04  0.14041172537E+04  0.25500000920E-02 0.  1.
       -2   -1    0    0    0  501  0.00000000000E+00  0.00000000000E+00 -0.18245842619E+04  0.18245842619E+04  0.25500000920E-02 0. -1.
    10030    2    1    2    0    0  0.00000000000E+00  0.00000000000E+00 -0.42046700818E+03  0.32287015155E+04  0.32012061745E+04 0.  0.
        3    1    3    3  502    0  0.42684621601E+03 -0.63913666204E+03  0.12058330268E+04  0.14299393915E+04  0.10100000352E+00 0.  1.
       -3    1    3    3    0  502 -0.42684621601E+03  0.63913666204E+03 -0.16263000349E+04  0.17987621240E+04  0.10100000352E+00 0. -1.
</event>
<event>
 5   0  0.3343140E-08  0.3200714E+04  0.7818609E-02  0.8188629E-01
        1   -1    0    0  501    0  0.00000000000E+00  0.00000000000E+00  0.18587923775E+04  0.18587923775E+04  0.50400001928E-02 0.  1.
       -1   -1    0    0    0  501  0.00000000000E+00  0.00000000000E+00 -0.13778525247E+04  0.13778525247E+04  0.50400001928E-02 0. -1.
    10030    2    1    2    0    0  0.00000000000E+00  0.00000000000E+00  0.48093985281E+03  0.32366449022E+04  0.32007135269E+04 0.  0.
        1    1    3    3  502    0  0.89996691795E+03 -0.10984730664E+04  0.98669599441E+03  0.17292057473E+04  0.50400001928E-02 0.  1.
       -1    1    3    3    0  502 -0.89996691795E+03  0.10984730664E+04 -0.50575614161E+03  0.15074391549E+04  0.50400001928E-02 0. -1.
</event>
<event>
 5   0  0.3427667E-08  0.3199995E+04  0.7818609E-02  0.8188818E-01
       -1   -1    0    0    0  501  0.00000000000E+00  0.00000000000E+00  0.14273864989E+04  0.14273864989E+04  0.50400001928E-02 0.  1.
        1   -1    0    0  501    0  0.00000000000E+00  0.00000000000E+00 -0.17934822739E+04  0.17934822739E+04  0.50400001928E-02 0. -1.
    10030    2    1    2    0    0  0.00000000000E+00  0.00000000000E+00 -0.36609577495E+03  0.32208687728E+04  0.31999952399E+04 0.  0.
        2    1    3    3  502    0 -0.13669309871E+04 -0.35313659133E+03 -0.94081104967E+03  0.16965645307E+04  0.25500000920E-02 0. -1.
       -2    1    3    3    0  502  0.13669309871E+04  0.35313659133E+03  0.57471527472E+03  0.15243042421E+04  0.25500000920E-02 0.  1.
</event>
<event>
 5   0  0.3427667E-08  0.3199419E+04  0.7818609E-02  0.8188971E-01
       -1   -1    0    0    0  501  0.00000000000E+00  0.00000000000E+00  0.92893874012E+03  0.92893874013E+03  0.50400001928E-02 0.  1.
        1   -1    0    0  501    0  0.00000000000E+00  0.00000000000E+00 -0.27548321890E+04  0.27548321890E+04  0.50400001928E-02 0. -1.
    10030    2    1    2    0    0  0.00000000000E+00  0.00000000000E+00 -0.18258934489E+04  0.36837709292E+04  0.31994189116E+04 0.  0.
        2    1    3    3  502    0 -0.13141435531E+03  0.62263349124E+03  0.77693876315E+03  0.10042788651E+04  0.25500000920E-02 0.  1.
       -2    1    3    3    0  502  0.13141435531E+03 -0.62263349124E+03 -0.26028322121E+04  0.26794920641E+04  0.25500000920E-02 0. -1.
</event>
<event>
 5   0  0.9353994E-08  0.3201991E+04  0.7818609E-02  0.8188291E-01
        2   -1    0    0  501    0  0.00000000000E+00  0.00000000000E+00  0.24300926034E+04  0.24300926034E+04  0.25500000920E-02 0. -1.
       -2   -1    0    0    0  501  0.00000000000E+00  0.00000000000E+00 -0.10547692728E+04  0.10547692728E+04  0.25500000920E-02 0.  1.
    10030    2    1    2    0    0  0.00000000000E+00  0.00000000000E+00  0.13753233306E+04  0.34848618762E+04  0.32019912605E+04 0.  0.
        2    1    3    3  502    0 -0.76862243805E+03  0.13757637491E+04  0.99487629639E+03  0.18636751838E+04  0.25500000920E-02 0. -1.
       -2    1    3    3    0  502  0.76862243805E+03 -0.13757637491E+04  0.38044703426E+03  0.16211866924E+04  0.25500000920E-02 0.  1.
</event>
<event>
 5   0  0.9727083E-08  0.3199943E+04  0.7818609E-02  0.8188832E-01
        2   -1    0    0  501    0  0.00000000000E+00  0.00000000000E+00  0.15461675367E+04  0.15461675367E+04  0.25500000920E-02 0. -1.
       -2   -1    0    0    0  501  0.00000000000E+00  0.00000000000E+00 -0.16556475006E+04  0.16556475006E+04  0.25500000920E-02 0.  1.
    10030    2    1    2    0    0  0.00000000000E+00  0.00000000000E+00 -0.10947996389E+03  0.32018150372E+04  0.31999427604E+04 0.  0.
        4    1    3    3  502    0  0.26240198545E+03 -0.21730248202E+03  0.15094506163E+04  0.15474230018E+04  0.12699999809E+01 0. -1.
       -4    1    3    3    0  502 -0.26240198545E+03  0.21730248202E+03 -0.16189305801E+04  0.16543920354E+04  0.12699999809E+01 0.  1.
</event>
<event>
 5   0  0.9157524E-08  0.3201905E+04  0.7818609E-02  0.8188314E-01
        2   -1    0    0  501    0  0.00000000000E+00  0.00000000000E+00  0.25312432127E+04  0.25312432127E+04  0.25500000920E-02 0.  1.
       -2   -1    0    0    0  501  0.00000000000E+00  0.00000000000E+00 -0.10125655430E+04  0.10125655430E+04  0.25500000920E-02 0. -1.
    10030    2    1    2    0    0  0.00000000000E+00  0.00000000000E+00  0.15186776697E+04  0.35438087557E+04  0.32019054690E+04 0.  0.
        5    1    3    3  502    0  0.71554315354E+03  0.86178686066E+03  0.20253092871E+04  0.23144283087E+04  0.46999998093E+01 0.  1.
       -5    1    3    3    0  502 -0.71554315354E+03 -0.86178686066E+03 -0.50663161737E+03  0.12293804470E+04  0.46999998093E+01 0. -1.
</event>
<event>
 5   0  0.3343140E-08  0.3201413E+04  0.7818609E-02  0.8188444E-01
        1   -1    0    0  501    0  0.00000000000E+00  0.00000000000E+00  0.26078786227E+04  0.26078786227E+04  0.50400001928E-02 0. -1.
       -1   -1    0    0    0  501  0.00000000000E+00  0.00000000000E+00 -0.98250784055E+03  0.98250784056E+03  0.50400001928E-02 0.  1.
    10030    2    1    2    0    0  0.00000000000E+00  0.00000000000E+00  0.16253707822E+04  0.35903864633E+04  0.32014129343E+04 0.  0.
        1    1    3    3  502    0 -0.48884944166E+03 -0.67174790470E+03  0.23471515549E+04  0.24898472736E+04  0.50400001928E-02 0. -1.
       -1    1    3    3    0  502  0.48884944166E+03  0.67174790470E+03 -0.72178077275E+03  0.11005391897E+04  0.50400001928E-02 0.  1.
</event>
<event>
 5   0  0.3220147E-08  0.3200034E+04  0.7818609E-02  0.8188808E-01
        1   -1    0    0  501    0  0.00000000000E+00  0.00000000000E+00  0.17781899450E+04  0.17781899450E+04  0.50400001928E-02 0. -1.
       -1   -1    0    0    0  501  0.00000000000E+00  0.00000000000E+00 -0.14396971270E+04  0.14396971270E+04  0.50400001928E-02 0.  1.
    10030    2    1    2    0    0  0.00000000000E+00  0.00000000000E+00  0.33849281800E+03  0.32178870720E+04  0.32000343467E+04 0.  0.
        4    1    3    3  502    0  0.13819390664E+03 -0.10589134595E+04  0.13673877053E+04  0.17349772391E+04  0.12699999809E+01 0. -1.
       -4    1    3    3    0  502 -0.13819390664E+03  0.10589134595E+04 -0.10288948873E+04  0.14829098329E+04  0.12699999809E+01 0.  1.
</event>
<event>
 5   0  0.9353994E-08  0.3199623E+04  0.7818609E-02  0.8188917E-01
        2   -1    0    0  501    0  0.00000000000E+00  0.00000000000E+00  0.22256448763E+04  0.22256448763E+04  0.25500000920E-02 0.  1.
       -2   -1    0    0    0  501  0.00000000000E+00  0.00000000000E+00 -0.11499576122E+04  0.11499576122E+04  0.25500000920E-02 0. -1.
    10030    2    1    2    0    0  0.00000000000E+00  0.00000000000E+00  0.10756872640E+04  0.33756024885E+04  0.31996232701E+04 0.  0.
        2    1    3    3  502    0  0.95922842814E+03  0.98299318053E+03  0.14033311116E+04  0.19636020419E+04  0.25500000920E-02 0.  1.
       -2    1    3    3    0  502 -0.95922842814E+03 -0.98299318053E+03 -0.32764384753E+03  0.14120004466E+04  0.25500000920E-02 0. -1.
</event>
<event>
 5   0  0.9329929E-08  0.3202249E+04  0.7818609E-02  0.8188223E-01
        2   -1    0    0  501    0  0.00000000000E+00  0.00000000000E+00  0.71306880856E+03  0.71306880856E+03  0.25500000920E-02 0.  1.
       -2   -1    0    0    0  501  0.00000000000E+00  0.00000000000E+00 -0.35951648503E+04  0.35951648503E+04  0.25500000920E-02 0. -1.
    10030    2    1    2    0    0  0.00000000000E+00  0.00000000000E+00 -0.28820960418E+04  0.43082336589E+04  0.32022491573E+04 0.  0.
        1    1    3    3  502    0 -0.11548937441E+03  0.13368559685E+04 -0.26162937026E+04  0.29403255627E+04  0.50400001928E-02 0. -1.
       -1    1    3    3    0  502  0.11548937441E+03 -0.13368559685E+04 -0.26580233917E+03  0.13679080962E+04  0.50400001928E-02 0.  1.
</event>
<event>
 5   0  0.9329929E-08  0.3199350E+04  0.7818609E-02  0.8188989E-01
       -2   -1    0    0    0  501  0.00000000000E+00  0.00000000000E+00  0.13682143845E+04  0.13682143845E+04  0.25500000920E-02 0. -1.
        2   -1    0    0  501    0  0.00000000000E+00  0.00000000000E+00 -0.18702921376E+04  0.18702921376E+04  0.25500000920E-02 0.  1.
    10030    2    1    2    0    0  0.00000000000E+00  0.00000000000E+00 -0.50207775303E+03  0.32385065221E+04  0.31993503127E+04 0.  0.
        1    1    3    3  502    0  0.63646242340E+03 -0.85258867324E+03  0.95813904985E+03  0.14317898942E+04  0.50400001928E-02 0. -1.
       -1    1    3    3    0  502 -0.63646242340E+03  0.85258867324E+03 -0.14602168029E+04  0.18067166279E+04  0.50400001928E-02 0.  1.
</event>
<event>
 5   0  0.3427667E-08  0.3196071E+04  0.7818609E-02  0.8189856E-01
       -1   -1    0    0    0  501  0.00000000000E+00  0.00000000000E+00  0.18882751935E+04  0.18882751935E+04  0.50400001928E-02 0.  1.
        1   -1    0    0  501    0  0.00000000000E+00  0.00000000000E+00 -0.13524076136E+04  0.13524076136E+04  0.50400001928E-02 0. -1.
    10030    2    1    2    0    0  0.00000000000E+00  0.00000000000E+00  0.53586757984E+03  0.32406828071E+04  0.31960711809E+04 0.  0.
        2    1    3    3  502    0  0.10137352140E+04 -0.10256406973E+04  0.96610854163E+03  0.17357890536E+04  0.25500000920E-02 0.  1.
       -2    1    3    3    0  502 -0.10137352140E+04  0.10256406973E+04 -0.43024096179E+03  0.15048937535E+04  0.25500000920E-02 0. -1.
</event>
<event>
 5   0  0.9157524E-08  0.3203532E+04  0.7818609E-02  0.8187885E-01
       -2   -1    0    0    0  501  0.00000000000E+00  0.00000000000E+00  0.19134642711E+04  0.19134642711E+04  0.25500000920E-02 0.  1.
        2   -1    0    0  501    0  0.00000000000E+00  0.00000000000E+00 -0.13408426830E+04  0.13408426830E+04  0.25500000920E-02 0. -1.
    10030    2    1    2    0    0  0.00000000000E+00  0.00000000000E+00  0.57262158810E+03  0.32543069541E+04  0.32035321550E+04 0.  0.
        5    1    3    3  502    0 -0.15210187001E+04 -0.45185314937E+02 -0.22170836260E+03  0.15377634040E+04  0.46999998093E+01 0. -1.
       -5    1    3    3    0  502  0.15210187001E+04  0.45185314937E+02  0.79432995070E+03  0.17165435501E+04  0.46999998093E+01 0.  1.
</event>
<event>
 5   0  0.3220147E-08  0.3199028E+04  0.7818609E-02  0.8189074E-01
        1   -1    0    0  501    0  0.00000000000E+00  0.00000000000E+00  0.25017990592E+04  0.25017990592E+04  0.50400001928E-02 0.  1.
       -1   -1    0    0    0  501  0.00000000000E+00  0.00000000000E+00 -0.10226418392E+04  0.10226418393E+04  0.50400001928E-02 0. -1.
    10030    2    1    2    0    0  0.00000000000E+00  0.00000000000E+00  0.14791572200E+04  0.35244408985E+04  0.31990275969E+04 0.  0.
        4    1    3    3  502    0  0.13858330038E+04 -0.45034886883E+03  0.14662943582E+04  0.20672126102E+04  0.12699999809E+01 0.  1.
       -4    1    3    3    0  502 -0.13858330038E+04  0.45034886883E+03  0.12862861808E+02  0.14572282883E+04  0.12699999809E+01 0. -1.
</event>
<event>
 5   0  0.3343140E-08  0.3200223E+04  0.7818609E-02  0.8188758E-01
        1   -1    0    0  501    0  0.00000000000E+00  0.00000000000E+00  0.19561447232E+04  0.19561447232E+04  0.50400001928E-02 0. -1.
       -1   -1    0    0    0  501  0.00000000000E+00  0.00000000000E+00 -0.13088787196E+04  0.13088787196E+04  0.50400001928E-02 0.  1.
    10030    2    1    2    0    0  0.00000000000E+00  0.00000000000E+00  0.64726600361E+03  0.32650234427E+04  0.32002226176E+04 0.  0.
        1    1    3    3  502    0  0.27847244262E+03  0.14582172828E+04 -0.28545783015E+03  0.15117641079E+04  0.50400001928E-02 0.  1.
       -1    1    3    3    0  502 -0.27847244262E+03 -0.14582172828E+04  0.93272383377E+03  0.17532593348E+04  0.50400001928E-02 0. -1.
</event>
<event>
 5   0  0.3343140E-08  0.3201114E+04  0.7818609E-02  0.8188523E-01
        1   -1    0    0  501    0  0.00000000000E+00  0.00000000000E+00  0.25180994735E+04  0.25180994735E+04  0.50400001928E-02 0.  1.
       -1   -1    0    0    0  501  0.00000000000E+00  0.00000000000E+00 -0.10173479979E+04  0.10173479979E+04  0.50400001928E-02 0. -1.
    10030    2    1    2    0    0  0.00000000000E+00  0.00000000000E+00  0.15007514756E+04  0.35354474714E+04  0.32011144671E+04 0.  0.
        1    1    3    3  502    0 -0.64987078387E+03  0.82489568739E+03 -0.58366966807E+03  0.12014388092E+04  0.50400001928E-02 0. -1.
       -1    1    3    3    0  502  0.64987078387E+03 -0.82489568739E+03  0.20844211437E+04  0.23340086622E+04  0.50400001928E-02 0.  1.
</event>
<event>
 5   0  0.3427667E-08  0.3195228E+04  0.7818609E-02  0.8190079E-01
       -1   -1    0    0    0  501  0.00000000000E+00  0.00000000000E+00  0.22776480424E+04  0.22776480424E+04  0.50400001928E-02 0. -1.
        1   -1    0    0  501    0  0.00000000000E+00  0.00000000000E+00 -0.11206167244E+04  0.11206167244E+04  0.50400001928E-02 0.  1.
    10030    2    1    2    0    0  0.00000000000E+00  0.00000000000E+00  0.11570313179E+04  0.33982647668E+04  0.31952279973E+04 0.  0.
        2    1    3    3  502    0  0.88937572658E+03 -0.17612957555E+03 -0.82050314893E+03  0.12227985230E+04  0.25500000920E-02 0.  1.
       -2    1    3    3    0  502 -0.88937572658E+03  0.17612957555E+03  0.19775344669E+04  0.21754662438E+04  0.25500000920E-02 0. -1.
</event>
<event>
 5   0  0.3270966E-08  0.3194020E+04  0.7818609E-02  0.8190398E-01
       -1   -1    0    0    0  501  0.00000000000E+00  0.00000000000E+00  0.20522993578E+04  0.20522993579E+04  0.50400001928E-02 0.  1.
        1   -1    0    0  501    0  0.00000000000E+00  0.00000000000E+00 -0.12427235833E+04  0.12427235833E+04  0.50400001928E-02 0. -1.
    10030    2    1    2    0    0  0.00000000000E+00  0.00000000000E+00  0.80957577459E+03  0.32950229411E+04  0.31940199197E+04 0.  0.
        3    1    3    3  502    0 -0.22430226136E+03 -0.78272625224E+03  0.18220844239E+04  0.19957363424E+04  0.10100000352E+00 0.  1.
       -3    1    3    3    0  502  0.22430226136E+03  0.78272625224E+03 -0.10125086493E+04  0.12992865987E+04  0.10100000352E+00 0. -1.
</event>
<event>
 5   0  0.9707721E-08  0.3199927E+04  0.7818609E-02  0.8188836E-01
       -2   -1    0    0    0  501  0.00000000000E+00  0.00000000000E+00  0.21066941950E+04  0.21066941950E+04  0.25500000920E-02 0. -1.
        2   -1    0    0  501    0  0.00000000000E+00  0.00000000000E+00 -0.12151185056E+04  0.12151185056E+04  0.25500000920E-02 0.  1.
    10030    2    1    2    0    0  0.00000000000E+00  0.00000000000E+00  0.89157568942E+03  0.33218127005E+04  0.31999269378E+04 0.  0.
        3    1    3    3  502    0 -0.14692088193E+03 -0.10994968405E+04 -0.75112789078E+03  0.13396537487E+04  0.10100000352E+00 0.  1.
       -3    1    3    3    0  502  0.14692088193E+03  0.10994968405E+04  0.16427035802E+04  0.19821589519E+04  0.10100000352E+00 0. -1.
</event>
<event>
 5   0  0.3270966E-08  0.3202815E+04  0.7818609E-02  0.8188074E-01
       -1   -1    0    0    0  501  0.00000000000E+00  0.00000000000E+00  0.20296310068E+04  0.20296310068E+04  0.50400001928E-02 0.  1.
        1   -1    0    0  501    0  0.00000000000E+00  0.00000000000E+00 -0.12635328443E+04  0.12635328443E+04  0.50400001928E-02 0. -1.
    10030    2    1    2    0    0  0.00000000000E+00  0.00000000000E+00  0.76609816250E+03  0.32931638512E+04  0.32028146615E+04 0.  0.
        3    1    3    3  502    0  0.13869045176E+04  0.73987513803E+03  0.68500933801E+02  0.15734076869E+04  0.10100000352E+00 0. -1.
       -3    1    3    3    0  502 -0.13869045176E+04 -0.73987513803E+03  0.69759722870E+03  0.17197561643E+04  0.10100000352E+00 0.  1.
</event>
<event>
 5   0  0.9727083E-08  0.3199268E+04  0.7818609E-02  0.8189011E-01
       -2   -1    0    0    0  501  0.00000000000E+00  0.00000000000E+00  0.23043475163E+04  0.23043475163E+04  0.25500000920E-02 0. -1.
        2   -1    0    0  501    0  0.00000000000E+00  0.00000000000E+00 -0.11104350454E+04  0.11104350455E+04  0.25500000920E-02 0.  1.
    10030    2    1    2    0    0  0.00000000000E+00  0.00000000000E+00  0.11939124708E+04  0.34147825617E+04  0.31992675655E+04 0.  0.
        4    1    3    3  502    0 -0.14518028411E+04  0.60356639107E+03  0.91142624184E+03  0.18173396174E+04  0.12699999809E+01 0. -1.
       -4    1    3    3    0  502  0.14518028411E+04 -0.60356639107E+03  0.28248622899E+03  0.15974429443E+04  0.12699999809E+01 0.  1.
</event>
<event>
 5   0  0.9707721E-08  0.3199375E+04  0.7818609E-02  0.8188982E-01
        2   -1    0    0  501    0  0.00000000000E+00  0.00000000000E+00  0.79644885564E+03  0.79644885564E+03  0.25500000920E-02 0. -1.
       -2   -1    0    0    0  501  0.00000000000E+00  0.00000000000E+00 -0.32130129620E+04  0.32130129620E+04  0.25500000920E-02 0.  1.
    10030    2    1    2    0    0  0.00000000000E+00  0.00000000000E+00 -0.24165641064E+04  0.40094618177E+04  0.31993752495E+04 0.  0.
        3    1    3    3  502    0  0.16426121799E+03 -0.84269164655E+03  0.48325657954E+03  0.98521464198E+03  0.10100000352E+00 0. -1.
       -3    1    3    3    0  502 -0.16426121799E+03  0.84269164655E+03 -0.28998206859E+04  0.30242471757E+04  0.10100000352E+00 0.  1.
</event>
<event>
 5   0  0.9353994E-08  0.3196329E+04  0.7818609E-02  0.8189787E-01
       -2   -1    0    0    0  501  0.00000000000E+00  0.00000000000E+00  0.14888684474E+04  0.14888684474E+04  0.25500000920E-02 0. -1.
        2   -1    0    0  501    0  0.00000000000E+00  0.00000000000E+00 -0.17154835272E+04  0.17154835272E+04  0.25500000920E-02 0.  1.
    10030    2    1    2    0    0  0.00000000000E+00  0.00000000000E+00 -0.22661507974E+03  0.32043519746E+04  0.31963287038E+04 0.  0.
        2    1    3    3  502    0 -0.12738497740E+03  0.37622720756E+03  0.14385948357E+04  0.14924238492E+04  0.25500000920E-02 0. -1.
       -2    1    3    3    0  502  0.12738497740E+03 -0.37622720756E+03 -0.16652099155E+04  0.17119281255E+04  0.25500000920E-02 0.  1.
</event>
<event>
 5   0  0.3283581E-08  0.3206099E+04  0.7818609E-02  0.8187208E-01
       -1   -1    0    0    0  501  0.00000000000E+00  0.00000000000E+00  0.18602516535E+04  0.18602516535E+04  0.50400001928E-02 0. -1.
        1   -1    0    0  501    0  0.00000000000E+00  0.00000000000E+00 -0.13814088386E+04  0.13814088386E+04  0.50400001928E-02 0.  1.
    10030    2    1    2    0    0  0.00000000000E+00  0.00000000000E+00  0.47884281490E+03  0.32416604921E+04  0.32060992350E+04 0.  0.
        5    1    3    3  502    0 -0.10893698916E+04  0.95619963938E+03 -0.45278996127E+03  0.15185800440E+04  0.46999998093E+01 0.  1.
       -5    1    3    3    0  502  0.10893698916E+04 -0.95619963938E+03  0.93163277617E+03  0.17230804481E+04  0.46999998093E+01 0. -1.
</event>
<event>
 5   0  0.3343140E-08  0.3196556E+04  0.7818609E-02  0.8189727E-01
        1   -1    0    0  501    0  0.00000000000E+00  0.00000000000E+00  0.13959354122E+04  0.13959354123E+04  0.50400001928E-02 0. -1.
       -1   -1    0    0    0  501  0.00000000000E+00  0.00000000000E+00 -0.18299502861E+04  0.18299502861E+04  0.50400001928E-02 0.  1.
    10030    2    1    2    0    0  0.00000000000E+00  0.00000000000E+00 -0.43401487389E+03  0.32258856984E+04  0.31965559010E+04 0.  0.
        1    1    3    3  502    0  0.12503814091E+03  0.23622956601E+03  0.13732217003E+04  0.13989913447E+04  0.50400001928E-02 0. -1.
       -1    1    3    3    0  502 -0.12503814091E+03 -0.23622956601E+03 -0.18072365741E+04  0.18268943537E+04  0.50400001928E-02 0.  1.
</event>
<event>
 5   0  0.9727083E-08  0.3201741E+04  0.7818609E-02  0.8188358E-01
        2   -1    0    0  501    0  0.00000000000E+00  0.00000000000E+00  0.23312310143E+04  0.23312310143E+04  0.25500000920E-02 0.  1.
       -2   -1    0    0    0  501  0.00000000000E+00  0.00000000000E+00 -0.10993273087E+04  0.10993273087E+04  0.25500000920E-02 0. -1.
    10030    2    1    2    0    0  0.00000000000E+00  0.00000000000E+00  0.12319037055E+04  0.34305583230E+04  0.32017407246E+04 0.  0.
        4    1    3    3  502    0  0.12504692167E+04  0.34818112107E+03 -0.38796202854E+03  0.13547765511E+04  0.12699999809E+01 0. -1.
       -4    1    3    3    0  502 -0.12504692167E+04 -0.34818112107E+03  0.16198657341E+04  0.20757817718E+04  0.12699999809E+01 0.  1.
</event>
<event>
 5   0  0.9727083E-08  0.3201204E+04  0.7818609E-02  0.8188499E-01
        2   -1    0    0  501    0  0.00000000000E+00  0.00000000000E+00  0.18619502962E+04  0.18619502962E+04  0.25500000920E-02 0. -1.
       -2   -1    0    0    0  501  0.00000000000E+00  0.00000000000E+00 -0.13759369630E+04  0.13759369630E+04  0.25500000920E-02 0.  1.
    10030    2    1    2    0    0  0.00000000000E+00  0.00000000000E+00  0.48601333319E+03  0.32378872591E+04  0.32012036709E+04 0.  0.
        4    1    3    3  502    0 -0.40589656322E+01  0.14275469058E+04 -0.48917948533E+03  0.15090410284E+04  0.12699999809E+01 0.  1.
       -4    1    3    3    0  502  0.40589656322E+01 -0.14275469058E+04  0.97519281852E+03  0.17288462308E+04  0.12699999809E+01 0. -1.
</event>
<event>
 5   0  0.9157524E-08  0.3202384E+04  0.7818609E-02  0.8188188E-01
        2   -1    0    0  501    0  0.00000000000E+00  0.00000000000E+00  0.19778927653E+04  0.19778927653E+04  0.25500000920E-02 0.  1.
       -2   -1    0    0    0  501  0.00000000000E+00  0.00000000000E+00 -0.12962356179E+04  0.12962356179E+04  0.25500000920E-02 0. -1.
    10030    2    1    2    0    0  0.00000000000E+00  0.00000000000E+00  0.68165714743E+03  0.32741283832E+04  0.32023835190E+04 0.  0.
        5    1    3    3  502    0  0.61306195706E+03 -0.66780284123E+03 -0.10085843423E+04  0.13561231742E+04  0.46999998093E+01 0. -1.
       -5    1    3    3    0  502 -0.61306195706E+03  0.66780284123E+03  0.16902414898E+04  0.19180052090E+04  0.46999998093E+01 0.  1.
</event>
<event>
 5   0  0.9707721E-08  0.3200387E+04  0.7818609E-02  0.8188715E-01
        2   -1    0    0  501    0  0.00000000000E+00  0.00000000000E+00  0.17199644886E+04  0.17199644886E+04  0.25500000920E-02 0.  1.
       -2   -1    0    0    0  501  0.00000000000E+00  0.00000000000E+00 -0.14887631197E+04  0.14887631197E+04  0.25500000920E-02 0. -1.
    10030    2    1    2    0    0  0.00000000000E+00  0.00000000000E+00  0.23120136884E+03  0.32087276083E+04  0.32003872877E+04 0.  0.
        3    1    3    3  502    0 -0.13746780117E+04 -0.81732864269E+03  0.16916219961E+03  0.16082231207E+04  0.10100000352E+00 0. -1.
       -3    1    3    3    0  502  0.13746780117E+04  0.81732864269E+03  0.62039169231E+02  0.16005044876E+04  0.10100000352E+00 0.  1.
</event>
<event>
 5   0  0.9727083E-08  0.3202302E+04  0.7818609E-02  0.8188210E-01
       -2   -1    0    0    0  501  0.00000000000E+00  0.00000000000E+00  0.15434169976E+04  0.15434169976E+04  0.25500000920E-02 0. -1.
        2   -1    0    0  501    0  0.00000000000E+00  0.00000000000E+00 -0.16610445073E+04  0.16610445073E+04  0.25500000920E-02 0.  1.
    10030    2    1    2    0    0  0.00000000000E+00  0.00000000000E+00 -0.11762750967E+03  0.32044615050E+04  0.32023018761E+04 0.  0.
        4    1    3    3  502    0 -0.66098017739E+03 -0.11287772778E+04 -0.98282685844E+03  0.16361488882E+04  0.12699999809E+01 0.  1.
       -4    1    3    3    0  502  0.66098017739E+03  0.11287772778E+04  0.86519934877E+03  0.15683126167E+04  0.12699999809E+01 0. -1.
</event>
<event>
 5   0  0.3283581E-08  0.3200501E+04  0.7818609E-02  0.8188685E-01
        1   -1    0    0  501    0  0.00000000000E+00  0.00000000000E+00  0.20218517055E+04  0.20218517055E+04  0.50400001928E-02 0. -1.
       -1   -1    0    0    0  501  0.00000000000E+00  0.00000000000E+00 -0.12665627934E+04  0.12665627934E+04  0.50400001928E-02 0.  1.
    10030    2    1    2    0    0  0.00000000000E+00  0.00000000000E+00  0.75528891212E+03  0.32884144989E+04  0.32005013007E+04 0.  0.
        5    1    3    3  502    0  0.63110205578E+03  0.12876670173E+04 -0.35207809043E+03  0.14766032724E+04  0.46999998093E+01 0. -1.
       -5    1    3    3    0  502 -0.63110205578E+03 -0.12876670173E+04  0.11073670025E+04  0.18118112265E+04  0.46999998093E+01 0.  1.
</event>
<event>
 5   0  0.3427667E-08  0.3199574E+04  0.7818609E-02  0.8188930E-01
       -1   -1    0    0    0  501  0.00000000000E+00  0.00000000000E+00  0.14937569823E+04  0.14937569824E+04  0.50400001928E-02 0.  1.
        1   -1    0    0  501    0  0.00000000000E+00  0.00000000000E+00 -0.17133427777E+04  0.17133427777E+04  0.50400001928E-02 0. -1.
    10030    2    1    2    0    0  0.00000000000E+00  0.00000000000E+00 -0.21958579536E+03  0.32070997601E+04  0.31995735574E+04 0.  0.
        2    1    3    3  502    0 -0.13253332580E+04 -0.23936682213E+03 -0.97525486141E+03  0.16628068935E+04  0.25500000920E-02 0. -1.
       -2    1    3    3    0  502  0.13253332580E+04  0.23936682213E+03  0.75566906606E+03  0.15442928666E+04  0.25500000920E-02 0.  1.
</event>
<event>
 5   0  0.9727083E-08  0.3192259E+04  0.7818609E-02  0.8190865E-01
       -2   -1    0    0    0  501  0.00000000000E+00  0.00000000000E+00  0.12206035497E+04  0.12206035497E+04  0.25500000920E-02 0. -1.
        2   -1    0    0  501    0  0.00000000000E+00  0.00000000000E+00 -0.20871884322E+04  0.20871884322E+04  0.25500000920E-02 0.  1.
    10030    2    1    2    0    0  0.00000000000E+00  0.00000000000E+00 -0.86658488254E+03  0.33077919820E+04  0.31922591432E+04 0.  0.
        4    1    3    3  502    0  0.15681989017E+04  0.14684869154E+03 -0.16545012554E+03  0.15837258887E+04  0.12699999809E+01 0.  1.
       -4    1    3    3    0  502 -0.15681989017E+04 -0.14684869154E+03 -0.70113475700E+03  0.17240660933E+04  0.12699999809E+01 0. -1.
</event>
<event>
 5   0  0.9707721E-08  0.3202781E+04  0.7818609E-02  0.8188083E-01
       -2   -1    0    0    0  501  0.00000000000E+00  0.00000000000E+00  0.21206753970E+04  0.21206753970E+04  0.25500000920E-02 0. -1.
        2   -1    0    0  501    0  0.00000000000E+00  0.00000000000E+00 -0.12092615921E+04  0.12092615921E+04  0.25500000920E-02 0.  1.
    10030    2    1    2    0    0  0.00000000000E+00  0.00000000000E+00  0.91141380485E+03  0.33299369891E+04  0.32027808586E+04 0.  0.
        3    1    3    3  502    0 -0.24939448422E+03 -0.14429386339E+04  0.11296564764E+04  0.18494305272E+04  0.10100000352E+00 0. -1.
       -3    1    3    3    0  502  0.24939448422E+03  0.14429386339E+04 -0.21824267154E+03  0.14805064620E+04  0.10100000352E+00 0.  1.
</event>
<event>
 5   0  0.3080500E-08  0.3201103E+04  0.7818609E-02  0.8188526E-01
       -3   -1    0    0    0  501  0.00000000000E+00  0.00000000000E+00  0.19641978863E+04  0.19641978889E+04  0.10100000352E+00 0. -1.
        3   -1    0    0  501    0  0.00000000000E+00  0.00000000000E+00 -0.13042294609E+04  0.13042294648E+04  0.10100000352E+00 0.  1.
    10030    2    1    2    0    0  0.00000000000E+00  0.00000000000E+00  0.65996842539E+03  0.32684273537E+04  0.32011027855E+04 0.  0.
        5    1    3    3  502    0  0.51427633825E+02  0.25067598064E+03 -0.12832004181E+04  0.13084756978E+04  0.46999998093E+01 0.  1.
       -5    1    3    3    0  502 -0.51427633825E+02 -0.25067598064E+03  0.19431688435E+04  0.19599516558E+04  0.46999998093E+01 0. -1.
</event>
<event>
 5   0  0.9353994E-08  0.3199322E+04  0.7818609E-02  0.8188996E-01
        2   -1    0    0  501    0  0.00000000000E+00  0.00000000000E+00  0.18399581742E+04  0.18399581742E+04  0.25500000920E-02 0.  1.
       -2   -1    0    0    0  501  0.00000000000E+00  0.00000000000E+00 -0.13907463290E+04  0.13907463290E+04  0.25500000920E-02 0. -1.
    10030    2    1    2    0    0  0.00000000000E+00  0.00000000000E+00  0.44921184519E+03  0.32307045032E+04  0.31993218508E+04 0.  0.
        2    1    3    3  502    0  0.22899527750E+03  0.48040882706E+03 -0.12987284602E+04  0.14035409119E+04  0.25500000920E-02 0. -1.
       -2    1    3    3    0  502 -0.22899527750E+03 -0.48040882706E+03  0.17479403053E+04  0.18271635913E+04  0.25500000920E-02 0.  1.
</event>
<event>
 5   0  0.9727083E-08  0.3202736E+04  0.7818609E-02  0.8188095E-01
       -2   -1    0    0    0  501  0.00000000000E+00  0.00000000000E+00  0.10824968215E+04  0.10824968215E+04  0.25500000920E-02 0. -1.
        2   -1    0    0  501    0  0.00000000000E+00  0.00000000000E+00 -0.23689486088E+04  0.23689486088E+04  0.25500000920E-02 0.  1.
    10030    2    1    2    0    0  0.00000000000E+00  0.00000000000E+00 -0.12864517873E+04  0.34514454303E+04  0.32027359175E+04 0.  0.
        4    1    3    3  502    0 -0.19940619244E+02  0.90748875503E+03  0.77848057760E+03  0.11958123144E+04  0.12699999809E+01 0. -1.
       -4    1    3    3    0  502  0.19940619244E+02 -0.90748875503E+03 -0.20649323649E+04  0.22556331159E+04  0.12699999809E+01 0.  1.
</event>
<event>
 5   0  0.3343140E-08  0.3200266E+04  0.7818609E-02  0.8188747E-01
       -1   -1    0    0    0  501  0.00000000000E+00  0.00000000000E+00  0.16226481863E+04  0.16226481863E+04  0.50400001928E-02 0.  1.
        1   -1    0    0  501    0  0.00000000000E+00  0.00000000000E+00 -0.15779297528E+04  0.15779297528E+04  0.50400001928E-02 0. -1.
    10030    2    1    2    0    0  0.00000000000E+00  0.00000000000E+00  0.44718433505E+02  0.32005779391E+04  0.32002655212E+04 0.  0.
        1    1    3    3  502    0 -0.18756698469E+03 -0.15565787418E+04 -0.29752525296E+03  0.15958195479E+04  0.50400001928E-02 0.  1.
       -1    1    3    3    0  502  0.18756698469E+03  0.15565787418E+04  0.34224368646E+03  0.16047583912E+04  0.50400001928E-02 0. -1.
</event>
<event>
 5   0  0.9353994E-08  0.3199833E+04  0.7818609E-02  0.8188861E-01
       -2   -1    0    0    0  501  0.00000000000E+00  0.00000000000E+00  0.20871723046E+04  0.20871723046E+04  0.25500000920E-02 0. -1.
        2   -1    0    0  501    0  0.00000000000E+00  0.00000000000E+00 -0.12264121268E+04  0.12264121268E+04  0.25500000920E-02 0.  1.
    10030    2    1    2    0    0  0.00000000000E+00  0.00000000000E+00  0.86076017786E+03  0.33135844314E+04  0.31998333864E+04 0.  0.
        2    1    3    3  502    0  0.23770050818E+03  0.15759606477E+04  0.28547746545E+03  0.16191512832E+04  0.25500000920E-02 0. -1.
       -2    1    3    3    0  502 -0.23770050818E+03 -0.15759606477E+04  0.57528271241E+03  0.16944331482E+04  0.25500000920E-02 0.  1.
</event>
<event>
 5   0  0.3283581E-08  0.3199936E+04  0.7818609E-02  0.8188834E-01
       -1   -1    0    0    0  501  0.00000000000E+00  0.00000000000E+00  0.12449967305E+04  0.12449967305E+04  0.50400001928E-02 0. -1.
        1   -1    0    0  501    0  0.00000000000E+00  0.00000000000E+00 -0.20561485531E+04  0.20561485531E+04  0.50400001928E-02 0.  1.
    10030    2    1    2    0    0  0.00000000000E+00  0.00000000000E+00 -0.81115182262E+03  0.33011452836E+04  0.31999363906E+04 0.  0.
        5    1    3    3  502    0  0.19661811867E+03  0.93660187733E+03  0.91716094977E+03  0.13255519828E+04  0.46999998093E+01 0. -1.
       -5    1    3    3    0  502 -0.19661811867E+03 -0.93660187733E+03 -0.17283127724E+04  0.19755933009E+04  0.46999998093E+01 0.  1.
</event>
<event>
 5   0  0.3270966E-08  0.3201160E+04  0.7818609E-02  0.8188511E-01
       -1   -1    0    0    0  501  0.00000000000E+00  0.00000000000E+00  0.22915616329E+04  0.22915616329E+04  0.50400001928E-02 0.  1.
        1   -1    0    0  501    0  0.00000000000E+00  0.00000000000E+00 -0.11179520811E+04  0.11179520811E+04  0.50400001928E-02 0. -1.
    10030    2    1    2    0    0  0.00000000000E+00  0.00000000000E+00  0.11736095519E+04  0.34095137140E+04  0.32011598501E+04 0.  0.
        3    1    3    3  502    0 -0.37871824471E+03 -0.82429252255E+03 -0.81772573240E+03  0.12212948273E+04  0.10100000352E+00 0. -1.
       -3    1    3    3    0  502  0.37871824471E+03  0.82429252255E+03  0.19913352843E+04  0.21882188867E+04  0.10100000352E+00 0.  1.
</event>
<event>
 5   0  0.9157524E-08  0.3200841E+04  0.7818609E-02  0.8188595E-01
        2   -1    0    0  501    0  0.00000000000E+00  0.00000000000E+00  0.24675126520E+04  0.24675126520E+04  0.25500000920E-02 0.  1.
       -2   -1    0    0    0  501  0.00000000000E+00  0.00000000000E+00 -0.10380276956E+04  0.10380276956E+04  0.25500000920E-02 0. -1.
    10030    2    1    2    0    0  0.00000000000E+00  0.00000000000E+00  0.14294849565E+04  0.35055403476E+04  0.32008414343E+04 0.  0.
        5    1    3    3  502    0  0.14492918977E+04  0.58156081820E+03  0.10983172761E+04  0.19091838358E+04  0.46999998093E+01 0.  1.
       -5    1    3    3    0  502 -0.14492918977E+04 -0.58156081820E+03  0.33116768041E+03  0.15963565118E+04  0.46999998093E+01 0. -1.
</event>
<event>
 5   0  0.3283581E-08  0.3199392E+04  0.7818609E-02  0.8188978E-01
        1   -1    0    0  501    0  0.00000000000E+00  0.00000000000E+00  0.89687800561E+03  0.89687800562E+03  0.50400001928E-02 0.  1.
       -1   -1    0    0    0  501  0.00000000000E+00  0.00000000000E+00 -0.28532606662E+04  0.28532606662E+04  0.50400001928E-02 0. -1.
    10030    2    1    2    0    0  0.00000000000E+00  0.00000000000E+00 -0.19563826606E+04  0.37501386718E+04  0.31993916520E+04 0.  0.
        5    1    3    3  502    0  0.11709821462E+04 -0.94390619839E+03 -0.16168163383E+04  0.22082289872E+04  0.46999998093E+01 0. -1.
       -5    1    3    3    0  502 -0.11709821462E+04  0.94390619839E+03 -0.33956632224E+03  0.15419096846E+04  0.46999998093E+01 0.  1.
</event>
<event>
 5   0  0.9707721E-08  0.3200430E+04  0.7818609E-02  0.8188704E-01
       -2   -1    0    0    0  501  0.00000000000E+00  0.00000000000E+00  0.87627332479E+03  0.87627332479E+03  0.25500000920E-02 0.  1.
        2   -1    0    0  501    0  0.00000000000E+00  0.00000000000E+00 -0.29222487842E+04  0.29222487842E+04  0.25500000920E-02 0. -1.
    10030    2    1    2    0    0  0.00000000000E+00  0.00000000000E+00 -0.20459754594E+04  0.37985221090E+04  0.32004303823E+04 0.  0.
        3    1    3    3  502    0 -0.13819317737E+04  0.79135700179E+03 -0.83642750255E+03  0.17987752246E+04  0.10100000352E+00 0. -1.
       -3    1    3    3    0  502  0.13819317737E+04 -0.79135700179E+03 -0.12095479569E+04  0.19997468844E+04  0.10100000352E+00 0.  1.
</event>
<event>
 5   0  0.3343140E-08  0.3200656E+04  0.7818609E-02  0.8188644E-01
       -1   -1    0    0    0  501  0.00000000000E+00  0.00000000000E+00  0.97818669389E+03  0.97818669391E+03  0.50400001928E-02 0.  1.
        1   -1    0    0  501    0  0.00000000000E+00  0.00000000000E+00 -0.26181596477E+04  0.26181596477E+04  0.50400001928E-02 0. -1.
    10030    2    1    2    0    0  0.00000000000E+00  0.00000000000E+00 -0.16399729538E+04  0.35963463416E+04  0.32006555140E+04 0.  0.
        1    1    3    3  502    0  0.13050373256E+04 -0.44924071579E+02 -0.18595145060E+04  0.22722092315E+04  0.50400001928E-02 0. -1.
       -1    1    3    3    0  502 -0.13050373256E+04  0.44924071579E+02  0.21954155224E+03  0.13241371102E+04  0.50400001928E-02 0.  1.
</event>
<event>
 5   0  0.3283581E-08  0.3199971E+04  0.7818609E-02  0.8188825E-01
       -1   -1    0    0    0  501  0.00000000000E+00  0.00000000000E+00  0.15964328164E+04  0.15964328164E+04  0.50400001928E-02 0. -1.
        1   -1    0    0  501    0  0.00000000000E+00  0.00000000000E+00 -0.16035465766E+04  0.16035465766E+04  0.50400001928E-02 0.  1.
    10030    2    1    2    0    0  0.00000000000E+00  0.00000000000E+00 -0.71137601817E+01  0.31999793930E+04  0.31999714858E+04 0.  0.
        5    1    3    3  502    0  0.13463273413E+04  0.18193480727E+03  0.84156928409E+03  0.15981109266E+04  0.46999998093E+01 0.  1.
       -5    1    3    3    0  502 -0.13463273413E+04 -0.18193480727E+03 -0.84868304427E+03  0.16018684664E+04  0.46999998093E+01 0. -1.
</event>
<event>
 5   0  0.9707721E-08  0.3201043E+04  0.7818609E-02  0.8188542E-01
        2   -1    0    0  501    0  0.00000000000E+00  0.00000000000E+00  0.15153793214E+04  0.15153793214E+04  0.25500000920E-02 0. -1.
       -2   -1    0    0    0  501  0.00000000000E+00  0.00000000000E+00 -0.16904471356E+04  0.16904471356E+04  0.25500000920E-02 0.  1.
    10030    2    1    2    0    0  0.00000000000E+00  0.00000000000E+00 -0.17506781422E+03  0.32058264570E+04  0.32010427259E+04 0.  0.
        3    1    3    3  502    0 -0.98838861381E+02 -0.25274146824E+03  0.14921695941E+04  0.15166467875E+04  0.10100000352E+00 0. -1.
       -3    1    3    3    0  502  0.98838861381E+02  0.25274146824E+03 -0.16672374083E+04  0.16891796696E+04  0.10100000352E+00 0.  1.
</event>
<event>
 5   0  0.9157524E-08  0.3199260E+04  0.7818609E-02  0.8189013E-01
        2   -1    0    0  501    0  0.00000000000E+00  0.00000000000E+00  0.13462388487E+04  0.13462388487E+04  0.25500000920E-02 0. -1.
       -2   -1    0    0    0  501  0.00000000000E+00  0.00000000000E+00 -0.19007153166E+04  0.19007153166E+04  0.25500000920E-02 0.  1.
    10030    2    1    2    0    0  0.00000000000E+00  0.00000000000E+00 -0.55447646793E+03  0.32469541653E+04  0.31992604142E+04 0.  0.
        5    1    3    3  502    0 -0.56580303716E+03 -0.42263447424E+03 -0.17339196347E+04  0.18722319208E+04  0.46999998093E+01 0.  1.
       -5    1    3    3    0  502  0.56580303716E+03  0.42263447424E+03  0.11794431668E+04  0.13747222445E+04  0.46999998093E+01 0. -1.
</event>
<event>
 5   0  0.9157524E-08  0.3196548E+04  0.7818609E-02  0.8189729E-01
        2   -1    0    0  501    0  0.00000000000E+00  0.00000000000E+00  0.10382712375E+04  0.10382712375E+04  0.25500000920E-02 0.  1.
       -2   -1    0    0    0  501  0.00000000000E+00  0.00000000000E+00 -0.24603205811E+04  0.24603205811E+04  0.25500000920E-02 0. -1.
    10030    2    1    2    0    0  0.00000000000E+00  0.00000000000E+00 -0.14220493436E+04  0.34985918186E+04  0.31965481973E+04 0.  0.
        5    1    3    3  502    0 -0.94970264917E+03  0.10297723319E+04  0.13115848653E+03  0.14069793232E+04  0.46999998093E+01 0.  1.
       -5    1    3    3    0  502  0.94970264917E+03 -0.10297723319E+04 -0.15532078301E+04  0.20916124954E+04  0.46999998093E+01 0. -1.
</event>
<event>
 5   0  0.3220147E-08  0.3201061E+04  0.7818609E-02  0.8188537E-01
        1   -1    0    0  501    0  0.00000000000E+00  0.00000000000E+00  0.17262147935E+04  0.17262147936E+04  0.50400001928E-02 0. -1.
       -1   -1    0    0    0  501  0.00000000000E+00  0.00000000000E+00 -0.14839967480E+04  0.14839967480E+04  0.50400001928E-02 0.  1.
    10030    2    1    2    0    0  0.00000000000E+00  0.00000000000E+00  0.24221804556E+03  0.32102115416E+04  0.32010605367E+04 0.  0.
        4    1    3    3  502    0 -0.53405122786E+03 -0.72490410995E+03 -0.12059269453E+04  0.15049777716E+04  0.12699999809E+01 0.  1.
       -4    1    3    3    0  502  0.53405122786E+03  0.72490410995E+03  0.14481449909E+04  0.17052337700E+04  0.12699999809E+01 0. -1.
</event>
<event>
 5   0  0.3080500E-08  0.3201907E+04  0.7818609E-02  0.8188314E-01
        3   -1    0    0  501    0  0.00000000000E+00  0.00000000000E+00  0.18159266606E+04  0.18159266634E+04  0.10100000352E+00 0.  1.
       -3   -1    0    0    0  501  0.00000000000E+00  0.00000000000E+00 -0.14114289870E+04  0.14114289906E+04  0.10100000352E+00 0. -1.
    10030    2    1    2    0    0  0.00000000000E+00  0.00000000000E+00  0.40449767356E+03  0.32273556540E+04  0.32019066429E+04 0.  0.
        4    1    3    3  502    0 -0.76968062970E+03  0.23338592115E+03 -0.11930122504E+04  0.14388040529E+04  0.12699999809E+01 0. -1.
       -4    1    3    3    0  502  0.76968062970E+03 -0.23338592115E+03  0.15975099240E+04  0.17885516012E+04  0.12699999809E+01 0.  1.
</event>
<event>
 5   0  0.3220147E-08  0.3201988E+04  0.7818609E-02  0.8188292E-01
       -1   -1    0    0    0  501  0.00000000000E+00  0.00000000000E+00  0.12105080008E+04  0.12105080009E+04  0.50400001928E-02 0. -1.
        1   -1    0    0  501    0  0.00000000000E+00  0.00000000000E+00 -0.21174429440E+04  0.21174429440E+04  0.50400001928E-02 0.  1.
    10030    2    1    2    0    0  0.00000000000E+00  0.00000000000E+00 -0.90693494317E+03  0.33279509449E+04  0.32019878982E+04 0.  0.
        4    1    3    3  502    0  0.60686660281E+03  0.11264765933E+04  0.54664641038E+03  0.13914239109E+04  0.12699999809E+01 0. -1.
       -4    1    3    3    0  502 -0.60686660281E+03 -0.11264765933E+04 -0.14535813535E+04  0.19365270340E+04  0.12699999809E+01 0.  1.
</event>
<event>
 5   0  0.3270966E-08  0.3198972E+04  0.7818609E-02  0.8189089E-01
       -1   -1    0    0    0  501  0.00000000000E+00  0.00000000000E+00  0.18128810552E+04  0.18128810552E+04  0.50400001928E-02 0.  1.
        1   -1    0    0  501    0  0.00000000000E+00  0.00000000000E+00 -0.14112094521E+04  0.14112094521E+04  0.50400001928E-02 0. -1.
    10030    2    1    2    0    0  0.00000000000E+00  0.00000000000E+00  0.40167160306E+03  0.32240905073E+04  0.31989716352E+04 0.  0.
        3    1    3    3  502    0 -0.42881102665E+02  0.15542249452E+04 -0.17747933770E+03  0.15649130630E+04  0.10100000352E+00 0. -1.
       -3    1    3    3    0  502  0.42881102665E+02 -0.15542249452E+04  0.57915094076E+03  0.16591774443E+04  0.10100000352E+00 0.  1.
</event>
<event>
 5   0  0.3343140E-08  0.3200418E+04  0.7818609E-02  0.8188707E-01
       -1   -1    0    0    0  501  0.00000000000E+00  0.00000000000E+00  0.86318029686E+03  0.86318029688E+03  0.50400001928E-02 0.  1.
        1   -1    0    0  501    0  0.00000000000E+00  0.00000000000E+00 -0.29665517576E+04  0.29665517576E+04  0.50400001928E-02 0. -1.
    10030    2    1    2    0    0  0.00000000000E+00  0.00000000000E+00 -0.21033714608E+04  0.38297320545E+04  0.32004181145E+04 0.  0.
        1    1    3    3  502    0 -0.30303855702E+03  0.15600414977E+04 -0.82747330605E+03  0.17917237270E+04  0.50400001928E-02 0.  1.
       -1    1    3    3    0  502  0.30303855702E+03 -0.15600414977E+04 -0.12758981547E+04  0.20380083275E+04  0.50400001928E-02 0. -1.
</event>
<event>
 5   0  0.9707721E-08  0.3200813E+04  0.7818609E-02  0.8188602E-01
        2   -1    0    0  501    0  0.00000000000E+00  0.00000000000E+00  0.16101395576E+04  0.16101395576E+04  0.25500000920E-02 0. -1.
       -2   -1    0    0    0  501  0.00000000000E+00  0.00000000000E+00 -0.15907323375E+04  0.15907323375E+04  0.25500000920E-02 0.  1.
    10030    2    1    2    0    0  0.00000000000E+00  0.00000000000E+00  0.19407220124E+02  0.32008718950E+04  0.32008130605E+04 0.  0.
        3    1    3    3  502    0 -0.32907264388E+03  0.12012426030E+04 -0.99531658221E+03  0.15943424053E+04  0.10100000352E+00 0.  1.
       -3    1    3    3    0  502  0.32907264388E+03 -0.12012426030E+04  0.10147238023E+04  0.16065294898E+04  0.10100000352E+00 0. -1.
</event>
<event>
 5   0  0.9157524E-08  0.3200102E+04  0.7818609E-02  0.8188790E-01
        2   -1    0    0  501    0  0.00000000000E+00  0.00000000000E+00  0.22111610567E+04  0.22111610567E+04  0.25500000920E-02 0.  1.
       -2   -1    0    0    0  501  0.00000000000E+00  0.00000000000E+00 -0.11578365167E+04  0.11578365167E+04  0.25500000920E-02 0. -1.
    10030    2    1    2    0    0  0.00000000000E+00  0.00000000000E+00  0.10533245400E+04  0.33689975734E+04  0.32001018833E+04 0.  0.
        5    1    3    3  502    0  0.12282420571E+03 -0.10852379712E+04  0.17576988929E+04  0.20693851086E+04  0.46999998093E+01 0.  1.
       -5    1    3    3    0  502 -0.12282420571E+03  0.10852379712E+04 -0.70437435296E+03  0.12996124648E+04  0.46999998093E+01 0. -1.
</event>
<event>
 5   0  0.9157524E-08  0.3199991E+04  0.7818609E-02  0.8188820E-01
       -2   -1    0    0    0  501  0.00000000000E+00  0.00000000000E+00  0.31333395188E+04  0.31333395188E+04  0.25500000920E-02 0.  1.
        2   -1    0    0  501    0  0.00000000000E+00  0.00000000000E+00 -0.81701502403E+03  0.81701502403E+03  0.25500000920E-02 0. -1.
    10030    2    1    2    0    0  0.00000000000E+00  0.00000000000E+00  0.23163244947E+04  0.39503545428E+04  0.31999909139E+04 0.  0.
        5    1    3    3  502    0 -0.80636347689E+03  0.13748830303E+04  0.13302748870E+04  0.20760970037E+04  0.46999998093E+01 0.  1.
       -5    1    3    3    0  502  0.80636347689E+03 -0.13748830303E+04  0.98604960770E+03  0.18742575391E+04  0.46999998093E+01 0. -1.
</event>
<event>
 5   0  0.3343140E-08  0.3200677E+04  0.7818609E-02  0.8188638E-01
        1   -1    0    0  501    0  0.00000000000E+00  0.00000000000E+00  0.12737435229E+04  0.12737435229E+04  0.50400001928E-02 0. -1.
       -1   -1    0    0    0  501  0.00000000000E+00  0.00000000000E+00 -0.20106747184E+04  0.20106747185E+04  0.50400001928E-02 0.  1.
    10030    2    1    2    0    0  0.00000000000E+00  0.00000000000E+00 -0.73693119554E+03  0.32844182414E+04  0.32006773654E+04 0.  0.
        1    1    3    3  502    0  0.50643563860E+03 -0.81829820644E+03 -0.16805892271E+04  0.19366128061E+04  0.50400001928E-02 0.  1.
       -1    1    3    3    0  502 -0.50643563860E+03  0.81829820644E+03  0.94365803154E+03  0.13478054352E+04  0.50400001928E-02 0. -1.
</event>
<event>
 5   0  0.9329929E-08  0.3201091E+04  0.7818609E-02  0.8188529E-01
       -2   -1    0    0    0  501  0.00000000000E+00  0.00000000000E+00  0.14958057719E+04  0.14958057719E+04  0.25500000920E-02 0. -1.
        2   -1    0    0  501    0  0.00000000000E+00  0.00000000000E+00 -0.17126193566E+04  0.17126193566E+04  0.25500000920E-02 0.  1.
    10030    2    1    2    0    0  0.00000000000E+00  0.00000000000E+00 -0.21681358475E+03  0.32084251285E+04  0.32010910132E+04 0.  0.
        1    1    3    3  502    0  0.42683677233E+03 -0.83471540193E+03  0.11917956443E+04  0.15163496596E+04  0.50400001928E-02 0. -1.
       -1    1    3    3    0  502 -0.42683677233E+03  0.83471540193E+03 -0.14086092290E+04  0.16920754689E+04  0.50400001928E-02 0.  1.
</event>
<event>
 5   0  0.9329929E-08  0.3198083E+04  0.7818609E-02  0.8189324E-01
       -2   -1    0    0    0  501  0.00000000000E+00  0.00000000000E+00  0.25881112276E+04  0.25881112276E+04  0.25500000920E-02 0.  1.
        2   -1    0    0  501    0  0.00000000000E+00  0.00000000000E+00 -0.98795348997E+03  0.98795348997E+03  0.25500000920E-02 0. -1.
    10030    2    1    2    0    0  0.00000000000E+00  0.00000000000E+00  0.16001577376E+04  0.35760647175E+04  0.31980828755E+04 0.  0.
        1    1    3    3  502    0  0.10566818822E+04 -0.11941900687E+04  0.93364058079E+03  0.18477963238E+04  0.50400001928E-02 0.  1.
       -1    1    3    3    0  502 -0.10566818822E+04  0.11941900687E+04  0.66651715682E+03  0.17282683937E+04  0.50400001928E-02 0. -1.
</event>
<event>
 5   0  0.3270966E-08  0.3199901E+04  0.7818609E-02  0.8188843E-01
        1   -1    0    0  501    0  0.00000000000E+00  0.00000000000E+00  0.32492325657E+04  0.32492325657E+04  0.50400001928E-02 0. -1.
       -1   -1    0    0    0  501  0.00000000000E+00  0.00000000000E+00 -0.78782945954E+03  0.78782945956E+03  0.50400001928E-02 0.  1.
    10030    2    1    2    0    0  0.00000000000E+00  0.00000000000E+00  0.24614031062E+04  0.40370620253E+04  0.31999007086E+04 0.  0.
        3    1    3    3  502    0 -0.13168774824E+04 -0.31748530729E+03  0.15656041536E+03  0.13636254609E+04  0.10100000352E+00 0.  1.
       -3    1    3    3    0  502  0.13168774824E+04  0.31748530729E+03  0.23048426908E+04  0.26734365643E+04  0.10100000352E+00 0. -1.
</event>
<event>
 5   0  0.9727083E-08  0.3200013E+04  0.7818609E-02  0.8188814E-01
       -2   -1    0    0    0  501  0.00000000000E+00  0.00000000000E+00  0.14754166281E+04  0.14754166281E+04  0.25500000920E-02 0.  1.
        2   -1    0    0  501    0  0.00000000000E+00  0.00000000000E+00 -0.17351174394E+04  0.17351174394E+04  0.25500000920E-02 0. -1.
    10030    2    1    2    0    0  0.00000000000E+00  0.00000000000E+00 -0.25970081135E+03  0.32105340675E+04  0.32000132011E+04 0.  0.
        4    1    3    3  502    0 -0.13682433320E+04 -0.18692441323E+03 -0.94058448898E+03  0.16708474932E+04  0.12699999809E+01 0. -1.
       -4    1    3    3    0  502  0.13682433320E+04  0.18692441323E+03  0.68088367762E+03  0.15396865743E+04  0.12699999809E+01 0.  1.
</event>
<event>
 5   0  0.3427667E-08  0.3200759E+04  0.7818609E-02  0.8188617E-01
       -1   -1    0    0    0  501  0.00000000000E+00  0.00000000000E+00  0.12494685558E+04  0.12494685558E+04  0.50400001928E-02 0. -1.
        1   -1    0    0  501    0  0.00000000000E+00  0.00000000000E+00 -0.20498431491E+04  0.20498431491E+04  0.50400001928E-02 0.  1.
    10030    2    1    2    0    0  0.00000000000E+00  0.00000000000E+00 -0.80037459326E+03  0.32993117049E+04  0.32007590094E+04 0.  0.
        2    1    3    3  502    0 -0.12856515710E+04  0.32018036073E+03  0.52511527509E+03  0.14251882253E+04  0.25500000920E-02 0. -1.
       -2    1    3    3    0  502  0.12856515710E+04 -0.32018036073E+03 -0.13254898683E+04  0.18741234796E+04  0.25500000920E-02 0.  1.
</event>
<event>
 5   0  0.9353994E-08  0.3201034E+04  0.7818609E-02  0.8188544E-01
        2   -1    0    0  501    0  0.00000000000E+00  0.00000000000E+00  0.16310175160E+04  0.16310175160E+04  0.25500000920E-02 0. -1.
       -2   -1    0    0    0  501  0.00000000000E+00  0.00000000000E+00 -0.15705863836E+04  0.15705863837E+04  0.25500000920E-02 0.  1.
    10030    2    1    2    0    0  0.00000000000E+00  0.00000000000E+00  0.60431132375E+02  0.32016038997E+04  0.32010335220E+04 0.  0.
        2    1    3    3  502    0 -0.20987430072E+03 -0.15856841068E+04  0.86905412054E+02  0.16018719859E+04  0.25500000920E-02 0.  1.
       -2    1    3    3    0  502  0.20987430072E+03  0.15856841068E+04 -0.26474279679E+02  0.15997319138E+04  0.25500000920E-02 0. -1.
</event>
<event>
 5   0  0.3343140E-08  0.3218653E+04  0.7818609E-02  0.8183908E-01
        1   -1    0    0  501    0  0.00000000000E+00  0.00000000000E+00  0.17943149183E+04  0.17943149183E+04  0.50400001928E-02 0.  1.
       -1   -1    0    0    0  501  0.00000000000E+00  0.00000000000E+00 -0.14434094767E+04  0.14434094767E+04  0.50400001928E-02 0. -1.
    10030    2    1    2    0    0  0.00000000000E+00  0.00000000000E+00  0.35090544160E+03  0.32377243950E+04  0.32186526108E+04 0.  0.
        1    1    3    3  502    0  0.49138613395E+03 -0.19267746191E+03 -0.13538669467E+04  0.14531141202E+04  0.50400001928E-02 0. -1.
       -1    1    3    3    0  502 -0.49138613395E+03  0.19267746191E+03  0.17047723883E+04  0.17846102748E+04  0.50400001928E-02 0.  1.
</event>
<event>
 5   0  0.9353994E-08  0.3199777E+04  0.7818609E-02  0.8188876E-01
       -2   -1    0    0    0  501  0.00000000000E+00  0.00000000000E+00  0.14582623840E+04  0.14582623840E+04  0.25500000920E-02 0.  1.
        2   -1    0    0  501    0  0.00000000000E+00  0.00000000000E+00 -0.17552693848E+04  0.17552693848E+04  0.25500000920E-02 0. -1.
    10030    2    1    2    0    0  0.00000000000E+00  0.00000000000E+00 -0.29700700086E+03  0.32135317688E+04  0.31997770658E+04 0.  0.
        2    1    3    3  502    0 -0.15090675971E+04  0.30390312279E+03 -0.58626850930E+03  0.16472258150E+04  0.25500000920E-02 0. -1.
       -2    1    3    3    0  502  0.15090675971E+04 -0.30390312279E+03  0.28926150844E+03  0.15663059538E+04  0.25500000920E-02 0.  1.
</event>
<event>
 5   0  0.9157524E-08  0.3199346E+04  0.7818609E-02  0.8188990E-01
       -2   -1    0    0    0  501  0.00000000000E+00  0.00000000000E+00  0.13917075416E+04  0.13917075416E+04  0.25500000920E-02 0.  1.
        2   -1    0    0  501    0  0.00000000000E+00  0.00000000000E+00 -0.18387150111E+04  0.18387150111E+04  0.25500000920E-02 0. -1.
    10030    2    1    2    0    0  0.00000000000E+00  0.00000000000E+00 -0.44700746943E+03  0.32304225527E+04  0.31993459005E+04 0.  0.
        5    1    3    3  502    0 -0.29053063122E+03 -0.13933873388E+04  0.51365286640E+03  0.15132077454E+04  0.46999998093E+01 0.  1.
       -5    1    3    3    0  502  0.29053063122E+03  0.13933873388E+04 -0.96066033583E+03  0.17172148073E+04  0.46999998093E+01 0. -1.
</event>
<event>
 5   0  0.9157524E-08  0.3198271E+04  0.7818609E-02  0.8189274E-01
       -2   -1    0    0    0  501  0.00000000000E+00  0.00000000000E+00  0.98229374947E+03  0.98229374947E+03  0.25500000920E-02 0.  1.
        2   -1    0    0  501    0  0.00000000000E+00  0.00000000000E+00 -0.26033294947E+04  0.26033294947E+04  0.25500000920E-02 0. -1.
    10030    2    1    2    0    0  0.00000000000E+00  0.00000000000E+00 -0.16210357452E+04  0.35856232441E+04  0.31982709644E+04 0.  0.
        5    1    3    3  502    0  0.13477108403E+04  0.83549024443E+02  0.14992157381E+03  0.13586035172E+04  0.46999998093E+01 0.  1.
       -5    1    3    3    0  502 -0.13477108403E+04 -0.83549024443E+02 -0.17709573190E+04  0.22270197270E+04  0.46999998093E+01 0. -1.
</event>
<event>
 5   0  0.9157524E-08  0.3193931E+04  0.7818609E-02  0.8190422E-01
        2   -1    0    0  501    0  0.00000000000E+00  0.00000000000E+00  0.15720728259E+04  0.15720728259E+04  0.25500000920E-02 0. -1.
       -2   -1    0    0    0  501  0.00000000000E+00  0.00000000000E+00 -0.16222522623E+04  0.16222522623E+04  0.25500000920E-02 0.  1.
    10030    2    1    2    0    0  0.00000000000E+00  0.00000000000E+00 -0.50179436382E+02  0.31943250883E+04  0.31939309313E+04 0.  0.
        5    1    3    3  502    0  0.12797140912E+04  0.94679530837E+03 -0.15233394253E+03  0.15991614150E+04  0.46999998093E+01 0. -1.
       -5    1    3    3    0  502 -0.12797140912E+04 -0.94679530837E+03  0.10215450615E+03  0.15951636732E+04  0.46999998093E+01 0.  1.
</event>
<event>
 5   0  0.3270966E-08  0.3201043E+04  0.7818609E-02  0.8188542E-01
       -1   -1    0    0    0  501  0.00000000000E+00  0.00000000000E+00  0.16338797336E+04  0.16338797336E+04  0.50400001928E-02 0. -1.
        1   -1    0    0  501    0  0.00000000000E+00  0.00000000000E+00 -0.15678439440E+04  0.15678439440E+04  0.50400001928E-02 0.  1.
    10030    2    1    2    0    0  0.00000000000E+00  0.00000000000E+00  0.66035789582E+02  0.32017236776E+04  0.32010426086E+04 0.  0.
        3    1    3    3  502    0  0.11258900936E+04  0.71579791623E+03  0.91732888984E+03  0.16191008190E+04  0.10100000352E+00 0. -1.
       -3    1    3    3    0  502 -0.11258900936E+04 -0.71579791623E+03 -0.85129310026E+03  0.15826228586E+04  0.10100000352E+00 0.  1.
</event>
<event>
 5   0  0.3270966E-08  0.3204222E+04  0.7818609E-02  0.8187703E-01
        1   -1    0    0  501    0  0.00000000000E+00  0.00000000000E+00  0.11952624003E+04  0.11952624003E+04  0.50400001928E-02 0. -1.
       -1   -1    0    0    0  501  0.00000000000E+00  0.00000000000E+00 -0.21474444101E+04  0.21474444101E+04  0.50400001928E-02 0.  1.
    10030    2    1    2    0    0  0.00000000000E+00  0.00000000000E+00 -0.95218200983E+03  0.33427068105E+04  0.32042219400E+04 0.  0.
        3    1    3    3  502    0 -0.11896355819E+04 -0.21186220175E+03  0.62134474094E+03  0.13587449016E+04  0.10100000352E+00 0. -1.
       -3    1    3    3    0  502  0.11896355819E+04  0.21186220175E+03 -0.15735267508E+04  0.19839619089E+04  0.10100000352E+00 0.  1.
</event>
<event>
 5   0  0.3270966E-08  0.3200598E+04  0.7818609E-02  0.8188659E-01
        1   -1    0    0  501    0  0.00000000000E+00  0.00000000000E+00  0.23919076312E+04  0.23919076312E+04  0.50400001928E-02 0. -1.
       -1   -1    0    0    0  501  0.00000000000E+00  0.00000000000E+00 -0.10706753341E+04  0.10706753341E+04  0.50400001928E-02 0.  1.
    10030    2    1    2    0    0  0.00000000000E+00  0.00000000000E+00  0.13212322971E+04  0.34625829653E+04  0.32005977580E+04 0.  0.
        3    1    3    3  502    0  0.10301333982E+04  0.53035016413E+03 -0.53360211179E+03  0.12756086149E+04  0.10100000352E+00 0.  1.
       -3    1    3    3    0  502 -0.10301333982E+04 -0.53035016413E+03  0.18548344089E+04  0.21869743504E+04  0.10100000352E+00 0. -1.
</event>
<event>
 5   0  0.9329929E-08  0.3200318E+04  0.7818609E-02  0.8188733E-01
       -2   -1    0    0    0  501  0.00000000000E+00  0.00000000000E+00  0.15436833613E+04  0.15436833613E+04  0.25500000920E-02 0.  1.
        2   -1    0    0  501    0  0.00000000000E+00  0.00000000000E+00 -0.16587004414E+04  0.16587004414E+04  0.25500000920E-02 0. -1.
    10030    2    1    2    0    0  0.00000000000E+00  0.00000000000E+00 -0.11501708011E+03  0.32023838028E+04  0.32003176548E+04 0.  0.
        1    1    3    3  502    0  0.11725217166E+04 -0.34417934445E+03  0.97623231647E+03  0.15640639797E+04  0.50400001928E-02 0.  1.
       -1    1    3    3    0  502 -0.11725217166E+04  0.34417934445E+03 -0.10912493966E+04  0.16383198230E+04  0.50400001928E-02 0. -1.
</event>
<event>
 5   0  0.3283581E-08  0.3199862E+04  0.7818609E-02  0.8188853E-01
       -1   -1    0    0    0  501  0.00000000000E+00  0.00000000000E+00  0.13168551702E+04  0.13168551702E+04  0.50400001928E-02 0.  1.
        1   -1    0    0  501    0  0.00000000000E+00  0.00000000000E+00 -0.19438583971E+04  0.19438583972E+04  0.50400001928E-02 0. -1.
    10030    2    1    2    0    0  0.00000000000E+00  0.00000000000E+00 -0.62700322697E+03  0.32607135673E+04  0.31998624848E+04 0.  0.
        5    1    3    3  502    0  0.36564608510E+03  0.72343814700E+03 -0.17191162654E+04  0.19006426902E+04  0.46999998093E+01 0. -1.
       -5    1    3    3    0  502 -0.36564608510E+03 -0.72343814700E+03  0.10921130384E+04  0.13600708771E+04  0.46999998093E+01 0.  1.
</event>
<event>
 5   0  0.9329929E-08  0.3197917E+04  0.7818609E-02  0.8189368E-01
        2   -1    0    0  501    0  0.00000000000E+00  0.00000000000E+00  0.21662664882E+04  0.21662664882E+04  0.25500000920E-02 0. -1.
       -2   -1    0    0    0  501  0.00000000000E+00  0.00000000000E+00 -0.11802185851E+04  0.11802185851E+04  0.25500000920E-02 0.  1.
    10030    2    1    2    0    0  0.00000000000E+00  0.00000000000E+00  0.98604790305E+03  0.33464850733E+04  0.31979168030E+04 0.  0.
        1    1    3    3  502    0  0.61724924359E+03  0.72040291367E+03 -0.85389816930E+03  0.12763694882E+04  0.50400001928E-02 0.  1.
       -1    1    3    3    0  502 -0.61724924359E+03 -0.72040291367E+03  0.18399460724E+04  0.20701155852E+04  0.50400001928E-02 0. -1.
</event>
<event>
 5   0  0.9707721E-08  0.3198981E+04  0.7818609E-02  0.8189086E-01
        2   -1    0    0  501    0  0.00000000000E+00  0.00000000000E+00  0.11313683891E+04  0.11313683891E+04  0.25500000920E-02 0. -1.
       -2   -1    0    0    0  501  0.00000000000E+00  0.00000000000E+00 -0.22613056299E+04  0.22613056299E+04  0.25500000920E-02 0.  1.
    10030    2    1    2    0    0  0.00000000000E+00  0.00000000000E+00 -0.11299372407E+04  0.33926740190E+04  0.31989809051E+04 0.  0.
        3    1    3    3  502    0  0.26514612530E+03 -0.89444331297E+03  0.81294389515E+03  0.12374203387E+04  0.10100000352E+00 0. -1.
       -3    1    3    3    0  502 -0.26514612530E+03  0.89444331297E+03 -0.19428811359E+04  0.21552536803E+04  0.10100000352E+00 0.  1.
</event>
<event>
 5   0  0.9353994E-08  0.3199695E+04  0.7818609E-02  0.8188898E-01
        2   -1    0    0  501    0  0.00000000000E+00  0.00000000000E+00  0.16333635819E+04  0.16333635819E+04  0.25500000920E-02 0. -1.
       -2   -1    0    0    0  501  0.00000000000E+00  0.00000000000E+00 -0.15670193152E+04  0.15670193152E+04  0.25500000920E-02 0.  1.
    10030    2    1    2    0    0  0.00000000000E+00  0.00000000000E+00  0.66344266732E+02  0.32003828971E+04  0.31996951614E+04 0.  0.
        2    1    3    3  502    0  0.99950621827E+03  0.87895517827E+03 -0.85467703586E+03  0.15817862439E+04  0.25500000920E-02 0.  1.
       -2    1    3    3    0  502 -0.99950621827E+03 -0.87895517827E+03  0.92102130259E+03  0.16185966532E+04  0.25500000920E-02 0. -1.
</event>
<event>
 5   0  0.3427667E-08  0.3199182E+04  0.7818609E-02  0.8189033E-01
       -1   -1    0    0    0  501  0.00000000000E+00  0.00000000000E+00  0.99782062229E+03  0.99782062230E+03  0.50400001928E-02 0. -1.
        1   -1    0    0  501    0  0.00000000000E+00  0.00000000000E+00 -0.25642792649E+04  0.25642792649E+04  0.50400001928E-02 0.  1.
    10030    2    1    2    0    0  0.00000000000E+00  0.00000000000E+00 -0.15664586426E+04  0.35620998872E+04  0.31991816028E+04 0.  0.
        2    1    3    3  502    0 -0.11345671134E+04 -0.39750399933E+03 -0.19581278750E+04  0.22977199001E+04  0.25500000920E-02 0.  1.
       -2    1    3    3    0  502  0.11345671134E+04  0.39750399933E+03  0.39166923238E+03  0.12643799872E+04  0.25500000920E-02 0. -1.
</event>
<event>
 5   0  0.9157524E-08  0.3200690E+04  0.7818609E-02  0.8188635E-01
       -2   -1    0    0    0  501  0.00000000000E+00  0.00000000000E+00  0.11822266256E+04  0.11822266256E+04  0.25500000920E-02 0.  1.
        2   -1    0    0  501    0  0.00000000000E+00  0.00000000000E+00 -0.21663396606E+04  0.21663396606E+04  0.25500000920E-02 0. -1.
    10030    2    1    2    0    0  0.00000000000E+00  0.00000000000E+00 -0.98411303501E+03  0.33485662862E+04  0.32006901924E+04 0.  0.
        5    1    3    3  502    0 -0.10805388073E+04  0.45050496760E+02 -0.17261700070E+04  0.20369778213E+04  0.46999998093E+01 0. -1.
       -5    1    3    3    0  502  0.10805388073E+04 -0.45050496760E+02  0.74205697202E+03  0.13115884649E+04  0.46999998093E+01 0.  1.
</event>
<event>
 5   0  0.9157524E-08  0.3199077E+04  0.7818609E-02  0.8189061E-01
        2   -1    0    0  501    0  0.00000000000E+00  0.00000000000E+00  0.17739731131E+04  0.17739731131E+04  0.25500000920E-02 0.  1.
       -2   -1    0    0    0  501  0.00000000000E+00  0.00000000000E+00 -0.14422559187E+04  0.14422559187E+04  0.25500000920E-02 0. -1.
    10030    2    1    2    0    0  0.00000000000E+00  0.00000000000E+00  0.33171719444E+03  0.32162290317E+04  0.31990768805E+04 0.  0.
        5    1    3    3  502    0 -0.62004082466E+03  0.10672216899E+04 -0.85698917965E+03  0.15026194807E+04  0.46999998093E+01 0. -1.
       -5    1    3    3    0  502  0.62004082466E+03 -0.10672216899E+04  0.11887063741E+04  0.17136095511E+04  0.46999998093E+01 0.  1.
</event>
<event>
 5   0  0.9329929E-08  0.3200672E+04  0.7818609E-02  0.8188640E-01
        2   -1    0    0  501    0  0.00000000000E+00  0.00000000000E+00  0.15310152890E+04  0.15310152890E+04  0.25500000920E-02 0. -1.
       -2   -1    0    0    0  501  0.00000000000E+00  0.00000000000E+00 -0.16727949300E+04  0.16727949300E+04  0.25500000920E-02 0.  1.
    10030    2    1    2    0    0  0.00000000000E+00  0.00000000000E+00 -0.14177964092E+03  0.32038102190E+04  0.32006715628E+04 0.  0.
        1    1    3    3  502    0  0.37851435519E+02  0.15961256228E+04 -0.18065535993E+03  0.16067626128E+04  0.50400001928E-02 0.  1.
       -1    1    3    3    0  502 -0.37851435519E+02 -0.15961256228E+04  0.38875719007E+02  0.15970476062E+04  0.50400001928E-02 0. -1.
</event>
<event>
 5   0  0.9727083E-08  0.3201177E+04  0.7818609E-02  0.8188506E-01
       -2   -1    0    0    0  501  0.00000000000E+00  0.00000000000E+00  0.94984040977E+03  0.94984040977E+03  0.25500000920E-02 0. -1.
        2   -1    0    0  501    0  0.00000000000E+00  0.00000000000E+00 -0.26971729151E+04  0.26971729151E+04  0.25500000920E-02 0.  1.
    10030    2    1    2    0    0  0.00000000000E+00  0.00000000000E+00 -0.17473325053E+04  0.36470133248E+04  0.32011771753E+04 0.  0.
        4    1    3    3  502    0 -0.72149241972E+03 -0.50598941873E+03  0.64857652881E+03  0.10941799350E+04  0.12699999809E+01 0. -1.
       -4    1    3    3    0  502  0.72149241972E+03  0.50598941873E+03 -0.23959090341E+04  0.25528333898E+04  0.12699999809E+01 0.  1.
</event>
<event>
 5   0  0.3427667E-08  0.3199646E+04  0.7818609E-02  0.8188911E-01
       -1   -1    0    0    0  501  0.00000000000E+00  0.00000000000E+00  0.10702300592E+04  0.10702300592E+04  0.50400001928E-02 0. -1.
        1   -1    0    0  501    0  0.00000000000E+00  0.00000000000E+00 -0.23914803227E+04  0.23914803227E+04  0.50400001928E-02 0.  1.
    10030    2    1    2    0    0  0.00000000000E+00  0.00000000000E+00 -0.13212502635E+04  0.34617103820E+04  0.31996463101E+04 0.  0.
        2    1    3    3  502    0  0.14978605691E+04 -0.41003540495E+03 -0.10764463596E+04  0.18895639928E+04  0.25500000920E-02 0. -1.
       -2    1    3    3    0  502 -0.14978605691E+04  0.41003540495E+03 -0.24480390391E+03  0.15721463892E+04  0.25500000920E-02 0.  1.
</event>
<event>
 5   0  0.3427667E-08  0.3199166E+04  0.7818609E-02  0.8189038E-01
        1   -1    0    0  501    0  0.00000000000E+00  0.00000000000E+00  0.21769375593E+04  0.21769375593E+04  0.50400001928E-02 0. -1.
       -1   -1    0    0    0  501  0.00000000000E+00  0.00000000000E+00 -0.11753506881E+04  0.11753506881E+04  0.50400001928E-02 0.  1.
    10030    2    1    2    0    0  0.00000000000E+00  0.00000000000E+00  0.10015868712E+04  0.33522882474E+04  0.31991655526E+04 0.  0.
        2    1    3    3  502    0  0.13875361058E+03 -0.73288709433E+03 -0.98195686408E+03  0.12331323288E+04  0.25500000920E-02 0.  1.
       -2    1    3    3    0  502 -0.13875361058E+03  0.73288709433E+03  0.19835437353E+04  0.21191559186E+04  0.25500000920E-02 0. -1.
</event>
<event>
 5   0  0.9157524E-08  0.3199521E+04  0.7818609E-02  0.8188944E-01
        2   -1    0    0  501    0  0.00000000000E+00  0.00000000000E+00  0.22576790879E+04  0.22576790880E+04  0.25500000920E-02 0. -1.
       -2   -1    0    0    0  501  0.00000000000E+00  0.00000000000E+00 -0.11335685682E+04  0.11335685682E+04  0.25500000920E-02 0.  1.
    10030    2    1    2    0    0  0.00000000000E+00  0.00000000000E+00  0.11241105198E+04  0.33912476561E+04  0.31995212461E+04 0.  0.
        5    1    3    3  502    0 -0.72843393231E+02  0.14546464448E+04 -0.13934625966E+03  0.14631274413E+04  0.46999998093E+01 0.  1.
       -5    1    3    3    0  502  0.72843393231E+02 -0.14546464448E+04  0.12634567794E+04  0.19281202148E+04  0.46999998093E+01 0. -1.
</event>
<event>
 5   0  0.9707721E-08  0.3200621E+04  0.7818609E-02  0.8188653E-01
        2   -1    0    0  501    0  0.00000000000E+00  0.00000000000E+00  0.14858068387E+04  0.14858068387E+04  0.25500000920E-02 0.  1.
       -2   -1    0    0    0  501  0.00000000000E+00  0.00000000000E+00 -0.17236384694E+04  0.17236384694E+04  0.25500000920E-02 0. -1.
    10030    2    1    2    0    0  0.00000000000E+00  0.00000000000E+00 -0.23783163073E+03  0.32094453081E+04  0.32006210805E+04 0.  0.
        3    1    3    3  502    0  0.34430370454E+03  0.62110887698E+03 -0.15569800736E+04  0.17112884730E+04  0.10100000352E+00 0. -1.
       -3    1    3    3    0  502 -0.34430370454E+03 -0.62110887698E+03  0.13191484429E+04  0.14981568351E+04  0.10100000352E+00 0.  1.
</event>
<event>
 5   0  0.3427667E-08  0.3199025E+04  0.7818609E-02  0.8189075E-01
        1   -1    0    0  501    0  0.00000000000E+00  0.00000000000E+00  0.14424285658E+04  0.14424285658E+04  0.50400001928E-02 0. -1.
       -1   -1    0    0    0  501  0.00000000000E+00  0.00000000000E+00 -0.17737034098E+04  0.17737034098E+04  0.50400001928E-02 0.  1.
    10030    2    1    2    0    0  0.00000000000E+00  0.00000000000E+00 -0.33127484403E+03  0.32161319756E+04  0.31990251425E+04 0.  0.
        2    1    3    3  502    0  0.24609295456E+02  0.14725317906E+04  0.46178720650E+03  0.15434386661E+04  0.25500000920E-02 0. -1.
       -2    1    3    3    0  502 -0.24609295456E+02 -0.14725317906E+04 -0.79306205052E+03  0.16726933096E+04  0.25500000920E-02 0.  1.
</event>
<event>
 5   0  0.9727083E-08  0.3201961E+04  0.7818609E-02  0.8188299E-01
        2   -1    0    0  501    0  0.00000000000E+00  0.00000000000E+00  0.18533396087E+04  0.18533396087E+04  0.25500000920E-02 0. -1.
       -2   -1    0    0    0  501  0.00000000000E+00  0.00000000000E+00 -0.13829836640E+04  0.13829836640E+04  0.25500000920E-02 0.  1.
    10030    2    1    2    0    0  0.00000000000E+00  0.00000000000E+00  0.47035594467E+03  0.32363232727E+04  0.32019609009E+04 0.  0.
        4    1    3    3  502    0 -0.12273770398E+04 -0.76618801421E+03  0.92783402606E+03  0.17188298530E+04  0.12699999809E+01 0. -1.
       -4    1    3    3    0  502  0.12273770398E+04  0.76618801421E+03 -0.45747808139E+03  0.15174934197E+04  0.12699999809E+01 0.  1.
</event>
<event>
 5   0  0.3220147E-08  0.3198390E+04  0.7818609E-02  0.8189243E-01
       -1   -1    0    0    0  501  0.00000000000E+00  0.00000000000E+00  0.12420642038E+04  0.12420642038E+04  0.50400001928E-02 0. -1.
        1   -1    0    0  501    0  0.00000000000E+00  0.00000000000E+00 -0.20590113887E+04  0.20590113887E+04  0.50400001928E-02 0.  1.
    10030    2    1    2    0    0  0.00000000000E+00  0.00000000000E+00 -0.81694718489E+03  0.33010755925E+04  0.31983898081E+04 0.  0.
        4    1    3    3  502    0  0.10491026910E+04  0.11005848847E+04 -0.91988073856E+03  0.17771003716E+04  0.12699999809E+01 0.  1.
       -4    1    3    3    0  502 -0.10491026910E+04 -0.11005848847E+04  0.10293355367E+03  0.15239752209E+04  0.12699999809E+01 0. -1.
</event>
<event>
 5   0  0.3270966E-08  0.3195995E+04  0.7818609E-02  0.8189876E-01
       -1   -1    0    0    0  501  0.00000000000E+00  0.00000000000E+00  0.28316832457E+04  0.28316832457E+04  0.50400001928E-02 0.  1.
        1   -1    0    0  501    0  0.00000000000E+00  0.00000000000E+00 -0.90179425997E+03  0.90179425998E+03  0.50400001928E-02 0. -1.
    10030    2    1    2    0    0  0.00000000000E+00  0.00000000000E+00  0.19298889857E+04  0.37334775057E+04  0.31959948042E+04 0.  0.
        3    1    3    3  502    0 -0.10810621729E+04  0.54333393210E+03 -0.25449051563E+03  0.12363950081E+04  0.10100000352E+00 0. -1.
       -3    1    3    3    0  502  0.10810621729E+04 -0.54333393210E+03  0.21843795013E+04  0.24970824975E+04  0.10100000352E+00 0.  1.
</event>
<event>
 5   0  0.9329929E-08  0.3199987E+04  0.7818609E-02  0.8188821E-01
       -2   -1    0    0    0  501  0.00000000000E+00  0.00000000000E+00  0.18823645882E+04  0.18823645882E+04  0.25500000920E-02 0. -1.
        2   -1    0    0  501    0  0.00000000000E+00  0.00000000000E+00 -0.13599804497E+04  0.13599804497E+04  0.25500000920E-02 0.  1.
    10030    2    1    2    0    0  0.00000000000E+00  0.00000000000E+00  0.52238413848E+03  0.32423450379E+04  0.31999868995E+04 0.  0.
        1    1    3    3  502    0 -0.10529759027E+04 -0.11114191830E+04 -0.20968324184E+03  0.15453083556E+04  0.50400001928E-02 0. -1.
       -1    1    3    3    0  502  0.10529759027E+04  0.11114191830E+04  0.73206738032E+03  0.16970366823E+04  0.50400001928E-02 0.  1.
</event>
<event>
 5   0  0.3427667E-08  0.3200881E+04  0.7818609E-02  0.8188585E-01
        1   -1    0    0  501    0  0.00000000000E+00  0.00000000000E+00  0.18811889835E+04  0.18811889835E+04  0.50400001928E-02 0.  1.
       -1   -1    0    0    0  501  0.00000000000E+00  0.00000000000E+00 -0.13615910098E+04  0.13615910098E+04  0.50400001928E-02 0. -1.
    10030    2    1    2    0    0  0.00000000000E+00  0.00000000000E+00  0.51959797372E+03  0.32427799933E+04  0.32008811335E+04 0.  0.
        2    1    3    3  502    0  0.13201232386E+04  0.68439755766E+02 -0.65423072229E+03  0.14749329488E+04  0.25500000920E-02 0. -1.
       -2    1    3    3    0  502 -0.13201232386E+04 -0.68439755766E+02  0.11738286960E+04  0.17678470446E+04  0.25500000920E-02 0.  1.
</event>
<event>
 5   0  0.9329929E-08  0.3198965E+04  0.7818609E-02  0.8189091E-01
        2   -1    0    0  501    0  0.00000000000E+00  0.00000000000E+00  0.14708030678E+04  0.14708030678E+04  0.25500000920E-02 0.  1.
       -2   -1    0    0    0  501  0.00000000000E+00  0.00000000000E+00 -0.17394202262E+04  0.17394202262E+04  0.25500000920E-02 0. -1.
    10030    2    1    2    0    0  0.00000000000E+00  0.00000000000E+00 -0.26861715838E+03  0.32102232939E+04  0.31989652107E+04 0.  0.
        1    1    3    3  502    0 -0.98551509430E+03  0.10449095691E+04 -0.84053851127E+03  0.16642058159E+04  0.50400001928E-02 0. -1.
       -1    1    3    3    0  502  0.98551509430E+03 -0.10449095691E+04  0.57192135289E+03  0.15460174781E+04  0.50400001928E-02 0.  1.
</event>
<event>
 5   0  0.9707721E-08  0.3200805E+04  0.7818609E-02  0.8188605E-01
        2   -1    0    0  501    0  0.00000000000E+00  0.00000000000E+00  0.16410785503E+04  0.16410785503E+04  0.25500000920E-02 0.  1.
       -2   -1    0    0    0  501  0.00000000000E+00  0.00000000000E+00 -0.15607342016E+04  0.15607342016E+04  0.25500000920E-02 0. -1.
    10030    2    1    2    0    0  0.00000000000E+00  0.00000000000E+00  0.80344348706E+02  0.32018127518E+04  0.32008045369E+04 0.  0.
        3    1    3    3  502    0 -0.49616266639E+03  0.67992084060E+03 -0.13214390345E+04  0.15667389295E+04  0.10100000352E+00 0. -1.
       -3    1    3    3    0  502  0.49616266639E+03 -0.67992084060E+03  0.14017833832E+04  0.16350738224E+04  0.10100000352E+00 0.  1.
</event>
<event>
 5   0  0.3343140E-08  0.3201245E+04  0.7818609E-02  0.8188488E-01
        1   -1    0    0  501    0  0.00000000000E+00  0.00000000000E+00  0.25213633188E+04  0.25213633188E+04  0.50400001928E-02 0.  1.
       -1   -1    0    0    0  501  0.00000000000E+00  0.00000000000E+00 -0.10161141235E+04  0.10161141235E+04  0.50400001928E-02 0. -1.
    10030    2    1    2    0    0  0.00000000000E+00  0.00000000000E+00  0.15052491953E+04  0.35374774423E+04  0.32012453068E+04 0.  0.
        1    1    3    3  502    0 -0.12436873774E+04  0.42518974332E+03  0.17620504731E+04  0.21982644245E+04  0.50400001928E-02 0.  1.
       -1    1    3    3    0  502  0.12436873774E+04 -0.42518974332E+03 -0.25680127773E+03  0.13392130177E+04  0.50400001928E-02 0. -1.
</event>
<event>
 5   0  0.3343140E-08  0.3190149E+04  0.7818609E-02  0.8191424E-01
        1   -1    0    0  501    0  0.00000000000E+00  0.00000000000E+00  0.16254297021E+04  0.16254297021E+04  0.50400001928E-02 0. -1.
       -1   -1    0    0    0  501  0.00000000000E+00  0.00000000000E+00 -0.15652863809E+04  0.15652863809E+04  0.50400001928E-02 0.  1.
    10030    2    1    2    0    0  0.00000000000E+00  0.00000000000E+00  0.60143321204E+02  0.31907160831E+04  0.31901491977E+04 0.  0.
        1    1    3    3  502    0  0.26459067809E+03  0.73159191771E+03  0.14228089659E+04  0.16216104077E+04  0.50400001928E-02 0. -1.
       -1    1    3    3    0  502 -0.26459067809E+03 -0.73159191771E+03 -0.13626656447E+04  0.15691056753E+04  0.50400001928E-02 0.  1.
</event>
<event>
 5   0  0.9329929E-08  0.3201677E+04  0.7818609E-02  0.8188375E-01
        2   -1    0    0  501    0  0.00000000000E+00  0.00000000000E+00  0.20429185893E+04  0.20429185893E+04  0.25500000920E-02 0. -1.
       -2   -1    0    0    0  501  0.00000000000E+00  0.00000000000E+00 -0.12544226372E+04  0.12544226372E+04  0.25500000920E-02 0.  1.
    10030    2    1    2    0    0  0.00000000000E+00  0.00000000000E+00  0.78849595206E+03  0.32973412265E+04  0.32016766385E+04 0.  0.
        1    1    3    3  502    0  0.19655527178E+02 -0.97966649027E+03  0.16979918914E+04  0.19604359809E+04  0.50400001928E-02 0. -1.
       -1    1    3    3    0  502 -0.19655527178E+02  0.97966649027E+03 -0.90949593939E+03  0.13369052456E+04  0.50400001928E-02 0.  1.
</event>
<event>
 5   0  0.3427667E-08  0.3200089E+04  0.7818609E-02  0.8188794E-01
       -1   -1    0    0    0  501  0.00000000000E+00  0.00000000000E+00  0.14165256647E+04  0.14165256647E+04  0.50400001928E-02 0. -1.
        1   -1    0    0  501    0  0.00000000000E+00  0.00000000000E+00 -0.18073394451E+04  0.18073394451E+04  0.50400001928E-02 0.  1.
    10030    2    1    2    0    0  0.00000000000E+00  0.00000000000E+00 -0.39081378033E+03  0.32238651098E+04  0.32000891918E+04 0.  0.
        2    1    3    3  502    0  0.57242321218E+03 -0.44793122825E+03 -0.16314208969E+04  0.17860136791E+04  0.25500000920E-02 0.  1.
       -2    1    3    3    0  502 -0.57242321218E+03  0.44793122825E+03  0.12406071166E+04  0.14378514307E+04  0.25500000920E-02 0. -1.
</event>
<event>
 5   0  0.3343140E-08  0.3203850E+04  0.7818609E-02  0.8187801E-01
        1   -1    0    0  501    0  0.00000000000E+00  0.00000000000E+00  0.25056086101E+04  0.25056086101E+04  0.50400001928E-02 0. -1.
       -1   -1    0    0    0  501  0.00000000000E+00  0.00000000000E+00 -0.10241677072E+04  0.10241677072E+04  0.50400001928E-02 0.  1.
    10030    2    1    2    0    0  0.00000000000E+00  0.00000000000E+00  0.14814409029E+04  0.35297763174E+04  0.32038498251E+04 0.  0.
        1    1    3    3  502    0  0.52583071797E+03  0.13760005131E+04  0.47166049205E+02  0.14738045977E+04  0.50400001928E-02 0.  1.
       -1    1    3    3    0  502 -0.52583071797E+03 -0.13760005131E+04  0.14342748537E+04  0.20559717197E+04  0.50400001928E-02 0. -1.
</event>
<event>
 5   0  0.9707721E-08  0.3198595E+04  0.7818609E-02  0.8189188E-01
        2   -1    0    0  501    0  0.00000000000E+00  0.00000000000E+00  0.19025319552E+04  0.19025319552E+04  0.25500000920E-02 0.  1.
       -2   -1    0    0    0  501  0.00000000000E+00  0.00000000000E+00 -0.13443942829E+04  0.13443942829E+04  0.25500000920E-02 0. -1.
    10030    2    1    2    0    0  0.00000000000E+00  0.00000000000E+00  0.55813767231E+03  0.32469262380E+04  0.31985953689E+04 0.  0.
        3    1    3    3  502    0 -0.13258343764E+04  0.19981526091E+03  0.11640155029E+04  0.17755830123E+04  0.10100000352E+00 0.  1.
       -3    1    3    3    0  502  0.13258343764E+04 -0.19981526091E+03 -0.60587783061E+03  0.14713432258E+04  0.10100000352E+00 0. -1.
</event>
<event>
 5   0  0.3220147E-08  0.3201142E+04  0.7818609E-02  0.8188516E-01
       -1   -1    0    0    0  501  0.00000000000E+00  0.00000000000E+00  0.11542473837E+04  0.11542473837E+04  0.50400001928E-02 0. -1.
        1   -1    0    0  501    0  0.00000000000E+00  0.00000000000E+00 -0.22194790813E+04  0.22194790813E+04  0.50400001928E-02 0.  1.
    10030    2    1    2    0    0  0.00000000000E+00  0.00000000000E+00 -0.10652316977E+04  0.33737264650E+04  0.32011422478E+04 0.  0.
        4    1    3    3  502    0  0.96936265873E+03 -0.93441803205E+03 -0.14447382769E+04  0.19748598240E+04  0.12699999809E+01 0. -1.
       -4    1    3    3    0  502 -0.96936265873E+03  0.93441803205E+03  0.37950657923E+03  0.13988666410E+04  0.12699999809E+01 0.  1.
</event>
<event>
 5   0  0.3343140E-08  0.3200413E+04  0.7818609E-02  0.8188708E-01
       -1   -1    0    0    0  501  0.00000000000E+00  0.00000000000E+00  0.22797969214E+04  0.22797969214E+04  0.50400001928E-02 0. -1.
        1   -1    0    0  501    0  0.00000000000E+00  0.00000000000E+00 -0.11231966683E+04  0.11231966683E+04  0.50400001928E-02 0.  1.
    10030    2    1    2    0    0  0.00000000000E+00  0.00000000000E+00  0.11566002531E+04  0.34029935897E+04  0.32004126650E+04 0.  0.
        1    1    3    3  502    0 -0.11079471483E+04  0.85232941018E+03  0.14064778328E+04  0.19829755927E+04  0.50400001928E-02 0.  1.
       -1    1    3    3    0  502  0.11079471483E+04 -0.85232941018E+03 -0.24987757970E+03  0.14200179970E+04  0.50400001928E-02 0. -1.
</event>
<event>
 5   0  0.3343140E-08  0.3186399E+04  0.7818609E-02  0.8192418E-01
        1   -1    0    0  501    0  0.00000000000E+00  0.00000000000E+00  0.25620467072E+04  0.25620467072E+04  0.50400001928E-02 0.  1.
       -1   -1    0    0    0  501  0.00000000000E+00  0.00000000000E+00 -0.99072525968E+03  0.99072525970E+03  0.50400001928E-02 0. -1.
    10030    2    1    2    0    0  0.00000000000E+00  0.00000000000E+00  0.15713214475E+04  0.35527719669E+04  0.31863988384E+04 0.  0.
        1    1    3    3  502    0 -0.56890686355E+03  0.14788875671E+04  0.97062965229E+03  0.18581941173E+04  0.50400001928E-02 0.  1.
       -1    1    3    3    0  502  0.56890686355E+03 -0.14788875671E+04  0.60069179524E+03  0.16945778496E+04  0.50400001928E-02 0. -1.
</event>
<event>
 5   0  0.9353994E-08  0.3201476E+04  0.7818609E-02  0.8188427E-01
       -2   -1    0    0    0  501  0.00000000000E+00  0.00000000000E+00  0.11242747448E+04  0.11242747448E+04  0.25500000920E-02 0. -1.
        2   -1    0    0  501    0  0.00000000000E+00  0.00000000000E+00 -0.22791250390E+04  0.22791250390E+04  0.25500000920E-02 0.  1.
    10030    2    1    2    0    0  0.00000000000E+00  0.00000000000E+00 -0.11548502942E+04  0.34033997838E+04  0.32014763604E+04 0.  0.
        2    1    3    3  502    0 -0.33293228045E+03  0.12664129863E+04 -0.15562119502E+04  0.20338243261E+04  0.25500000920E-02 0.  1.
       -2    1    3    3    0  502  0.33293228045E+03 -0.12664129863E+04  0.40136165604E+03  0.13695754577E+04  0.25500000920E-02 0. -1.
</event>
<event>
 5   0  0.9727083E-08  0.3199992E+04  0.7818609E-02  0.8188819E-01
        2   -1    0    0  501    0  0.00000000000E+00  0.00000000000E+00  0.15814860128E+04  0.15814860128E+04  0.25500000920E-02 0. -1.
       -2   -1    0    0    0  501  0.00000000000E+00  0.00000000000E+00 -0.16187224049E+04  0.16187224049E+04  0.25500000920E-02 0.  1.
    10030    2    1    2    0    0  0.00000000000E+00  0.00000000000E+00 -0.37236392140E+02  0.32002084178E+04  0.31999917763E+04 0.  0.
        4    1    3    3  502    0  0.27787238205E+03 -0.57491101570E+03 -0.14857722165E+04  0.16171754478E+04  0.12699999809E+01 0.  1.
       -4    1    3    3    0  502 -0.27787238205E+03  0.57491101570E+03  0.14485358244E+04  0.15830329700E+04  0.12699999809E+01 0. -1.
</event>
<event>
 5   0  0.9707721E-08  0.3199637E+04  0.7818609E-02  0.8188913E-01
       -2   -1    0    0    0  501  0.00000000000E+00  0.00000000000E+00  0.13067112382E+04  0.13067112382E+04  0.25500000920E-02 0.  1.
        2   -1    0    0  501    0  0.00000000000E+00  0.00000000000E+00 -0.19586724718E+04  0.19586724718E+04  0.25500000920E-02 0. -1.
    10030    2    1    2    0    0  0.00000000000E+00  0.00000000000E+00 -0.65196123359E+03  0.32653837099E+04  0.31996370611E+04 0.  0.
        3    1    3    3  502    0 -0.70974740667E+03  0.14275624689E+04 -0.19003940141E+03  0.16055500516E+04  0.10100000352E+00 0.  1.
       -3    1    3    3    0  502  0.70974740667E+03 -0.14275624689E+04 -0.46192183218E+03  0.16598336583E+04  0.10100000352E+00 0. -1.
</event>
<event>
 5   0  0.3270966E-08  0.3197039E+04  0.7818609E-02  0.8189600E-01
        1   -1    0    0  501    0  0.00000000000E+00  0.00000000000E+00  0.14596270314E+04  0.14596270314E+04  0.50400001928E-02 0. -1.
       -1   -1    0    0    0  501  0.00000000000E+00  0.00000000000E+00 -0.17506282252E+04  0.17506282253E+04  0.50400001928E-02 0.  1.
    10030    2    1    2    0    0  0.00000000000E+00  0.00000000000E+00 -0.29100119382E+03  0.32102552567E+04  0.31970388046E+04 0.  0.
        3    1    3    3  502    0  0.27619304686E+03  0.15627925377E+04 -0.33776315950E+03  0.16225557239E+04  0.10100000352E+00 0. -1.
       -3    1    3    3    0  502 -0.27619304686E+03 -0.15627925377E+04  0.46761965681E+02  0.15876995328E+04  0.10100000352E+00 0.  1.
</event>
<event>
 5   0  0.9157524E-08  0.3200614E+04  0.7818609E-02  0.8188655E-01
        2   -1    0    0  501    0  0.00000000000E+00  0.00000000000E+00  0.22818156153E+04  0.22818156153E+04  0.25500000920E-02 0. -1.
       -2   -1    0    0    0  501  0.00000000000E+00  0.00000000000E+00 -0.11223444072E+04  0.11223444072E+04  0.25500000920E-02 0.  1.
    10030    2    1    2    0    0  0.00000000000E+00  0.00000000000E+00  0.11594712082E+04  0.34041600225E+04  0.32006143123E+04 0.  0.
        5    1    3    3  502    0  0.45681406873E+02  0.82431454179E+03  0.20378241022E+04  0.21987110807E+04  0.46999998093E+01 0. -1.
       -5    1    3    3    0  502 -0.45681406873E+02 -0.82431454179E+03 -0.87835289406E+03  0.12054489418E+04  0.46999998093E+01 0.  1.
</event>
<event>
 5   0  0.9353994E-08  0.3202653E+04  0.7818609E-02  0.8188117E-01
        2   -1    0    0  501    0  0.00000000000E+00  0.00000000000E+00  0.15374703840E+04  0.15374703840E+04  0.25500000920E-02 0.  1.
       -2   -1    0    0    0  501  0.00000000000E+00  0.00000000000E+00 -0.16678346738E+04  0.16678346738E+04  0.25500000920E-02 0. -1.
    10030    2    1    2    0    0  0.00000000000E+00  0.00000000000E+00 -0.13036428980E+03  0.32053050579E+04  0.32026529107E+04 0.  0.
        2    1    3    3  502    0 -0.13322661518E+04 -0.31648236932E+03  0.76565724197E+03  0.15688611161E+04  0.25500000920E-02 0.  1.
       -2    1    3    3    0  502  0.13322661518E+04  0.31648236932E+03 -0.89602153178E+03  0.16364439418E+04  0.25500000920E-02 0. -1.
</event>
<event>
 5   0  0.3270966E-08  0.3197493E+04  0.7818609E-02  0.8189479E-01
        1   -1    0    0  501    0  0.00000000000E+00  0.00000000000E+00  0.23315250164E+04  0.23315250164E+04  0.50400001928E-02 0. -1.
       -1   -1    0    0    0  501  0.00000000000E+00  0.00000000000E+00 -0.10962743784E+04  0.10962743784E+04  0.50400001928E-02 0.  1.
    10030    2    1    2    0    0  0.00000000000E+00  0.00000000000E+00  0.12352506379E+04  0.34277993948E+04  0.31974934797E+04 0.  0.
        3    1    3    3  502    0  0.33805576901E+03 -0.15165153155E+04  0.21381005504E+03  0.15683797865E+04  0.10100000352E+00 0.  1.
       -3    1    3    3    0  502 -0.33805576901E+03  0.15165153155E+04  0.10214405829E+04  0.18594196083E+04  0.10100000352E+00 0. -1.
</event>
<event>
 5   0  0.9157524E-08  0.3197566E+04  0.7818609E-02  0.8189460E-01
       -2   -1    0    0    0  501  0.00000000000E+00  0.00000000000E+00  0.16090027827E+04  0.16090027827E+04  0.25500000920E-02 0.  1.
        2   -1    0    0  501    0  0.00000000000E+00  0.00000000000E+00 -0.15886279450E+04  0.15886279450E+04  0.25500000920E-02 0. -1.
    10030    2    1    2    0    0  0.00000000000E+00  0.00000000000E+00  0.20374837614E+02  0.31976307277E+04  0.31975658143E+04 0.  0.
        5    1    3    3  502    0  0.56592876131E+03  0.98139878518E+03 -0.11179603679E+04  0.15916269703E+04  0.46999998093E+01 0. -1.
       -5    1    3    3    0  502 -0.56592876131E+03 -0.98139878518E+03  0.11383352056E+04  0.16060037574E+04  0.46999998093E+01 0.  1.
</event>
<event>
 5   0  0.3080500E-08  0.3201085E+04  0.7818609E-02  0.8188531E-01
       -3   -1    0    0    0  501  0.00000000000E+00  0.00000000000E+00  0.12458385086E+04  0.12458385127E+04  0.10100000352E+00 0.  1.
        3   -1    0    0  501    0  0.00000000000E+00  0.00000000000E+00 -0.20562341027E+04  0.20562341052E+04  0.10100000352E+00 0. -1.
    10030    2    1    2    0    0  0.00000000000E+00  0.00000000000E+00 -0.81039559413E+03  0.33020726178E+04  0.32010845903E+04 0.  0.
        1    1    3    3  502    0 -0.10817952750E+03  0.46021760603E+03 -0.19825668762E+04  0.20381546736E+04  0.50400001928E-02 0. -1.
       -1    1    3    3    0  502  0.10817952750E+03 -0.46021760603E+03  0.11721712821E+04  0.12639179442E+04  0.50400001928E-02 0.  1.
</event>
<event>
 5   0  0.9157524E-08  0.3199182E+04  0.7818609E-02  0.8189033E-01
       -2   -1    0    0    0  501  0.00000000000E+00  0.00000000000E+00  0.11188962663E+04  0.11188962663E+04  0.25500000920E-02 0. -1.
        2   -1    0    0  501    0  0.00000000000E+00  0.00000000000E+00 -0.22867995879E+04  0.22867995879E+04  0.25500000920E-02 0.  1.
    10030    2    1    2    0    0  0.00000000000E+00  0.00000000000E+00 -0.11679033216E+04  0.34056958542E+04  0.31991820959E+04 0.  0.
        5    1    3    3  502    0  0.97418310827E+02 -0.11114305568E+04  0.63629677090E+03  0.12843924168E+04  0.46999998093E+01 0. -1.
       -5    1    3    3    0  502 -0.97418310827E+02  0.11114305568E+04 -0.18042000925E+04  0.21213034374E+04  0.46999998093E+01 0.  1.
</event>
<event>
 5   0  0.9329929E-08  0.3203064E+04  0.7818609E-02  0.8188009E-01
        2   -1    0    0  501    0  0.00000000000E+00  0.00000000000E+00  0.87332383734E+03  0.87332383735E+03  0.25500000920E-02 0.  1.
       -2   -1    0    0    0  501  0.00000000000E+00  0.00000000000E+00 -0.29369449324E+04  0.29369449324E+04  0.25500000920E-02 0. -1.
    10030    2    1    2    0    0  0.00000000000E+00  0.00000000000E+00 -0.20636210950E+04  0.38102687697E+04  0.32030635450E+04 0.  0.
        1    1    3    3  502    0  0.51050416307E+03  0.13573567767E+03 -0.28303309885E+04  0.28792033931E+04  0.50400001928E-02 0. -1.
       -1    1    3    3    0  502 -0.51050416307E+03 -0.13573567767E+03  0.76670989345E+03  0.93106537657E+03  0.50400001928E-02 0.  1.
</event>
<event>
 5   0  0.9727083E-08  0.3199017E+04  0.7818609E-02  0.8189077E-01
       -2   -1    0    0    0  501  0.00000000000E+00  0.00000000000E+00  0.12454653251E+04  0.12454653251E+04  0.25500000920E-02 0. -1.
        2   -1    0    0  501    0  0.00000000000E+00  0.00000000000E+00 -0.20541941167E+04  0.20541941167E+04  0.25500000920E-02 0.  1.
    10030    2    1    2    0    0  0.00000000000E+00  0.00000000000E+00 -0.80872879158E+03  0.32996594419E+04  0.31990170637E+04 0.  0.
        4    1    3    3  502    0 -0.57963352444E+03  0.82999997585E+02 -0.19396688394E+04  0.20261245869E+04  0.12699999809E+01 0.  1.
       -4    1    3    3    0  502  0.57963352444E+03 -0.82999997585E+02  0.11309400478E+04  0.12735348550E+04  0.12699999809E+01 0. -1.
</event>
<event>
 5   0  0.3270966E-08  0.3199788E+04  0.7818609E-02  0.8188873E-01
        1   -1    0    0  501    0  0.00000000000E+00  0.00000000000E+00  0.19214197632E+04  0.19214197632E+04  0.50400001928E-02 0. -1.
       -1   -1    0    0    0  501  0.00000000000E+00  0.00000000000E+00 -0.13321718208E+04  0.13321718208E+04  0.50400001928E-02 0.  1.
    10030    2    1    2    0    0  0.00000000000E+00  0.00000000000E+00  0.58924794246E+03  0.32535915840E+04  0.31997882833E+04 0.  0.
        3    1    3    3  502    0  0.70747889559E+03 -0.35135290004E+03 -0.11200593958E+04  0.13705868482E+04  0.10100000352E+00 0.  1.
       -3    1    3    3    0  502 -0.70747889559E+03  0.35135290004E+03  0.17093073383E+04  0.18830047358E+04  0.10100000352E+00 0. -1.
</event>
<event>
 5   0  0.3220147E-08  0.3198604E+04  0.7818609E-02  0.8189186E-01
        1   -1    0    0  501    0  0.00000000000E+00  0.00000000000E+00  0.27355611229E+04  0.27355611229E+04  0.50400001928E-02 0. -1.
       -1   -1    0    0    0  501  0.00000000000E+00  0.00000000000E+00 -0.93500641238E+03  0.93500641240E+03  0.50400001928E-02 0.  1.
    10030    2    1    2    0    0  0.00000000000E+00  0.00000000000E+00  0.18005547105E+04  0.36705675353E+04  0.31986041902E+04 0.  0.
        4    1    3    3  502    0 -0.98621242346E+03  0.10048439805E+04  0.17707847055E+04  0.22623011417E+04  0.12699999809E+01 0.  1.
       -4    1    3    3    0  502  0.98621242346E+03 -0.10048439805E+04  0.29770004993E+02  0.14082663936E+04  0.12699999809E+01 0. -1.
</event>
<event>
 5   0  0.9329929E-08  0.3200403E+04  0.7818609E-02  0.8188711E-01
       -2   -1    0    0    0  501  0.00000000000E+00  0.00000000000E+00  0.11205231312E+04  0.11205231312E+04  0.25500000920E-02 0. -1.
        2   -1    0    0  501    0  0.00000000000E+00  0.00000000000E+00 -0.22852225604E+04  0.22852225604E+04  0.25500000920E-02 0.  1.
    10030    2    1    2    0    0  0.00000000000E+00  0.00000000000E+00 -0.11646994292E+04  0.34057456916E+04  0.32004029364E+04 0.  0.
        1    1    3    3  502    0 -0.66222136672E+02  0.40912249075E+03  0.10624179343E+04  0.11403939894E+04  0.50400001928E-02 0. -1.
       -1    1    3    3    0  502  0.66222136672E+02 -0.40912249075E+03 -0.22271173635E+04  0.22653517022E+04  0.50400001928E-02 0.  1.
</event>
<event>
 5   0  0.3343140E-08  0.3200176E+04  0.7818609E-02  0.8188771E-01
        1   -1    0    0  501    0  0.00000000000E+00  0.00000000000E+00  0.16417995253E+04  0.16417995253E+04  0.50400001928E-02 0. -1.
       -1   -1    0    0    0  501  0.00000000000E+00  0.00000000000E+00 -0.15594366753E+04  0.15594366753E+04  0.50400001928E-02 0.  1.
    10030    2    1    2    0    0  0.00000000000E+00  0.00000000000E+00  0.82362849952E+02  0.32012362006E+04  0.32001764909E+04 0.  0.
        1    1    3    3  502    0 -0.68046777789E+03  0.14454658855E+04 -0.47585608733E+02  0.15983342620E+04  0.50400001928E-02 0. -1.
       -1    1    3    3    0  502  0.68046777789E+03 -0.14454658855E+04  0.12994845869E+03  0.16029019386E+04  0.50400001928E-02 0.  1.
</event>
<event>
 5   0  0.9727083E-08  0.3198667E+04  0.7818609E-02  0.8189169E-01
        2   -1    0    0  501    0  0.00000000000E+00  0.00000000000E+00  0.25664434484E+04  0.25664434484E+04  0.25500000920E-02 0. -1.
       -2   -1    0    0    0  501  0.00000000000E+00  0.00000000000E+00 -0.99665838164E+03  0.99665838164E+03  0.25500000920E-02 0.  1.
    10030    2    1    2    0    0  0.00000000000E+00  0.00000000000E+00  0.15697850667E+04  0.35631018300E+04  0.31986668309E+04 0.  0.
        4    1    3    3  502    0 -0.17427063785E+03  0.31343865181E+03  0.25210754818E+04  0.25464558197E+04  0.12699999809E+01 0. -1.
       -4    1    3    3    0  502  0.17427063785E+03 -0.31343865181E+03 -0.95129041507E+03  0.10166460104E+04  0.12699999809E+01 0.  1.
</event>
<event>
 5   0  0.9157524E-08  0.3198782E+04  0.7818609E-02  0.8189139E-01
       -2   -1    0    0    0  501  0.00000000000E+00  0.00000000000E+00  0.11301566205E+04  0.11301566205E+04  0.25500000920E-02 0. -1.
        2   -1    0    0  501    0  0.00000000000E+00  0.00000000000E+00 -0.22634483398E+04  0.22634483398E+04  0.25500000920E-02 0.  1.
    10030    2    1    2    0    0  0.00000000000E+00  0.00000000000E+00 -0.11332917192E+04  0.33936049603E+04  0.31987817221E+04 0.  0.
        5    1    3    3  502    0 -0.35046296293E+03 -0.11797848973E+04 -0.16502829290E+04  0.20586822310E+04  0.46999998093E+01 0.  1.
       -5    1    3    3    0  502  0.35046296293E+03  0.11797848973E+04  0.51699120973E+03  0.13349227293E+04  0.46999998093E+01 0. -1.
</event>
<event>
 5   0  0.9157524E-08  0.3202944E+04  0.7818609E-02  0.8188040E-01
        2   -1    0    0  501    0  0.00000000000E+00  0.00000000000E+00  0.12780241026E+04  0.12780241026E+04  0.25500000920E-02 0.  1.
       -2   -1    0    0    0  501  0.00000000000E+00  0.00000000000E+00 -0.20067791672E+04  0.20067791672E+04  0.25500000920E-02 0. -1.
    10030    2    1    2    0    0  0.00000000000E+00  0.00000000000E+00 -0.72875506455E+03  0.32848032698E+04  0.32029437362E+04 0.  0.
        5    1    3    3  502    0  0.14358429390E+04 -0.55135383114E+03 -0.82193492500E+03  0.17439137316E+04  0.46999998093E+01 0.  1.
       -5    1    3    3    0  502 -0.14358429390E+04  0.55135383114E+03  0.93179860445E+02  0.15408895382E+04  0.46999998093E+01 0. -1.
</event>
<event>
 5   0  0.3220147E-08  0.3200076E+04  0.7818609E-02  0.8188797E-01
        1   -1    0    0  501    0  0.00000000000E+00  0.00000000000E+00  0.19014274503E+04  0.19014274503E+04  0.50400001928E-02 0. -1.
       -1   -1    0    0    0  501  0.00000000000E+00  0.00000000000E+00 -0.13464212355E+04  0.13464212355E+04  0.50400001928E-02 0.  1.
    10030    2    1    2    0    0  0.00000000000E+00  0.00000000000E+00  0.55500621483E+03  0.32478486859E+04  0.32000764347E+04 0.  0.
        4    1    3    3  502    0 -0.19927441682E+03 -0.14496326970E+04  0.93444917297E+03  0.17361860843E+04  0.12699999809E+01 0. -1.
       -4    1    3    3    0  502  0.19927441682E+03  0.14496326970E+04 -0.37944295814E+03  0.15116626016E+04  0.12699999809E+01 0.  1.
</event>
<event>
 5   0  0.3220147E-08  0.3204546E+04  0.7818609E-02  0.8187618E-01
        1   -1    0    0  501    0  0.00000000000E+00  0.00000000000E+00  0.17071269381E+04  0.17071269381E+04  0.50400001928E-02 0. -1.
       -1   -1    0    0    0  501  0.00000000000E+00  0.00000000000E+00 -0.15038590134E+04  0.15038590134E+04  0.50400001928E-02 0.  1.
    10030    2    1    2    0    0  0.00000000000E+00  0.00000000000E+00  0.20326792472E+03  0.32109859515E+04  0.32045456669E+04 0.  0.
        4    1    3    3  502    0  0.33347250571E+03 -0.13971159125E+04  0.81308898208E+03  0.16505308512E+04  0.12699999809E+01 0. -1.
       -4    1    3    3    0  502 -0.33347250571E+03  0.13971159125E+04 -0.60982105736E+03  0.15604551003E+04  0.12699999809E+01 0.  1.
</event>
<event>
 5   0  0.3343140E-08  0.3199683E+04  0.7818609E-02  0.8188901E-01
        1   -1    0    0  501    0  0.00000000000E+00  0.00000000000E+00  0.20531795986E+04  0.20531795986E+04  0.50400001928E-02 0. -1.
       -1   -1    0    0    0  501  0.00000000000E+00  0.00000000000E+00 -0.12465995928E+04  0.12465995928E+04  0.50400001928E-02 0.  1.
    10030    2    1    2    0    0  0.00000000000E+00  0.00000000000E+00  0.80658000579E+03  0.32997791915E+04  0.31996830166E+04 0.  0.
        1    1    3    3  502    0  0.95577129992E+02 -0.40318656780E+03  0.19968805938E+04  0.20394181773E+04  0.50400001928E-02 0. -1.
       -1    1    3    3    0  502 -0.95577129992E+02  0.40318656780E+03 -0.11903005880E+04  0.12603610141E+04  0.50400001928E-02 0.  1.
</event>
<event>
 5   0  0.9157524E-08  0.3191457E+04  0.7818609E-02  0.8191077E-01
        2   -1    0    0  501    0  0.00000000000E+00  0.00000000000E+00  0.21246735349E+04  0.21246735349E+04  0.25500000920E-02 0. -1.
       -2   -1    0    0    0  501  0.00000000000E+00  0.00000000000E+00 -0.11984663720E+04  0.11984663720E+04  0.25500000920E-02 0.  1.
    10030    2    1    2    0    0  0.00000000000E+00  0.00000000000E+00  0.92620716286E+03  0.33231399068E+04  0.31914572114E+04 0.  0.
        5    1    3    3  502    0 -0.60751136988E+03  0.24988210937E+03  0.19773478932E+04  0.20836117474E+04  0.46999998093E+01 0. -1.
       -5    1    3    3    0  502  0.60751136988E+03 -0.24988210937E+03 -0.10511407303E+04  0.12395281595E+04  0.46999998093E+01 0.  1.
</event>
<event>
 5   0  0.9727083E-08  0.3202022E+04  0.7818609E-02  0.8188283E-01
       -2   -1    0    0    0  501  0.00000000000E+00  0.00000000000E+00  0.14907447255E+04  0.14907447255E+04  0.25500000920E-02 0. -1.
        2   -1    0    0  501    0  0.00000000000E+00  0.00000000000E+00 -0.17194329443E+04  0.17194329443E+04  0.25500000920E-02 0.  1.
    10030    2    1    2    0    0  0.00000000000E+00  0.00000000000E+00 -0.22868821881E+03  0.32101776698E+04  0.32020216068E+04 0.  0.
        4    1    3    3  502    0  0.14755348646E+04 -0.54526920404E+03 -0.41294893692E+03  0.16263609928E+04  0.12699999809E+01 0.  1.
       -4    1    3    3    0  502 -0.14755348646E+04  0.54526920404E+03  0.18426071810E+03  0.15838166771E+04  0.12699999809E+01 0. -1.
</event>
<event>
 5   0  0.9329929E-08  0.3200366E+04  0.7818609E-02  0.8188720E-01
        2   -1    0    0  501    0  0.00000000000E+00  0.00000000000E+00  0.26524760876E+04  0.26524760876E+04  0.25500000920E-02 0. -1.
       -2   -1    0    0    0  501  0.00000000000E+00  0.00000000000E+00 -0.96535682849E+03  0.96535682849E+03  0.25500000920E-02 0.  1.
    10030    2    1    2    0    0  0.00000000000E+00  0.00000000000E+00  0.16871192591E+04  0.36178329161E+04  0.32003661688E+04 0.  0.
        1    1    3    3  502    0 -0.28481126376E+03  0.13783285526E+03 -0.92964117923E+03  0.98201225761E+03  0.50400001928E-02 0.  1.
       -1    1    3    3    0  502  0.28481126376E+03 -0.13783285526E+03  0.26167604383E+04  0.26358206584E+04  0.50400001928E-02 0. -1.
</event>
<event>
 5   0  0.9329929E-08  0.3199247E+04  0.7818609E-02  0.8189016E-01
        2   -1    0    0  501    0  0.00000000000E+00  0.00000000000E+00  0.15276689980E+04  0.15276689980E+04  0.25500000920E-02 0.  1.
       -2   -1    0    0    0  501  0.00000000000E+00  0.00000000000E+00 -0.16749675941E+04  0.16749675941E+04  0.25500000920E-02 0. -1.
    10030    2    1    2    0    0  0.00000000000E+00  0.00000000000E+00 -0.14729859608E+03  0.32026365921E+04  0.31992474528E+04 0.  0.
        1    1    3    3  502    0 -0.91978709726E+02  0.62738457331E+03 -0.15437841473E+04  0.16689340848E+04  0.50400001928E-02 0. -1.
       -1    1    3    3    0  502  0.91978709726E+02 -0.62738457331E+03  0.13964855513E+04  0.15337025073E+04  0.50400001928E-02 0.  1.
</event>
<event>
 5   0  0.3427667E-08  0.3201196E+04  0.7818609E-02  0.8188501E-01
        1   -1    0    0  501    0  0.00000000000E+00  0.00000000000E+00  0.14378357162E+04  0.14378357162E+04  0.50400001928E-02 0.  1.
       -1   -1    0    0    0  501  0.00000000000E+00  0.00000000000E+00 -0.17817848024E+04  0.17817848024E+04  0.50400001928E-02 0. -1.
    10030    2    1    2    0    0  0.00000000000E+00  0.00000000000E+00 -0.34394908627E+03  0.32196205186E+04  0.32011959187E+04 0.  0.
        2    1    3    3  502    0 -0.64610046144E+03  0.50901210166E+02  0.12999640914E+04  0.14525644145E+04  0.25500000920E-02 0.  1.
       -2    1    3    3    0  502  0.64610046144E+03 -0.50901210166E+02 -0.16439131776E+04  0.17670561041E+04  0.25500000920E-02 0. -1.
</event>
<event>
 5   0  0.3283581E-08  0.3200857E+04  0.7818609E-02  0.8188591E-01
       -1   -1    0    0    0  501  0.00000000000E+00  0.00000000000E+00  0.99206060466E+03  0.99206060467E+03  0.50400001928E-02 0. -1.
        1   -1    0    0  501    0  0.00000000000E+00  0.00000000000E+00 -0.25818704951E+04  0.25818704951E+04  0.50400001928E-02 0.  1.
    10030    2    1    2    0    0  0.00000000000E+00  0.00000000000E+00 -0.15898098905E+04  0.35739310998E+04  0.32008573880E+04 0.  0.
        5    1    3    3  502    0 -0.10804967915E+04 -0.98047208381E+03 -0.60562626093E+02  0.14603043331E+04  0.46999998093E+01 0. -1.
       -5    1    3    3    0  502  0.10804967915E+04  0.98047208381E+03 -0.15292472644E+04  0.21136267667E+04  0.46999998093E+01 0.  1.
</event>
<event>
 5   0  0.9157524E-08  0.3200453E+04  0.7818609E-02  0.8188698E-01
       -2   -1    0    0    0  501  0.00000000000E+00  0.00000000000E+00  0.87488629543E+03  0.87488629543E+03  0.25500000920E-02 0.  1.
        2   -1    0    0  501    0  0.00000000000E+00  0.00000000000E+00 -0.29269232775E+04  0.29269232775E+04  0.25500000920E-02 0. -1.
    10030    2    1    2    0    0  0.00000000000E+00  0.00000000000E+00 -0.20520369820E+04  0.38018095729E+04  0.32004531324E+04 0.  0.
        5    1    3    3  502    0 -0.31149480701E+03  0.50600244798E+03  0.73897281651E+03  0.94824596265E+03  0.46999998093E+01 0.  1.
       -5    1    3    3    0  502  0.31149480701E+03 -0.50600244798E+03 -0.27910097985E+04  0.28535636102E+04  0.46999998093E+01 0. -1.
</event>
<event>
 5   0  0.3220147E-08  0.3197965E+04  0.7818609E-02  0.8189355E-01
        1   -1    0    0  501    0  0.00000000000E+00  0.00000000000E+00  0.18852926605E+04  0.18852926605E+04  0.50400001928E-02 0. -1.
       -1   -1    0    0    0  501  0.00000000000E+00  0.00000000000E+00 -0.13561532262E+04  0.13561532262E+04  0.50400001928E-02 0.  1.
    10030    2    1    2    0    0  0.00000000000E+00  0.00000000000E+00  0.52913943435E+03  0.32414458867E+04  0.31979654306E+04 0.  0.
        4    1    3    3  502    0  0.92197568133E+03 -0.60094060402E+03  0.14403306382E+04  0.18126562627E+04  0.12699999809E+01 0. -1.
       -4    1    3    3    0  502 -0.92197568133E+03  0.60094060402E+03 -0.91119120389E+03  0.14287896239E+04  0.12699999809E+01 0.  1.
</event>
<event>
 5   0  0.9353994E-08  0.3199932E+04  0.7818609E-02  0.8188835E-01
       -2   -1    0    0    0  501  0.00000000000E+00  0.00000000000E+00  0.17451176698E+04  0.17451176698E+04  0.25500000920E-02 0. -1.
        2   -1    0    0  501    0  0.00000000000E+00  0.00000000000E+00 -0.14668871664E+04  0.14668871664E+04  0.25500000920E-02 0.  1.
    10030    2    1    2    0    0  0.00000000000E+00  0.00000000000E+00  0.27823050342E+03  0.32120048362E+04  0.31999316953E+04 0.  0.
        2    1    3    3  502    0  0.22357337311E+03 -0.62809209571E+03 -0.13208158014E+04  0.14795401702E+04  0.25500000920E-02 0.  1.
       -2    1    3    3    0  502 -0.22357337311E+03  0.62809209571E+03  0.15990463048E+04  0.17324646660E+04  0.25500000920E-02 0. -1.
</event>
<event>
 5   0  0.3343140E-08  0.3200308E+04  0.7818609E-02  0.8188736E-01
       -1   -1    0    0    0  501  0.00000000000E+00  0.00000000000E+00  0.21827282966E+04  0.21827282966E+04  0.50400001928E-02 0.  1.
        1   -1    0    0  501    0  0.00000000000E+00  0.00000000000E+00 -0.11730700602E+04  0.11730700602E+04  0.50400001928E-02 0. -1.
    10030    2    1    2    0    0  0.00000000000E+00  0.00000000000E+00  0.10096582364E+04  0.33557983568E+04  0.32003082441E+04 0.  0.
        1    1    3    3  502    0 -0.27278993848E+03 -0.15760608651E+04  0.55300720147E+03  0.16923945066E+04  0.50400001928E-02 0.  1.
       -1    1    3    3    0  502  0.27278993848E+03  0.15760608651E+04  0.45665103490E+03  0.16634038502E+04  0.50400001928E-02 0. -1.
</event>
<event>
 5   0  0.9707721E-08  0.3200520E+04  0.7818609E-02  0.8188680E-01
       -2   -1    0    0    0  501  0.00000000000E+00  0.00000000000E+00  0.14796938456E+04  0.14796938457E+04  0.25500000920E-02 0. -1.
        2   -1    0    0  501    0  0.00000000000E+00  0.00000000000E+00 -0.17306496091E+04  0.17306496091E+04  0.25500000920E-02 0.  1.
    10030    2    1    2    0    0  0.00000000000E+00  0.00000000000E+00 -0.25095576343E+03  0.32103434547E+04  0.32005196925E+04 0.  0.
        3    1    3    3  502    0  0.26952365642E+03  0.10185549533E+04 -0.13336392476E+04  0.16996149115E+04  0.10100000352E+00 0.  1.
       -3    1    3    3    0  502 -0.26952365642E+03 -0.10185549533E+04  0.10826834842E+04  0.15107285433E+04  0.10100000352E+00 0. -1.
</event>
<event>
 5   0  0.9157524E-08  0.3200394E+04  0.7818609E-02  0.8188713E-01
        2   -1    0    0  501    0  0.00000000000E+00  0.00000000000E+00  0.20797831823E+04  0.20797831823E+04  0.25500000920E-02 0.  1.
       -2   -1    0    0    0  501  0.00000000000E+00  0.00000000000E+00 -0.12312009012E+04  0.12312009012E+04  0.25500000920E-02 0. -1.
    10030    2    1    2    0    0  0.00000000000E+00  0.00000000000E+00  0.84858228112E+03  0.33109840835E+04  0.32003943060E+04 0.  0.
        5    1    3    3  502    0  0.12297203844E+04 -0.39683355431E+03  0.14007925983E+04  0.19057625999E+04  0.46999998093E+01 0.  1.
       -5    1    3    3    0  502 -0.12297203844E+04  0.39683355431E+03 -0.55221031722E+03  0.14052214836E+04  0.46999998093E+01 0. -1.
</event>
<event>
 5   0  0.3343140E-08  0.3198002E+04  0.7818609E-02  0.8189345E-01
        1   -1    0    0  501    0  0.00000000000E+00  0.00000000000E+00  0.27403559000E+04  0.27403559000E+04  0.50400001928E-02 0.  1.
       -1   -1    0    0    0  501  0.00000000000E+00  0.00000000000E+00 -0.93301888805E+03  0.93301888806E+03  0.50400001928E-02 0. -1.
    10030    2    1    2    0    0  0.00000000000E+00  0.00000000000E+00  0.18073370119E+04  0.36733747880E+04  0.31980017603E+04 0.  0.
        1    1    3    3  502    0 -0.12129242526E+04  0.10379804543E+04  0.79955807266E+03  0.17854640231E+04  0.50400001928E-02 0. -1.
       -1    1    3    3    0  502  0.12129242526E+04 -0.10379804543E+04  0.10077789393E+04  0.18879107650E+04  0.50400001928E-02 0.  1.
</event>
<event>
 5   0  0.3220147E-08  0.3208376E+04  0.7818609E-02  0.8186609E-01
       -1   -1    0    0    0  501  0.00000000000E+00  0.00000000000E+00  0.19963973268E+04  0.19963973268E+04  0.50400001928E-02 0.  1.
        1   -1    0    0  501    0  0.00000000000E+00  0.00000000000E+00 -0.12890315288E+04  0.12890315288E+04  0.50400001928E-02 0. -1.
    10030    2    1    2    0    0  0.00000000000E+00  0.00000000000E+00  0.70736579804E+03  0.32854288556E+04  0.32083759744E+04 0.  0.
        4    1    3    3  502    0  0.32863491392E+03 -0.88508577312E+03  0.16817650486E+04  0.19286557557E+04  0.12699999809E+01 0.  1.
       -4    1    3    3    0  502 -0.32863491392E+03  0.88508577312E+03 -0.97439925051E+03  0.13567730999E+04  0.12699999809E+01 0. -1.
</event>
<event>
 5   0  0.3080500E-08  0.3206456E+04  0.7818609E-02  0.8187114E-01
       -3   -1    0    0    0  501  0.00000000000E+00  0.00000000000E+00  0.23766062713E+04  0.23766062734E+04  0.10100000352E+00 0.  1.
        3   -1    0    0  501    0  0.00000000000E+00  0.00000000000E+00 -0.10815168575E+04  0.10815168622E+04  0.10100000352E+00 0. -1.
    10030    2    1    2    0    0  0.00000000000E+00  0.00000000000E+00  0.12950894138E+04  0.34581231357E+04  0.32064558366E+04 0.  0.
        4    1    3    3  502    0  0.12128911557E+03  0.15846475106E+04  0.41998798962E+03  0.16438401098E+04  0.12699999809E+01 0. -1.
       -4    1    3    3    0  502 -0.12128911557E+03 -0.15846475106E+04  0.87510142416E+03  0.18142830258E+04  0.12699999809E+01 0.  1.
</event>
<event>
 5   0  0.3283581E-08  0.3200543E+04  0.7818609E-02  0.8188674E-01
       -1   -1    0    0    0  501  0.00000000000E+00  0.00000000000E+00  0.18837242013E+04  0.18837242013E+04  0.50400001928E-02 0.  1.
        1   -1    0    0  501    0  0.00000000000E+00  0.00000000000E+00 -0.13594710426E+04  0.13594710426E+04  0.50400001928E-02 0. -1.
    10030    2    1    2    0    0  0.00000000000E+00  0.00000000000E+00  0.52425315871E+03  0.32431952439E+04  0.32005427689E+04 0.  0.
        5    1    3    3  502    0  0.14021467939E+04 -0.59219731731E+03 -0.23855637918E+03  0.15406636655E+04  0.46999998093E+01 0. -1.
       -5    1    3    3    0  502 -0.14021467939E+04  0.59219731731E+03  0.76280953789E+03  0.17025315784E+04  0.46999998093E+01 0.  1.
</event>
<event>
 5   0  0.9157524E-08  0.3200777E+04  0.7818609E-02  0.8188612E-01
       -2   -1    0    0    0  501  0.00000000000E+00  0.00000000000E+00  0.17917670880E+04  0.17917670880E+04  0.25500000920E-02 0.  1.
        2   -1    0    0  501    0  0.00000000000E+00  0.00000000000E+00 -0.14294507446E+04  0.14294507446E+04  0.25500000920E-02 0. -1.
    10030    2    1    2    0    0  0.00000000000E+00  0.00000000000E+00  0.36231634334E+03  0.32212178326E+04  0.32007766545E+04 0.  0.
        5    1    3    3  502    0  0.63755920137E+03 -0.91360415752E+03 -0.97512076673E+03  0.14805529006E+04  0.46999998093E+01 0. -1.
       -5    1    3    3    0  502 -0.63755920137E+03  0.91360415752E+03  0.13374371101E+04  0.17406649319E+04  0.46999998093E+01 0.  1.
</event>
<event>
 5   0  0.9157524E-08  0.3194384E+04  0.7818609E-02  0.8190302E-01
        2   -1    0    0  501    0  0.00000000000E+00  0.00000000000E+00  0.16657697348E+04  0.16657697348E+04  0.25500000920E-02 0. -1.
       -2   -1    0    0    0  501  0.00000000000E+00  0.00000000000E+00 -0.15314378980E+04  0.15314378980E+04  0.25500000920E-02 0.  1.
    10030    2    1    2    0    0  0.00000000000E+00  0.00000000000E+00  0.13433183681E+03  0.31972076329E+04  0.31943843860E+04 0.  0.
        5    1    3    3  502    0  0.70746151742E+03 -0.14308464959E+04  0.10748397853E+02  0.15962334139E+04  0.46999998093E+01 0.  1.
       -5    1    3    3    0  502 -0.70746151742E+03  0.14308464959E+04  0.12358343896E+03  0.16009742190E+04  0.46999998093E+01 0. -1.
</event>
<event>
 5   0  0.9707721E-08  0.3199589E+04  0.7818609E-02  0.8188926E-01
       -2   -1    0    0    0  501  0.00000000000E+00  0.00000000000E+00  0.13529981585E+04  0.13529981585E+04  0.25500000920E-02 0.  1.
        2   -1    0    0  501    0  0.00000000000E+00  0.00000000000E+00 -0.18916087119E+04  0.18916087119E+04  0.25500000920E-02 0. -1.
    10030    2    1    2    0    0  0.00000000000E+00  0.00000000000E+00 -0.53861055341E+03  0.32446068705E+04  0.31995894136E+04 0.  0.
        3    1    3    3  502    0  0.97373388049E+02 -0.13490756298E+04  0.59703112120E+03  0.14784900411E+04  0.10100000352E+00 0.  1.
       -3    1    3    3    0  502 -0.97373388049E+02  0.13490756298E+04 -0.11356416746E+04  0.17661168294E+04  0.10100000352E+00 0. -1.
</event>
<event>
 5   0  0.9157524E-08  0.3199754E+04  0.7818609E-02  0.8188882E-01
        2   -1    0    0  501    0  0.00000000000E+00  0.00000000000E+00  0.20988023707E+04  0.20988023707E+04  0.25500000920E-02 0.  1.
       -2   -1    0    0    0  501  0.00000000000E+00  0.00000000000E+00 -0.12195558970E+04  0.12195558970E+04  0.25500000920E-02 0. -1.
    10030    2    1    2    0    0  0.00000000000E+00  0.00000000000E+00  0.87924647362E+03  0.33183582677E+04  0.31997542455E+04 0.  0.
        5    1    3    3  502    0 -0.13274944854E+04  0.71546847768E+03 -0.11445376708E+03  0.15123685087E+04  0.46999998093E+01 0. -1.
       -5    1    3    3    0  502  0.13274944854E+04 -0.71546847768E+03  0.99370024070E+03  0.18059897590E+04  0.46999998093E+01 0.  1.
</event>
<event>
 5   0  0.3427667E-08  0.3200339E+04  0.7818609E-02  0.8188728E-01
        1   -1    0    0  501    0  0.00000000000E+00  0.00000000000E+00  0.15482639127E+04  0.15482639127E+04  0.50400001928E-02 0. -1.
       -1   -1    0    0    0  501  0.00000000000E+00  0.00000000000E+00 -0.16538156327E+04  0.16538156327E+04  0.50400001928E-02 0.  1.
    10030    2    1    2    0    0  0.00000000000E+00  0.00000000000E+00 -0.10555172002E+03  0.32020795454E+04  0.32003393960E+04 0.  0.
        2    1    3    3  502    0 -0.73115897746E+03  0.35546429253E+03  0.13262314199E+04  0.15555828788E+04  0.25500000920E-02 0. -1.
       -2    1    3    3    0  502  0.73115897746E+03 -0.35546429253E+03 -0.14317831399E+04  0.16464966667E+04  0.25500000920E-02 0.  1.
</event>
<event>
 5   0  0.9707721E-08  0.3200012E+04  0.7818609E-02  0.8188814E-01
       -2   -1    0    0    0  501  0.00000000000E+00  0.00000000000E+00  0.10810463064E+04  0.10810463064E+04  0.25500000920E-02 0. -1.
        2   -1    0    0  501    0  0.00000000000E+00  0.00000000000E+00 -0.23680937210E+04  0.23680937210E+04  0.25500000920E-02 0.  1.
    10030    2    1    2    0    0  0.00000000000E+00  0.00000000000E+00 -0.12870474146E+04  0.34491400274E+04  0.32000118564E+04 0.  0.
        3    1    3    3  502    0  0.70123168210E+03  0.23148424439E+02 -0.21934427480E+04  0.23029226692E+04  0.10100000352E+00 0.  1.
       -3    1    3    3    0  502 -0.70123168210E+03 -0.23148424439E+02  0.90639533342E+03  0.11462173582E+04  0.10100000352E+00 0. -1.
</event>
<event>
 5   0  0.9353994E-08  0.3198409E+04  0.7818609E-02  0.8189237E-01
       -2   -1    0    0    0  501  0.00000000000E+00  0.00000000000E+00  0.20940175684E+04  0.20940175684E+04  0.25500000920E-02 0.  1.
        2   -1    0    0  501    0  0.00000000000E+00  0.00000000000E+00 -0.12213151624E+04  0.12213151624E+04  0.25500000920E-02 0. -1.
    10030    2    1    2    0    0  0.00000000000E+00  0.00000000000E+00  0.87270240601E+03  0.33153327307E+04  0.31984092337E+04 0.  0.
        2    1    3    3  502    0  0.13834530887E+04 -0.22426790945E+03 -0.36201075490E+03  0.14475117721E+04  0.25500000920E-02 0. -1.
       -2    1    3    3    0  502 -0.13834530887E+04  0.22426790945E+03  0.12347131609E+04  0.18678209586E+04  0.25500000920E-02 0.  1.
</event>
<event>
 5   0  0.9707721E-08  0.3198449E+04  0.7818609E-02  0.8189227E-01
        2   -1    0    0  501    0  0.00000000000E+00  0.00000000000E+00  0.22853511921E+04  0.22853511921E+04  0.25500000920E-02 0. -1.
       -2   -1    0    0    0  501  0.00000000000E+00  0.00000000000E+00 -0.11190925864E+04  0.11190925864E+04  0.25500000920E-02 0.  1.
    10030    2    1    2    0    0  0.00000000000E+00  0.00000000000E+00  0.11662586057E+04  0.34044437785E+04  0.31984493595E+04 0.  0.
        3    1    3    3  502    0 -0.18282080858E+03  0.11556379215E+04  0.17435728637E+04  0.20997544606E+04  0.10100000352E+00 0. -1.
       -3    1    3    3    0  502  0.18282080858E+03 -0.11556379215E+04 -0.57731425793E+03  0.13046893179E+04  0.10100000352E+00 0.  1.
</event>
<event>
 5   0  0.3427667E-08  0.3199046E+04  0.7818609E-02  0.8189069E-01
       -1   -1    0    0    0  501  0.00000000000E+00  0.00000000000E+00  0.24257214715E+04  0.24257214715E+04  0.50400001928E-02 0.  1.
        1   -1    0    0  501    0  0.00000000000E+00  0.00000000000E+00 -0.10547272010E+04  0.10547272010E+04  0.50400001928E-02 0. -1.
    10030    2    1    2    0    0  0.00000000000E+00  0.00000000000E+00  0.13709942704E+04  0.34804486725E+04  0.31990463692E+04 0.  0.
        2    1    3    3  502    0  0.13083804191E+04 -0.89584844463E+03  0.45710061520E+03  0.16502559587E+04  0.25500000920E-02 0. -1.
       -2    1    3    3    0  502 -0.13083804191E+04  0.89584844463E+03  0.91389365524E+03  0.18301927138E+04  0.25500000920E-02 0.  1.
</event>
<event>
 5   0  0.9353994E-08  0.3200843E+04  0.7818609E-02  0.8188594E-01
        2   -1    0    0  501    0  0.00000000000E+00  0.00000000000E+00  0.21519635556E+04  0.21519635556E+04  0.25500000920E-02 0.  1.
       -2   -1    0    0    0  501  0.00000000000E+00  0.00000000000E+00 -0.11902383619E+04  0.11902383619E+04  0.25500000920E-02 0. -1.
    10030    2    1    2    0    0  0.00000000000E+00  0.00000000000E+00  0.96172519371E+03  0.33422019176E+04  0.32008433747E+04 0.  0.
        2    1    3    3  502    0  0.43361176480E+03  0.64783888216E+03  0.19403152019E+04  0.20910613244E+04  0.25500000920E-02 0.  1.
       -2    1    3    3    0  502 -0.43361176480E+03 -0.64783888216E+03 -0.97859000815E+03  0.12511405932E+04  0.25500000920E-02 0. -1.
</event>
<event>
 5   0  0.3220147E-08  0.3196715E+04  0.7818609E-02  0.8189685E-01
        1   -1    0    0  501    0  0.00000000000E+00  0.00000000000E+00  0.13071145822E+04  0.13071145822E+04  0.50400001928E-02 0. -1.
       -1   -1    0    0    0  501  0.00000000000E+00  0.00000000000E+00 -0.19544928083E+04  0.19544928083E+04  0.50400001928E-02 0.  1.
    10030    2    1    2    0    0  0.00000000000E+00  0.00000000000E+00 -0.64737822617E+03  0.32616073905E+04  0.31967145950E+04 0.  0.
        4    1    3    3  502    0  0.12803117526E+03  0.20797851971E+03  0.12879639936E+04  0.13109156755E+04  0.12699999809E+01 0. -1.
       -4    1    3    3    0  502 -0.12803117526E+03 -0.20797851971E+03 -0.19353422198E+04  0.19506917150E+04  0.12699999809E+01 0.  1.
</event>
<event>
 5   0  0.3220147E-08  0.3201262E+04  0.7818609E-02  0.8188484E-01
       -1   -1    0    0    0  501  0.00000000000E+00  0.00000000000E+00  0.12169255911E+04  0.12169255911E+04  0.50400001928E-02 0.  1.
        1   -1    0    0  501    0  0.00000000000E+00  0.00000000000E+00 -0.21053214803E+04  0.21053214803E+04  0.50400001928E-02 0. -1.
    10030    2    1    2    0    0  0.00000000000E+00  0.00000000000E+00 -0.88839588921E+03  0.33222470714E+04  0.32012619929E+04 0.  0.
        4    1    3    3  502    0  0.90154619203E+03  0.86065793802E+03 -0.14863923456E+04  0.19398147955E+04  0.12699999809E+01 0. -1.
       -4    1    3    3    0  502 -0.90154619203E+03 -0.86065793802E+03  0.59799645643E+03  0.13824322759E+04  0.12699999809E+01 0.  1.
</event>
<event>
 5   0  0.9727083E-08  0.3201564E+04  0.7818609E-02  0.8188404E-01
       -2   -1    0    0    0  501  0.00000000000E+00  0.00000000000E+00  0.14308008223E+04  0.14308008223E+04  0.25500000920E-02 0. -1.
        2   -1    0    0  501    0  0.00000000000E+00  0.00000000000E+00 -0.17909577350E+04  0.17909577350E+04  0.25500000920E-02 0.  1.
    10030    2    1    2    0    0  0.00000000000E+00  0.00000000000E+00 -0.36015691272E+03  0.32217585573E+04  0.32015644925E+04 0.  0.
        4    1    3    3  502    0  0.10448738157E+04  0.87451006862E+03 -0.10256002244E+04  0.17053992448E+04  0.12699999809E+01 0.  1.
       -4    1    3    3    0  502 -0.10448738157E+04 -0.87451006862E+03  0.66544331170E+03  0.15163593126E+04  0.12699999809E+01 0. -1.
</event>
<event>
 5   0  0.3270966E-08  0.3199463E+04  0.7818609E-02  0.8188959E-01
        1   -1    0    0  501    0  0.00000000000E+00  0.00000000000E+00  0.15540329281E+04  0.15540329281E+04  0.50400001928E-02 0. -1.
       -1   -1    0    0    0  501  0.00000000000E+00  0.00000000000E+00 -0.16467735325E+04  0.16467735326E+04  0.50400001928E-02 0.  1.
    10030    2    1    2    0    0  0.00000000000E+00  0.00000000000E+00 -0.92740604436E+02  0.32008064607E+04  0.31994626391E+04 0.  0.
        3    1    3    3  502    0 -0.94509219900E+03 -0.12588563463E+04 -0.33148424851E+03  0.16086641608E+04  0.10100000352E+00 0.  1.
       -3    1    3    3    0  502  0.94509219900E+03  0.12588563463E+04  0.23874364408E+03  0.15921422998E+04  0.10100000352E+00 0. -1.
</event>
<event>
 5   0  0.3427667E-08  0.3200202E+04  0.7818609E-02  0.8188764E-01
       -1   -1    0    0    0  501  0.00000000000E+00  0.00000000000E+00  0.12353116800E+04  0.12353116800E+04  0.50400001928E-02 0. -1.
        1   -1    0    0  501    0  0.00000000000E+00  0.00000000000E+00 -0.20726130015E+04  0.20726130015E+04  0.50400001928E-02 0.  1.
    10030    2    1    2    0    0  0.00000000000E+00  0.00000000000E+00 -0.83730132147E+03  0.33079246815E+04  0.32002018992E+04 0.  0.
        2    1    3    3  502    0  0.15717502897E+04 -0.18080913449E+03 -0.17136541913E+03  0.15913695433E+04  0.25500000920E-02 0. -1.
       -2    1    3    3    0  502 -0.15717502897E+04  0.18080913449E+03 -0.66593590234E+03  0.17165551382E+04  0.25500000920E-02 0.  1.
</event>
<event>
 5   0  0.9329929E-08  0.3199549E+04  0.7818609E-02  0.8188936E-01
        2   -1    0    0  501    0  0.00000000000E+00  0.00000000000E+00  0.21802284380E+04  0.21802284380E+04  0.25500000920E-02 0.  1.
       -2   -1    0    0    0  501  0.00000000000E+00  0.00000000000E+00 -0.11738581800E+04  0.11738581801E+04  0.25500000920E-02 0. -1.
    10030    2    1    2    0    0  0.00000000000E+00  0.00000000000E+00  0.10063702579E+04  0.33540866180E+04  0.31995493347E+04 0.  0.
        1    1    3    3  502    0  0.78468740166E+03 -0.23866923592E+03  0.19430550766E+04  0.21090662278E+04  0.50400001928E-02 0.  1.
       -1    1    3    3    0  502 -0.78468740166E+03  0.23866923592E+03 -0.93668481869E+03  0.12450203902E+04  0.50400001928E-02 0. -1.
</event>
<event>
 5   0  0.9707721E-08  0.3198791E+04  0.7818609E-02  0.8189137E-01
        2   -1    0    0  501    0  0.00000000000E+00  0.00000000000E+00  0.27834829312E+04  0.27834829312E+04  0.25500000920E-02 0.  1.
       -2   -1    0    0    0  501  0.00000000000E+00  0.00000000000E+00 -0.91901593930E+03  0.91901593930E+03  0.25500000920E-02 0. -1.
    10030    2    1    2    0    0  0.00000000000E+00  0.00000000000E+00  0.18644669919E+04  0.37024988705E+04  0.31987905092E+04 0.  0.
        3    1    3    3  502    0  0.25242139103E+03  0.38962678204E+03 -0.83931320232E+03  0.95915183872E+03  0.10100000352E+00 0. -1.
       -3    1    3    3    0  502 -0.25242139103E+03 -0.38962678204E+03  0.27037801942E+04  0.27433470317E+04  0.10100000352E+00 0.  1.
</event>
<event>
 5   0  0.9353994E-08  0.3198462E+04  0.7818609E-02  0.8189224E-01
       -2   -1    0    0    0  501  0.00000000000E+00  0.00000000000E+00  0.13609558660E+04  0.13609558660E+04  0.25500000920E-02 0. -1.
        2   -1    0    0  501    0  0.00000000000E+00  0.00000000000E+00 -0.18792227433E+04  0.18792227433E+04  0.25500000920E-02 0.  1.
    10030    2    1    2    0    0  0.00000000000E+00  0.00000000000E+00 -0.51826687729E+03  0.32401786093E+04  0.31984616402E+04 0.  0.
        2    1    3    3  502    0 -0.14140389844E+04 -0.65786212435E+03  0.99389833144E+02  0.15627434731E+04  0.25500000920E-02 0. -1.
       -2    1    3    3    0  502  0.14140389844E+04  0.65786212435E+03 -0.61765671043E+03  0.16774351361E+04  0.25500000920E-02 0.  1.
</event>
<event>
 5   0  0.3343140E-08  0.3197732E+04  0.7818609E-02  0.8189416E-01
        1   -1    0    0  501    0  0.00000000000E+00  0.00000000000E+00  0.16524870649E+04  0.16524870649E+04  0.50400001928E-02 0.  1.
       -1   -1    0    0    0  501  0.00000000000E+00  0.00000000000E+00 -0.15469849546E+04  0.15469849546E+04  0.50400001928E-02 0. -1.
    10030    2    1    2    0    0  0.00000000000E+00  0.00000000000E+00  0.10550211028E+03  0.31994720195E+04  0.31977320882E+04 0.  0.
        1    1    3    3  502    0 -0.42087600913E+03 -0.77299152357E+03 -0.12827861260E+04  0.15556968714E+04  0.50400001928E-02 0. -1.
       -1    1    3    3    0  502  0.42087600913E+03  0.77299152357E+03  0.13882882362E+04  0.16437751481E+04  0.50400001928E-02 0.  1.
</event>
<event>
 5   0  0.9727083E-08  0.3190912E+04  0.7818609E-02  0.8191221E-01
       -2   -1    0    0    0  501  0.00000000000E+00  0.00000000000E+00  0.14668718744E+04  0.14668718744E+04  0.25500000920E-02 0. -1.
        2   -1    0    0  501    0  0.00000000000E+00  0.00000000000E+00 -0.17353120380E+04  0.17353120380E+04  0.25500000920E-02 0.  1.
    10030    2    1    2    0    0  0.00000000000E+00  0.00000000000E+00 -0.26844016360E+03  0.32021839123E+04  0.31909123597E+04 0.  0.
        4    1    3    3  502    0 -0.43702656680E+03  0.37492804562E+03 -0.16273992433E+04  0.17262656718E+04  0.12699999809E+01 0.  1.
       -4    1    3    3    0  502  0.43702656680E+03 -0.37492804562E+03  0.13589590797E+04  0.14759182405E+04  0.12699999809E+01 0. -1.
</event>
<event>
 5   0  0.3270966E-08  0.3200043E+04  0.7818609E-02  0.8188806E-01
       -1   -1    0    0    0  501  0.00000000000E+00  0.00000000000E+00  0.11655583367E+04  0.11655583367E+04  0.50400001928E-02 0.  1.
        1   -1    0    0  501    0  0.00000000000E+00  0.00000000000E+00 -0.21964306147E+04  0.21964306147E+04  0.50400001928E-02 0. -1.
    10030    2    1    2    0    0  0.00000000000E+00  0.00000000000E+00 -0.10308722780E+04  0.33619889514E+04  0.32000425084E+04 0.  0.
        3    1    3    3  502    0 -0.12966850686E+04  0.80048593741E+03 -0.10278678785E+04  0.18381192260E+04  0.10100000352E+00 0. -1.
       -3    1    3    3    0  502  0.12966850686E+04 -0.80048593741E+03 -0.30043995654E+01  0.15238697254E+04  0.10100000352E+00 0.  1.
</event>
<event>
 5   0  0.9707721E-08  0.3199385E+04  0.7818609E-02  0.8188980E-01
        2   -1    0    0  501    0  0.00000000000E+00  0.00000000000E+00  0.20963974638E+04  0.20963974639E+04  0.25500000920E-02 0.  1.
       -2   -1    0    0    0  501  0.00000000000E+00  0.00000000000E+00 -0.12206733188E+04  0.12206733188E+04  0.25500000920E-02 0. -1.
    10030    2    1    2    0    0  0.00000000000E+00  0.00000000000E+00  0.87572414510E+03  0.33170707826E+04  0.31993852220E+04 0.  0.
        3    1    3    3  502    0 -0.13668835623E+04 -0.74485130957E+03  0.55736848091E+02  0.15576523208E+04  0.10100000352E+00 0. -1.
       -3    1    3    3    0  502  0.13668835623E+04  0.74485130957E+03  0.81998729701E+03  0.17594184618E+04  0.10100000352E+00 0.  1.
</event>
<event>
 5   0  0.9707721E-08  0.3200657E+04  0.7818609E-02  0.8188644E-01
       -2   -1    0    0    0  501  0.00000000000E+00  0.00000000000E+00  0.11584534159E+04  0.11584534159E+04  0.25500000920E-02 0. -1.
        2   -1    0    0  501    0  0.00000000000E+00  0.00000000000E+00 -0.22107509542E+04  0.22107509542E+04  0.25500000920E-02 0.  1.
    10030    2    1    2    0    0  0.00000000000E+00  0.00000000000E+00 -0.10522975383E+04  0.33692043700E+04  0.32006574290E+04 0.  0.
        3    1    3    3  502    0  0.12611544086E+04  0.76619850947E+03  0.12572019722E+03  0.14810051237E+04  0.10100000352E+00 0. -1.
       -3    1    3    3    0  502 -0.12611544086E+04 -0.76619850947E+03 -0.11780177355E+04  0.18881992463E+04  0.10100000352E+00 0.  1.
</event>
<event>
 5   0  0.3343140E-08  0.3197074E+04  0.7818609E-02  0.8189590E-01
       -1   -1    0    0    0  501  0.00000000000E+00  0.00000000000E+00  0.17634129326E+04  0.17634129326E+04  0.50400001928E-02 0.  1.
        1   -1    0    0  501    0  0.00000000000E+00  0.00000000000E+00 -0.14490764758E+04  0.14490764758E+04  0.50400001928E-02 0. -1.
    10030    2    1    2    0    0  0.00000000000E+00  0.00000000000E+00  0.31433645678E+03  0.32124894084E+04  0.31970737857E+04 0.  0.
        1    1    3    3  502    0 -0.68828845635E+03 -0.13336962678E+04  0.71012474049E+03  0.16603505295E+04  0.50400001928E-02 0.  1.
       -1    1    3    3    0  502  0.68828845635E+03  0.13336962678E+04 -0.39578828371E+03  0.15521388789E+04  0.50400001928E-02 0. -1.
</event>
<event>
 5   0  0.3343140E-08  0.3199933E+04  0.7818609E-02  0.8188835E-01
       -1   -1    0    0    0  501  0.00000000000E+00  0.00000000000E+00  0.10854842284E+04  0.10854842284E+04  0.50400001928E-02 0.  1.
        1   -1    0    0  501    0  0.00000000000E+00  0.00000000000E+00 -0.23582949989E+04  0.23582949989E+04  0.50400001928E-02 0. -1.
    10030    2    1    2    0    0  0.00000000000E+00  0.00000000000E+00 -0.12728107705E+04  0.34437792273E+04  0.31999325163E+04 0.  0.
        1    1    3    3  502    0  0.99302574488E+03  0.41215839175E+03 -0.19115670683E+04  0.21931856571E+04  0.50400001928E-02 0. -1.
       -1    1    3    3    0  502 -0.99302574488E+03 -0.41215839175E+03  0.63875629777E+03  0.12505935702E+04  0.50400001928E-02 0.  1.
</event>
<event>
 5   0  0.9329929E-08  0.3199992E+04  0.7818609E-02  0.8188819E-01
       -2   -1    0    0    0  501  0.00000000000E+00  0.00000000000E+00  0.10287213707E+04  0.10287213707E+04  0.25500000920E-02 0. -1.
        2   -1    0    0  501    0  0.00000000000E+00  0.00000000000E+00 -0.24885139998E+04  0.24885139998E+04  0.25500000920E-02 0.  1.
    10030    2    1    2    0    0  0.00000000000E+00  0.00000000000E+00 -0.14597926291E+04  0.35172353705E+04  0.31999922080E+04 0.  0.
        1    1    3    3  502    0 -0.34365674531E+03 -0.29996581115E+02  0.98736075792E+03  0.10458876707E+04  0.50400001928E-02 0. -1.
       -1    1    3    3    0  502  0.34365674531E+03  0.29996581115E+02 -0.24471533870E+04  0.24713476998E+04  0.50400001928E-02 0.  1.
</event>
<event>
 5   0  0.3220147E-08  0.3199014E+04  0.7818609E-02  0.8189078E-01
        1   -1    0    0  501    0  0.00000000000E+00  0.00000000000E+00  0.16853498136E+04  0.16853498136E+04  0.50400001928E-02 0.  1.
       -1   -1    0    0    0  501  0.00000000000E+00  0.00000000000E+00 -0.15180361689E+04  0.15180361690E+04  0.50400001928E-02 0. -1.
    10030    2    1    2    0    0  0.00000000000E+00  0.00000000000E+00  0.16731364469E+03  0.32033859826E+04  0.31990135820E+04 0.  0.
        4    1    3    3  502    0 -0.13721829877E+04  0.77971575334E+03 -0.17665531652E+03  0.15880968237E+04  0.12699999809E+01 0.  1.
       -4    1    3    3    0  502  0.13721829877E+04 -0.77971575334E+03  0.34396896121E+03  0.16152891589E+04  0.12699999809E+01 0. -1.
</event>
<event>
 5   0  0.9157524E-08  0.3198032E+04  0.7818609E-02  0.8189337E-01
        2   -1    0    0  501    0  0.00000000000E+00  0.00000000000E+00  0.22736425778E+04  0.22736425778E+04  0.25500000920E-02 0. -1.
       -2   -1    0    0    0  501  0.00000000000E+00  0.00000000000E+00 -0.11245623424E+04  0.11245623424E+04  0.25500000920E-02 0.  1.
    10030    2    1    2    0    0  0.00000000000E+00  0.00000000000E+00  0.11490802354E+04  0.33982049202E+04  0.31980324095E+04 0.  0.
        5    1    3    3  502    0 -0.10470157717E+03 -0.10527023443E+04  0.18486261033E+04  0.21299261034E+04  0.46999998093E+01 0. -1.
       -5    1    3    3    0  502  0.10470157717E+03  0.10527023443E+04 -0.69954586791E+03  0.12682788168E+04  0.46999998093E+01 0.  1.
</event>
<event>
 5   0  0.3427667E-08  0.3199688E+04  0.7818609E-02  0.8188899E-01
       -1   -1    0    0    0  501  0.00000000000E+00  0.00000000000E+00  0.22839642877E+04  0.22839642877E+04  0.50400001928E-02 0.  1.
        1   -1    0    0  501    0  0.00000000000E+00  0.00000000000E+00 -0.11206398933E+04  0.11206398933E+04  0.50400001928E-02 0. -1.
    10030    2    1    2    0    0  0.00000000000E+00  0.00000000000E+00  0.11633243944E+04  0.34046041810E+04  0.31996884197E+04 0.  0.
        2    1    3    3  502    0 -0.27676841382E+02  0.29025321131E+02 -0.11201049173E+04  0.11208226901E+04  0.25500000920E-02 0. -1.
       -2    1    3    3    0  502  0.27676841382E+02 -0.29025321131E+02  0.22834293117E+04  0.22837814910E+04  0.25500000920E-02 0.  1.
</event>
<event>
 5   0  0.3283581E-08  0.3199312E+04  0.7818609E-02  0.8188999E-01
        1   -1    0    0  501    0  0.00000000000E+00  0.00000000000E+00  0.20393934436E+04  0.20393934436E+04  0.50400001928E-02 0.  1.
       -1   -1    0    0    0  501  0.00000000000E+00  0.00000000000E+00 -0.12547352403E+04  0.12547352403E+04  0.50400001928E-02 0. -1.
    10030    2    1    2    0    0  0.00000000000E+00  0.00000000000E+00  0.78465820335E+03  0.32941286839E+04  0.31993116900E+04 0.  0.
        5    1    3    3  502    0 -0.66730529166E+03  0.12964052819E+04 -0.28513250123E+03  0.14856936563E+04  0.46999998093E+01 0. -1.
       -5    1    3    3    0  502  0.66730529166E+03 -0.12964052819E+04  0.10697907046E+04  0.18084350275E+04  0.46999998093E+01 0.  1.
</event>
<event>
 5   0  0.3343140E-08  0.3199537E+04  0.7818609E-02  0.8188939E-01
        1   -1    0    0  501    0  0.00000000000E+00  0.00000000000E+00  0.16258182772E+04  0.16258182772E+04  0.50400001928E-02 0. -1.
       -1   -1    0    0    0  501  0.00000000000E+00  0.00000000000E+00 -0.15741363931E+04  0.15741363931E+04  0.50400001928E-02 0.  1.
    10030    2    1    2    0    0  0.00000000000E+00  0.00000000000E+00  0.51681884079E+02  0.31999546704E+04  0.31995372908E+04 0.  0.
        1    1    3    3  502    0 -0.47801669890E+03  0.64922661350E+03 -0.13561007059E+04  0.15776578478E+04  0.50400001928E-02 0.  1.
       -1    1    3    3    0  502  0.47801669890E+03 -0.64922661350E+03  0.14077825899E+04  0.16222968226E+04  0.50400001928E-02 0. -1.
</event>
<event>
 5   0  0.9157524E-08  0.3200975E+04  0.7818609E-02  0.8188560E-01
        2   -1    0    0  501    0  0.00000000000E+00  0.00000000000E+00  0.18276550501E+04  0.18276550501E+04  0.25500000920E-02 0.  1.
       -2   -1    0    0    0  501  0.00000000000E+00  0.00000000000E+00 -0.14015554058E+04  0.14015554058E+04  0.25500000920E-02 0. -1.
    10030    2    1    2    0    0  0.00000000000E+00  0.00000000000E+00  0.42609964428E+03  0.32292104559E+04  0.32009747362E+04 0.  0.
        5    1    3    3  502    0  0.10383254527E+04 -0.10975290829E+04  0.74576833106E+03  0.16848983136E+04  0.46999998093E+01 0.  1.
       -5    1    3    3    0  502 -0.10383254527E+04  0.10975290829E+04 -0.31966868678E+03  0.15443121423E+04  0.46999998093E+01 0. -1.
</event>
<event>
 5   0  0.3427667E-08  0.3200544E+04  0.7818609E-02  0.8188673E-01
        1   -1    0    0  501    0  0.00000000000E+00  0.00000000000E+00  0.22712372410E+04  0.22712372410E+04  0.50400001928E-02 0. -1.
       -1   -1    0    0    0  501  0.00000000000E+00  0.00000000000E+00 -0.11275223541E+04  0.11275223541E+04  0.50400001928E-02 0.  1.
    10030    2    1    2    0    0  0.00000000000E+00  0.00000000000E+00  0.11437148869E+04  0.33987595951E+04  0.32005441791E+04 0.  0.
        2    1    3    3  502    0 -0.42688979152E+03 -0.13778617487E+04 -0.16397230005E+03  0.14517660995E+04  0.25500000920E-02 0.  1.
       -2    1    3    3    0  502  0.42688979152E+03  0.13778617487E+04  0.13076871870E+04  0.19469934955E+04  0.25500000920E-02 0. -1.
</event>
<event>
 5   0  0.3270966E-08  0.3198970E+04  0.7818609E-02  0.8189089E-01
       -1   -1    0    0    0  501  0.00000000000E+00  0.00000000000E+00  0.18556837555E+04  0.18556837555E+04  0.50400001928E-02 0. -1.
        1   -1    0    0  501    0  0.00000000000E+00  0.00000000000E+00 -0.13786573214E+04  0.13786573215E+04  0.50400001928E-02 0.  1.
    10030    2    1    2    0    0  0.00000000000E+00  0.00000000000E+00  0.47702643408E+03  0.32343410770E+04  0.31989698316E+04 0.  0.
        3    1    3    3  502    0  0.14570825344E+04 -0.13504931757E+02  0.90541254085E+03  0.17155301730E+04  0.10100000352E+00 0. -1.
       -3    1    3    3    0  502 -0.14570825344E+04  0.13504931757E+02 -0.42838610677E+03  0.15188109040E+04  0.10100000352E+00 0.  1.
</event>
<event>
 5   0  0.9707721E-08  0.3199845E+04  0.7818609E-02  0.8188858E-01
        2   -1    0    0  501    0  0.00000000000E+00  0.00000000000E+00  0.17790312596E+04  0.17790312596E+04  0.25500000920E-02 0. -1.
       -2   -1    0    0    0  501  0.00000000000E+00  0.00000000000E+00 -0.14388461795E+04  0.14388461795E+04  0.25500000920E-02 0.  1.
    10030    2    1    2    0    0  0.00000000000E+00  0.00000000000E+00  0.34018508006E+03  0.32178774391E+04  0.31998452032E+04 0.  0.
        3    1    3    3  502    0  0.14976817350E+04 -0.31599315149E+03 -0.29820331400E+03  0.15594317804E+04  0.10100000352E+00 0.  1.
       -3    1    3    3    0  502 -0.14976817350E+04  0.31599315149E+03  0.63838839406E+03  0.16584456587E+04  0.10100000352E+00 0. -1.
</event>
<event>
 5   0  0.9157524E-08  0.3199470E+04  0.7818609E-02  0.8188957E-01
       -2   -1    0    0    0  501  0.00000000000E+00  0.00000000000E+00  0.12029656436E+04  0.12029656437E+04  0.25500000920E-02 0.  1.
        2   -1    0    0  501    0  0.00000000000E+00  0.00000000000E+00 -0.21273688850E+04  0.21273688850E+04  0.25500000920E-02 0. -1.
    10030    2    1    2    0    0  0.00000000000E+00  0.00000000000E+00 -0.92440324131E+03  0.33303345286E+04  0.31994697561E+04 0.  0.
        5    1    3    3  502    0  0.57348518174E+03 -0.14400190448E+04 -0.87410101324E+03  0.17794984615E+04  0.46999998093E+01 0. -1.
       -5    1    3    3    0  502 -0.57348518174E+03  0.14400190448E+04 -0.50302228069E+02  0.15508360671E+04  0.46999998093E+01 0.  1.
</event>
<event>
 5   0  0.9329929E-08  0.3200087E+04  0.7818609E-02  0.8188794E-01
        2   -1    0    0  501    0  0.00000000000E+00  0.00000000000E+00  0.25069836587E+04  0.25069836587E+04  0.25500000920E-02 0. -1.
       -2   -1    0    0    0  501  0.00000000000E+00  0.00000000000E+00 -0.10212027357E+04  0.10212027357E+04  0.25500000920E-02 0.  1.
    10030    2    1    2    0    0  0.00000000000E+00  0.00000000000E+00  0.14857809230E+04  0.35281863944E+04  0.32000866054E+04 0.  0.
        1    1    3    3  502    0 -0.50140776941E+02 -0.28830088898E+03  0.24772300536E+04  0.24944538958E+04  0.50400001928E-02 0. -1.
       -1    1    3    3    0  502  0.50140776941E+02  0.28830088898E+03 -0.99144913052E+03  0.10337324985E+04  0.50400001928E-02 0.  1.
</event>
<event>
 5   0  0.3220147E-08  0.3198137E+04  0.7818609E-02  0.8189309E-01
        1   -1    0    0  501    0  0.00000000000E+00  0.00000000000E+00  0.26766116987E+04  0.26766116987E+04  0.50400001928E-02 0.  1.
       -1   -1    0    0    0  501  0.00000000000E+00  0.00000000000E+00 -0.95531978976E+03  0.95531978978E+03  0.50400001928E-02 0. -1.
    10030    2    1    2    0    0  0.00000000000E+00  0.00000000000E+00  0.17212919090E+04  0.36319314885E+04  0.31981370361E+04 0.  0.
        4    1    3    3  502    0 -0.13842307200E+04 -0.30101328243E+03  0.18191973168E+02  0.14166990658E+04  0.12699999809E+01 0. -1.
       -4    1    3    3    0  502  0.13842307200E+04  0.30101328243E+03  0.17030999358E+04  0.22152324227E+04  0.12699999809E+01 0.  1.
</event>
<event>
 5   0  0.3283581E-08  0.3199347E+04  0.7818609E-02  0.8188990E-01
        1   -1    0    0  501    0  0.00000000000E+00  0.00000000000E+00  0.23947175149E+04  0.23947175149E+04  0.50400001928E-02 0. -1.
       -1   -1    0    0    0  501  0.00000000000E+00  0.00000000000E+00 -0.10685835585E+04  0.10685835585E+04  0.50400001928E-02 0.  1.
    10030    2    1    2    0    0  0.00000000000E+00  0.00000000000E+00  0.13261339563E+04  0.34633010734E+04  0.31993472857E+04 0.  0.
        5    1    3    3  502    0  0.10740006378E+04 -0.39095354138E+03 -0.54847114030E+03  0.12677400062E+04  0.46999998093E+01 0.  1.
       -5    1    3    3    0  502 -0.10740006378E+04  0.39095354138E+03  0.18746050967E+04  0.21955610672E+04  0.46999998093E+01 0. -1.
</event>
<event>
 5   0  0.3270966E-08  0.3199524E+04  0.7818609E-02  0.8188943E-01
        1   -1    0    0  501    0  0.00000000000E+00  0.00000000000E+00  0.14956080463E+04  0.14956080463E+04  0.50400001928E-02 0.  1.
       -1   -1    0    0    0  501  0.00000000000E+00  0.00000000000E+00 -0.17111686981E+04  0.17111686982E+04  0.50400001928E-02 0. -1.
    10030    2    1    2    0    0  0.00000000000E+00  0.00000000000E+00 -0.21556065183E+03  0.32067767445E+04  0.31995235105E+04 0.  0.
        3    1    3    3  502    0 -0.10445235583E+04  0.91121907697E+03  0.69270916271E+03  0.15495791895E+04  0.10100000352E+00 0.  1.
       -3    1    3    3    0  502  0.10445235583E+04 -0.91121907697E+03 -0.90826981455E+03  0.16571975550E+04  0.10100000352E+00 0. -1.
</event>
<event>
 5   0  0.9353994E-08  0.3203258E+04  0.7818609E-02  0.8187957E-01
       -2   -1    0    0    0  501  0.00000000000E+00  0.00000000000E+00  0.29510193186E+04  0.29510193186E+04  0.25500000920E-02 0.  1.
        2   -1    0    0  501    0  0.00000000000E+00  0.00000000000E+00 -0.86926415704E+03  0.86926415705E+03  0.25500000920E-02 0. -1.
    10030    2    1    2    0    0  0.00000000000E+00  0.00000000000E+00  0.20817551616E+04  0.38202834757E+04  0.32032579168E+04 0.  0.
        2    1    3    3  502    0 -0.29202392434E+02  0.15852147178E+04  0.13114136867E+04  0.20575627181E+04  0.25500000920E-02 0. -1.
       -2    1    3    3    0  502  0.29202392434E+02 -0.15852147178E+04  0.77034147486E+03  0.17627207576E+04  0.25500000920E-02 0.  1.
</event>
<event>
 5   0  0.3270966E-08  0.3203137E+04  0.7818609E-02  0.8187989E-01
        1   -1    0    0  501    0  0.00000000000E+00  0.00000000000E+00  0.12257413387E+04  0.12257413387E+04  0.50400001928E-02 0.  1.
       -1   -1    0    0    0  501  0.00000000000E+00  0.00000000000E+00 -0.20926291834E+04  0.20926291834E+04  0.50400001928E-02 0. -1.
    10030    2    1    2    0    0  0.00000000000E+00  0.00000000000E+00 -0.86688784469E+03  0.33183705221E+04  0.32031372725E+04 0.  0.
        3    1    3    3  502    0 -0.12263474936E+04 -0.80559577387E+03  0.23160801869E+03  0.14854477474E+04  0.10100000352E+00 0.  1.
       -3    1    3    3    0  502  0.12263474936E+04  0.80559577387E+03 -0.10984958634E+04  0.18329227747E+04  0.10100000352E+00 0. -1.
</event>
<event>
 5   0  0.3427667E-08  0.3200164E+04  0.7818609E-02  0.8188774E-01
       -1   -1    0    0    0  501  0.00000000000E+00  0.00000000000E+00  0.17083414104E+04  0.17083414104E+04  0.50400001928E-02 0. -1.
        1   -1    0    0  501    0  0.00000000000E+00  0.00000000000E+00 -0.14986831256E+04  0.14986831256E+04  0.50400001928E-02 0.  1.
    10030    2    1    2    0    0  0.00000000000E+00  0.00000000000E+00  0.20965828484E+03  0.32070245360E+04  0.32001640236E+04 0.  0.
        2    1    3    3  502    0 -0.43760616876E+03  0.13771109627E+04 -0.58390593688E+03  0.15584864150E+04  0.25500000920E-02 0.  1.
       -2    1    3    3    0  502  0.43760616876E+03 -0.13771109627E+04  0.79356422173E+03  0.16485381210E+04  0.25500000920E-02 0. -1.
</event>
<event>
 5   0  0.3220147E-08  0.3200571E+04  0.7818609E-02  0.8188666E-01
       -1   -1    0    0    0  501  0.00000000000E+00  0.00000000000E+00  0.18287316293E+04  0.18287316293E+04  0.50400001928E-02 0. -1.
        1   -1    0    0  501    0  0.00000000000E+00  0.00000000000E+00 -0.14003770446E+04  0.14003770446E+04  0.50400001928E-02 0.  1.
    10030    2    1    2    0    0  0.00000000000E+00  0.00000000000E+00  0.42835458469E+03  0.32291086739E+04  0.32005710705E+04 0.  0.
        4    1    3    3  502    0  0.89248729454E+03  0.17256108152E+02  0.15542070015E+04  0.17923148051E+04  0.12699999809E+01 0. -1.
       -4    1    3    3    0  502 -0.89248729454E+03 -0.17256108152E+02 -0.11258524168E+04  0.14367938688E+04  0.12699999809E+01 0.  1.
</event>
<event>
 5   0  0.9329929E-08  0.3200955E+04  0.7818609E-02  0.8188565E-01
       -2   -1    0    0    0  501  0.00000000000E+00  0.00000000000E+00  0.12603025122E+04  0.12603025122E+04  0.25500000920E-02 0. -1.
        2   -1    0    0  501    0  0.00000000000E+00  0.00000000000E+00 -0.20324715562E+04  0.20324715562E+04  0.25500000920E-02 0.  1.
    10030    2    1    2    0    0  0.00000000000E+00  0.00000000000E+00 -0.77216904403E+03  0.32927740684E+04  0.32009554875E+04 0.  0.
        1    1    3    3  502    0 -0.90840532957E+02 -0.76221089955E+03  0.10585901441E+04  0.13076048910E+04  0.50400001928E-02 0. -1.
       -1    1    3    3    0  502  0.90840532957E+02  0.76221089955E+03 -0.18307591882E+04  0.19851691774E+04  0.50400001928E-02 0.  1.
</event>
<event>
 5   0  0.9707721E-08  0.3198777E+04  0.7818609E-02  0.8189140E-01
       -2   -1    0    0    0  501  0.00000000000E+00  0.00000000000E+00  0.12874940492E+04  0.12874940492E+04  0.25500000920E-02 0.  1.
        2   -1    0    0  501    0  0.00000000000E+00  0.00000000000E+00 -0.19868396952E+04  0.19868396952E+04  0.25500000920E-02 0. -1.
    10030    2    1    2    0    0  0.00000000000E+00  0.00000000000E+00 -0.69934564597E+03  0.32743337445E+04  0.31987774442E+04 0.  0.
        3    1    3    3  502    0 -0.11424209408E+04  0.49185833707E+02 -0.14943437869E+04  0.18816503969E+04  0.10100000352E+00 0. -1.
       -3    1    3    3    0  502  0.11424209408E+04 -0.49185833707E+02  0.79499814095E+03  0.13926833476E+04  0.10100000352E+00 0.  1.
</event>
<event>
 5   0  0.3427667E-08  0.3198253E+04  0.7818609E-02  0.8189279E-01
        1   -1    0    0  501    0  0.00000000000E+00  0.00000000000E+00  0.17621956677E+04  0.17621956677E+04  0.50400001928E-02 0. -1.
       -1   -1    0    0    0  501  0.00000000000E+00  0.00000000000E+00 -0.14511471721E+04  0.14511471721E+04  0.50400001928E-02 0.  1.
    10030    2    1    2    0    0  0.00000000000E+00  0.00000000000E+00  0.31104849559E+03  0.32133428398E+04  0.31982528104E+04 0.  0.
        2    1    3    3  502    0  0.40705827744E+03 -0.37655118029E+03 -0.13514586303E+04  0.14607969270E+04  0.25500000920E-02 0.  1.
       -2    1    3    3    0  502 -0.40705827744E+03  0.37655118029E+03  0.16625071259E+04  0.17525459127E+04  0.25500000920E-02 0. -1.
</event>
<event>
 5   0  0.3283581E-08  0.3200862E+04  0.7818609E-02  0.8188590E-01
        1   -1    0    0  501    0  0.00000000000E+00  0.00000000000E+00  0.13522977865E+04  0.13522977865E+04  0.50400001928E-02 0. -1.
       -1   -1    0    0    0  501  0.00000000000E+00  0.00000000000E+00 -0.18940938285E+04  0.18940938285E+04  0.50400001928E-02 0.  1.
    10030    2    1    2    0    0  0.00000000000E+00  0.00000000000E+00 -0.54179604194E+03  0.32463916150E+04  0.32008616913E+04 0.  0.
        5    1    3    3  502    0 -0.39406674861E+03  0.16635166748E+03  0.12932434116E+04  0.13621534757E+04  0.46999998093E+01 0. -1.
       -5    1    3    3    0  502  0.39406674861E+03 -0.16635166748E+03 -0.18350394536E+04  0.18842381393E+04  0.46999998093E+01 0.  1.
</event>
<event>
 5   0  0.9157524E-08  0.3199306E+04  0.7818609E-02  0.8189001E-01
        2   -1    0    0  501    0  0.00000000000E+00  0.00000000000E+00  0.14858880849E+04  0.14858880849E+04  0.25500000920E-02 0. -1.
       -2   -1    0    0    0  501  0.00000000000E+00  0.00000000000E+00 -0.17221276659E+04  0.17221276659E+04  0.25500000920E-02 0.  1.
    10030    2    1    2    0    0  0.00000000000E+00  0.00000000000E+00 -0.23623958105E+03  0.32080157508E+04  0.31993055368E+04 0.  0.
        5    1    3    3  502    0 -0.58024149128E+03 -0.14774640508E+04 -0.31686809772E+03  0.16186437814E+04  0.46999998093E+01 0. -1.
       -5    1    3    3    0  502  0.58024149128E+03  0.14774640508E+04  0.80628516673E+02  0.15893719694E+04  0.46999998093E+01 0.  1.
</event>
<event>
 5   0  0.9329929E-08  0.3207400E+04  0.7818609E-02  0.8186866E-01
       -2   -1    0    0    0  501  0.00000000000E+00  0.00000000000E+00  0.14199816733E+04  0.14199816733E+04  0.25500000920E-02 0. -1.
        2   -1    0    0  501    0  0.00000000000E+00  0.00000000000E+00 -0.18111878006E+04  0.18111878006E+04  0.25500000920E-02 0.  1.
    10030    2    1    2    0    0  0.00000000000E+00  0.00000000000E+00 -0.39120612737E+03  0.32311694739E+04  0.32073998714E+04 0.  0.
        1    1    3    3  502    0  0.13659497453E+04  0.11945740185E+03  0.64228466511E+03  0.15141394812E+04  0.50400001928E-02 0.  1.
       -1    1    3    3    0  502 -0.13659497453E+04 -0.11945740185E+03 -0.10334907925E+04  0.17170299927E+04  0.50400001928E-02 0. -1.
</event>
<event>
 5   0  0.3080500E-08  0.3203176E+04  0.7818609E-02  0.8187979E-01
        3   -1    0    0  501    0  0.00000000000E+00  0.00000000000E+00  0.17912013863E+04  0.17912013892E+04  0.10100000352E+00 0. -1.
       -3   -1    0    0    0  501  0.00000000000E+00  0.00000000000E+00 -0.14320470280E+04  0.14320470316E+04  0.10100000352E+00 0.  1.
    10030    2    1    2    0    0  0.00000000000E+00  0.00000000000E+00  0.35915435827E+03  0.32232484208E+04  0.32031763187E+04 0.  0.
        4    1    3    3  502    0 -0.23620560466E+03 -0.52320783078E+03 -0.13249654443E+04  0.14439787267E+04  0.12699999809E+01 0.  1.
       -4    1    3    3    0  502  0.23620560466E+03  0.52320783078E+03  0.16841198025E+04  0.17792696940E+04  0.12699999809E+01 0. -1.
</event>
<event>
 5   0  0.3220147E-08  0.3199230E+04  0.7818609E-02  0.8189021E-01
        1   -1    0    0  501    0  0.00000000000E+00  0.00000000000E+00  0.22230456371E+04  0.22230456371E+04  0.50400001928E-02 0. -1.
       -1   -1    0    0    0  501  0.00000000000E+00  0.00000000000E+00 -0.11510188380E+04  0.11510188380E+04  0.50400001928E-02 0.  1.
    10030    2    1    2    0    0  0.00000000000E+00  0.00000000000E+00  0.10720267991E+04  0.33740644751E+04  0.31992295360E+04 0.  0.
        4    1    3    3  502    0  0.10128244304E+03 -0.14581043244E+04 -0.14945936702E+03  0.14692399632E+04  0.12699999809E+01 0.  1.
       -4    1    3    3    0  502 -0.10128244304E+03  0.14581043244E+04  0.12214861661E+04  0.19048245119E+04  0.12699999809E+01 0. -1.
</event>
<event>
 5   0  0.9727083E-08  0.3200960E+04  0.7818609E-02  0.8188564E-01
       -2   -1    0    0    0  501  0.00000000000E+00  0.00000000000E+00  0.10962984082E+04  0.10962984082E+04  0.25500000920E-02 0. -1.
        2   -1    0    0  501    0  0.00000000000E+00  0.00000000000E+00 -0.23365325722E+04  0.23365325722E+04  0.25500000920E-02 0.  1.
    10030    2    1    2    0    0  0.00000000000E+00  0.00000000000E+00 -0.12402341640E+04  0.34328309804E+04  0.32009604431E+04 0.  0.
        4    1    3    3  502    0 -0.63710558524E+03 -0.27635385071E+03 -0.21665338480E+04  0.22751143938E+04  0.12699999809E+01 0.  1.
       -4    1    3    3    0  502  0.63710558524E+03  0.27635385071E+03  0.92629968392E+03  0.11577165866E+04  0.12699999809E+01 0. -1.
</event>
<event>
 5   0  0.9329929E-08  0.3200235E+04  0.7818609E-02  0.8188755E-01
        2   -1    0    0  501    0  0.00000000000E+00  0.00000000000E+00  0.13514236179E+04  0.13514236179E+04  0.25500000920E-02 0.  1.
       -2   -1    0    0    0  501  0.00000000000E+00  0.00000000000E+00 -0.18945772573E+04  0.18945772573E+04  0.25500000920E-02 0. -1.
    10030    2    1    2    0    0  0.00000000000E+00  0.00000000000E+00 -0.54315363934E+03  0.32460008752E+04  0.32002352736E+04 0.  0.
        1    1    3    3  502    0  0.92970386837E+03  0.79136022762E+03  0.77751423100E+03  0.14474559310E+04  0.50400001928E-02 0.  1.
       -1    1    3    3    0  502 -0.92970386837E+03 -0.79136022762E+03 -0.13206678703E+04  0.17985449442E+04  0.50400001928E-02 0. -1.
</event>
<event>
 5   0  0.9157524E-08  0.3200541E+04  0.7818609E-02  0.8188674E-01
        2   -1    0    0  501    0  0.00000000000E+00  0.00000000000E+00  0.23209098504E+04  0.23209098504E+04  0.25500000920E-02 0.  1.
       -2   -1    0    0    0  501  0.00000000000E+00  0.00000000000E+00 -0.11033884506E+04  0.11033884506E+04  0.25500000920E-02 0. -1.
    10030    2    1    2    0    0  0.00000000000E+00  0.00000000000E+00  0.12175213998E+04  0.34242983009E+04  0.32005406566E+04 0.  0.
        5    1    3    3  502    0  0.77603412718E+03 -0.11690739432E+04  0.14318844663E+04  0.20048137235E+04  0.46999998093E+01 0.  1.
       -5    1    3    3    0  502 -0.77603412718E+03  0.11690739432E+04 -0.21436306647E+03  0.14194845774E+04  0.46999998093E+01 0. -1.
</event>
<event>
 5   0  0.9157524E-08  0.3198953E+04  0.7818609E-02  0.8189094E-01
       -2   -1    0    0    0  501  0.00000000000E+00  0.00000000000E+00  0.13356410435E+04  0.13356410435E+04  0.25500000920E-02 0.  1.
        2   -1    0    0  501    0  0.00000000000E+00  0.00000000000E+00 -0.19154286044E+04  0.19154286044E+04  0.25500000920E-02 0. -1.
    10030    2    1    2    0    0  0.00000000000E+00  0.00000000000E+00 -0.57978756097E+03  0.32510696479E+04  0.31989529912E+04 0.  0.
        5    1    3    3  502    0  0.30289246799E+03 -0.96260749748E+03  0.97126901740E+03  0.14006222316E+04  0.46999998093E+01 0.  1.
       -5    1    3    3    0  502 -0.30289246799E+03  0.96260749748E+03 -0.15510565784E+04  0.18504474164E+04  0.46999998093E+01 0. -1.
</event>
<event>
 5   0  0.9157524E-08  0.3200131E+04  0.7818609E-02  0.8188783E-01
        2   -1    0    0  501    0  0.00000000000E+00  0.00000000000E+00  0.25407531787E+04  0.25407531787E+04  0.25500000920E-02 0.  1.
       -2   -1    0    0    0  501  0.00000000000E+00  0.00000000000E+00 -0.10076575562E+04  0.10076575562E+04  0.25500000920E-02 0. -1.
    10030    2    1    2    0    0  0.00000000000E+00  0.00000000000E+00  0.15330956225E+04  0.35484107349E+04  0.32001307092E+04 0.  0.
        5    1    3    3  502    0  0.28583960148E+03  0.14425288590E+04  0.67373159152E+02  0.14721260202E+04  0.46999998093E+01 0. -1.
       -5    1    3    3    0  502 -0.28583960148E+03 -0.14425288590E+04  0.14657224634E+04  0.20762847147E+04  0.46999998093E+01 0.  1.
</event>
<event>
 5   0  0.3283581E-08  0.3208237E+04  0.7818609E-02  0.8186645E-01
        1   -1    0    0  501    0  0.00000000000E+00  0.00000000000E+00  0.17367963019E+04  0.17367963019E+04  0.50400001928E-02 0. -1.
       -1   -1    0    0    0  501  0.00000000000E+00  0.00000000000E+00 -0.14815760851E+04  0.14815760851E+04  0.50400001928E-02 0.  1.
    10030    2    1    2    0    0  0.00000000000E+00  0.00000000000E+00  0.25522021683E+03  0.32183723870E+04  0.32082368152E+04 0.  0.
        5    1    3    3  502    0 -0.11364832057E+04  0.88720705664E+02 -0.10045422372E+04  0.15194053564E+04  0.46999998093E+01 0.  1.
       -5    1    3    3    0  502  0.11364832057E+04 -0.88720705664E+02  0.12597624541E+04  0.16989670306E+04  0.46999998093E+01 0. -1.
</event>
<event>
 5   0  0.9329929E-08  0.3203024E+04  0.7818609E-02  0.8188019E-01
       -2   -1    0    0    0  501  0.00000000000E+00  0.00000000000E+00  0.95402973384E+03  0.95402973385E+03  0.25500000920E-02 0.  1.
        2   -1    0    0  501    0  0.00000000000E+00  0.00000000000E+00 -0.26884279403E+04  0.26884279403E+04  0.25500000920E-02 0. -1.
    10030    2    1    2    0    0  0.00000000000E+00  0.00000000000E+00 -0.17343982065E+04  0.36424576742E+04  0.32030236917E+04 0.  0.
        1    1    3    3  502    0 -0.14311814827E+03  0.33541021158E+03 -0.26405856662E+04  0.26656472901E+04  0.50400001928E-02 0. -1.
       -1    1    3    3    0  502  0.14311814827E+03 -0.33541021158E+03  0.90618745971E+03  0.97681038413E+03  0.50400001928E-02 0.  1.
</event>
<event>
 5   0  0.3427667E-08  0.3198841E+04  0.7818609E-02  0.8189123E-01
       -1   -1    0    0    0  501  0.00000000000E+00  0.00000000000E+00  0.17767697730E+04  0.17767697730E+04  0.50400001928E-02 0.  1.
        1   -1    0    0  501    0  0.00000000000E+00  0.00000000000E+00 -0.14397729993E+04  0.14397729993E+04  0.50400001928E-02 0. -1.
    10030    2    1    2    0    0  0.00000000000E+00  0.00000000000E+00  0.33699677365E+03  0.32165427723E+04  0.31988405057E+04 0.  0.
        2    1    3    3  502    0  0.10352728569E+04  0.36260144474E+03 -0.10019342702E+04  0.14856453068E+04  0.25500000920E-02 0. -1.
       -2    1    3    3    0  502 -0.10352728569E+04 -0.36260144474E+03  0.13389310439E+04  0.17308974655E+04  0.25500000920E-02 0.  1.
</event>
<event>
 5   0  0.3220147E-08  0.3197842E+04  0.7818609E-02  0.8189387E-01
        1   -1    0    0  501    0  0.00000000000E+00  0.00000000000E+00  0.81340152998E+03  0.81340153000E+03  0.50400001928E-02 0.  1.
       -1   -1    0    0    0  501  0.00000000000E+00  0.00000000000E+00 -0.31430334140E+04  0.31430334140E+04  0.50400001928E-02 0. -1.
    10030    2    1    2    0    0  0.00000000000E+00  0.00000000000E+00 -0.23296318841E+04  0.39564349440E+04  0.31978418897E+04 0.  0.
        4    1    3    3  502    0 -0.51874071358E+03 -0.55626412752E+02 -0.30347631614E+04  0.30792816183E+04  0.12699999809E+01 0. -1.
       -4    1    3    3    0  502  0.51874071358E+03  0.55626412752E+02  0.70513127736E+03  0.87715332579E+03  0.12699999809E+01 0.  1.
</event>
<event>
 5   0  0.3270966E-08  0.3195980E+04  0.7818609E-02  0.8189880E-01
       -1   -1    0    0    0  501  0.00000000000E+00  0.00000000000E+00  0.24217261053E+04  0.24217261054E+04  0.50400001928E-02 0.  1.
        1   -1    0    0  501    0  0.00000000000E+00  0.00000000000E+00 -0.10544430178E+04  0.10544430178E+04  0.50400001928E-02 0. -1.
    10030    2    1    2    0    0  0.00000000000E+00  0.00000000000E+00  0.13672830876E+04  0.34761691231E+04  0.31959800893E+04 0.  0.
        3    1    3    3  502    0 -0.15752193590E+04  0.24277387279E+03  0.80915777019E+03  0.17874539126E+04  0.10100000352E+00 0. -1.
       -3    1    3    3    0  502  0.15752193590E+04 -0.24277387279E+03  0.55812531738E+03  0.16887152106E+04  0.10100000352E+00 0.  1.
</event>
<event>
 5   0  0.9329929E-08  0.3199979E+04  0.7818609E-02  0.8188823E-01
       -2   -1    0    0    0  501  0.00000000000E+00  0.00000000000E+00  0.13892420244E+04  0.13892420244E+04  0.25500000920E-02 0.  1.
        2   -1    0    0  501    0  0.00000000000E+00  0.00000000000E+00 -0.18427075946E+04  0.18427075946E+04  0.25500000920E-02 0. -1.
    10030    2    1    2    0    0  0.00000000000E+00  0.00000000000E+00 -0.45346557019E+03  0.32319496190E+04  0.31999792681E+04 0.  0.
        1    1    3    3  502    0 -0.77352719885E+03  0.10753850154E+04  0.67954449833E+03  0.14888176463E+04  0.50400001928E-02 0.  1.
       -1    1    3    3    0  502  0.77352719885E+03 -0.10753850154E+04 -0.11330100685E+04  0.17431319727E+04  0.50400001928E-02 0. -1.
</event>
<event>
 5   0  0.3220147E-08  0.3200485E+04  0.7818609E-02  0.8188689E-01
       -1   -1    0    0    0  501  0.00000000000E+00  0.00000000000E+00  0.17552879826E+04  0.17552879826E+04  0.50400001928E-02 0. -1.
        1   -1    0    0  501    0  0.00000000000E+00  0.00000000000E+00 -0.14588926471E+04  0.14588926471E+04  0.50400001928E-02 0.  1.
    10030    2    1    2    0    0  0.00000000000E+00  0.00000000000E+00  0.29639533546E+03  0.32141806297E+04  0.32004854203E+04 0.  0.
        4    1    3    3  502    0  0.39333419040E+03 -0.13549671270E+04  0.90649650471E+03  0.16770167639E+04  0.12699999809E+01 0. -1.
       -4    1    3    3    0  502 -0.39333419040E+03  0.13549671270E+04 -0.61010116925E+03  0.15371638657E+04  0.12699999809E+01 0.  1.
</event>
<event>
 5   0  0.3220147E-08  0.3199174E+04  0.7818609E-02  0.8189035E-01
       -1   -1    0    0    0  501  0.00000000000E+00  0.00000000000E+00  0.14695734517E+04  0.14695734517E+04  0.50400001928E-02 0. -1.
        1   -1    0    0  501    0  0.00000000000E+00  0.00000000000E+00 -0.17411029885E+04  0.17411029885E+04  0.50400001928E-02 0.  1.
    10030    2    1    2    0    0  0.00000000000E+00  0.00000000000E+00 -0.27152953674E+03  0.32106764402E+04  0.31991740988E+04 0.  0.
        4    1    3    3  502    0  0.56829604899E+03 -0.12962572363E+04 -0.88371870981E+03  0.16685932977E+04  0.12699999809E+01 0.  1.
       -4    1    3    3    0  502 -0.56829604899E+03  0.12962572363E+04  0.61218917307E+03  0.15420831426E+04  0.12699999809E+01 0. -1.
</event>
<event>
 5   0  0.3283581E-08  0.3199485E+04  0.7818609E-02  0.8188953E-01
        1   -1    0    0  501    0  0.00000000000E+00  0.00000000000E+00  0.18223793923E+04  0.18223793923E+04  0.50400001928E-02 0.  1.
       -1   -1    0    0    0  501  0.00000000000E+00  0.00000000000E+00 -0.14043047659E+04  0.14043047659E+04  0.50400001928E-02 0. -1.
    10030    2    1    2    0    0  0.00000000000E+00  0.00000000000E+00  0.41807462640E+03  0.32266841581E+04  0.31994849997E+04 0.  0.
        5    1    3    3  502    0 -0.63650377523E+03 -0.12122412298E+04 -0.62533394633E+03  0.15052343637E+04  0.46999998093E+01 0.  1.
       -5    1    3    3    0  502  0.63650377523E+03  0.12122412298E+04  0.10434085727E+04  0.17214497945E+04  0.46999998093E+01 0. -1.
</event>
<event>
 5   0  0.9353994E-08  0.3199609E+04  0.7818609E-02  0.8188920E-01
       -2   -1    0    0    0  501  0.00000000000E+00  0.00000000000E+00  0.11840972720E+04  0.11840972720E+04  0.25500000920E-02 0.  1.
        2   -1    0    0  501    0  0.00000000000E+00  0.00000000000E+00 -0.21614567177E+04  0.21614567177E+04  0.25500000920E-02 0. -1.
    10030    2    1    2    0    0  0.00000000000E+00  0.00000000000E+00 -0.97735944565E+03  0.33455539897E+04  0.31996093530E+04 0.  0.
        2    1    3    3  502    0  0.10898635825E+04 -0.54909286814E+03 -0.15703055703E+04  0.19887597116E+04  0.25500000920E-02 0. -1.
       -2    1    3    3    0  502 -0.10898635825E+04  0.54909286814E+03  0.59294612463E+03  0.13567942781E+04  0.25500000920E-02 0.  1.
</event>
<event>
 5   0  0.9727083E-08  0.3190933E+04  0.7818609E-02  0.8191216E-01
       -2   -1    0    0    0  501  0.00000000000E+00  0.00000000000E+00  0.21873782741E+04  0.21873782741E+04  0.25500000920E-02 0.  1.
        2   -1    0    0  501    0  0.00000000000E+00  0.00000000000E+00 -0.11637278771E+04  0.11637278771E+04  0.25500000920E-02 0. -1.
    10030    2    1    2    0    0  0.00000000000E+00  0.00000000000E+00  0.10236503970E+04  0.33511061512E+04  0.31909328262E+04 0.  0.
        4    1    3    3  502    0 -0.83892170330E+02 -0.14353240323E+04  0.12381470451E+04  0.18974200094E+04  0.12699999809E+01 0.  1.
       -4    1    3    3    0  502  0.83892170330E+02  0.14353240323E+04 -0.21449664806E+03  0.14536861418E+04  0.12699999809E+01 0. -1.
</event>
<event>
 5   0  0.9157524E-08  0.3199480E+04  0.7818609E-02  0.8188954E-01
       -2   -1    0    0    0  501  0.00000000000E+00  0.00000000000E+00  0.96122725660E+03  0.96122725660E+03  0.25500000920E-02 0.  1.
        2   -1    0    0  501    0  0.00000000000E+00  0.00000000000E+00 -0.26623971088E+04  0.26623971088E+04  0.25500000920E-02 0. -1.
    10030    2    1    2    0    0  0.00000000000E+00  0.00000000000E+00 -0.17011698522E+04  0.36236243654E+04  0.31994803759E+04 0.  0.
        5    1    3    3  502    0 -0.95081965360E+03  0.84604108457E+03 -0.19482417619E+04  0.23271251757E+04  0.46999998093E+01 0. -1.
       -5    1    3    3    0  502  0.95081965360E+03 -0.84604108457E+03  0.24707190968E+03  0.12964991897E+04  0.46999998093E+01 0.  1.
</event>
<event>
 5   0  0.9707721E-08  0.3199290E+04  0.7818609E-02  0.8189005E-01
        2   -1    0    0  501    0  0.00000000000E+00  0.00000000000E+00  0.16176745530E+04  0.16176745530E+04  0.25500000920E-02 0. -1.
       -2   -1    0    0    0  501  0.00000000000E+00  0.00000000000E+00 -0.15818167371E+04  0.15818167371E+04  0.25500000920E-02 0.  1.
    10030    2    1    2    0    0  0.00000000000E+00  0.00000000000E+00  0.35857815902E+02  0.31994912900E+04  0.31992903482E+04 0.  0.
        3    1    3    3  502    0 -0.14869534053E+04  0.41031949533E+03  0.44159705696E+03  0.16044938419E+04  0.10100000352E+00 0. -1.
       -3    1    3    3    0  502  0.14869534053E+04 -0.41031949533E+03 -0.40573924106E+03  0.15949974482E+04  0.10100000352E+00 0.  1.
</event>
<event>
 5   0  0.9157524E-08  0.3199781E+04  0.7818609E-02  0.8188875E-01
        2   -1    0    0  501    0  0.00000000000E+00  0.00000000000E+00  0.19100951924E+04  0.19100951924E+04  0.25500000920E-02 0. -1.
       -2   -1    0    0    0  501  0.00000000000E+00  0.00000000000E+00 -0.13400640319E+04  0.13400640319E+04  0.25500000920E-02 0.  1.
    10030    2    1    2    0    0  0.00000000000E+00  0.00000000000E+00  0.57003116050E+03  0.32501592242E+04  0.31997811580E+04 0.  0.
        5    1    3    3  502    0 -0.74237553262E+03  0.44265811257E+03  0.16525257766E+04  0.18649212231E+04  0.46999998093E+01 0. -1.
       -5    1    3    3    0  502  0.74237553262E+03 -0.44265811257E+03 -0.10824946161E+04  0.13852380012E+04  0.46999998093E+01 0.  1.
</event>
<event>
 5   0  0.9353994E-08  0.3199707E+04  0.7818609E-02  0.8188895E-01
       -2   -1    0    0    0  501  0.00000000000E+00  0.00000000000E+00  0.16647669957E+04  0.16647669957E+04  0.25500000920E-02 0.  1.
        2   -1    0    0  501    0  0.00000000000E+00  0.00000000000E+00 -0.15374707185E+04  0.15374707185E+04  0.25500000920E-02 0. -1.
    10030    2    1    2    0    0  0.00000000000E+00  0.00000000000E+00  0.12729627719E+03  0.32022377142E+04  0.31997065546E+04 0.  0.
        2    1    3    3  502    0  0.14994026737E+04  0.42998407493E+03 -0.29221130292E+03  0.15869726299E+04  0.25500000920E-02 0.  1.
       -2    1    3    3    0  502 -0.14994026737E+04 -0.42998407493E+03  0.41950758011E+03  0.16152650842E+04  0.25500000920E-02 0. -1.
</event>
<event>
 5   0  0.3343140E-08  0.3201347E+04  0.7818609E-02  0.8188462E-01
        1   -1    0    0  501    0  0.00000000000E+00  0.00000000000E+00  0.14521964429E+04  0.14521964429E+04  0.50400001928E-02 0. -1.
       -1   -1    0    0    0  501  0.00000000000E+00  0.00000000000E+00 -0.17643309987E+04  0.17643309987E+04  0.50400001928E-02 0.  1.
    10030    2    1    2    0    0  0.00000000000E+00  0.00000000000E+00 -0.31213455579E+03  0.32165274416E+04  0.32013467168E+04 0.  0.
        1    1    3    3  502    0  0.14020555822E+04  0.23330883315E+03 -0.89573914422E+03  0.16800421071E+04  0.50400001928E-02 0.  1.
       -1    1    3    3    0  502 -0.14020555822E+04 -0.23330883315E+03  0.58360458843E+03  0.15364853344E+04  0.50400001928E-02 0. -1.
</event>
<event>
 5   0  0.3220147E-08  0.3200998E+04  0.7818609E-02  0.8188554E-01
        1   -1    0    0  501    0  0.00000000000E+00  0.00000000000E+00  0.14992275900E+04  0.14992275900E+04  0.50400001928E-02 0.  1.
       -1   -1    0    0    0  501  0.00000000000E+00  0.00000000000E+00 -0.17086108974E+04  0.17086108974E+04  0.50400001928E-02 0. -1.
    10030    2    1    2    0    0  0.00000000000E+00  0.00000000000E+00 -0.20938330745E+03  0.32078384874E+04  0.32009977182E+04 0.  0.
        4    1    3    3  502    0 -0.16352407384E+03 -0.25121852613E+03  0.14708463508E+04  0.15010801015E+04  0.12699999809E+01 0.  1.
       -4    1    3    3    0  502  0.16352407384E+03  0.25121852613E+03 -0.16802296582E+04  0.17067583859E+04  0.12699999809E+01 0. -1.
</event>
<event>
 5   0  0.9727083E-08  0.3201096E+04  0.7818609E-02  0.8188528E-01
       -2   -1    0    0    0  501  0.00000000000E+00  0.00000000000E+00  0.15725054611E+04  0.15725054611E+04  0.25500000920E-02 0. -1.
        2   -1    0    0  501    0  0.00000000000E+00  0.00000000000E+00 -0.16290901658E+04  0.16290901658E+04  0.25500000920E-02 0.  1.
    10030    2    1    2    0    0  0.00000000000E+00  0.00000000000E+00 -0.56584704752E+02  0.32015956269E+04  0.32010955514E+04 0.  0.
        4    1    3    3  502    0 -0.13522149184E+04 -0.82378928821E+03  0.20549101930E+03  0.15966659478E+04  0.12699999809E+01 0.  1.
       -4    1    3    3    0  502  0.13522149184E+04  0.82378928821E+03 -0.26207572405E+03  0.16049296791E+04  0.12699999809E+01 0. -1.
</event>
<event>
 5   0  0.9727083E-08  0.3200767E+04  0.7818609E-02  0.8188615E-01
       -2   -1    0    0    0  501  0.00000000000E+00  0.00000000000E+00  0.17236768848E+04  0.17236768848E+04  0.25500000920E-02 0.  1.
        2   -1    0    0  501    0  0.00000000000E+00  0.00000000000E+00 -0.14859094844E+04  0.14859094844E+04  0.25500000920E-02 0. -1.
    10030    2    1    2    0    0  0.00000000000E+00  0.00000000000E+00  0.23776740035E+03  0.32095863692E+04  0.32007673025E+04 0.  0.
        4    1    3    3  502    0  0.15607527912E+04 -0.78358823236E+02 -0.22722936977E+03  0.15791529944E+04  0.12699999809E+01 0. -1.
       -4    1    3    3    0  502 -0.15607527912E+04  0.78358823236E+02  0.46499677012E+03  0.16304333748E+04  0.12699999809E+01 0.  1.
</event>
<event>
 5   0  0.3427667E-08  0.3200325E+04  0.7818609E-02  0.8188731E-01
       -1   -1    0    0    0  501  0.00000000000E+00  0.00000000000E+00  0.80339020700E+03  0.80339020702E+03  0.50400001928E-02 0. -1.
        1   -1    0    0  501    0  0.00000000000E+00  0.00000000000E+00 -0.31871443606E+04  0.31871443606E+04  0.50400001928E-02 0.  1.
    10030    2    1    2    0    0  0.00000000000E+00  0.00000000000E+00 -0.23837541536E+04  0.39905345676E+04  0.32003253382E+04 0.  0.
        2    1    3    3  502    0 -0.95989222569E+03 -0.11186269298E+04 -0.41537689235E+03  0.15314232778E+04  0.25500000920E-02 0. -1.
       -2    1    3    3    0  502  0.95989222569E+03  0.11186269298E+04 -0.19683772612E+04  0.24591112898E+04  0.25500000920E-02 0.  1.
</event>
<event>
 5   0  0.3427667E-08  0.3199480E+04  0.7818609E-02  0.8188955E-01
       -1   -1    0    0    0  501  0.00000000000E+00  0.00000000000E+00  0.78107221782E+03  0.78107221784E+03  0.50400001928E-02 0.  1.
        1   -1    0    0  501    0  0.00000000000E+00  0.00000000000E+00 -0.32764805007E+04  0.32764805007E+04  0.50400001928E-02 0. -1.
    10030    2    1    2    0    0  0.00000000000E+00  0.00000000000E+00 -0.24954082828E+04  0.40575527185E+04  0.31994798898E+04 0.  0.
        2    1    3    3  502    0 -0.72343284597E+03 -0.68856908516E+03 -0.28325300587E+04  0.30034495170E+04  0.25500000920E-02 0. -1.
       -2    1    3    3    0  502  0.72343284597E+03  0.68856908516E+03  0.33712177587E+03  0.10541032015E+04  0.25500000920E-02 0.  1.
</event>
<event>
 5   0  0.9353994E-08  0.3200502E+04  0.7818609E-02  0.8188684E-01
       -2   -1    0    0    0  501  0.00000000000E+00  0.00000000000E+00  0.32606504470E+04  0.32606504470E+04  0.25500000920E-02 0.  1.
        2   -1    0    0  501    0  0.00000000000E+00  0.00000000000E+00 -0.78536600539E+03  0.78536600539E+03  0.25500000920E-02 0. -1.
    10030    2    1    2    0    0  0.00000000000E+00  0.00000000000E+00  0.24752844416E+04  0.40460164523E+04  0.32005024709E+04 0.  0.
        2    1    3    3  502    0  0.67390605536E+03  0.12031556332E+03  0.30662007973E+04  0.31416894397E+04  0.25500000920E-02 0.  1.
       -2    1    3    3    0  502 -0.67390605536E+03 -0.12031556332E+03 -0.59091635576E+03  0.90432701261E+03  0.25500000920E-02 0. -1.
</event>
<event>
 5   0  0.9707721E-08  0.3200434E+04  0.7818609E-02  0.8188702E-01
       -2   -1    0    0    0  501  0.00000000000E+00  0.00000000000E+00  0.99507875388E+03  0.99507875388E+03  0.25500000920E-02 0.  1.
        2   -1    0    0  501    0  0.00000000000E+00  0.00000000000E+00 -0.25733593428E+04  0.25733593428E+04  0.25500000920E-02 0. -1.
    10030    2    1    2    0    0  0.00000000000E+00  0.00000000000E+00 -0.15782805890E+04  0.35684380967E+04  0.32004344756E+04 0.  0.
        3    1    3    3  502    0  0.59123312187E+03 -0.89429829755E+03  0.53547430422E+03  0.11983567040E+04  0.10100000352E+00 0.  1.
       -3    1    3    3    0  502 -0.59123312187E+03  0.89429829755E+03 -0.21137548932E+04  0.23700813927E+04  0.10100000352E+00 0. -1.
</event>
<event>
 5   0  0.9353994E-08  0.3210776E+04  0.7818609E-02  0.8185977E-01
        2   -1    0    0  501    0  0.00000000000E+00  0.00000000000E+00  0.16810573065E+04  0.16810573065E+04  0.25500000920E-02 0.  1.
       -2   -1    0    0    0  501  0.00000000000E+00  0.00000000000E+00 -0.15331251345E+04  0.15331251345E+04  0.25500000920E-02 0. -1.
    10030    2    1    2    0    0  0.00000000000E+00  0.00000000000E+00  0.14793217197E+03  0.32141824410E+04  0.32107763604E+04 0.  0.
        2    1    3    3  502    0 -0.70104448013E+03 -0.82344858377E+03  0.12617070510E+04  0.16617567860E+04  0.25500000920E-02 0.  1.
       -2    1    3    3    0  502  0.70104448013E+03  0.82344858377E+03 -0.11137748790E+04  0.15524256550E+04  0.25500000920E-02 0. -1.
</event>
<event>
 5   0  0.9329929E-08  0.3204452E+04  0.7818609E-02  0.8187643E-01
        2   -1    0    0  501    0  0.00000000000E+00  0.00000000000E+00  0.23037076602E+04  0.23037076602E+04  0.25500000920E-02 0.  1.
       -2   -1    0    0    0  501  0.00000000000E+00  0.00000000000E+00 -0.11143459901E+04  0.11143459901E+04  0.25500000920E-02 0. -1.
    10030    2    1    2    0    0  0.00000000000E+00  0.00000000000E+00  0.11893616702E+04  0.34180536503E+04  0.32044515247E+04 0.  0.
        1    1    3    3  502    0 -0.23681658212E+02 -0.35884722425E+03  0.22601008572E+04  0.22885340365E+04  0.50400001928E-02 0.  1.
       -1    1    3    3    0  502  0.23681658212E+02  0.35884722425E+03 -0.10707391870E+04  0.11295196138E+04  0.50400001928E-02 0. -1.
</event>
<event>
 5   0  0.3283581E-08  0.3201123E+04  0.7818609E-02  0.8188521E-01
        1   -1    0    0  501    0  0.00000000000E+00  0.00000000000E+00  0.25941443164E+04  0.25941443164E+04  0.50400001928E-02 0.  1.
       -1   -1    0    0    0  501  0.00000000000E+00  0.00000000000E+00 -0.98753087208E+03  0.98753087209E+03  0.50400001928E-02 0. -1.
    10030    2    1    2    0    0  0.00000000000E+00  0.00000000000E+00  0.16066134444E+04  0.35816751885E+04  0.32011233023E+04 0.  0.
        5    1    3    3  502    0  0.96969513921E+03  0.12226560367E+04  0.40523187959E+03  0.16122752288E+04  0.46999998093E+01 0.  1.
       -5    1    3    3    0  502 -0.96969513921E+03 -0.12226560367E+04  0.12013815648E+04  0.19693999597E+04  0.46999998093E+01 0. -1.
</event>
<event>
 5   0  0.9157524E-08  0.3199615E+04  0.7818609E-02  0.8188919E-01
       -2   -1    0    0    0  501  0.00000000000E+00  0.00000000000E+00  0.16754364656E+04  0.16754364656E+04  0.25500000920E-02 0.  1.
        2   -1    0    0  501    0  0.00000000000E+00  0.00000000000E+00 -0.15275923607E+04  0.15275923607E+04  0.25500000920E-02 0. -1.
    10030    2    1    2    0    0  0.00000000000E+00  0.00000000000E+00  0.14784410486E+03  0.32030288263E+04  0.31996149429E+04 0.  0.
        5    1    3    3  502    0  0.11489727253E+03 -0.10572990532E+04 -0.11224594351E+04  0.15462923219E+04  0.46999998093E+01 0. -1.
       -5    1    3    3    0  502 -0.11489727253E+03  0.10572990532E+04  0.12703035400E+04  0.16567365044E+04  0.46999998093E+01 0.  1.
</event>
<event>
 5   0  0.9727083E-08  0.3201120E+04  0.7818609E-02  0.8188522E-01
       -2   -1    0    0    0  501  0.00000000000E+00  0.00000000000E+00  0.97390700433E+03  0.97390700433E+03  0.25500000920E-02 0.  1.
        2   -1    0    0  501    0  0.00000000000E+00  0.00000000000E+00 -0.26304274647E+04  0.26304274647E+04  0.25500000920E-02 0. -1.
    10030    2    1    2    0    0  0.00000000000E+00  0.00000000000E+00 -0.16565204604E+04  0.36043344690E+04  0.32011196368E+04 0.  0.
        4    1    3    3  502    0 -0.13893358244E+04  0.55459176974E+03 -0.18738779421E+03  0.15076278926E+04  0.12699999809E+01 0.  1.
       -4    1    3    3    0  502  0.13893358244E+04 -0.55459176974E+03 -0.14691326662E+04  0.20967065765E+04  0.12699999809E+01 0. -1.
</event>
<event>
 5   0  0.9353994E-08  0.3200281E+04  0.7818609E-02  0.8188743E-01
       -2   -1    0    0    0  501  0.00000000000E+00  0.00000000000E+00  0.15981982308E+04  0.15981982308E+04  0.25500000920E-02 0. -1.
        2   -1    0    0  501    0  0.00000000000E+00  0.00000000000E+00 -0.16020855255E+04  0.16020855255E+04  0.25500000920E-02 0.  1.
    10030    2    1    2    0    0  0.00000000000E+00  0.00000000000E+00 -0.38872947321E+01  0.32002837563E+04  0.32002813954E+04 0.  0.
        2    1    3    3  502    0 -0.12410148864E+04  0.10097993222E+04 -0.27195065019E+02  0.16001725504E+04  0.25500000920E-02 0.  1.
       -2    1    3    3    0  502  0.12410148864E+04 -0.10097993222E+04  0.23307770287E+02  0.16001112060E+04  0.25500000920E-02 0. -1.
</event>
<event>
 5   0  0.3283581E-08  0.3199950E+04  0.7818609E-02  0.8188830E-01
        1   -1    0    0  501    0  0.00000000000E+00  0.00000000000E+00  0.91243154187E+03  0.91243154188E+03  0.50400001928E-02 0.  1.
       -1   -1    0    0    0  501  0.00000000000E+00  0.00000000000E+00 -0.28056019960E+04  0.28056019960E+04  0.50400001928E-02 0. -1.
    10030    2    1    2    0    0  0.00000000000E+00  0.00000000000E+00 -0.18931704541E+04  0.37180335379E+04  0.31999498465E+04 0.  0.
        5    1    3    3  502    0  0.24670035138E+03 -0.13155189916E+04  0.71952023961E+02  0.13403919071E+04  0.46999998093E+01 0.  1.
       -5    1    3    3    0  502 -0.24670035138E+03  0.13155189916E+04 -0.19651224781E+04  0.23776416308E+04  0.46999998093E+01 0. -1.
</event>
<event>
 5   0  0.3283581E-08  0.3199834E+04  0.7818609E-02  0.8188861E-01
       -1   -1    0    0    0  501  0.00000000000E+00  0.00000000000E+00  0.18912528215E+04  0.18912528215E+04  0.50400001928E-02 0.  1.
        1   -1    0    0  501    0  0.00000000000E+00  0.00000000000E+00 -0.13534594135E+04  0.13534594135E+04  0.50400001928E-02 0. -1.
    10030    2    1    2    0    0  0.00000000000E+00  0.00000000000E+00  0.53779340804E+03  0.32447122350E+04  0.31998337048E+04 0.  0.
        5    1    3    3  502    0  0.10979069650E+04  0.15874148592E+03 -0.90014438726E+03  0.14285939140E+04  0.46999998093E+01 0. -1.
       -5    1    3    3    0  502 -0.10979069650E+04 -0.15874148592E+03  0.14379377953E+04  0.18161183211E+04  0.46999998093E+01 0.  1.
</event>
<event>
 5   0  0.9329929E-08  0.3194516E+04  0.7818609E-02  0.8190267E-01
       -2   -1    0    0    0  501  0.00000000000E+00  0.00000000000E+00  0.18596498938E+04  0.18596498938E+04  0.25500000920E-02 0. -1.
        2   -1    0    0  501    0  0.00000000000E+00  0.00000000000E+00 -0.13718893172E+04  0.13718893172E+04  0.25500000920E-02 0.  1.
    10030    2    1    2    0    0  0.00000000000E+00  0.00000000000E+00  0.48776057665E+03  0.32315392110E+04  0.31945164410E+04 0.  0.
        1    1    3    3  502    0 -0.14930167808E+04 -0.28135130861E+03 -0.25475858351E+03  0.15405062812E+04  0.50400001928E-02 0.  1.
       -1    1    3    3    0  502  0.14930167808E+04  0.28135130861E+03  0.74251916016E+03  0.16910329298E+04  0.50400001928E-02 0. -1.
</event>
<event>
 5   0  0.9157524E-08  0.3202116E+04  0.7818609E-02  0.8188259E-01
       -2   -1    0    0    0  501  0.00000000000E+00  0.00000000000E+00  0.95542109773E+03  0.95542109773E+03  0.25500000920E-02 0.  1.
        2   -1    0    0  501    0  0.00000000000E+00  0.00000000000E+00 -0.26829919159E+04  0.26829919159E+04  0.25500000920E-02 0. -1.
    10030    2    1    2    0    0  0.00000000000E+00  0.00000000000E+00 -0.17275708182E+04  0.36384130136E+04  0.32021162262E+04 0.  0.
        5    1    3    3  502    0 -0.13628590068E+04  0.82576993958E+03 -0.10401218832E+04  0.19029336004E+04  0.46999998093E+01 0.  1.
       -5    1    3    3    0  502  0.13628590068E+04 -0.82576993958E+03 -0.68744893495E+03  0.17354794132E+04  0.46999998093E+01 0. -1.
</event>
<event>
 5   0  0.9157524E-08  0.3201123E+04  0.7818609E-02  0.8188521E-01
       -2   -1    0    0    0  501  0.00000000000E+00  0.00000000000E+00  0.24359463925E+04  0.24359463925E+04  0.25500000920E-02 0.  1.
        2   -1    0    0  501    0  0.00000000000E+00  0.00000000000E+00 -0.10516637732E+04  0.10516637732E+04  0.25500000920E-02 0. -1.
    10030    2    1    2    0    0  0.00000000000E+00  0.00000000000E+00  0.13842826193E+04  0.34876101657E+04  0.32011226621E+04 0.  0.
        5    1    3    3  502    0  0.15045404294E+04 -0.49615304228E+03  0.94050036270E+03  0.18423823619E+04  0.46999998093E+01 0.  1.
       -5    1    3    3    0  502 -0.15045404294E+04  0.49615304228E+03  0.44378225658E+03  0.16452278038E+04  0.46999998093E+01 0. -1.
</event>
<event>
 5   0  0.3220147E-08  0.3201584E+04  0.7818609E-02  0.8188399E-01
       -1   -1    0    0    0  501  0.00000000000E+00  0.00000000000E+00  0.14846191579E+04  0.14846191579E+04  0.50400001928E-02 0. -1.
        1   -1    0    0  501    0  0.00000000000E+00  0.00000000000E+00 -0.17260549902E+04  0.17260549902E+04  0.50400001928E-02 0.  1.
    10030    2    1    2    0    0  0.00000000000E+00  0.00000000000E+00 -0.24143583226E+03  0.32106741481E+04  0.32015835495E+04 0.  0.
        4    1    3    3  502    0  0.18145019634E+02 -0.80627478793E+03  0.12660042740E+04  0.15010585299E+04  0.12699999809E+01 0. -1.
       -4    1    3    3    0  502 -0.18145019634E+02  0.80627478793E+03 -0.15074401063E+04  0.17096156183E+04  0.12699999809E+01 0.  1.
</event>
<event>
 5   0  0.3220147E-08  0.3198169E+04  0.7818609E-02  0.8189301E-01
        1   -1    0    0  501    0  0.00000000000E+00  0.00000000000E+00  0.18229298811E+04  0.18229298811E+04  0.50400001928E-02 0. -1.
       -1   -1    0    0    0  501  0.00000000000E+00  0.00000000000E+00 -0.14027261102E+04  0.14027261102E+04  0.50400001928E-02 0.  1.
    10030    2    1    2    0    0  0.00000000000E+00  0.00000000000E+00  0.42020377085E+03  0.32256559913E+04  0.31981690645E+04 0.  0.
        4    1    3    3  502    0 -0.95721054628E+03  0.16268007849E+03  0.14915937952E+04  0.17797669793E+04  0.12699999809E+01 0. -1.
       -4    1    3    3    0  502  0.95721054628E+03 -0.16268007849E+03 -0.10713900244E+04  0.14458890120E+04  0.12699999809E+01 0.  1.
</event>
<event>
 5   0  0.3427667E-08  0.3197333E+04  0.7818609E-02  0.8189522E-01
        1   -1    0    0  501    0  0.00000000000E+00  0.00000000000E+00  0.14737714512E+04  0.14737714512E+04  0.50400001928E-02 0. -1.
       -1   -1    0    0    0  501  0.00000000000E+00  0.00000000000E+00 -0.17341453254E+04  0.17341453254E+04  0.50400001928E-02 0.  1.
    10030    2    1    2    0    0  0.00000000000E+00  0.00000000000E+00 -0.26037387419E+03  0.32079167766E+04  0.31973325587E+04 0.  0.
        2    1    3    3  502    0 -0.77058602520E+03 -0.86362070831E+03  0.97622842949E+03  0.15141550438E+04  0.25500000920E-02 0. -1.
       -2    1    3    3    0  502  0.77058602520E+03  0.86362070831E+03 -0.12366023037E+04  0.16937617328E+04  0.25500000920E-02 0.  1.
</event>
<event>
 5   0  0.9329929E-08  0.3199742E+04  0.7818609E-02  0.8188885E-01
        2   -1    0    0  501    0  0.00000000000E+00  0.00000000000E+00  0.18024966922E+04  0.18024966922E+04  0.25500000920E-02 0.  1.
       -2   -1    0    0    0  501  0.00000000000E+00  0.00000000000E+00 -0.14200232020E+04  0.14200232020E+04  0.25500000920E-02 0. -1.
    10030    2    1    2    0    0  0.00000000000E+00  0.00000000000E+00  0.38247349016E+03  0.32225198942E+04  0.31997419424E+04 0.  0.
        1    1    3    3  502    0 -0.52411426405E+03  0.14856634076E+04  0.47196031046E+03  0.16445783828E+04  0.50400001928E-02 0. -1.
       -1    1    3    3    0  502  0.52411426405E+03 -0.14856634076E+04 -0.89486820302E+02  0.15779415114E+04  0.50400001928E-02 0.  1.
</event>
<event>
 5   0  0.9157524E-08  0.3199817E+04  0.7818609E-02  0.8188866E-01
        2   -1    0    0  501    0  0.00000000000E+00  0.00000000000E+00  0.20985449564E+04  0.20985449564E+04  0.25500000920E-02 0. -1.
       -2   -1    0    0    0  501  0.00000000000E+00  0.00000000000E+00 -0.12197532782E+04  0.12197532782E+04  0.25500000920E-02 0.  1.
    10030    2    1    2    0    0  0.00000000000E+00  0.00000000000E+00  0.87879167818E+03  0.33182982346E+04  0.31998169261E+04 0.  0.
        5    1    3    3  502    0 -0.43817443713E+03  0.99185497254E+03 -0.78056110325E+03  0.13360654362E+04  0.46999998093E+01 0.  1.
       -5    1    3    3    0  502  0.43817443713E+03 -0.99185497254E+03  0.16593527814E+04  0.19822327984E+04  0.46999998093E+01 0. -1.
</event>
<event>
 5   0  0.9707721E-08  0.3200239E+04  0.7818609E-02  0.8188754E-01
        2   -1    0    0  501    0  0.00000000000E+00  0.00000000000E+00  0.23896549818E+04  0.23896549818E+04  0.25500000920E-02 0.  1.
       -2   -1    0    0    0  501  0.00000000000E+00  0.00000000000E+00 -0.10714442364E+04  0.10714442364E+04  0.25500000920E-02 0. -1.
    10030    2    1    2    0    0  0.00000000000E+00  0.00000000000E+00  0.13182107454E+04  0.34610992181E+04  0.32002387768E+04 0.  0.
        3    1    3    3  502    0 -0.14309644322E+04 -0.54463955340E+03  0.15635824145E+03  0.15390709403E+04  0.10100000352E+00 0. -1.
       -3    1    3    3    0  502  0.14309644322E+04  0.54463955340E+03  0.11618525040E+04  0.19220282778E+04  0.10100000352E+00 0.  1.
</event>
<event>
 5   0  0.3343140E-08  0.3196332E+04  0.7818609E-02  0.8189786E-01
       -1   -1    0    0    0  501  0.00000000000E+00  0.00000000000E+00  0.26484835109E+04  0.26484835109E+04  0.50400001928E-02 0. -1.
        1   -1    0    0  501    0  0.00000000000E+00  0.00000000000E+00 -0.96437646292E+03  0.96437646293E+03  0.50400001928E-02 0.  1.
    10030    2    1    2    0    0  0.00000000000E+00  0.00000000000E+00  0.16841070480E+04  0.36128599738E+04  0.31963323734E+04 0.  0.
        1    1    3    3  502    0 -0.96161913650E+03  0.79923139467E+03 -0.28296576857E+03  0.12820108471E+04  0.50400001928E-02 0.  1.
       -1    1    3    3    0  502  0.96161913650E+03 -0.79923139467E+03  0.19670728165E+04  0.23308491267E+04  0.50400001928E-02 0. -1.
</event>
<event>
 5   0  0.9329929E-08  0.3199984E+04  0.7818609E-02  0.8188821E-01
       -2   -1    0    0    0  501  0.00000000000E+00  0.00000000000E+00  0.18000818157E+04  0.18000818157E+04  0.25500000920E-02 0. -1.
        2   -1    0    0  501    0  0.00000000000E+00  0.00000000000E+00 -0.14221434028E+04  0.14221434028E+04  0.25500000920E-02 0.  1.
    10030    2    1    2    0    0  0.00000000000E+00  0.00000000000E+00  0.37793841286E+03  0.32222252186E+04  0.31999840492E+04 0.  0.
        1    1    3    3  502    0  0.15779227371E+04 -0.39941378409E+02  0.45258836129E+03  0.16420327959E+04  0.50400001928E-02 0. -1.
       -1    1    3    3    0  502 -0.15779227371E+04  0.39941378409E+02 -0.74649948435E+02  0.15801924227E+04  0.50400001928E-02 0.  1.
</event>
<event>
 5   0  0.3220147E-08  0.3201031E+04  0.7818609E-02  0.8188545E-01
        1   -1    0    0  501    0  0.00000000000E+00  0.00000000000E+00  0.27179976749E+04  0.27179976749E+04  0.50400001928E-02 0.  1.
       -1   -1    0    0    0  501  0.00000000000E+00  0.00000000000E+00 -0.94247655629E+03  0.94247655631E+03  0.50400001928E-02 0. -1.
    10030    2    1    2    0    0  0.00000000000E+00  0.00000000000E+00  0.17755211186E+04  0.36604742313E+04  0.32010305145E+04 0.  0.
        4    1    3    3  502    0  0.11912882482E+04  0.85628264371E+03  0.16193157462E+04  0.21850795764E+04  0.12699999809E+01 0.  1.
       -4    1    3    3    0  502 -0.11912882482E+04 -0.85628264371E+03  0.15620537243E+03  0.14753946549E+04  0.12699999809E+01 0. -1.
</event>
<event>
 5   0  0.9707721E-08  0.3199366E+04  0.7818609E-02  0.8188985E-01
       -2   -1    0    0    0  501  0.00000000000E+00  0.00000000000E+00  0.12072215652E+04  0.12072215652E+04  0.25500000920E-02 0. -1.
        2   -1    0    0  501    0  0.00000000000E+00  0.00000000000E+00 -0.21197313719E+04  0.21197313719E+04  0.25500000920E-02 0.  1.
    10030    2    1    2    0    0  0.00000000000E+00  0.00000000000E+00 -0.91250980669E+03  0.33269529371E+04  0.31993658275E+04 0.  0.
        3    1    3    3  502    0  0.36294512773E+03  0.12520366353E+04  0.50789873578E+03  0.13990303921E+04  0.10100000352E+00 0. -1.
       -3    1    3    3    0  502 -0.36294512773E+03 -0.12520366353E+04 -0.14204085425E+04  0.19279225450E+04  0.10100000352E+00 0.  1.
</event>
<event>
 5   0  0.9727083E-08  0.3199892E+04  0.7818609E-02  0.8188846E-01
        2   -1    0    0  501    0  0.00000000000E+00  0.00000000000E+00  0.15044926055E+04  0.15044926055E+04  0.25500000920E-02 0.  1.
       -2   -1    0    0    0  501  0.00000000000E+00  0.00000000000E+00 -0.17014553973E+04  0.17014553973E+04  0.25500000920E-02 0. -1.
    10030    2    1    2    0    0  0.00000000000E+00  0.00000000000E+00 -0.19696279184E+03  0.32059480028E+04  0.31998919131E+04 0.  0.
        4    1    3    3  502    0  0.11177313793E+04 -0.11316479836E+04 -0.27165196119E+03  0.16136130255E+04  0.12699999809E+01 0.  1.
       -4    1    3    3    0  502 -0.11177313793E+04  0.11316479836E+04  0.74689169345E+02  0.15923349773E+04  0.12699999809E+01 0. -1.
</event>
<event>
 5   0  0.3343140E-08  0.3199786E+04  0.7818609E-02  0.8188874E-01
       -1   -1    0    0    0  501  0.00000000000E+00  0.00000000000E+00  0.90647514610E+03  0.90647514612E+03  0.50400001928E-02 0. -1.
        1   -1    0    0  501    0  0.00000000000E+00  0.00000000000E+00 -0.28237485704E+04  0.28237485704E+04  0.50400001928E-02 0.  1.
    10030    2    1    2    0    0  0.00000000000E+00  0.00000000000E+00 -0.19172734243E+04  0.37302237165E+04  0.31997861791E+04 0.  0.
        1    1    3    3  502    0  0.12669422751E+04  0.14774873018E+03 -0.20844892968E+04  0.24437815050E+04  0.50400001928E-02 0.  1.
       -1    1    3    3    0  502 -0.12669422751E+04 -0.14774873018E+03  0.16721587246E+03  0.12864422116E+04  0.50400001928E-02 0. -1.
</event>
<event>
 5   0  0.9329929E-08  0.3200898E+04  0.7818609E-02  0.8188580E-01
       -2   -1    0    0    0  501  0.00000000000E+00  0.00000000000E+00  0.22499221378E+04  0.22499221378E+04  0.25500000920E-02 0.  1.
        2   -1    0    0  501    0  0.00000000000E+00  0.00000000000E+00 -0.11384558138E+04  0.11384558138E+04  0.25500000920E-02 0. -1.
    10030    2    1    2    0    0  0.00000000000E+00  0.00000000000E+00  0.11114663240E+04  0.33883779516E+04  0.32008979605E+04 0.  0.
        1    1    3    3  502    0  0.58111439657E+03  0.18531992149E+03  0.21220604962E+04  0.22079805626E+04  0.50400001928E-02 0.  1.
       -1    1    3    3    0  502 -0.58111439657E+03 -0.18531992149E+03 -0.10105941722E+04  0.11803973891E+04  0.50400001928E-02 0. -1.
</event>
<event>
 5   0  0.3283581E-08  0.3195299E+04  0.7818609E-02  0.8190060E-01
       -1   -1    0    0    0  501  0.00000000000E+00  0.00000000000E+00  0.14795262971E+04  0.14795262971E+04  0.50400001928E-02 0. -1.
        1   -1    0    0  501    0  0.00000000000E+00  0.00000000000E+00 -0.17252038803E+04  0.17252038803E+04  0.50400001928E-02 0.  1.
    10030    2    1    2    0    0  0.00000000000E+00  0.00000000000E+00 -0.24567758323E+03  0.32047301775E+04  0.31952993655E+04 0.  0.
        5    1    3    3  502    0  0.42365951790E+03  0.15341334623E+04  0.16890567547E+02  0.15916533067E+04  0.46999998093E+01 0.  1.
       -5    1    3    3    0  502 -0.42365951790E+03 -0.15341334623E+04 -0.26256815077E+03  0.16130768708E+04  0.46999998093E+01 0. -1.
</event>
<event>
 5   0  0.3283581E-08  0.3196981E+04  0.7818609E-02  0.8189615E-01
        1   -1    0    0  501    0  0.00000000000E+00  0.00000000000E+00  0.22671548928E+04  0.22671548928E+04  0.50400001928E-02 0.  1.
       -1   -1    0    0    0  501  0.00000000000E+00  0.00000000000E+00 -0.11270391544E+04  0.11270391544E+04  0.50400001928E-02 0. -1.
    10030    2    1    2    0    0  0.00000000000E+00  0.00000000000E+00  0.11401157384E+04  0.33941940472E+04  0.31969812844E+04 0.  0.
        5    1    3    3  502    0  0.40861966868E+02 -0.96740008062E+03 -0.78025531781E+03  0.12435244538E+04  0.46999998093E+01 0. -1.
       -5    1    3    3    0  502 -0.40861966868E+02  0.96740008062E+03  0.19203710562E+04  0.21506695934E+04  0.46999998093E+01 0.  1.
</event>
<event>
 5   0  0.3343140E-08  0.3201472E+04  0.7818609E-02  0.8188429E-01
        1   -1    0    0  501    0  0.00000000000E+00  0.00000000000E+00  0.19165342094E+04  0.19165342094E+04  0.50400001928E-02 0. -1.
       -1   -1    0    0    0  501  0.00000000000E+00  0.00000000000E+00 -0.13369733315E+04  0.13369733315E+04  0.50400001928E-02 0.  1.
    10030    2    1    2    0    0  0.00000000000E+00  0.00000000000E+00  0.57956087788E+03  0.32535075409E+04  0.32014716159E+04 0.  0.
        1    1    3    3  502    0  0.47742783353E+02  0.15755780616E+04  0.66310511448E+01  0.15763151882E+04  0.50400001928E-02 0.  1.
       -1    1    3    3    0  502 -0.47742783353E+02 -0.15755780616E+04  0.57292982673E+03  0.16771923527E+04  0.50400001928E-02 0. -1.
</event>
<event>
 5   0  0.3270966E-08  0.3200532E+04  0.7818609E-02  0.8188677E-01
        1   -1    0    0  501    0  0.00000000000E+00  0.00000000000E+00  0.15556753451E+04  0.15556753451E+04  0.50400001928E-02 0. -1.
       -1   -1    0    0    0  501  0.00000000000E+00  0.00000000000E+00 -0.16461350439E+04  0.16461350439E+04  0.50400001928E-02 0.  1.
    10030    2    1    2    0    0  0.00000000000E+00  0.00000000000E+00 -0.90459698793E+02  0.32018103890E+04  0.32005322698E+04 0.  0.
        3    1    3    3  502    0  0.14690199526E+04  0.34718376330E+03  0.48629721259E+03  0.15858881347E+04  0.10100000352E+00 0. -1.
       -3    1    3    3    0  502 -0.14690199526E+04 -0.34718376330E+03 -0.57675691138E+03  0.16159222542E+04  0.10100000352E+00 0.  1.
</event>
<event>
 5   0  0.3270966E-08  0.3201522E+04  0.7818609E-02  0.8188415E-01
        1   -1    0    0  501    0  0.00000000000E+00  0.00000000000E+00  0.17573852097E+04  0.17573852097E+04  0.50400001928E-02 0.  1.
       -1   -1    0    0    0  501  0.00000000000E+00  0.00000000000E+00 -0.14580958359E+04  0.14580958359E+04  0.50400001928E-02 0. -1.
    10030    2    1    2    0    0  0.00000000000E+00  0.00000000000E+00  0.29928937379E+03  0.32154810456E+04  0.32015221732E+04 0.  0.
        3    1    3    3  502    0  0.51116655323E+03  0.91878116903E+03 -0.10626749056E+04  0.14949006813E+04  0.10100000352E+00 0. -1.
       -3    1    3    3    0  502 -0.51116655323E+03 -0.91878116903E+03  0.13619642793E+04  0.17205803643E+04  0.10100000352E+00 0.  1.
</event>
<event>
 5   0  0.3220147E-08  0.3203357E+04  0.7818609E-02  0.8187931E-01
        1   -1    0    0  501    0  0.00000000000E+00  0.00000000000E+00  0.15832123356E+04  0.15832123356E+04  0.50400001928E-02 0. -1.
       -1   -1    0    0    0  501  0.00000000000E+00  0.00000000000E+00 -0.16203599616E+04  0.16203599616E+04  0.50400001928E-02 0.  1.
    10030    2    1    2    0    0  0.00000000000E+00  0.00000000000E+00 -0.37147626031E+02  0.32035722972E+04  0.32033569138E+04 0.  0.
        4    1    3    3  502    0  0.71369485475E+03 -0.15132486039E+03  0.14073946706E+04  0.15852510624E+04  0.12699999809E+01 0. -1.
       -4    1    3    3    0  502 -0.71369485475E+03  0.15132486039E+03 -0.14445422967E+04  0.16183212348E+04  0.12699999809E+01 0.  1.
</event>
<event>
 5   0  0.3270966E-08  0.3199765E+04  0.7818609E-02  0.8188879E-01
        1   -1    0    0  501    0  0.00000000000E+00  0.00000000000E+00  0.17767427414E+04  0.17767427414E+04  0.50400001928E-02 0.  1.
       -1   -1    0    0    0  501  0.00000000000E+00  0.00000000000E+00 -0.14406275026E+04  0.14406275026E+04  0.50400001928E-02 0. -1.
    10030    2    1    2    0    0  0.00000000000E+00  0.00000000000E+00  0.33611523882E+03  0.32173702440E+04  0.31997652779E+04 0.  0.
        3    1    3    3  502    0 -0.76784211451E+03  0.98992033718E+03  0.11685702944E+04  0.17132076144E+04  0.10100000352E+00 0.  1.
       -3    1    3    3    0  502  0.76784211451E+03 -0.98992033718E+03 -0.83245505556E+03  0.15041626297E+04  0.10100000352E+00 0. -1.
</event>
<event>
 5   0  0.3343140E-08  0.3199905E+04  0.7818609E-02  0.8188842E-01
       -1   -1    0    0    0  501  0.00000000000E+00  0.00000000000E+00  0.23331556564E+04  0.23331556564E+04  0.50400001928E-02 0. -1.
        1   -1    0    0  501    0  0.00000000000E+00  0.00000000000E+00 -0.10971612080E+04  0.10971612080E+04  0.50400001928E-02 0.  1.
    10030    2    1    2    0    0  0.00000000000E+00  0.00000000000E+00  0.12359944484E+04  0.34303168645E+04  0.31999049227E+04 0.  0.
        1    1    3    3  502    0 -0.10740797044E+03  0.11909457575E+04  0.17575347301E+04  0.21257508313E+04  0.50400001928E-02 0. -1.
       -1    1    3    3    0  502  0.10740797044E+03 -0.11909457575E+04 -0.52154028169E+03  0.13045660331E+04  0.50400001928E-02 0.  1.
</event>
<event>
 5   0  0.3283581E-08  0.3200626E+04  0.7818609E-02  0.8188652E-01
        1   -1    0    0  501    0  0.00000000000E+00  0.00000000000E+00  0.13576318913E+04  0.13576318913E+04  0.50400001928E-02 0.  1.
       -1   -1    0    0    0  501  0.00000000000E+00  0.00000000000E+00 -0.18863739254E+04  0.18863739254E+04  0.50400001928E-02 0. -1.
    10030    2    1    2    0    0  0.00000000000E+00  0.00000000000E+00 -0.52874203416E+03  0.32440058167E+04  0.32006258138E+04 0.  0.
        5    1    3    3  502    0 -0.33093122134E+03 -0.15210444971E+04 -0.64073593046E+03  0.16833468026E+04  0.46999998093E+01 0. -1.
       -5    1    3    3    0  502  0.33093122134E+03  0.15210444971E+04  0.11199389630E+03  0.15606590141E+04  0.46999998093E+01 0.  1.
</event>
<event>
 5   0  0.9707721E-08  0.3219288E+04  0.7818609E-02  0.8183742E-01
       -2   -1    0    0    0  501  0.00000000000E+00  0.00000000000E+00  0.16470639113E+04  0.16470639113E+04  0.25500000920E-02 0. -1.
        2   -1    0    0  501    0  0.00000000000E+00  0.00000000000E+00 -0.15730739490E+04  0.15730739490E+04  0.25500000920E-02 0.  1.
    10030    2    1    2    0    0  0.00000000000E+00  0.00000000000E+00  0.73989962299E+02  0.32201378602E+04  0.32192877045E+04 0.  0.
        3    1    3    3  502    0 -0.11660985888E+04  0.90704478434E+03  0.67625464010E+03  0.16247573690E+04  0.10100000352E+00 0.  1.
       -3    1    3    3    0  502  0.11660985888E+04 -0.90704478434E+03 -0.60226467780E+03  0.15953804913E+04  0.10100000352E+00 0. -1.
</event>
<event>
 5   0  0.9353994E-08  0.3198736E+04  0.7818609E-02  0.8189151E-01
        2   -1    0    0  501    0  0.00000000000E+00  0.00000000000E+00  0.29302427589E+04  0.29302427589E+04  0.25500000920E-02 0. -1.
       -2   -1    0    0    0  501  0.00000000000E+00  0.00000000000E+00 -0.87295797955E+03  0.87295797956E+03  0.25500000920E-02 0.  1.
    10030    2    1    2    0    0  0.00000000000E+00  0.00000000000E+00  0.20572847793E+04  0.38032007385E+04  0.31987364996E+04 0.  0.
        2    1    3    3  502    0  0.46341222041E+03  0.13220086383E+04  0.19461704387E+04  0.23979234980E+04  0.25500000920E-02 0. -1.
       -2    1    3    3    0  502 -0.46341222041E+03 -0.13220086383E+04  0.11111434066E+03  0.14052772405E+04  0.25500000920E-02 0.  1.
</event>
<event>
 5   0  0.3283581E-08  0.3199554E+04  0.7818609E-02  0.8188935E-01
        1   -1    0    0  501    0  0.00000000000E+00  0.00000000000E+00  0.14866131512E+04  0.14866131512E+04  0.50400001928E-02 0.  1.
       -1   -1    0    0    0  501  0.00000000000E+00  0.00000000000E+00 -0.17215549100E+04  0.17215549100E+04  0.50400001928E-02 0. -1.
    10030    2    1    2    0    0  0.00000000000E+00  0.00000000000E+00 -0.23494175880E+03  0.32081680613E+04  0.31995538250E+04 0.  0.
        5    1    3    3  502    0  0.50666813956E+03  0.11992080800E+04  0.81479114934E+03  0.15358122704E+04  0.46999998093E+01 0.  1.
       -5    1    3    3    0  502 -0.50666813956E+03 -0.11992080800E+04 -0.10497329081E+04  0.16723557909E+04  0.46999998093E+01 0. -1.
</event>
<event>
 5   0  0.9707721E-08  0.3199224E+04  0.7818609E-02  0.8189022E-01
       -2   -1    0    0    0  501  0.00000000000E+00  0.00000000000E+00  0.10059008760E+04  0.10059008760E+04  0.25500000920E-02 0.  1.
        2   -1    0    0  501    0  0.00000000000E+00  0.00000000000E+00 -0.25437476984E+04  0.25437476984E+04  0.25500000920E-02 0. -1.
    10030    2    1    2    0    0  0.00000000000E+00  0.00000000000E+00 -0.15378468224E+04  0.35496485744E+04  0.31992236797E+04 0.  0.
        3    1    3    3  502    0 -0.93065618389E+03 -0.77140168024E+03  0.39348344145E+03  0.12712241005E+04  0.10100000352E+00 0.  1.
       -3    1    3    3    0  502  0.93065618389E+03  0.77140168024E+03 -0.19313302639E+04  0.22784244739E+04  0.10100000352E+00 0. -1.
</event>
<event>
 5   0  0.9329929E-08  0.3200280E+04  0.7818609E-02  0.8188743E-01
       -2   -1    0    0    0  501  0.00000000000E+00  0.00000000000E+00  0.24341103916E+04  0.24341103916E+04  0.25500000920E-02 0. -1.
        2   -1    0    0  501    0  0.00000000000E+00  0.00000000000E+00 -0.10519028676E+04  0.10519028676E+04  0.25500000920E-02 0.  1.
    10030    2    1    2    0    0  0.00000000000E+00  0.00000000000E+00  0.13822075240E+04  0.34860132592E+04  0.32002798009E+04 0.  0.
        1    1    3    3  502    0 -0.73352274813E+03 -0.10625529287E+04 -0.33847027269E+03  0.13347795600E+04  0.50400001928E-02 0.  1.
       -1    1    3    3    0  502  0.73352274813E+03  0.10625529287E+04  0.17206777967E+04  0.21512336991E+04  0.50400001928E-02 0. -1.
</event>
<event>
 5   0  0.9727083E-08  0.3199178E+04  0.7818609E-02  0.8189034E-01
        2   -1    0    0  501    0  0.00000000000E+00  0.00000000000E+00  0.19904894677E+04  0.19904894677E+04  0.25500000920E-02 0. -1.
       -2   -1    0    0    0  501  0.00000000000E+00  0.00000000000E+00 -0.12854553451E+04  0.12854553451E+04  0.25500000920E-02 0.  1.
    10030    2    1    2    0    0  0.00000000000E+00  0.00000000000E+00  0.70503412257E+03  0.32759448129E+04  0.31991782231E+04 0.  0.
        4    1    3    3  502    0  0.96321942780E+03 -0.10355161163E+04  0.11178457501E+04  0.18026830079E+04  0.12699999809E+01 0. -1.
       -4    1    3    3    0  502 -0.96321942780E+03  0.10355161163E+04 -0.41281162755E+03  0.14732618049E+04  0.12699999809E+01 0.  1.
</event>
<event>
 5   0  0.9353994E-08  0.3199428E+04  0.7818609E-02  0.8188968E-01
       -2   -1    0    0    0  501  0.00000000000E+00  0.00000000000E+00  0.94954046843E+03  0.94954046843E+03  0.25500000920E-02 0. -1.
        2   -1    0    0  501    0  0.00000000000E+00  0.00000000000E+00 -0.26950768072E+04  0.26950768072E+04  0.25500000920E-02 0.  1.
    10030    2    1    2    0    0  0.00000000000E+00  0.00000000000E+00 -0.17455363388E+04  0.36446172757E+04  0.31994277576E+04 0.  0.
        2    1    3    3  502    0 -0.10694255629E+04  0.10318950528E+04 -0.15472796250E+04  0.21453560712E+04  0.25500000920E-02 0. -1.
       -2    1    3    3    0  502  0.10694255629E+04 -0.10318950528E+04 -0.19825671381E+03  0.14992612044E+04  0.25500000920E-02 0.  1.
</event>
<event>
 5   0  0.3283581E-08  0.3199445E+04  0.7818609E-02  0.8188964E-01
       -1   -1    0    0    0  501  0.00000000000E+00  0.00000000000E+00  0.10180846535E+04  0.10180846535E+04  0.50400001928E-02 0.  1.
        1   -1    0    0  501    0  0.00000000000E+00  0.00000000000E+00 -0.25136529255E+04  0.25136529255E+04  0.50400001928E-02 0. -1.
    10030    2    1    2    0    0  0.00000000000E+00  0.00000000000E+00 -0.14955682720E+04  0.35317375790E+04  0.31994446191E+04 0.  0.
        5    1    3    3  502    0  0.23756307992E+03 -0.15761726016E+04 -0.59832183225E+03  0.17025766919E+04  0.46999998093E+01 0.  1.
       -5    1    3    3    0  502 -0.23756307992E+03  0.15761726016E+04 -0.89724643980E+03  0.18291608870E+04  0.46999998093E+01 0. -1.
</event>
<event>
 5   0  0.9353994E-08  0.3201590E+04  0.7818609E-02  0.8188397E-01
        2   -1    0    0  501    0  0.00000000000E+00  0.00000000000E+00  0.12714008855E+04  0.12714008855E+04  0.25500000920E-02 0.  1.
       -2   -1    0    0    0  501  0.00000000000E+00  0.00000000000E+00 -0.20155283710E+04  0.20155283710E+04  0.25500000920E-02 0. -1.
    10030    2    1    2    0    0  0.00000000000E+00  0.00000000000E+00 -0.74412748549E+03  0.32869292566E+04  0.32015899523E+04 0.  0.
        2    1    3    3  502    0 -0.91577940998E+03  0.25808268688E+03  0.94960729598E+03  0.13442516943E+04  0.25500000920E-02 0.  1.
       -2    1    3    3    0  502  0.91577940998E+03 -0.25808268688E+03 -0.16937347815E+04  0.19426775623E+04  0.25500000920E-02 0. -1.
</event>
<event>
 5   0  0.3283581E-08  0.3199865E+04  0.7818609E-02  0.8188853E-01
        1   -1    0    0  501    0  0.00000000000E+00  0.00000000000E+00  0.22841177688E+04  0.22841177688E+04  0.50400001928E-02 0. -1.
       -1   -1    0    0    0  501  0.00000000000E+00  0.00000000000E+00 -0.11206884255E+04  0.11206884255E+04  0.50400001928E-02 0.  1.
    10030    2    1    2    0    0  0.00000000000E+00  0.00000000000E+00  0.11634293433E+04  0.34048061943E+04  0.31998652134E+04 0.  0.
        5    1    3    3  502    0  0.43908652122E+03  0.14129784867E+04 -0.65919357806E+02  0.14811052051E+04  0.46999998093E+01 0.  1.
       -5    1    3    3    0  502 -0.43908652122E+03 -0.14129784867E+04  0.12293487011E+04  0.19237009892E+04  0.46999998093E+01 0. -1.
</event>
<event>
 5   0  0.3220147E-08  0.3195180E+04  0.7818609E-02  0.8190091E-01
       -1   -1    0    0    0  501  0.00000000000E+00  0.00000000000E+00  0.15167141266E+04  0.15167141266E+04  0.50400001928E-02 0.  1.
        1   -1    0    0  501    0  0.00000000000E+00  0.00000000000E+00 -0.16827786854E+04  0.16827786854E+04  0.50400001928E-02 0. -1.
    10030    2    1    2    0    0  0.00000000000E+00  0.00000000000E+00 -0.16606455877E+03  0.31994928120E+04  0.31951802479E+04 0.  0.
        4    1    3    3  502    0 -0.39197375840E+02  0.68299535169E+03  0.13626176193E+04  0.15247122595E+04  0.12699999809E+01 0.  1.
       -4    1    3    3    0  502  0.39197375840E+02 -0.68299535169E+03 -0.15286821781E+04  0.16747805526E+04  0.12699999809E+01 0. -1.
</event>
<event>
 5   0  0.3427667E-08  0.3200241E+04  0.7818609E-02  0.8188753E-01
       -1   -1    0    0    0  501  0.00000000000E+00  0.00000000000E+00  0.16568608034E+04  0.16568608034E+04  0.50400001928E-02 0.  1.
        1   -1    0    0  501    0  0.00000000000E+00  0.00000000000E+00 -0.15453237719E+04  0.15453237719E+04  0.50400001928E-02 0. -1.
    10030    2    1    2    0    0  0.00000000000E+00  0.00000000000E+00  0.11153703147E+03  0.32021845753E+04  0.32002414823E+04 0.  0.
        2    1    3    3  502    0 -0.12899954373E+04 -0.63978519490E+03  0.75402677279E+03  0.16254137006E+04  0.25500000920E-02 0.  1.
       -2    1    3    3    0  502  0.12899954373E+04  0.63978519490E+03 -0.64248974131E+03  0.15767708748E+04  0.25500000920E-02 0. -1.
</event>
<event>
 5   0  0.3220147E-08  0.3185712E+04  0.7818609E-02  0.8192601E-01
       -1   -1    0    0    0  501  0.00000000000E+00  0.00000000000E+00  0.95486273006E+03  0.95486273008E+03  0.50400001928E-02 0.  1.
        1   -1    0    0  501    0  0.00000000000E+00  0.00000000000E+00 -0.26571254714E+04  0.26571254714E+04  0.50400001928E-02 0. -1.
    10030    2    1    2    0    0  0.00000000000E+00  0.00000000000E+00 -0.17022627413E+04  0.36119882014E+04  0.31857119027E+04 0.  0.
        4    1    3    3  502    0 -0.33159646765E+03 -0.15202823204E+04 -0.12372493183E+04  0.19879642953E+04  0.12699999809E+01 0. -1.
       -4    1    3    3    0  502  0.33159646765E+03  0.15202823204E+04 -0.46501342302E+03  0.16240239061E+04  0.12699999809E+01 0.  1.
</event>
<event>
 5   0  0.9329929E-08  0.3201051E+04  0.7818609E-02  0.8188540E-01
       -2   -1    0    0    0  501  0.00000000000E+00  0.00000000000E+00  0.81990351251E+03  0.81990351252E+03  0.25500000920E-02 0. -1.
        2   -1    0    0  501    0  0.00000000000E+00  0.00000000000E+00 -0.31243697577E+04  0.31243697577E+04  0.25500000920E-02 0.  1.
    10030    2    1    2    0    0  0.00000000000E+00  0.00000000000E+00 -0.23044662452E+04  0.39442732702E+04  0.32010509141E+04 0.  0.
        1    1    3    3  502    0 -0.10109739830E+04  0.64901052397E+03 -0.24553181007E+04  0.27334721565E+04  0.50400001928E-02 0.  1.
       -1    1    3    3    0  502  0.10109739830E+04 -0.64901052397E+03  0.15085185553E+03  0.12108011137E+04  0.50400001928E-02 0. -1.
</event>
<event>
 5   0  0.9727083E-08  0.3210104E+04  0.7818609E-02  0.8186154E-01
        2   -1    0    0  501    0  0.00000000000E+00  0.00000000000E+00  0.12231314399E+04  0.12231314399E+04  0.25500000920E-02 0. -1.
       -2   -1    0    0    0  501  0.00000000000E+00  0.00000000000E+00 -0.21062271944E+04  0.21062271944E+04  0.25500000920E-02 0.  1.
    10030    2    1    2    0    0  0.00000000000E+00  0.00000000000E+00 -0.88309575454E+03  0.33293586343E+04  0.32101044850E+04 0.  0.
        4    1    3    3  502    0  0.96376623310E+03 -0.12437334614E+04 -0.77029782478E+03  0.17518785993E+04  0.12699999809E+01 0.  1.
       -4    1    3    3    0  502 -0.96376623310E+03  0.12437334614E+04 -0.11279792977E+03  0.15774800350E+04  0.12699999809E+01 0. -1.
</event>
<event>
 5   0  0.3270966E-08  0.3199618E+04  0.7818609E-02  0.8188918E-01
        1   -1    0    0  501    0  0.00000000000E+00  0.00000000000E+00  0.82770230487E+03  0.82770230489E+03  0.50400001928E-02 0.  1.
       -1   -1    0    0    0  501  0.00000000000E+00  0.00000000000E+00 -0.30921607510E+04  0.30921607510E+04  0.50400001928E-02 0. -1.
    10030    2    1    2    0    0  0.00000000000E+00  0.00000000000E+00 -0.22644584462E+04  0.39198630559E+04  0.31996178401E+04 0.  0.
        3    1    3    3  502    0  0.14681305443E+04 -0.62350343559E+03 -0.98106544231E+03  0.18726060028E+04  0.10100000352E+00 0. -1.
       -3    1    3    3    0  502 -0.14681305443E+04  0.62350343559E+03 -0.12833930039E+04  0.20472570532E+04  0.10100000352E+00 0.  1.
</event>
<event>
 5   0  0.9707721E-08  0.3193858E+04  0.7818609E-02  0.8190441E-01
        2   -1    0    0  501    0  0.00000000000E+00  0.00000000000E+00  0.11399748192E+04  0.11399748192E+04  0.25500000920E-02 0. -1.
       -2   -1    0    0    0  501  0.00000000000E+00  0.00000000000E+00 -0.22370519571E+04  0.22370519571E+04  0.25500000920E-02 0.  1.
    10030    2    1    2    0    0  0.00000000000E+00  0.00000000000E+00 -0.10970771378E+04  0.33770267763E+04  0.31938584191E+04 0.  0.
        3    1    3    3  502    0  0.49518361280E+03  0.50063988949E+03 -0.20640337474E+04  0.21808444305E+04  0.10100000352E+00 0.  1.
       -3    1    3    3    0  502 -0.49518361280E+03 -0.50063988949E+03  0.96695660961E+03  0.11961823458E+04  0.10100000352E+00 0. -1.
</event>
<event>
 5   0  0.3270966E-08  0.3198618E+04  0.7818609E-02  0.8189182E-01
        1   -1    0    0  501    0  0.00000000000E+00  0.00000000000E+00  0.21276861701E+04  0.21276861701E+04  0.50400001928E-02 0. -1.
       -1   -1    0    0    0  501  0.00000000000E+00  0.00000000000E+00 -0.12021456338E+04  0.12021456338E+04  0.50400001928E-02 0.  1.
    10030    2    1    2    0    0  0.00000000000E+00  0.00000000000E+00  0.92554053630E+03  0.33298318038E+04  0.31986176010E+04 0.  0.
        3    1    3    3  502    0  0.90757885670E+03  0.12690085110E+04  0.82891812150E+03  0.17666882137E+04  0.10100000352E+00 0. -1.
       -3    1    3    3    0  502 -0.90757885670E+03 -0.12690085110E+04  0.96622414796E+02  0.15631435901E+04  0.10100000352E+00 0.  1.
</event>
<event>
 5   0  0.3427667E-08  0.3198777E+04  0.7818609E-02  0.8189140E-01
        1   -1    0    0  501    0  0.00000000000E+00  0.00000000000E+00  0.17995923991E+04  0.17995923991E+04  0.50400001928E-02 0. -1.
       -1   -1    0    0    0  501  0.00000000000E+00  0.00000000000E+00 -0.14214575162E+04  0.14214575163E+04  0.50400001928E-02 0.  1.
    10030    2    1    2    0    0  0.00000000000E+00  0.00000000000E+00  0.37813488281E+03  0.32210499153E+04  0.31987773551E+04 0.  0.
        2    1    3    3  502    0 -0.45307176608E+03  0.15154055401E+04 -0.49895183818E+02  0.15824719604E+04  0.25500000920E-02 0.  1.
       -2    1    3    3    0  502  0.45307176608E+03 -0.15154055401E+04  0.42803006663E+03  0.16385779549E+04  0.25500000920E-02 0. -1.
</event>
<event>
 5   0  0.9353994E-08  0.3205714E+04  0.7818609E-02  0.8187310E-01
       -2   -1    0    0    0  501  0.00000000000E+00  0.00000000000E+00  0.15300513802E+04  0.15300513802E+04  0.25500000920E-02 0. -1.
        2   -1    0    0  501    0  0.00000000000E+00  0.00000000000E+00 -0.16791271119E+04  0.16791271119E+04  0.25500000920E-02 0.  1.
    10030    2    1    2    0    0  0.00000000000E+00  0.00000000000E+00 -0.14907573173E+03  0.32091784921E+04  0.32057141202E+04 0.  0.
        2    1    3    3  502    0 -0.43177711703E+03  0.11817636864E+04  0.91958811404E+03  0.15584091853E+04  0.25500000920E-02 0. -1.
       -2    1    3    3    0  502  0.43177711703E+03 -0.11817636864E+04 -0.10686638458E+04  0.16507693069E+04  0.25500000920E-02 0.  1.
</event>
<event>
 5   0  0.3080500E-08  0.3200496E+04  0.7818609E-02  0.8188686E-01
        3   -1    0    0  501    0  0.00000000000E+00  0.00000000000E+00  0.14418639849E+04  0.14418639884E+04  0.10100000352E+00 0.  1.
       -3   -1    0    0    0  501  0.00000000000E+00  0.00000000000E+00 -0.17760297348E+04  0.17760297376E+04  0.10100000352E+00 0. -1.
    10030    2    1    2    0    0  0.00000000000E+00  0.00000000000E+00 -0.33416574985E+03  0.32178937261E+04  0.32004957872E+04 0.  0.
        2    1    3    3  502    0 -0.13489994556E+04  0.85237069426E+02 -0.10283187481E+04  0.16983828593E+04  0.25500000920E-02 0. -1.
       -2    1    3    3    0  502  0.13489994556E+04 -0.85237069426E+02  0.69415299828E+03  0.15195108667E+04  0.25500000920E-02 0.  1.
</event>
<event>
 5   0  0.3343140E-08  0.3199840E+04  0.7818609E-02  0.8188859E-01
        1   -1    0    0  501    0  0.00000000000E+00  0.00000000000E+00  0.18979449419E+04  0.18979449419E+04  0.50400001928E-02 0. -1.
       -1   -1    0    0    0  501  0.00000000000E+00  0.00000000000E+00 -0.13486924259E+04  0.13486924259E+04  0.50400001928E-02 0.  1.
    10030    2    1    2    0    0  0.00000000000E+00  0.00000000000E+00  0.54925251599E+03  0.32466373678E+04  0.31998399759E+04 0.  0.
        1    1    3    3  502    0 -0.99204414758E+03  0.11662334421E+04 -0.19637387990E+03  0.15436368527E+04  0.50400001928E-02 0.  1.
       -1    1    3    3    0  502  0.99204414758E+03 -0.11662334421E+04  0.74562639590E+03  0.17030005151E+04  0.50400001928E-02 0. -1.
</event>
<event>
 5   0  0.9727083E-08  0.3199815E+04  0.7818609E-02  0.8188866E-01
        2   -1    0    0  501    0  0.00000000000E+00  0.00000000000E+00  0.14173042573E+04  0.14173042573E+04  0.25500000920E-02 0. -1.
       -2   -1    0    0    0  501  0.00000000000E+00  0.00000000000E+00 -0.18060366965E+04  0.18060366965E+04  0.25500000920E-02 0.  1.
    10030    2    1    2    0    0  0.00000000000E+00  0.00000000000E+00 -0.38873243915E+03  0.32233409538E+04  0.31998146814E+04 0.  0.
        4    1    3    3  502    0 -0.12816925576E+03  0.11439041015E+04  0.92500034954E+03  0.14766757298E+04  0.12699999809E+01 0. -1.
       -4    1    3    3    0  502  0.12816925576E+03 -0.11439041015E+04 -0.13137327887E+04  0.17466652239E+04  0.12699999809E+01 0.  1.
</event>
<event>
 5   0  0.3343140E-08  0.3200092E+04  0.7818609E-02  0.8188793E-01
       -1   -1    0    0    0  501  0.00000000000E+00  0.00000000000E+00  0.16918379709E+04  0.16918379709E+04  0.50400001928E-02 0. -1.
        1   -1    0    0  501    0  0.00000000000E+00  0.00000000000E+00 -0.15132340708E+04  0.15132340708E+04  0.50400001928E-02 0.  1.
    10030    2    1    2    0    0  0.00000000000E+00  0.00000000000E+00  0.17860390004E+03  0.32050720417E+04  0.32000917861E+04 0.  0.
        1    1    3    3  502    0  0.11484195212E+04 -0.16511052524E+03  0.11928415436E+04  0.16640311987E+04  0.50400001928E-02 0. -1.
       -1    1    3    3    0  502 -0.11484195212E+04  0.16511052524E+03 -0.10142376436E+04  0.15410408430E+04  0.50400001928E-02 0.  1.
</event>
<event>
 5   0  0.9727083E-08  0.3200790E+04  0.7818609E-02  0.8188609E-01
       -2   -1    0    0    0  501  0.00000000000E+00  0.00000000000E+00  0.16443770729E+04  0.16443770729E+04  0.25500000920E-02 0. -1.
        2   -1    0    0  501    0  0.00000000000E+00  0.00000000000E+00 -0.15575891560E+04  0.15575891560E+04  0.25500000920E-02 0.  1.
    10030    2    1    2    0    0  0.00000000000E+00  0.00000000000E+00  0.86787916942E+02  0.32019662289E+04  0.32007898382E+04 0.  0.
        4    1    3    3  502    0 -0.12339586716E+03 -0.39868806127E+03  0.15889807573E+04  0.16428755796E+04  0.12699999809E+01 0. -1.
       -4    1    3    3    0  502  0.12339586716E+03  0.39868806127E+03 -0.15021928403E+04  0.15590906493E+04  0.12699999809E+01 0.  1.
</event>
<event>
 5   0  0.9157524E-08  0.3205169E+04  0.7818609E-02  0.8187453E-01
        2   -1    0    0  501    0  0.00000000000E+00  0.00000000000E+00  0.15172999998E+04  0.15172999998E+04  0.25500000920E-02 0. -1.
       -2   -1    0    0    0  501  0.00000000000E+00  0.00000000000E+00 -0.16926627346E+04  0.16926627346E+04  0.25500000920E-02 0.  1.
    10030    2    1    2    0    0  0.00000000000E+00  0.00000000000E+00 -0.17536273482E+03  0.32099627344E+04  0.32051690545E+04 0.  0.
        5    1    3    3  502    0 -0.97970727346E+03 -0.73770103942E+03  0.94547477960E+03  0.15485392517E+04  0.46999998093E+01 0. -1.
       -5    1    3    3    0  502  0.97970727346E+03  0.73770103942E+03 -0.11208375144E+04  0.16614234827E+04  0.46999998093E+01 0.  1.
</event>
<event>
 5   0  0.3220147E-08  0.3199932E+04  0.7818609E-02  0.8188835E-01
       -1   -1    0    0    0  501  0.00000000000E+00  0.00000000000E+00  0.16490410876E+04  0.16490410876E+04  0.50400001928E-02 0.  1.
        1   -1    0    0  501    0  0.00000000000E+00  0.00000000000E+00 -0.15523515243E+04  0.15523515243E+04  0.50400001928E-02 0. -1.
    10030    2    1    2    0    0  0.00000000000E+00  0.00000000000E+00  0.96689563294E+02  0.32013926119E+04  0.31999321531E+04 0.  0.
        4    1    3    3  502    0  0.99646531056E+03  0.15451739857E+03 -0.11944262905E+04  0.15631617056E+04  0.12699999809E+01 0. -1.
       -4    1    3    3    0  502 -0.99646531056E+03 -0.15451739857E+03  0.12911158538E+04  0.16382309063E+04  0.12699999809E+01 0.  1.
</event>
<event>
 5   0  0.9157524E-08  0.3198256E+04  0.7818609E-02  0.8189278E-01
        2   -1    0    0  501    0  0.00000000000E+00  0.00000000000E+00  0.25402532967E+04  0.25402532967E+04  0.25500000920E-02 0. -1.
       -2   -1    0    0    0  501  0.00000000000E+00  0.00000000000E+00 -0.10066753205E+04  0.10066753205E+04  0.25500000920E-02 0.  1.
    10030    2    1    2    0    0  0.00000000000E+00  0.00000000000E+00  0.15335779761E+04  0.35469286172E+04  0.31982559633E+04 0.  0.
        5    1    3    3  502    0  0.11190598670E+04 -0.42488160914E+03 -0.40917394127E+03  0.12650157200E+04  0.46999998093E+01 0. -1.
       -5    1    3    3    0  502 -0.11190598670E+04  0.42488160914E+03  0.19427519174E+04  0.22819128972E+04  0.46999998093E+01 0.  1.
</event>
<event>
 5   0  0.3427667E-08  0.3199595E+04  0.7818609E-02  0.8188924E-01
        1   -1    0    0  501    0  0.00000000000E+00  0.00000000000E+00  0.26977505040E+04  0.26977505040E+04  0.50400001928E-02 0. -1.
       -1   -1    0    0    0  501  0.00000000000E+00  0.00000000000E+00 -0.94869885421E+03  0.94869885422E+03  0.50400001928E-02 0.  1.
    10030    2    1    2    0    0  0.00000000000E+00  0.00000000000E+00  0.17490516498E+04  0.36464493582E+04  0.31995954820E+04 0.  0.
        2    1    3    3  502    0  0.15870106345E+04 -0.11698930987E+03  0.10620112749E+04  0.19131537316E+04  0.25500000920E-02 0. -1.
       -2    1    3    3    0  502 -0.15870106345E+04  0.11698930987E+03  0.68704037490E+03  0.17332956267E+04  0.25500000920E-02 0.  1.
</event>
<event>
 5   0  0.9353994E-08  0.3199370E+04  0.7818609E-02  0.8188984E-01
        2   -1    0    0  501    0  0.00000000000E+00  0.00000000000E+00  0.20712113601E+04  0.20712113601E+04  0.25500000920E-02 0. -1.
       -2   -1    0    0    0  501  0.00000000000E+00  0.00000000000E+00 -0.12355048020E+04  0.12355048020E+04  0.25500000920E-02 0.  1.
    10030    2    1    2    0    0  0.00000000000E+00  0.00000000000E+00  0.83570655808E+03  0.33067161620E+04  0.31993696762E+04 0.  0.
        2    1    3    3  502    0  0.15295561126E+04  0.38754504801E+03  0.14585316717E+03  0.15846154777E+04  0.25500000920E-02 0.  1.
       -2    1    3    3    0  502 -0.15295561126E+04 -0.38754504801E+03  0.68985339091E+03  0.17221006843E+04  0.25500000920E-02 0. -1.
</event>
<event>
 5   0  0.3283581E-08  0.3199233E+04  0.7818609E-02  0.8189020E-01
       -1   -1    0    0    0  501  0.00000000000E+00  0.00000000000E+00  0.13758684795E+04  0.13758684795E+04  0.50400001928E-02 0.  1.
        1   -1    0    0  501    0  0.00000000000E+00  0.00000000000E+00 -0.18597512895E+04  0.18597512896E+04  0.50400001928E-02 0. -1.
    10030    2    1    2    0    0  0.00000000000E+00  0.00000000000E+00 -0.48388281001E+03  0.32356197691E+04  0.31992331450E+04 0.  0.
        5    1    3    3  502    0  0.11661594437E+04 -0.10339058612E+04  0.12252078873E+03  0.15633050283E+04  0.46999998093E+01 0.  1.
       -5    1    3    3    0  502 -0.11661594437E+04  0.10339058612E+04 -0.60640359874E+03  0.16723147408E+04  0.46999998093E+01 0. -1.
</event>
</LesHouchesEvents>
